
     Program PWSCF v.7.3 starts on  7Apr2024 at 11:22:42 

     This program is part of the open-source Quantum ESPRESSO suite
     for quantum simulation of materials; please cite
         "P. Giannozzi et al., J. Phys.:Condens. Matter 21 395502 (2009);
         "P. Giannozzi et al., J. Phys.:Condens. Matter 29 465901 (2017);
         "P. Giannozzi et al., J. Chem. Phys. 152 154105 (2020);
          URL http://www.quantum-espresso.org", 
     in publications or presentations arising from this work. More details at
     http://www.quantum-espresso.org/quote

     Parallel version (MPI & OpenMP), running on      36 processor cores
     Number of MPI processes:                36
     Threads/MPI process:                     1

     MPI processes distributed on     1 nodes
     554916 MiB available memory on the printing compute node when the environment starts
 
     Waiting for input...
     Reading input from standard input
Warning: card &CELL ignored
Warning: card / ignored

     Current dimensions of program PWSCF are:
     Max number of different atomic species (ntypx) = 10
     Max number of k-points (npk) =  40000
     Max angular momentum in pseudopotentials (lmaxx) =  4
     file Mo.pbe-spn-kjpaw_psl.1.0.0.UPF: wavefunction(s)  4S 4D renormalized
     file S.pbe-n-kjpaw_psl.1.0.0.UPF: wavefunction(s)  3S 3P renormalized
     file Pt.pbe-spfn-kjpaw_psl.1.0.0.UPF: wavefunction(s)  5P 4F renormalized
     file Pd.pbe-spn-kjpaw_psl.1.0.0.UPF: wavefunction(s)  4S 5S 4D renormalized
 
     R & G space division:  proc/nbgrp/npool/nimage =      36
     Subspace diagonalization in iterative solution of the eigenvalue problem:
     one sub-group per band group will be used
     scalapack distributed-memory algorithm (size of sub-group:  6*  6 procs)

 
     Parallelization info
     --------------------
     sticks:   dense  smooth     PW     G-vecs:    dense   smooth      PW
     Min         585     334     89               198743    85850   11735
     Max         586     335     90               198750    85861   11748
     Sum       21073   12049   3205              7154885  3090769  422587
 
     Using Slab Decomposition
 


     bravais-lattice index     =            0
     lattice parameter (alat)  =      23.8199  a.u.
     unit-cell volume          =   33861.0370 (a.u.)^3
     number of atoms/cell      =          195
     number of atomic types    =            4
     number of electrons       =      1746.00
     number of Kohn-Sham states=         1048
     kinetic-energy cutoff     =      77.0000  Ry
     charge density cutoff     =     539.0000  Ry
     scf convergence threshold =      1.0E-06
     mixing beta               =       0.2000
     number of iterations used =            8  plain     mixing
     energy convergence thresh.=      1.0E-04
     force convergence thresh. =      1.0E-03
     Exchange-correlation= SLA  PW   PBX  PBC
                           (   1   4   3   4   0   0   0)
     nstep                     =         1000


     Effective Screening Medium Method
     =================================
     Boundary Conditions: Vacuum-Slab-Vacuum
     total charge in unit cell        =   0.0000
     grid points for fit at edges     =        4 
 

     celldm(1)=  23.819920  celldm(2)=   0.000000  celldm(3)=   0.000000
     celldm(4)=   0.000000  celldm(5)=   0.000000  celldm(6)=   0.000000

     crystal axes: (cart. coord. in units of alat)
               a(1) = (   1.000000   0.000000   0.000000 )  
               a(2) = (  -0.499999   0.866026   0.000000 )  
               a(3) = (   0.000000   0.000000   2.893000 )  

     reciprocal axes: (cart. coord. in units 2 pi/alat)
               b(1) = (  1.000000  0.577349  0.000000 )  
               b(2) = (  0.000000  1.154700  0.000000 )  
               b(3) = (  0.000000  0.000000  0.345662 )  


     PseudoPot. # 1 for Mo read from file:
     ./pseudo/Mo.pbe-spn-kjpaw_psl.1.0.0.UPF
     MD5 check sum: 317bf72632116215fd98f72de1686f13
     Pseudo is Projector augmented-wave + core cor, Zval = 14.0
     Generated using 'atomic' code by A. Dal Corso  v.7.2
     Shape of augmentation charge: PSQ
     Using radial grid of 1229 points,  6 beta functions with: 
                l(1) =   0
                l(2) =   0
                l(3) =   1
                l(4) =   1
                l(5) =   2
                l(6) =   2
     Q(r) pseudized with 0 coefficients 


     PseudoPot. # 2 for S  read from file:
     ./pseudo/S.pbe-n-kjpaw_psl.1.0.0.UPF
     MD5 check sum: 8b7b5302570d38d5e87fed6a1065abda
     Pseudo is Projector augmented-wave + core cor, Zval =  6.0
     Generated using 'atomic' code by A. Dal Corso  v.7.2
     Shape of augmentation charge: PSQ
     Using radial grid of 1151 points,  6 beta functions with: 
                l(1) =   0
                l(2) =   0
                l(3) =   1
                l(4) =   1
                l(5) =   2
                l(6) =   2
     Q(r) pseudized with 0 coefficients 


     PseudoPot. # 3 for Pt read from file:
     ./pseudo/Pt.pbe-spfn-kjpaw_psl.1.0.0.UPF
     MD5 check sum: 620096ebf4e6ebacc94de60fd67efcb5
     Pseudo is Projector augmented-wave + core cor, Zval = 32.0
     Generated using 'atomic' code by A. Dal Corso  v.7.2
     Shape of augmentation charge: PSQ
     Using radial grid of 1277 points,  8 beta functions with: 
                l(1) =   0
                l(2) =   0
                l(3) =   1
                l(4) =   1
                l(5) =   2
                l(6) =   2
                l(7) =   3
                l(8) =   3
     Q(r) pseudized with 0 coefficients 


     PseudoPot. # 4 for Pd read from file:
     ./pseudo/Pd.pbe-spn-kjpaw_psl.1.0.0.UPF
     MD5 check sum: a60571a671f2502b8a6a4569d20a6edb
     Pseudo is Projector augmented-wave + core cor, Zval = 18.0
     Generated using 'atomic' code by A. Dal Corso  v.7.2
     Shape of augmentation charge: PSQ
     Using radial grid of 1235 points,  6 beta functions with: 
                l(1) =   0
                l(2) =   0
                l(3) =   1
                l(4) =   1
                l(5) =   2
                l(6) =   2
     Q(r) pseudized with 0 coefficients 


     atomic species   valence    mass     pseudopotential
     Mo               14.00    95.95000     Mo( 1.00)
     S                 6.00    32.06000     S ( 1.00)
     Pt               32.00   195.08400     Pt( 1.00)
     Pd               18.00   106.42000     Pd( 1.00)

     No symmetry found



   Cartesian axes

     site n.     atom                  positions (alat units)
         1        Mo     tau(   1) = (   0.0000010   0.1443372  -0.7272732  )
         2        Mo     tau(   2) = (   0.1249995   0.0721706  -0.2424038  )
         3        S      tau(   3) = (   0.0000015   0.1443386  -0.3667807  )
         4        S      tau(   4) = (   0.1250010   0.0721682  -0.6030489  )
         5        S      tau(   5) = (   0.1250010   0.0721683  -0.8514963  )
         6        S      tau(   6) = (   0.0000015   0.1443389  -0.1180260  )
         7        Mo     tau(   7) = (   0.0000005   0.1443381   0.2424561  )
         8        Mo     tau(   8) = (   0.1251981   0.0716023   0.7276027  )
         9        S      tau(   9) = (  -0.0003031   0.1454842   0.6052312  )
        10        S      tau(  10) = (   0.1249558   0.0721599   0.3668208  )
        11        S      tau(  11) = (   0.1250088   0.0721517   0.1180857  )
        12        S      tau(  12) = (  -0.0004157   0.1382876   0.8564685  )
        13        Mo     tau(  13) = (  -0.1249989   0.3608437  -0.7272732  )
        14        Mo     tau(  14) = (   0.0000030   0.2886752  -0.2424042  )
        15        S      tau(  15) = (  -0.1249977   0.3608450  -0.3667802  )
        16        S      tau(  16) = (   0.0000012   0.2886747  -0.6030489  )
        17        S      tau(  17) = (   0.0000012   0.2886748  -0.8514963  )
        18        S      tau(  18) = (  -0.1249977   0.3608454  -0.1180274  )
        19        Mo     tau(  19) = (  -0.1249623   0.3608201   0.2425155  )
        20        Mo     tau(  20) = (  -0.0007801   0.2872696   0.7308518  )
        21        S      tau(  21) = (  -0.1240398   0.3604107   0.6055268  )
        22        S      tau(  22) = (   0.0000411   0.2886546   0.3669163  )
        23        S      tau(  23) = (   0.0000035   0.2886726   0.1180964  )
        24        S      tau(  24) = (  -0.1315418   0.3638985   0.8543850  )
        25        Mo     tau(  25) = (  -0.2499987   0.5773502  -0.7272732  )
        26        Mo     tau(  26) = (  -0.1249977   0.5051839  -0.2424055  )
        27        S      tau(  27) = (  -0.2499981   0.5773518  -0.3667809  )
        28        S      tau(  28) = (  -0.1249986   0.5051812  -0.6030489  )
        29        S      tau(  29) = (  -0.1249986   0.5051813  -0.8514963  )
        30        S      tau(  30) = (  -0.2499979   0.5773512  -0.1180266  )
        31        Mo     tau(  31) = (  -0.2499787   0.5773156   0.2425145  )
        32        Mo     tau(  32) = (  -0.1271807   0.5060660   0.7281741  )
        33        S      tau(  33) = (  -0.2502658   0.5775034   0.6017985  )
        34        S      tau(  34) = (  -0.1249543   0.5051367   0.3669386  )
        35        S      tau(  35) = (  -0.1249864   0.5051552   0.1181399  )
        36        S      tau(  36) = (  -0.2525628   0.5785576   0.8514793  )
        37        Mo     tau(  37) = (  -0.3749985   0.7938567  -0.7272732  )
        38        Mo     tau(  38) = (  -0.2500001   0.7216874  -0.2424031  )
        39        S      tau(  39) = (  -0.3749980   0.7938584  -0.3667800  )
        40        S      tau(  40) = (  -0.2499984   0.7216877  -0.6030489  )
        41        S      tau(  41) = (  -0.2499984   0.7216878  -0.8514963  )
        42        S      tau(  42) = (  -0.3749982   0.7938585  -0.1180264  )
        43        Mo     tau(  43) = (  -0.3750043   0.7938372   0.2424536  )
        44        Mo     tau(  44) = (  -0.2503619   0.7218808   0.7263407  )
        45        S      tau(  45) = (  -0.3755748   0.7941519   0.6023691  )
        46        S      tau(  46) = (  -0.2500067   0.7216811   0.3668312  )
        47        S      tau(  47) = (  -0.2499793   0.7216445   0.1181126  )
        48        S      tau(  48) = (  -0.3746959   0.7932047   0.8515893  )
        49        Mo     tau(  49) = (   0.2500010   0.1443372  -0.7272732  )
        50        Mo     tau(  50) = (   0.3750034   0.0721723  -0.2424032  )
        51        S      tau(  51) = (   0.2500017   0.1443391  -0.3667788  )
        52        S      tau(  52) = (   0.3750010   0.0721682  -0.6030489  )
        53        S      tau(  53) = (   0.3750010   0.0721683  -0.8514963  )
        54        S      tau(  54) = (   0.2500016   0.1443391  -0.1180271  )
        55        Mo     tau(  55) = (   0.2500033   0.1443124   0.2424881  )
        56        Mo     tau(  56) = (   0.3752595   0.0716472   0.7255395  )
        57        S      tau(  57) = (   0.2498544   0.1431280   0.6011361  )
        58        S      tau(  58) = (   0.3750516   0.0721435   0.3668117  )
        59        S      tau(  59) = (   0.3750079   0.0721203   0.1180977  )
        60        S      tau(  60) = (   0.2517312   0.1427646   0.8506906  )
        61        Mo     tau(  61) = (   0.1250012   0.3608437  -0.7272732  )
        62        Mo     tau(  62) = (   0.2500029   0.2886782  -0.2424031  )
        63        S      tau(  63) = (   0.1250024   0.3608455  -0.3667794  )
        64        S      tau(  64) = (   0.2500012   0.2886747  -0.6030489  )
        65        S      tau(  65) = (   0.2500012   0.2886748  -0.8514963  )
        66        S      tau(  66) = (   0.1250021   0.3608455  -0.1180270  )
        67        Mo     tau(  67) = (   0.1249995   0.3608273   0.2424838  )
        68        Mo     tau(  68) = (   0.2535704   0.2866116   0.7259154  )
        69        S      tau(  69) = (   0.1241106   0.3617788   0.6079553  )
        70        S      tau(  70) = (   0.2499752   0.2886689   0.3668869  )
        71        S      tau(  71) = (   0.2500098   0.2886475   0.1181123  )
        72        S      tau(  72) = (   0.1336503   0.3523048   0.8541313  )
        73        Mo     tau(  73) = (   0.0000014   0.5773502  -0.7272732  )
        74        Mo     tau(  74) = (   0.1250045   0.5051840  -0.2424036  )
        75        S      tau(  75) = (   0.0000030   0.5773520  -0.3667799  )
        76        S      tau(  76) = (   0.1250014   0.5051812  -0.6030489  )
        77        S      tau(  77) = (   0.1250014   0.5051813  -0.8514963  )
        78        S      tau(  78) = (   0.0000026   0.5773517  -0.1180274  )
        79        Mo     tau(  79) = (   0.0000276   0.5772927   0.2425177  )
        80        Mo     tau(  80) = (   0.1255270   0.5059369   0.7313762  )
        81        S      tau(  81) = (   0.0011816   0.5764663   0.6064450  )
        82        S      tau(  82) = (   0.1250222   0.5051261   0.3669341  )
        83        S      tau(  83) = (   0.1249880   0.5051467   0.1180950  )
        84        S      tau(  84) = (  -0.0088763   0.5830479   0.8565830  )
        85        Mo     tau(  85) = (  -0.1249984   0.7938567  -0.7272732  )
        86        Mo     tau(  86) = (   0.0000069   0.7216896  -0.2424039  )
        87        S      tau(  87) = (  -0.1249975   0.7938582  -0.3667782  )
        88        S      tau(  88) = (   0.0000016   0.7216877  -0.6030489  )
        89        S      tau(  89) = (   0.0000016   0.7216878  -0.8514963  )
        90        S      tau(  90) = (  -0.1249973   0.7938582  -0.1180279  )
        91        Mo     tau(  91) = (  -0.1249699   0.7938095   0.2424907  )
        92        Mo     tau(  92) = (  -0.0004895   0.7231014   0.7275053  )
        93        S      tau(  93) = (  -0.1248847   0.7932555   0.6014963  )
        94        S      tau(  94) = (   0.0000405   0.7216116   0.3668908  )
        95        S      tau(  95) = (   0.0000242   0.7216332   0.1181249  )
        96        S      tau(  96) = (  -0.1259194   0.7949777   0.8510667  )
        97        Mo     tau(  97) = (   0.5000010   0.1443372  -0.7272732  )
        98        Mo     tau(  98) = (   0.6250001   0.0721662  -0.2424040  )
        99        S      tau(  99) = (   0.5000017   0.1443386  -0.3667801  )
       100        S      tau( 100) = (   0.6250010   0.0721682  -0.6030489  )
       101        S      tau( 101) = (   0.6250010   0.0721683  -0.8514963  )
       102        S      tau( 102) = (   0.5000020   0.1443388  -0.1180261  )
       103        Mo     tau( 103) = (   0.5000355   0.1442968   0.2424343  )
       104        Mo     tau( 104) = (   0.6251054   0.0720760   0.7269638  )
       105        S      tau( 105) = (   0.5007812   0.1439212   0.6015111  )
       106        S      tau( 106) = (   0.6250309   0.0721295   0.3668346  )
       107        S      tau( 107) = (   0.6250410   0.0721183   0.1180973  )
       108        S      tau( 108) = (   0.4998652   0.1442971   0.8504179  )
       109        Mo     tau( 109) = (   0.3750012   0.3608437  -0.7272732  )
       110        Mo     tau( 110) = (   0.4999991   0.2886761  -0.2424038  )
       111        S      tau( 111) = (   0.3750012   0.3608452  -0.3667804  )
       112        S      tau( 112) = (   0.5000012   0.2886747  -0.6030489  )
       113        S      tau( 113) = (   0.5000012   0.2886748  -0.8514963  )
       114        S      tau( 114) = (   0.3750014   0.3608455  -0.1180261  )
       115        Mo     tau( 115) = (   0.3749988   0.3608207   0.2424913  )
       116        Mo     tau( 116) = (   0.5005676   0.2886014   0.7258090  )
       117        S      tau( 117) = (   0.3761076   0.3615161   0.6013079  )
       118        S      tau( 118) = (   0.5000282   0.2886169   0.3668001  )
       119        S      tau( 119) = (   0.5000158   0.2886613   0.1180928  )
       120        S      tau( 120) = (   0.3768791   0.3600665   0.8508100  )
       121        Mo     tau( 121) = (   0.2500014   0.5773502  -0.7272732  )
       122        Mo     tau( 122) = (   0.3749983   0.5051825  -0.2424043  )
       123        S      tau( 123) = (   0.2500017   0.5773519  -0.3667810  )
       124        S      tau( 124) = (   0.3750014   0.5051812  -0.6030489  )
       125        S      tau( 125) = (   0.3750014   0.5051813  -0.8514963  )
       126        S      tau( 126) = (   0.2500018   0.5773519  -0.1180256  )
       127        Mo     tau( 127) = (   0.2499755   0.5773110   0.2424609  )
       128        Mo     tau( 128) = (   0.3758691   0.5051374   0.7277779  )
       129        S      tau( 129) = (   0.2483182   0.5768077   0.6062789  )
       130        S      tau( 130) = (   0.3749464   0.5051844   0.3668408  )
       131        S      tau( 131) = (   0.3749944   0.5051486   0.1180923  )
       132        S      tau( 132) = (   0.2574557   0.5818559   0.8585037  )
       133        Mo     tau( 133) = (   0.1250016   0.7938567  -0.7272732  )
       134        Mo     tau( 134) = (   0.2499995   0.7216883  -0.2424036  )
       135        S      tau( 135) = (   0.1250024   0.7938578  -0.3667813  )
       136        S      tau( 136) = (   0.2500016   0.7216877  -0.6030489  )
       137        S      tau( 137) = (   0.2500016   0.7216878  -0.8514963  )
       138        S      tau( 138) = (   0.1250024   0.7938579  -0.1180253  )
       139        Mo     tau( 139) = (   0.1250229   0.7938069   0.2425006  )
       140        Mo     tau( 140) = (   0.2504358   0.7224862   0.7284223  )
       141        S      tau( 141) = (   0.1254429   0.7935457   0.6029055  )
       142        S      tau( 142) = (   0.2500049   0.7216116   0.3668842  )
       143        S      tau( 143) = (   0.2500022   0.7216616   0.1181021  )
       144        S      tau( 144) = (   0.1246626   0.7944127   0.8519137  )
       145        Mo     tau( 145) = (   0.7500010   0.1443372  -0.7272732  )
       146        Mo     tau( 146) = (   0.8750038   0.0721696  -0.2424038  )
       147        S      tau( 147) = (   0.7500016   0.1443382  -0.3667789  )
       148        S      tau( 148) = (   0.8750010   0.0721682  -0.6030489  )
       149        S      tau( 149) = (   0.8750010   0.0721683  -0.8514963  )
       150        S      tau( 150) = (   0.7500016   0.1443384  -0.1180279  )
       151        Mo     tau( 151) = (   0.7500289   0.1443141   0.2424936  )
       152        Mo     tau( 152) = (   0.8748115   0.0715393   0.7280420  )
       153        S      tau( 153) = (   0.7503587   0.1440662   0.6027403  )
       154        S      tau( 154) = (   0.8750369   0.0721618   0.3668742  )
       155        S      tau( 155) = (   0.8750002   0.0721408   0.1181001  )
       156        S      tau( 156) = (   0.7494385   0.1444101   0.8516821  )
       157        Mo     tau( 157) = (   0.6250012   0.3608437  -0.7272732  )
       158        Mo     tau( 158) = (   0.7500028   0.2886769  -0.2424041  )
       159        S      tau( 159) = (   0.6250015   0.3608451  -0.3667792  )
       160        S      tau( 160) = (   0.7500012   0.2886747  -0.6030489  )
       161        S      tau( 161) = (   0.7500012   0.2886748  -0.8514963  )
       162        S      tau( 162) = (   0.6250016   0.3608454  -0.1180280  )
       163        Mo     tau( 163) = (   0.6250302   0.3608127   0.2424760  )
       164        Mo     tau( 164) = (   0.7487590   0.2885376   0.7272130  )
       165        S      tau( 165) = (   0.6254237   0.3608917   0.6015174  )
       166        S      tau( 166) = (   0.7500486   0.2886525   0.3668797  )
       167        S      tau( 167) = (   0.7500385   0.2886557   0.1181169  )
       168        S      tau( 168) = (   0.6239430   0.3610912   0.8510113  )
       169        Mo     tau( 169) = (   0.5000014   0.5773502  -0.7272732  )
       170        Mo     tau( 170) = (   0.6250029   0.5051841  -0.2424047  )
       171        S      tau( 171) = (   0.5000014   0.5773518  -0.3667794  )
       172        S      tau( 172) = (   0.6250014   0.5051812  -0.6030489  )
       173        S      tau( 173) = (   0.6250014   0.5051813  -0.8514963  )
       174        S      tau( 174) = (   0.5000016   0.5773516  -0.1180277  )
       175        Mo     tau( 175) = (   0.4999859   0.5773250   0.2424709  )
       176        Mo     tau( 176) = (   0.6245890   0.5053660   0.7261562  )
       177        S      tau( 177) = (   0.4993068   0.5776651   0.6022414  )
       178        S      tau( 178) = (   0.6249823   0.5051501   0.3668388  )
       179        S      tau( 179) = (   0.6250205   0.5051637   0.1181147  )
       180        S      tau( 180) = (   0.5009766   0.5773609   0.8515797  )
       181        Mo     tau( 181) = (   0.3750016   0.7938567  -0.7272732  )
       182        Mo     tau( 182) = (   0.5000025   0.7216901  -0.2424039  )
       183        S      tau( 183) = (   0.3750019   0.7938578  -0.3667793  )
       184        S      tau( 184) = (   0.5000016   0.7216877  -0.6030489  )
       185        S      tau( 185) = (   0.5000016   0.7216878  -0.8514963  )
       186        S      tau( 186) = (   0.3750020   0.7938579  -0.1180272  )
       187        Mo     tau( 187) = (   0.3749951   0.7938323   0.2424893  )
       188        Mo     tau( 188) = (   0.4998599   0.7217391   0.7271366  )
       189        S      tau( 189) = (   0.3746033   0.7939741   0.6029663  )
       190        S      tau( 190) = (   0.4999946   0.7216688   0.3668260  )
       191        S      tau( 191) = (   0.4999891   0.7216628   0.1180901  )
       192        S      tau( 192) = (   0.3755955   0.7938624   0.8526444  )
       193        Pt     tau( 193) = (   0.1194898   0.4990527   0.9549993  )
       194        Pd     tau( 194) = (   0.0026419   0.2990244   0.9662205  )
       195        Pt     tau( 195) = (   0.1194768   0.4990893   1.1454222  )

     --------------------------------------------
     DFT-D3 Dispersion Correction (3-body terms):
     --------------------------------------------
       Reference C6 values for interpolation: 

         atom   Coordination number   C6
         S          0.000           268.01
         S          0.995           261.99
         S          1.990           251.62
         Mo         0.000          1691.79
         Mo         1.942          1004.01
         Mo        11.056           674.22
         Pd         0.000          1217.01
         Pd         1.863           573.90
         Pd         5.710           531.75
         Pt         0.000           782.29
         Pt         1.919           692.72
         Pt         6.667           673.75

       Values used:

         atom   Coordination number  R0_AB[au]  C6      C8
         Mo        10.208            3.547    674.21  77634.20
         Mo        10.221            3.547    674.22  77634.20
         S          3.858            3.128    251.62  12327.25
         S          3.859            3.128    251.62  12327.25
         S          3.758            3.128    251.62  12327.25
         S          3.859            3.128    251.62  12327.25
         Mo        10.221            3.547    674.22  77634.20
         Mo        10.228            3.547    674.22  77634.20
         S          3.849            3.128    251.62  12327.25
         S          3.859            3.128    251.62  12327.25
         S          3.859            3.128    251.62  12327.25
         S          4.621            3.128    251.62  12327.25
         Mo        10.208            3.547    674.22  77634.20
         Mo        10.221            3.547    674.22  77634.20
         S          3.858            3.128    251.62  12327.25
         S          3.859            3.128    251.62  12327.25
         S          3.758            3.128    251.62  12327.25
         S          3.859            3.128    251.62  12327.25
         Mo        10.222            3.547    674.22  77634.20
         Mo        10.722            3.547    674.22  77634.20
         S          3.862            3.128    251.62  12327.25
         S          3.850            3.128    251.62  12327.25
         S          3.859            3.128    251.62  12327.25
         S          4.669            3.128    251.62  12327.25
         Mo        10.208            3.547    674.22  77634.20
         Mo        10.221            3.547    674.22  77634.20
         S          3.858            3.128    251.62  12327.25
         S          3.859            3.128    251.62  12327.25
         S          3.758            3.128    251.62  12327.25
         S          3.859            3.128    251.62  12327.25
         Mo        10.220            3.547    674.22  77634.20
         Mo        10.171            3.547    674.22  77634.20
         S          3.842            3.128    251.62  12327.25
         S          3.853            3.128    251.62  12327.25
         S          3.859            3.128    251.62  12327.25
         S          3.843            3.128    251.62  12327.25
         Mo        10.208            3.547    674.21  77634.20
         Mo        10.220            3.547    674.22  77634.20
         S          3.858            3.128    251.62  12327.25
         S          3.859            3.128    251.62  12327.25
         S          3.758            3.128    251.62  12327.25
         S          3.859            3.128    251.62  12327.25
         Mo        10.220            3.547    674.22  77634.20
         Mo        10.260            3.547    674.22  77634.20
         S          3.856            3.128    251.62  12327.25
         S          3.861            3.128    251.62  12327.25
         S          3.859            3.128    251.62  12327.25
         S          3.808            3.128    251.62  12327.25
         Mo        10.208            3.547    674.22  77634.20
         Mo        10.221            3.547    674.21  77634.20
         S          3.858            3.128    251.62  12327.25
         S          3.859            3.128    251.62  12327.25
         S          3.758            3.128    251.62  12327.25
         S          3.859            3.128    251.62  12327.25
         Mo        10.220            3.547    674.21  77634.20
         Mo        10.278            3.547    674.22  77634.20
         S          3.837            3.128    251.62  12327.25
         S          3.863            3.128    251.62  12327.25
         S          3.859            3.128    251.62  12327.25
         S          3.842            3.128    251.62  12327.25
         Mo        10.208            3.547    674.22  77634.20
         Mo        10.221            3.547    674.22  77634.20
         S          3.858            3.128    251.62  12327.25
         S          3.859            3.128    251.62  12327.25
         S          3.758            3.128    251.62  12327.25
         S          3.859            3.128    251.62  12327.25
         Mo        10.222            3.547    674.22  77634.20
         Mo        10.177            3.547    674.22  77634.20
         S          3.873            3.128    251.62  12327.25
         S          3.855            3.128    251.62  12327.25
         S          3.859            3.128    251.62  12327.25
         S          5.650            3.128    251.62  12327.25
         Mo        10.208            3.547    674.21  77634.20
         Mo        10.221            3.547    674.22  77634.20
         S          3.858            3.128    251.62  12327.25
         S          3.859            3.128    251.62  12327.25
         S          3.758            3.128    251.62  12327.25
         S          3.859            3.128    251.62  12327.25
         Mo        10.222            3.547    674.22  77634.20
         Mo        10.868            3.547    674.22  77634.20
         S          3.860            3.128    251.62  12327.25
         S          3.850            3.128    251.62  12327.25
         S          3.859            3.128    251.62  12327.25
         S          4.679            3.128    251.62  12327.25
         Mo        10.208            3.547    674.22  77634.20
         Mo        10.221            3.547    674.22  77634.20
         S          3.858            3.128    251.62  12327.25
         S          3.859            3.128    251.62  12327.25
         S          3.758            3.128    251.62  12327.25
         S          3.859            3.128    251.62  12327.25
         Mo        10.220            3.547    674.22  77634.20
         Mo        10.215            3.547    674.22  77634.20
         S          3.850            3.128    251.62  12327.25
         S          3.856            3.128    251.62  12327.25
         S          3.859            3.128    251.62  12327.25
         S          3.827            3.128    251.62  12327.25
         Mo        10.208            3.547    674.22  77634.20
         Mo        10.221            3.547    674.22  77634.20
         S          3.858            3.128    251.62  12327.25
         S          3.859            3.128    251.62  12327.25
         S          3.758            3.128    251.62  12327.25
         S          3.859            3.128    251.62  12327.25
         Mo        10.220            3.547    674.22  77634.20
         Mo        10.250            3.547    674.22  77634.20
         S          3.856            3.128    251.62  12327.25
         S          3.861            3.128    251.62  12327.25
         S          3.859            3.128    251.62  12327.25
         S          3.790            3.128    251.62  12327.25
         Mo        10.208            3.547    674.22  77634.20
         Mo        10.221            3.547    674.22  77634.20
         S          3.858            3.128    251.62  12327.25
         S          3.859            3.128    251.62  12327.25
         S          3.758            3.128    251.62  12327.25
         S          3.859            3.128    251.62  12327.25
         Mo        10.220            3.547    674.22  77634.20
         Mo        10.277            3.547    674.22  77634.20
         S          3.839            3.128    251.62  12327.25
         S          3.863            3.128    251.62  12327.25
         S          3.859            3.128    251.62  12327.25
         S          3.819            3.128    251.62  12327.25
         Mo        10.208            3.547    674.22  77634.20
         Mo        10.221            3.547    674.22  77634.20
         S          3.858            3.128    251.62  12327.25
         S          3.859            3.128    251.62  12327.25
         S          3.758            3.128    251.62  12327.25
         S          3.859            3.128    251.62  12327.25
         Mo        10.222            3.547    674.22  77634.20
         Mo        10.220            3.547    674.22  77634.20
         S          3.851            3.128    251.62  12327.25
         S          3.858            3.128    251.62  12327.25
         S          3.859            3.128    251.62  12327.25
         S          4.649            3.128    251.62  12327.25
         Mo        10.208            3.547    674.22  77634.20
         Mo        10.221            3.547    674.22  77634.20
         S          3.858            3.128    251.62  12327.25
         S          3.859            3.128    251.62  12327.25
         S          3.758            3.128    251.62  12327.25
         S          3.859            3.128    251.62  12327.25
         Mo        10.221            3.547    674.22  77634.20
         Mo        10.226            3.547    674.22  77634.20
         S          3.863            3.128    251.62  12327.25
         S          3.856            3.128    251.62  12327.25
         S          3.859            3.128    251.62  12327.25
         S          3.765            3.128    251.62  12327.25
         Mo        10.208            3.547    674.22  77634.20
         Mo        10.221            3.547    674.22  77634.20
         S          3.858            3.128    251.62  12327.25
         S          3.859            3.128    251.62  12327.25
         S          3.758            3.128    251.62  12327.25
         S          3.859            3.128    251.62  12327.25
         Mo        10.221            3.547    674.22  77634.20
         Mo        10.241            3.547    674.22  77634.20
         S          3.864            3.128    251.62  12327.25
         S          3.857            3.128    251.62  12327.25
         S          3.859            3.128    251.62  12327.25
         S          3.767            3.128    251.62  12327.25
         Mo        10.208            3.547    674.22  77634.20
         Mo        10.220            3.547    674.21  77634.20
         S          3.858            3.128    251.62  12327.25
         S          3.859            3.128    251.62  12327.25
         S          3.758            3.128    251.62  12327.25
         S          3.859            3.128    251.62  12327.25
         Mo        10.220            3.547    674.22  77634.20
         Mo        10.226            3.547    674.22  77634.20
         S          3.854            3.128    251.62  12327.25
         S          3.857            3.128    251.62  12327.25
         S          3.859            3.128    251.62  12327.25
         S          3.809            3.128    251.62  12327.25
         Mo        10.208            3.547    674.22  77634.20
         Mo        10.221            3.547    674.22  77634.20
         S          3.858            3.128    251.62  12327.25
         S          3.859            3.128    251.62  12327.25
         S          3.758            3.128    251.62  12327.25
         S          3.859            3.128    251.62  12327.25
         Mo        10.220            3.547    674.22  77634.20
         Mo        10.267            3.547    674.22  77634.20
         S          3.853            3.128    251.62  12327.25
         S          3.861            3.128    251.62  12327.25
         S          3.859            3.128    251.62  12327.25
         S          3.821            3.128    251.62  12327.25
         Mo        10.208            3.547    674.22  77634.20
         Mo        10.221            3.547    674.21  77634.20
         S          3.858            3.128    251.62  12327.25
         S          3.859            3.128    251.62  12327.25
         S          3.758            3.128    251.62  12327.25
         S          3.859            3.128    251.62  12327.25
         Mo        10.221            3.547    674.22  77634.20
         Mo        10.250            3.547    674.22  77634.20
         S          3.853            3.128    251.62  12327.25
         S          3.860            3.128    251.62  12327.25
         S          3.859            3.128    251.62  12327.25
         S          3.823            3.128    251.62  12327.25
         Pt         5.441            3.168    673.75  70061.90
         Pd         4.150            3.168    531.75  48720.78
         Pt         1.050            3.168    709.47  73776.92

         Molecular C6 ( Ry / a.u.^6 ) =  14176642.25


     number of k points=     4  Gaussian smearing, width (Ry)=  0.0100
                       cart. coord. in units 2pi/alat
        k(    1) = (   0.0000000   0.0000000   0.0000000), wk =   0.5000000
        k(    2) = (   0.0000000  -0.5773499   0.0000000), wk =   0.5000000
        k(    3) = (  -0.5000000  -0.2886744   0.0000000), wk =   0.5000000
        k(    4) = (  -0.5000000  -0.8660242   0.0000000), wk =   0.5000000

     Dense  grid:  7154885 G-vectors     FFT dimensions: ( 180, 180, 512)

     Smooth grid:  3090769 G-vectors     FFT dimensions: ( 135, 135, 400)

     Estimated max dynamical RAM per process >       4.33 GB

     Estimated total dynamical RAM >     155.86 GB

     Initial potential from superposition of free atoms

     starting charge    1745.9388, renormalised to    1746.0000

     negative rho (up, down):  7.460E-04 0.000E+00
     Starting wfcs are 1196 randomized atomic wfcs
     Checking if some PAW data can be deallocated... 

     total cpu time spent up to now is      180.5 secs

     Self-consistent Calculation

     iteration #  1     ecut=    77.00 Ry     beta= 0.20
     Davidson diagonalization with overlap
     ethr =  1.00E-02,  avg # of iterations =  2.0

     Threshold (ethr) on eigenvalues was too large:
     Diagonalizing with lowered threshold

     Davidson diagonalization with overlap
     ethr =  1.89E-04,  avg # of iterations = 17.0

     negative rho (up, down):  1.906E-04 0.000E+00

     total cpu time spent up to now is     2144.8 secs

     total energy              =  -35654.69604569 Ry
     estimated scf accuracy    <       6.35833503 Ry

     iteration #  2     ecut=    77.00 Ry     beta= 0.20
     Davidson diagonalization with overlap
     ethr =  3.64E-04,  avg # of iterations =  5.8

     negative rho (up, down):  1.902E-04 0.000E+00

     total cpu time spent up to now is     2576.6 secs

     total energy              =  -35651.68432244 Ry
     estimated scf accuracy    <      61.56832044 Ry

     iteration #  3     ecut=    77.00 Ry     beta= 0.20
     Davidson diagonalization with overlap
     ethr =  3.64E-04,  avg # of iterations =  7.5

     negative rho (up, down):  2.012E-04 0.000E+00

     total cpu time spent up to now is     3015.9 secs

     total energy              =  -35652.16452992 Ry
     estimated scf accuracy    <      70.04865783 Ry

     iteration #  4     ecut=    77.00 Ry     beta= 0.20
     Davidson diagonalization with overlap
     ethr =  3.64E-04,  avg # of iterations =  2.2

     negative rho (up, down):  3.593E-05 0.000E+00

     total cpu time spent up to now is     3407.1 secs

     total energy              =  -35654.04364203 Ry
     estimated scf accuracy    <       3.65492970 Ry

     iteration #  5     ecut=    77.00 Ry     beta= 0.20
     Davidson diagonalization with overlap
     ethr =  2.09E-04,  avg # of iterations = 11.2

     negative rho (up, down):  1.780E-05 0.000E+00

     total cpu time spent up to now is     3866.5 secs

     total energy              =  -35654.04591223 Ry
     estimated scf accuracy    <       1.68550391 Ry

     iteration #  6     ecut=    77.00 Ry     beta= 0.20
     Davidson diagonalization with overlap
     ethr =  9.65E-05,  avg # of iterations = 10.8

     negative rho (up, down):  2.067E-05 0.000E+00

     total cpu time spent up to now is     4528.8 secs

     total energy              =  -35654.56576978 Ry
     estimated scf accuracy    <       1.78715358 Ry

     iteration #  7     ecut=    77.00 Ry     beta= 0.20
     Davidson diagonalization with overlap
     ethr =  9.65E-05,  avg # of iterations =  1.8

     negative rho (up, down):  2.968E-05 0.000E+00

     total cpu time spent up to now is     4933.1 secs

     total energy              =  -35654.58728778 Ry
     estimated scf accuracy    <       0.85312060 Ry

     iteration #  8     ecut=    77.00 Ry     beta= 0.20
     Davidson diagonalization with overlap
     c_bands:  3 eigenvalues not converged
     ethr =  4.89E-05,  avg # of iterations = 14.2

     negative rho (up, down):  4.566E-05 0.000E+00

     total cpu time spent up to now is     5460.4 secs

     total energy              =  -35654.60316135 Ry
     estimated scf accuracy    <       0.53564287 Ry

     iteration #  9     ecut=    77.00 Ry     beta= 0.20
     Davidson diagonalization with overlap
     c_bands:  2 eigenvalues not converged
     ethr =  3.07E-05,  avg # of iterations = 15.8

     negative rho (up, down):  6.635E-05 0.000E+00

     total cpu time spent up to now is     6037.2 secs

     total energy              =  -35654.67672487 Ry
     estimated scf accuracy    <       0.11610271 Ry

     iteration # 10     ecut=    77.00 Ry     beta= 0.20
     Davidson diagonalization with overlap
     c_bands:  1 eigenvalues not converged
     c_bands:  1 eigenvalues not converged
     c_bands:  2 eigenvalues not converged
     ethr =  6.65E-06,  avg # of iterations = 19.5

     negative rho (up, down):  9.976E-05 0.000E+00

     total cpu time spent up to now is     7608.4 secs

     total energy              =  -35654.85803968 Ry
     estimated scf accuracy    <       0.08681557 Ry

     iteration # 11     ecut=    77.00 Ry     beta= 0.20
     Davidson diagonalization with overlap
     c_bands:  2 eigenvalues not converged
     c_bands:  1 eigenvalues not converged
     ethr =  4.97E-06,  avg # of iterations = 25.2

     negative rho (up, down):  2.798E-04 0.000E+00

     total cpu time spent up to now is     8273.2 secs

     total energy              =  -35654.83686540 Ry
     estimated scf accuracy    <       0.05873720 Ry

     iteration # 12     ecut=    77.00 Ry     beta= 0.20
     Davidson diagonalization with overlap
     c_bands:  3 eigenvalues not converged
     c_bands:  5 eigenvalues not converged
     c_bands:  5 eigenvalues not converged
     ethr =  3.36E-06,  avg # of iterations = 50.5

     negative rho (up, down):  2.521E-04 0.000E+00

     total cpu time spent up to now is     9763.4 secs

     total energy              =  -35654.86464847 Ry
     estimated scf accuracy    <       0.29657576 Ry

     iteration # 13     ecut=    77.00 Ry     beta= 0.20
     Davidson diagonalization with overlap
     c_bands:  3 eigenvalues not converged
     ethr =  3.36E-06,  avg # of iterations = 11.0

     negative rho (up, down):  3.661E-04 0.000E+00

     total cpu time spent up to now is    10214.2 secs

     total energy              =  -35654.87090786 Ry
     estimated scf accuracy    <       0.02196034 Ry

     iteration # 14     ecut=    77.00 Ry     beta= 0.20
     Davidson diagonalization with overlap
     c_bands:  4 eigenvalues not converged
     c_bands:  4 eigenvalues not converged
     ethr =  1.26E-06,  avg # of iterations = 42.2

     negative rho (up, down):  4.675E-04 0.000E+00

     total cpu time spent up to now is    11209.7 secs

     total energy              =  -35654.87188120 Ry
     estimated scf accuracy    <       0.00608592 Ry

     iteration # 15     ecut=    77.00 Ry     beta= 0.20
     Davidson diagonalization with overlap
     c_bands:  2 eigenvalues not converged
     c_bands:  5 eigenvalues not converged
     c_bands:  3 eigenvalues not converged
     ethr =  3.49E-07,  avg # of iterations = 19.2

     negative rho (up, down):  5.064E-04 0.000E+00

     total cpu time spent up to now is    12199.8 secs

     total energy              =  -35654.87545253 Ry
     estimated scf accuracy    <       0.03492469 Ry

     iteration # 16     ecut=    77.00 Ry     beta= 0.20
     Davidson diagonalization with overlap
     ethr =  3.49E-07,  avg # of iterations = 13.8

     negative rho (up, down):  5.785E-04 0.000E+00

     total cpu time spent up to now is    12665.5 secs

     total energy              =  -35654.87724669 Ry
     estimated scf accuracy    <       0.00154246 Ry

     iteration # 17     ecut=    77.00 Ry     beta= 0.20
     Davidson diagonalization with overlap
     ethr =  8.83E-08,  avg # of iterations = 12.0

     negative rho (up, down):  6.302E-04 0.000E+00

     total cpu time spent up to now is    13535.1 secs

     total energy              =  -35654.87848208 Ry
     estimated scf accuracy    <       0.00115669 Ry

     iteration # 18     ecut=    77.00 Ry     beta= 0.20
     Davidson diagonalization with overlap
     ethr =  6.62E-08,  avg # of iterations =  9.0

     negative rho (up, down):  6.750E-04 0.000E+00

     total cpu time spent up to now is    14004.9 secs

     total energy              =  -35654.87846896 Ry
     estimated scf accuracy    <       0.00041135 Ry

     iteration # 19     ecut=    77.00 Ry     beta= 0.20
     Davidson diagonalization with overlap
     c_bands:  1 eigenvalues not converged
     ethr =  2.36E-08,  avg # of iterations = 15.0

     negative rho (up, down):  7.130E-04 0.000E+00

     total cpu time spent up to now is    14997.6 secs

     total energy              =  -35654.87887549 Ry
     estimated scf accuracy    <       0.00025555 Ry

     iteration # 20     ecut=    77.00 Ry     beta= 0.20
     Davidson diagonalization with overlap
     ethr =  1.46E-08,  avg # of iterations = 10.8

     negative rho (up, down):  7.482E-04 0.000E+00

     total cpu time spent up to now is    15461.7 secs

     total energy              =  -35654.87885856 Ry
     estimated scf accuracy    <       0.00019775 Ry

     iteration # 21     ecut=    77.00 Ry     beta= 0.20
     Davidson diagonalization with overlap
     ethr =  1.13E-08,  avg # of iterations = 10.2

     negative rho (up, down):  7.499E-04 0.000E+00

     total cpu time spent up to now is    15939.9 secs

     total energy              =  -35654.87888740 Ry
     estimated scf accuracy    <       0.00003105 Ry

     iteration # 22     ecut=    77.00 Ry     beta= 0.20
     Davidson diagonalization with overlap
     c_bands:  2 eigenvalues not converged
     c_bands:  1 eigenvalues not converged
     c_bands:  3 eigenvalues not converged
     c_bands:  2 eigenvalues not converged
     ethr =  1.78E-09,  avg # of iterations = 20.0

     negative rho (up, down):  7.562E-04 0.000E+00

     total cpu time spent up to now is    17541.9 secs

     total energy              =  -35654.87897704 Ry
     estimated scf accuracy    <       0.00002956 Ry

     iteration # 23     ecut=    77.00 Ry     beta= 0.20
     Davidson diagonalization with overlap
     ethr =  1.69E-09,  avg # of iterations =  1.8

     negative rho (up, down):  7.723E-04 0.000E+00

     total cpu time spent up to now is    17941.7 secs

     total energy              =  -35654.87896303 Ry
     estimated scf accuracy    <       0.00001453 Ry

     iteration # 24     ecut=    77.00 Ry     beta= 0.20
     Davidson diagonalization with overlap
     ethr =  8.32E-10,  avg # of iterations = 14.0

     negative rho (up, down):  7.793E-04 0.000E+00

     total cpu time spent up to now is    18845.2 secs

     total energy              =  -35654.87896777 Ry
     estimated scf accuracy    <       0.00001892 Ry

     iteration # 25     ecut=    77.00 Ry     beta= 0.20
     Davidson diagonalization with overlap
     ethr =  8.32E-10,  avg # of iterations =  1.5

     negative rho (up, down):  7.846E-04 0.000E+00

     total cpu time spent up to now is    19236.3 secs

     total energy              =  -35654.87896361 Ry
     estimated scf accuracy    <       0.00000484 Ry

     iteration # 26     ecut=    77.00 Ry     beta= 0.20
     Davidson diagonalization with overlap
     ethr =  2.77E-10,  avg # of iterations = 16.8

     negative rho (up, down):  7.839E-04 0.000E+00

     total cpu time spent up to now is    20127.3 secs

     total energy              =  -35654.87896783 Ry
     estimated scf accuracy    <       0.00000187 Ry

     iteration # 27     ecut=    77.00 Ry     beta= 0.20
     Davidson diagonalization with overlap
     ethr =  1.07E-10,  avg # of iterations = 12.2

     negative rho (up, down):  7.823E-04 0.000E+00

     total cpu time spent up to now is    20860.5 secs

     total energy              =  -35654.87896875 Ry
     estimated scf accuracy    <       0.00000200 Ry

     iteration # 28     ecut=    77.00 Ry     beta= 0.20
     Davidson diagonalization with overlap
     ethr =  1.07E-10,  avg # of iterations = 10.8

     negative rho (up, down):  7.866E-04 0.000E+00

     total cpu time spent up to now is    21308.0 secs

     End of self-consistent calculation

          k = 0.0000 0.0000 0.0000 (386245 PWs)   bands (ev):

  -103.9551-101.5591 -89.0753 -72.3592 -72.3481 -72.3085 -72.2704 -72.2619
   -72.2013 -72.1944 -70.0557 -70.0480 -70.0087 -69.9544 -69.9444 -69.7711
   -69.7704 -66.8388 -66.8384 -66.8375 -66.8350 -66.8250 -66.8175 -66.8175
   -66.8175 -66.8175 -66.8175 -66.8175 -66.8171 -66.8171 -66.8171 -66.8171
   -66.8171 -66.8171 -66.8141 -66.8139 -66.8138 -66.8136 -66.8134 -66.8132
   -66.8130 -66.8029 -66.7988 -66.7961 -66.7961 -66.7961 -66.7961 -66.7961
   -66.7961 -66.7961 -66.7961 -66.7960 -66.7960 -66.7957 -66.7957 -66.7957
   -66.7957 -66.7957 -66.7956 -66.7956 -66.7956 -66.7956 -66.7929 -66.7927
   -66.7926 -66.7925 -66.7923 -66.7921 -66.7921 -66.7919 -66.7914 -66.7903
   -66.7858 -66.7821 -66.7812 -66.7773 -66.7665 -66.7531 -66.7456 -66.7411
   -66.7349 -58.3547 -58.0949 -57.9242 -56.1648 -55.4981 -55.4530 -54.9802
   -54.8551 -54.7597 -41.1664 -41.1664 -41.1664 -41.1662 -41.1661 -41.1661
   -41.1625 -41.1623 -41.1620 -41.1460 -41.1413 -41.1407 -41.0910 -41.0910
   -41.0910 -41.0910 -41.0910 -41.0910 -41.0908 -41.0908 -41.0908 -41.0908
   -41.0908 -41.0908 -41.0873 -41.0871 -41.0869 -41.0869 -41.0867 -41.0865
   -41.0745 -41.0724 -41.0646 -41.0606 -41.0542 -41.0506 -41.0307 -40.9987
   -40.9985 -40.9973 -40.9948 -40.9809 -40.9695 -40.9645 -40.9645 -40.9645
   -40.9645 -40.9645 -40.9645 -40.9645 -40.9645 -40.9645 -40.9645 -40.9645
   -40.9645 -40.9609 -40.9608 -40.9606 -40.9605 -40.9603 -40.9603 -40.9569
   -40.9569 -40.9569 -40.9569 -40.9569 -40.9569 -40.9568 -40.9568 -40.9568
   -40.9567 -40.9567 -40.9567 -40.9535 -40.9532 -40.9531 -40.9530 -40.9527
   -40.9526 -40.9520 -40.9496 -40.9490 -40.9419 -40.9415 -40.9378 -40.9355
   -40.9295 -40.9295 -40.9295 -40.9295 -40.9295 -40.9294 -40.9294 -40.9294
   -40.9294 -40.9294 -40.9294 -40.9294 -40.9272 -40.9259 -40.9257 -40.9256
   -40.9255 -40.9253 -40.9252 -40.9241 -40.9204 -40.9180 -40.9149 -40.9149
   -40.9149 -40.9149 -40.9149 -40.9149 -40.9148 -40.9148 -40.9148 -40.9148
   -40.9148 -40.9148 -40.9148 -40.9148 -40.9148 -40.9147 -40.9147 -40.9147
   -40.9118 -40.9116 -40.9115 -40.9114 -40.9113 -40.9111 -40.9109 -40.9108
   -40.9108 -40.9104 -40.9089 -40.9066 -40.9049 -40.9012 -40.8995 -40.8964
   -40.8936 -40.8920 -40.8908 -40.8828 -40.8804 -40.8746 -40.8511 -40.8511
   -40.8511 -40.8511 -40.8510 -40.8510 -40.8474 -40.8472 -40.8471 -40.8296
   -40.8221 -40.8171 -40.8040 -40.8040 -40.8040 -40.8040 -40.8040 -40.8040
   -40.8039 -40.8039 -40.8039 -40.8039 -40.8039 -40.8039 -40.8005 -40.8004
   -40.8002 -40.8000 -40.7998 -40.7997 -40.7832 -40.7800 -40.7742 -40.7692
   -40.7620 -40.7578 -40.7564 -40.7564 -40.7562 -40.7562 -40.7525 -40.7525
   -40.7203 -40.7179 -20.4217 -20.3153 -20.2136 -20.1057 -19.8847 -19.5424
   -19.5071 -19.4644 -19.4635 -19.4593 -19.4515 -19.4457 -19.4418 -19.4113
   -19.4078 -19.3939 -19.3650 -19.3541 -19.3504 -19.3292 -19.3252 -19.3073
   -19.2610 -19.2542 -19.2525 -19.2453 -19.2437 -19.2343 -19.1184 -19.0256
   -18.9695 -18.8453 -18.7859 -18.7664 -18.7191 -18.7134 -18.6891 -18.6801
   -18.6618 -18.6468 -18.6329 -18.6206 -18.6035 -18.5714 -18.5463 -18.5365
   -18.4986 -18.4971 -18.4876 -18.4606 -18.4524 -18.4471 -18.4018 -18.3983
   -18.3959 -18.3857 -18.3855 -18.3833 -18.3402 -18.3362 -18.3342 -18.3339
   -18.3327 -18.3325 -18.3276 -18.3111 -18.3013 -18.2989 -18.2955 -18.2942
   -18.2919 -18.2897 -18.2892 -18.2875 -18.2733 -18.2608 -18.2604 -18.2579
   -18.2548 -18.2502 -18.2440 -18.2398 -18.2371 -18.2284 -18.2196 -18.2146
   -18.2140 -18.2082 -18.2058 -18.1966 -18.1954 -18.1906 -18.1713 -18.1614
   -18.1565 -18.1436 -18.1298 -18.1293 -18.1251 -18.1242 -18.1238 -18.1109
   -18.1056 -18.1028 -18.0947 -18.0866 -18.0806 -18.0796 -18.0747 -18.0738
   -18.0686 -18.0672 -18.0662 -18.0548 -18.0534 -18.0525 -18.0434 -18.0388
   -18.0361 -18.0311 -18.0310 -18.0293 -18.0108 -18.0101 -18.0081 -18.0063
   -18.0053 -18.0043 -12.5456 -12.2752 -12.1852 -12.1268 -12.0321 -12.0143
   -12.0056 -11.9982 -11.9018 -11.8934 -11.8853 -11.8078 -11.7762 -11.7712
   -11.7611 -11.6772 -11.5890 -11.5835 -11.5036 -11.4593 -11.4533 -11.4506
   -11.4490 -11.4458 -11.4260 -11.4043 -11.3673 -11.3497 -11.3456 -11.3441
   -11.3417 -11.3387 -11.3348 -11.3112 -11.2875 -11.2825 -11.2789 -11.2719
   -11.2697 -11.2652 -11.2645 -11.2588 -11.2574 -11.2470 -11.2374 -11.2254
   -11.1935 -11.1839 -11.1747 -11.1639 -11.1563 -11.1475 -11.1308 -11.1205
   -11.1106 -11.1029 -11.0992 -11.0900 -11.0855 -11.0777 -11.0624 -11.0613
   -11.0582 -11.0537 -11.0456 -11.0435 -11.0431 -11.0412 -11.0401 -11.0350
   -11.0237 -11.0170 -11.0156 -11.0136 -11.0128 -11.0100 -10.9958 -10.9941
   -10.9916 -10.9889 -10.9884 -10.9826 -10.9791 -10.9666 -10.9645 -10.9518
   -10.9514 -10.9505 -10.9502 -10.9449 -10.9435 -10.8938 -10.8797 -10.8724
   -10.8438 -10.8162 -10.8060 -10.7994 -10.7906 -10.7884 -10.7723 -10.7005
   -10.5322 -10.4573 -10.3920 -10.3779 -10.3274 -10.2119 -10.1825 -10.1601
   -10.1248 -10.0831 -10.0337 -10.0225 -10.0187 -10.0122 -10.0082  -9.9953
    -9.9901  -9.9855  -9.9830  -9.9797  -9.9770  -9.9750  -9.9714  -9.9649
    -9.9633  -9.9600  -9.9492  -9.9446  -9.9392  -9.9191  -9.9185  -9.8893
    -9.8662  -9.8444  -9.8395  -9.8378  -9.8364  -9.8337  -9.8309  -9.8303
    -9.8296  -9.8290  -9.8269  -9.8247  -9.8195  -9.8091  -9.7912  -9.7712
    -9.7612  -9.7567  -9.7567  -9.7563  -9.7561  -9.7558  -9.7550  -9.7487
    -9.7307  -9.7292  -9.7172  -9.7100  -9.6900  -9.6804  -9.6731  -9.6566
    -9.6483  -9.5876  -9.5805  -9.5776  -9.5704  -9.5678  -9.5626  -9.5550
    -9.5428  -9.5404  -9.5282  -9.5164  -9.5140  -9.5093  -9.4819  -9.4724
    -9.4494  -9.4423  -9.4276  -9.4236  -9.4100  -9.4033  -9.3957  -9.3933
    -9.3910  -9.3894  -9.3869  -9.3606  -9.3461  -9.3381  -9.3323  -9.3182
    -9.3122  -9.2759  -9.2330  -9.1958  -9.1955  -9.1935  -9.1761  -9.1696
    -9.1666  -9.1659  -9.1610  -9.1526  -9.1474  -9.1403  -9.1308  -9.1301
    -9.1278  -9.1182  -9.1088  -9.0991  -9.0974  -9.0798  -9.0503  -9.0360
    -9.0359  -9.0353  -9.0351  -9.0349  -9.0344  -8.9738  -8.9686  -8.9633
    -8.9552  -8.9472  -8.9408  -8.8902  -8.8863  -8.8829  -8.8755  -8.8687
    -8.8612  -8.8196  -8.8130  -8.8069  -8.8054  -8.8035  -8.8012  -8.7798
    -8.7648  -8.7289  -8.6162  -8.6108  -8.5814  -8.5812  -8.5808  -8.5742
    -8.5739  -8.5676  -8.5670  -8.5559  -8.5166  -8.4981  -8.4912  -8.4904
    -8.4894  -8.4893  -8.4885  -8.4868  -8.4712  -8.4665  -8.4617  -8.4616
    -8.4607  -8.4589  -8.4510  -8.4422  -8.4344  -8.4343  -8.4338  -8.4329
    -8.4313  -8.4243  -8.3159  -8.2364  -8.2000  -8.1502  -8.0798  -8.0731
    -8.0716  -8.0555  -8.0485  -7.9960  -7.9863  -7.9826  -7.9225  -7.9092
    -7.9038  -7.8598  -7.8547  -7.8524  -7.8401  -7.8385  -7.8310  -7.8286
    -7.8169  -7.8144  -7.7811  -7.7752  -7.7692  -7.7575  -7.7514  -7.7509
    -7.7488  -7.7485  -7.7480  -7.7470  -7.7434  -7.7301  -7.7251  -7.7229
    -7.7208  -7.7206  -7.7179  -7.7134  -7.7084  -7.7022  -7.6967  -7.6961
    -7.6956  -7.6949  -7.6929  -7.6902  -7.6817  -7.6696  -7.6511  -7.6382
    -7.6326  -7.6288  -7.6222  -7.6168  -7.6149  -7.6087  -7.6048  -7.5954
    -7.5705  -7.5667  -7.5436  -7.5398  -7.5242  -7.5146  -7.5118  -7.5072
    -7.5034  -7.4989  -7.4967  -7.4939  -7.4721  -7.4650  -7.4639  -7.4483
    -7.4449  -7.4382  -7.4279  -7.4265  -7.4167  -7.3871  -7.3580  -7.3290
    -7.3111  -7.3000  -7.2884  -7.2398  -7.1670  -7.1278  -7.1151  -7.0886
    -7.0766  -7.0652  -7.0433  -7.0226  -6.9992  -6.9947  -6.9907  -6.9680
    -6.9581  -6.9477  -6.9172  -6.9127  -6.8990  -6.8820  -6.8647  -6.8467
    -6.8375  -6.8361  -6.8293  -6.8188  -6.8140  -6.8057  -6.7896  -6.7825
    -6.7705  -6.7561  -6.7529  -6.7463  -6.7377  -6.7283  -6.7250  -6.7247
    -6.7224  -6.7206  -6.7196  -6.7182  -6.7157  -6.7130  -6.7112  -6.7109
    -6.7106  -6.7102  -6.7084  -6.7027  -6.6841  -6.6773  -6.6680  -6.6489
    -6.6475  -6.6284  -6.6234  -6.6218  -6.6015  -6.5677  -6.5535  -6.5487
    -6.5482  -6.5458  -6.5452  -6.5425  -6.5320  -6.5183  -6.5169  -6.5073
    -6.5056  -6.5023  -6.4960  -6.4865  -6.4846  -6.4699  -6.4688  -6.4670
    -6.4643  -6.4617  -6.4599  -6.4389  -6.4234  -6.3988  -6.2781  -6.0817
    -5.9352  -5.8369  -5.5787  -5.4300  -5.3896  -5.3731  -5.3638  -5.2847
    -5.2205  -5.1463  -4.1197  -4.0616  -4.0601  -4.0584  -4.0563  -4.0486
    -4.0395  -4.0373  -4.0353  -4.0335  -4.0325  -4.0237  -3.9748  -3.9095
    -3.9078  -3.9026  -3.8951  -3.8937  -3.8889  -3.8852  -3.8838  -3.8810
    -3.8787  -3.8294  -3.7558  -3.7287  -3.7219  -3.7181  -3.7079  -3.6992
    -3.6961  -3.6883  -3.6848  -3.6825  -3.6817  -3.6799  -3.6762  -3.6658
    -3.6639  -3.6581  -3.6549  -3.6548  -3.6547  -3.6538  -3.6493  -3.6397
    -3.6385  -3.6376  -3.6285  -3.6262  -3.6212  -3.6208  -3.6178  -3.6142
    -3.6090  -3.6086  -3.6038  -3.6005  -3.5959  -3.5946  -3.5709  -3.5587
    -3.5571  -3.5553  -3.5543  -3.5540  -3.5455  -3.5436  -3.5363  -3.5319
    -3.5212  -3.5151  -3.5005  -3.4954  -3.4922  -3.4853  -3.4672  -3.4622
    -3.4338  -3.4237  -3.4175  -3.4121  -3.4045  -3.3923  -3.2897  -3.2767
    -3.2725  -3.2716  -3.2710  -3.2673  -3.2551  -3.2540  -3.2525  -3.2283
    -3.2108  -3.2021  -3.1946  -3.1898  -3.1877  -3.1831  -3.1808  -3.1806
    -3.1773  -3.1752  -3.1750  -3.1731  -3.1719  -3.1650  -3.1644  -3.1609
    -3.1558  -3.1494  -3.1482  -3.1469  -3.1458  -3.1421  -3.1386  -3.1384
    -3.1383  -3.1352  -3.1305  -3.1265  -3.1104  -3.0905  -3.0855  -3.0777
    -3.0740  -3.0664  -3.0524  -3.0484  -3.0292  -3.0203  -3.0202  -3.0185
    -3.0183  -3.0182  -3.0178  -3.0157  -3.0148  -3.0116  -2.9979  -2.9964
    -2.9783  -2.9633  -2.9582  -2.9439  -2.9397  -2.9321  -2.9266  -2.9215
    -2.8783  -2.8756  -2.8498  -2.8471  -2.8426  -2.8324  -2.8313  -2.8306
    -2.8272  -2.8257  -2.7911  -2.7758  -2.7680  -2.7528  -2.7434  -2.7379
    -2.6745  -2.6643  -2.6332  -2.6280  -2.6244  -2.6187  -2.6151  -2.6127

          k = 0.0000-0.5773 0.0000 (386352 PWs)   bands (ev):

  -103.9551-101.5591 -89.0753 -72.3592 -72.3481 -72.3085 -72.2704 -72.2619
   -72.2013 -72.1944 -70.0557 -70.0480 -70.0087 -69.9544 -69.9444 -69.7711
   -69.7704 -66.8372 -66.8326 -66.8326 -66.8321 -66.8321 -66.8289 -66.8286
   -66.8250 -66.8219 -66.8219 -66.8215 -66.8215 -66.8181 -66.8181 -66.8138
   -66.8068 -66.8068 -66.8068 -66.8068 -66.8064 -66.8064 -66.8064 -66.8064
   -66.8050 -66.8032 -66.8031 -66.8028 -66.8028 -66.8024 -66.8024 -66.8019
   -66.8019 -66.7987 -66.7984 -66.7968 -66.7961 -66.7961 -66.7961 -66.7961
   -66.7957 -66.7957 -66.7956 -66.7956 -66.7953 -66.7926 -66.7924 -66.7923
   -66.7918 -66.7917 -66.7917 -66.7912 -66.7912 -66.7897 -66.7878 -66.7878
   -66.7857 -66.7831 -66.7810 -66.7772 -66.7667 -66.7532 -66.7452 -66.7415
   -66.7348 -58.3547 -58.0949 -57.9242 -56.1649 -55.4981 -55.4530 -54.9802
   -54.8551 -54.7597 -41.1347 -41.1347 -41.1347 -41.1347 -41.1345 -41.1345
   -41.1345 -41.1345 -41.1308 -41.1308 -41.1306 -41.1301 -41.1250 -41.1222
   -41.1079 -41.1079 -41.1077 -41.1077 -41.1039 -41.1037 -41.1030 -41.0959
   -41.0958 -41.0956 -41.0956 -41.0954 -41.0918 -41.0917 -41.0887 -41.0834
   -41.0649 -41.0557 -41.0451 -41.0451 -41.0451 -41.0451 -41.0450 -41.0450
   -41.0450 -41.0449 -41.0411 -41.0411 -41.0410 -41.0410 -41.0307 -41.0198
   -41.0194 -41.0153 -41.0076 -40.9932 -40.9865 -40.9865 -40.9863 -40.9863
   -40.9844 -40.9827 -40.9824 -40.9767 -40.9767 -40.9767 -40.9767 -40.9728
   -40.9727 -40.9656 -40.9656 -40.9654 -40.9654 -40.9647 -40.9618 -40.9617
   -40.9575 -40.9516 -40.9418 -40.9396 -40.9359 -40.9359 -40.9359 -40.9359
   -40.9358 -40.9358 -40.9358 -40.9358 -40.9339 -40.9324 -40.9322 -40.9319
   -40.9319 -40.9272 -40.9272 -40.9271 -40.9271 -40.9235 -40.9232 -40.9214
   -40.9167 -40.9152 -40.9152 -40.9152 -40.9152 -40.9149 -40.9149 -40.9149
   -40.9149 -40.9148 -40.9148 -40.9148 -40.9147 -40.9114 -40.9113 -40.9113
   -40.9113 -40.9111 -40.9111 -40.9106 -40.9070 -40.9062 -40.9062 -40.9061
   -40.9061 -40.9046 -40.9024 -40.9023 -40.8969 -40.8938 -40.8902 -40.8853
   -40.8843 -40.8843 -40.8842 -40.8842 -40.8842 -40.8842 -40.8842 -40.8842
   -40.8808 -40.8805 -40.8805 -40.8803 -40.8800 -40.8744 -40.8689 -40.8605
   -40.8525 -40.8495 -40.8495 -40.8495 -40.8495 -40.8494 -40.8494 -40.8494
   -40.8494 -40.8460 -40.8456 -40.8456 -40.8456 -40.8455 -40.8374 -40.8374
   -40.8373 -40.8373 -40.8337 -40.8332 -40.8284 -40.8181 -40.8180 -40.8180
   -40.8180 -40.8178 -40.8169 -40.8151 -40.8143 -40.8140 -40.8116 -40.8011
   -40.8011 -40.8010 -40.8009 -40.7972 -40.7971 -40.7958 -40.7894 -40.7839
   -40.7704 -40.7704 -40.7703 -40.7702 -40.7667 -40.7662 -40.7635 -40.7572
   -40.7461 -40.7236 -20.3191 -20.1002 -20.0828 -20.0425 -19.9859 -19.9516
   -19.8764 -19.8606 -19.7457 -19.6718 -19.6452 -19.6234 -19.5557 -19.5333
   -19.4527 -19.4385 -19.3486 -19.1009 -19.0199 -18.9920 -18.9585 -18.9501
   -18.9370 -18.9336 -18.9304 -18.9206 -18.8963 -18.8738 -18.8657 -18.8592
   -18.8484 -18.8311 -18.8033 -18.7903 -18.7838 -18.7680 -18.7644 -18.7590
   -18.7428 -18.7284 -18.7212 -18.6913 -18.6882 -18.6839 -18.6809 -18.6443
   -18.6250 -18.6215 -18.6154 -18.5842 -18.5817 -18.5744 -18.5473 -18.5300
   -18.5282 -18.5017 -18.4639 -18.4608 -18.4538 -18.4418 -18.4115 -18.4049
   -18.3911 -18.3735 -18.3414 -18.3270 -18.3229 -18.3191 -18.3140 -18.3127
   -18.3105 -18.3093 -18.2956 -18.2855 -18.2832 -18.2804 -18.2772 -18.2762
   -18.2636 -18.2616 -18.2573 -18.2501 -18.2457 -18.2346 -18.2221 -18.2213
   -18.2169 -18.2133 -18.2103 -18.2072 -18.2031 -18.1984 -18.1924 -18.1850
   -18.1573 -18.1531 -18.1488 -18.1442 -18.1372 -18.1263 -18.1034 -18.1015
   -18.0930 -18.0816 -18.0602 -18.0584 -18.0545 -18.0470 -18.0356 -18.0325
   -18.0314 -18.0313 -18.0306 -18.0283 -18.0251 -18.0184 -18.0141 -18.0086
   -17.9943 -17.9926 -17.9715 -17.9702 -17.9521 -17.9501 -17.9379 -17.9364
   -17.9322 -17.9311 -12.4723 -12.1714 -12.0227 -11.9512 -11.9260 -11.8348
   -11.7587 -11.7319 -11.7139 -11.7131 -11.7067 -11.6935 -11.6875 -11.6845
   -11.6729 -11.6184 -11.6158 -11.6011 -11.5964 -11.5963 -11.5747 -11.5469
   -11.5329 -11.5289 -11.5078 -11.4977 -11.4922 -11.4865 -11.4797 -11.4728
   -11.4710 -11.4638 -11.4599 -11.4258 -11.4164 -11.4082 -11.4062 -11.3987
   -11.3831 -11.3785 -11.3775 -11.3720 -11.3592 -11.3588 -11.3513 -11.3250
   -11.3139 -11.3029 -11.2856 -11.2722 -11.2701 -11.2423 -11.2085 -11.1894
   -11.1684 -11.1580 -11.1443 -11.1261 -11.1207 -11.1200 -11.1009 -11.0713
   -11.0587 -11.0499 -11.0448 -11.0405 -11.0275 -11.0243 -11.0237 -11.0231
   -11.0212 -11.0170 -11.0140 -11.0119 -11.0061 -11.0053 -11.0045 -11.0019
   -10.9963 -10.9955 -10.9925 -10.9865 -10.9591 -10.9578 -10.9566 -10.9558
   -10.9256 -10.8692 -10.7852 -10.7536 -10.7418 -10.7381 -10.7228 -10.6927
   -10.6482 -10.6112 -10.5718 -10.5271 -10.4692 -10.4461 -10.3791 -10.3603
   -10.3489 -10.3429 -10.3267 -10.3222 -10.3097 -10.2949 -10.2708 -10.2660
   -10.2485 -10.2468 -10.2454 -10.2381 -10.2329 -10.2211 -10.2049 -10.1895
   -10.1623 -10.1469 -10.1449 -10.1385 -10.1213 -10.1079 -10.1043 -10.1024
   -10.0815 -10.0713 -10.0593 -10.0572 -10.0268 -10.0232 -10.0035  -9.9895
    -9.9820  -9.9750  -9.9587  -9.9493  -9.9268  -9.9119  -9.8960  -9.8913
    -9.8812  -9.8675  -9.8410  -9.8372  -9.8302  -9.8234  -9.8139  -9.7882
    -9.7777  -9.7750  -9.7548  -9.7430  -9.7419  -9.7392  -9.7157  -9.7046
    -9.7022  -9.6880  -9.6861  -9.6815  -9.6769  -9.6699  -9.6652  -9.6603
    -9.6450  -9.6367  -9.6318  -9.6027  -9.5724  -9.5656  -9.5489  -9.5099
    -9.4841  -9.4415  -9.4388  -9.4218  -9.4195  -9.4134  -9.4040  -9.3981
    -9.3798  -9.3688  -9.3572  -9.3492  -9.3329  -9.3257  -9.2965  -9.2817
    -9.2770  -9.2670  -9.2531  -9.2490  -9.2455  -9.2378  -9.2308  -9.2052
    -9.1959  -9.1834  -9.1791  -9.1640  -9.1593  -9.1537  -9.1493  -9.1378
    -9.1166  -9.1042  -9.1022  -9.0992  -9.0988  -9.0972  -9.0857  -9.0824
    -9.0821  -9.0803  -9.0747  -9.0697  -9.0689  -9.0648  -9.0567  -9.0528
    -9.0523  -9.0367  -9.0308  -9.0194  -9.0088  -9.0049  -9.0030  -9.0007
    -8.9976  -8.9949  -8.9912  -8.9748  -8.9724  -8.9517  -8.9458  -8.9427
    -8.9404  -8.9286  -8.9150  -8.8803  -8.8698  -8.8535  -8.8399  -8.8227
    -8.7986  -8.7209  -8.7165  -8.7052  -8.6634  -8.6568  -8.6255  -8.6003
    -8.5701  -8.5546  -8.5052  -8.4922  -8.4755  -8.4177  -8.3734  -8.3408
    -8.3408  -8.3304  -8.3303  -8.3195  -8.3193  -8.3022  -8.2797  -8.2668
    -8.2366  -8.1896  -8.1831  -8.1782  -8.1391  -8.1074  -8.0576  -8.0555
    -8.0525  -8.0501  -8.0433  -8.0304  -8.0257  -8.0217  -8.0158  -8.0154
    -8.0123  -8.0077  -8.0049  -8.0029  -7.9958  -7.9946  -7.9932  -7.9866
    -7.9820  -7.9812  -7.9798  -7.9777  -7.9774  -7.9756  -7.9714  -7.9703
    -7.9699  -7.9596  -7.9530  -7.9464  -7.9428  -7.9394  -7.9326  -7.9223
    -7.9141  -7.9101  -7.9092  -7.9073  -7.8986  -7.8830  -7.8805  -7.8797
    -7.8779  -7.8758  -7.8703  -7.8588  -7.8517  -7.8335  -7.8243  -7.8214
    -7.8201  -7.8153  -7.8126  -7.8061  -7.8009  -7.7965  -7.7957  -7.7804
    -7.7767  -7.7762  -7.7710  -7.7630  -7.7580  -7.7543  -7.7057  -7.6754
    -7.6735  -7.6681  -7.6642  -7.6469  -7.6185  -7.6060  -7.5958  -7.5751
    -7.4595  -7.3971  -7.3850  -7.3817  -7.3792  -7.3725  -7.3624  -7.3362
    -7.3319  -7.3207  -7.3141  -7.3008  -7.2980  -7.2694  -7.2644  -7.2438
    -7.2336  -7.2312  -7.2234  -7.2122  -7.1956  -7.1883  -7.1739  -7.1401
    -7.1319  -7.1230  -7.1109  -7.1024  -7.0936  -7.0837  -7.0726  -7.0686
    -7.0555  -7.0409  -7.0310  -6.9935  -6.9887  -6.9714  -6.9508  -6.9367
    -6.8987  -6.8933  -6.8692  -6.8651  -6.8332  -6.8317  -6.8255  -6.8201
    -6.8180  -6.8168  -6.8128  -6.8072  -6.7994  -6.7986  -6.7970  -6.7961
    -6.7915  -6.7910  -6.7902  -6.7898  -6.7503  -6.7464  -6.7197  -6.6845
    -6.6613  -6.6311  -6.6169  -6.5522  -6.5378  -6.5369  -6.5344  -6.5257
    -6.5081  -6.5016  -6.4949  -6.4882  -6.4869  -6.4869  -6.4862  -6.4834
    -6.4813  -6.4646  -6.4569  -6.4497  -6.4421  -6.4366  -6.4224  -6.4158
    -6.4107  -6.4062  -6.4037  -6.3388  -6.2128  -6.2074  -6.1823  -6.1597
    -6.1333  -6.1043  -6.1029  -6.0690  -6.0605  -6.0538  -5.9575  -5.9105
    -5.8845  -5.8305  -5.8049  -5.7804  -5.4343  -5.3745  -5.3638  -5.2783
    -5.2201  -5.1352  -4.3040  -4.3011  -4.2969  -4.2834  -4.1598  -4.1380
    -4.1337  -4.1263  -4.1184  -4.0848  -4.0532  -4.0520  -4.0399  -4.0340
    -4.0238  -4.0177  -4.0099  -4.0065  -4.0044  -3.9652  -3.9169  -3.8954
    -3.8935  -3.8506  -3.8287  -3.8133  -3.8096  -3.8078  -3.8049  -3.7792
    -3.7629  -3.7607  -3.7534  -3.7308  -3.7293  -3.7242  -3.7195  -3.7146
    -3.7058  -3.6916  -3.6904  -3.6841  -3.6812  -3.6806  -3.6750  -3.6658
    -3.6575  -3.6533  -3.6418  -3.6321  -3.6259  -3.6197  -3.6116  -3.6057
    -3.5734  -3.5637  -3.5578  -3.5566  -3.5537  -3.5518  -3.5495  -3.5457
    -3.5238  -3.5169  -3.5044  -3.5010  -3.4973  -3.4921  -3.4900  -3.4863
    -3.4848  -3.4831  -3.4737  -3.4593  -3.4518  -3.4478  -3.4380  -3.4365
    -3.4330  -3.4273  -3.4231  -3.4195  -3.4178  -3.4019  -3.3951  -3.3842
    -3.3825  -3.3790  -3.3762  -3.3740  -3.3740  -3.3682  -3.3519  -3.3372
    -3.3210  -3.3075  -3.2925  -3.2791  -3.2761  -3.2733  -3.2711  -3.2582
    -3.2355  -3.2324  -3.2317  -3.2315  -3.2313  -3.2290  -3.2208  -3.2179
    -3.2161  -3.2138  -3.2083  -3.2059  -3.1993  -3.1946  -3.1919  -3.1848
    -3.1797  -3.1777  -3.1757  -3.1726  -3.1658  -3.1652  -3.1573  -3.1567
    -3.1506  -3.1497  -3.1427  -3.1387  -3.1299  -3.1231  -3.1112  -3.0968
    -3.0950  -3.0881  -3.0850  -3.0815  -3.0738  -3.0546  -3.0071  -3.0002
    -2.9967  -2.9930  -2.9449  -2.9427  -2.9233  -2.9121  -2.8304  -2.8198
    -2.8064  -2.7848  -2.7748  -2.7624  -2.7569  -2.7491  -2.7454  -2.7388
    -2.7360  -2.7335  -2.7285  -2.7246  -2.6472  -2.6173  -2.6117  -2.6061
    -2.6030  -2.5964  -2.5922  -2.5773  -2.5717  -2.5587  -2.5562  -2.5538

          k =-0.5000-0.2887 0.0000 (386352 PWs)   bands (ev):

  -103.9551-101.5591 -89.0753 -72.3592 -72.3481 -72.3085 -72.2704 -72.2619
   -72.2013 -72.1944 -70.0557 -70.0480 -70.0087 -69.9544 -69.9444 -69.7711
   -69.7704 -66.8370 -66.8326 -66.8326 -66.8321 -66.8321 -66.8289 -66.8286
   -66.8256 -66.8219 -66.8219 -66.8215 -66.8215 -66.8181 -66.8181 -66.8132
   -66.8068 -66.8068 -66.8068 -66.8068 -66.8064 -66.8064 -66.8064 -66.8064
   -66.8050 -66.8031 -66.8030 -66.8030 -66.8029 -66.8024 -66.8024 -66.8019
   -66.8019 -66.7987 -66.7984 -66.7981 -66.7961 -66.7961 -66.7961 -66.7961
   -66.7957 -66.7956 -66.7956 -66.7956 -66.7933 -66.7926 -66.7924 -66.7921
   -66.7920 -66.7917 -66.7917 -66.7912 -66.7912 -66.7887 -66.7882 -66.7878
   -66.7878 -66.7825 -66.7812 -66.7774 -66.7664 -66.7531 -66.7450 -66.7418
   -66.7347 -58.3547 -58.0949 -57.9242 -56.1649 -55.4981 -55.4530 -54.9802
   -54.8551 -54.7597 -41.1347 -41.1347 -41.1347 -41.1347 -41.1345 -41.1345
   -41.1345 -41.1345 -41.1308 -41.1307 -41.1305 -41.1303 -41.1145 -41.1128
   -41.1086 -41.1079 -41.1079 -41.1077 -41.1077 -41.1075 -41.1039 -41.1037
   -41.0977 -41.0959 -41.0959 -41.0957 -41.0956 -41.0918 -41.0917 -41.0844
   -41.0705 -41.0487 -41.0451 -41.0451 -41.0451 -41.0451 -41.0450 -41.0450
   -41.0449 -41.0449 -41.0411 -41.0411 -41.0410 -41.0410 -41.0305 -41.0219
   -41.0168 -41.0073 -41.0054 -40.9966 -40.9865 -40.9865 -40.9863 -40.9863
   -40.9827 -40.9824 -40.9809 -40.9767 -40.9767 -40.9767 -40.9767 -40.9728
   -40.9727 -40.9673 -40.9656 -40.9656 -40.9654 -40.9654 -40.9618 -40.9616
   -40.9567 -40.9490 -40.9444 -40.9408 -40.9359 -40.9359 -40.9359 -40.9359
   -40.9358 -40.9358 -40.9358 -40.9358 -40.9322 -40.9322 -40.9321 -40.9320
   -40.9272 -40.9272 -40.9271 -40.9271 -40.9271 -40.9255 -40.9235 -40.9232
   -40.9192 -40.9152 -40.9152 -40.9152 -40.9152 -40.9149 -40.9149 -40.9149
   -40.9149 -40.9148 -40.9148 -40.9148 -40.9147 -40.9122 -40.9113 -40.9113
   -40.9113 -40.9112 -40.9109 -40.9108 -40.9069 -40.9062 -40.9062 -40.9061
   -40.9061 -40.9024 -40.9023 -40.8996 -40.8975 -40.8929 -40.8886 -40.8858
   -40.8843 -40.8843 -40.8842 -40.8842 -40.8842 -40.8842 -40.8842 -40.8842
   -40.8827 -40.8806 -40.8804 -40.8802 -40.8801 -40.8741 -40.8695 -40.8642
   -40.8548 -40.8495 -40.8495 -40.8495 -40.8495 -40.8494 -40.8494 -40.8494
   -40.8494 -40.8466 -40.8457 -40.8456 -40.8456 -40.8456 -40.8374 -40.8374
   -40.8373 -40.8373 -40.8336 -40.8333 -40.8296 -40.8266 -40.8196 -40.8181
   -40.8180 -40.8180 -40.8180 -40.8143 -40.8140 -40.8108 -40.8040 -40.8011
   -40.8011 -40.8010 -40.8009 -40.7972 -40.7971 -40.7965 -40.7927 -40.7778
   -40.7704 -40.7704 -40.7703 -40.7702 -40.7671 -40.7666 -40.7663 -40.7531
   -40.7400 -40.7301 -20.3213 -20.0986 -20.0827 -20.0384 -19.9855 -19.9478
   -19.8762 -19.8592 -19.7591 -19.6731 -19.6457 -19.6248 -19.5560 -19.5343
   -19.4523 -19.4389 -19.3375 -19.0727 -19.0586 -18.9832 -18.9662 -18.9458
   -18.9370 -18.9334 -18.9320 -18.9124 -18.8986 -18.8727 -18.8672 -18.8612
   -18.8463 -18.8297 -18.8066 -18.7887 -18.7842 -18.7676 -18.7666 -18.7569
   -18.7425 -18.7289 -18.7243 -18.6910 -18.6884 -18.6848 -18.6794 -18.6450
   -18.6249 -18.6203 -18.6169 -18.5964 -18.5848 -18.5623 -18.5466 -18.5307
   -18.5274 -18.4910 -18.4645 -18.4639 -18.4577 -18.4387 -18.4116 -18.4042
   -18.3949 -18.3691 -18.3435 -18.3271 -18.3232 -18.3198 -18.3130 -18.3126
   -18.3107 -18.3082 -18.2965 -18.2846 -18.2813 -18.2803 -18.2772 -18.2769
   -18.2652 -18.2615 -18.2571 -18.2481 -18.2454 -18.2356 -18.2223 -18.2210
   -18.2174 -18.2132 -18.2102 -18.2079 -18.2024 -18.1977 -18.1937 -18.1856
   -18.1579 -18.1534 -18.1490 -18.1449 -18.1353 -18.1271 -18.1043 -18.1017
   -18.0917 -18.0826 -18.0610 -18.0586 -18.0542 -18.0475 -18.0360 -18.0322
   -18.0317 -18.0313 -18.0307 -18.0272 -18.0243 -18.0182 -18.0139 -18.0082
   -17.9945 -17.9924 -17.9717 -17.9701 -17.9524 -17.9499 -17.9380 -17.9363
   -17.9323 -17.9310 -12.4893 -12.1527 -11.9853 -11.9586 -11.9287 -11.8419
   -11.7654 -11.7278 -11.7171 -11.7120 -11.7063 -11.6997 -11.6843 -11.6818
   -11.6584 -11.6339 -11.6241 -11.6051 -11.5892 -11.5804 -11.5719 -11.5496
   -11.5391 -11.5291 -11.5180 -11.4982 -11.4926 -11.4827 -11.4787 -11.4730
   -11.4705 -11.4666 -11.4592 -11.4267 -11.4175 -11.4123 -11.4041 -11.3877
   -11.3834 -11.3787 -11.3784 -11.3701 -11.3611 -11.3592 -11.3579 -11.3295
   -11.3140 -11.3019 -11.2879 -11.2762 -11.2701 -11.2452 -11.2237 -11.1780
   -11.1714 -11.1494 -11.1381 -11.1361 -11.1206 -11.1068 -11.0895 -11.0889
   -11.0815 -11.0495 -11.0446 -11.0400 -11.0338 -11.0247 -11.0235 -11.0231
   -11.0227 -11.0212 -11.0194 -11.0097 -11.0055 -11.0051 -11.0049 -11.0025
   -10.9953 -10.9950 -10.9926 -10.9911 -10.9592 -10.9572 -10.9569 -10.9564
   -10.9268 -10.8902 -10.7547 -10.7515 -10.7409 -10.7359 -10.7029 -10.6839
   -10.6156 -10.6036 -10.5865 -10.5587 -10.4764 -10.4609 -10.3935 -10.3607
   -10.3446 -10.3420 -10.3233 -10.3215 -10.3014 -10.2935 -10.2645 -10.2597
   -10.2529 -10.2431 -10.2420 -10.2379 -10.2312 -10.2250 -10.2177 -10.1983
   -10.1749 -10.1419 -10.1370 -10.1258 -10.1169 -10.1137 -10.1071 -10.1041
   -10.0896 -10.0725 -10.0680 -10.0435 -10.0426 -10.0115  -9.9978  -9.9890
    -9.9775  -9.9748  -9.9530  -9.9472  -9.9393  -9.9063  -9.8998  -9.8895
    -9.8748  -9.8658  -9.8377  -9.8312  -9.8272  -9.8171  -9.8112  -9.7866
    -9.7736  -9.7578  -9.7536  -9.7494  -9.7413  -9.7310  -9.7101  -9.7024
    -9.7015  -9.6869  -9.6832  -9.6804  -9.6781  -9.6715  -9.6653  -9.6531
    -9.6431  -9.6331  -9.6096  -9.5923  -9.5837  -9.5661  -9.5587  -9.5112
    -9.5003  -9.4643  -9.4442  -9.4269  -9.4199  -9.4143  -9.4086  -9.3926
    -9.3753  -9.3698  -9.3599  -9.3511  -9.3262  -9.3232  -9.3192  -9.2985
    -9.2833  -9.2621  -9.2502  -9.2492  -9.2448  -9.2401  -9.2321  -9.2065
    -9.1924  -9.1878  -9.1734  -9.1634  -9.1607  -9.1546  -9.1459  -9.1336
    -9.1135  -9.1088  -9.1032  -9.1026  -9.0980  -9.0943  -9.0863  -9.0820
    -9.0818  -9.0797  -9.0752  -9.0706  -9.0684  -9.0644  -9.0567  -9.0529
    -9.0523  -9.0499  -9.0208  -9.0160  -9.0111  -9.0051  -9.0023  -9.0004
    -8.9977  -8.9961  -8.9924  -8.9751  -8.9716  -8.9483  -8.9454  -8.9429
    -8.9407  -8.9293  -8.9162  -8.8837  -8.8651  -8.8550  -8.8434  -8.8257
    -8.7860  -8.7173  -8.7171  -8.7070  -8.6655  -8.6594  -8.6384  -8.5832
    -8.5727  -8.5488  -8.5084  -8.4872  -8.4417  -8.4216  -8.3705  -8.3416
    -8.3408  -8.3387  -8.3303  -8.3292  -8.3193  -8.3186  -8.2831  -8.2728
    -8.2573  -8.1876  -8.1828  -8.1724  -8.1288  -8.1024  -8.0678  -8.0590
    -8.0513  -8.0496  -8.0413  -8.0340  -8.0222  -8.0204  -8.0178  -8.0144
    -8.0123  -8.0085  -8.0046  -7.9999  -7.9971  -7.9948  -7.9942  -7.9867
    -7.9830  -7.9817  -7.9803  -7.9778  -7.9770  -7.9757  -7.9725  -7.9700
    -7.9683  -7.9665  -7.9510  -7.9472  -7.9440  -7.9415  -7.9375  -7.9286
    -7.9112  -7.9099  -7.9091  -7.9075  -7.9054  -7.8807  -7.8801  -7.8791
    -7.8789  -7.8723  -7.8659  -7.8581  -7.8502  -7.8285  -7.8221  -7.8209
    -7.8170  -7.8138  -7.8106  -7.8062  -7.8005  -7.7974  -7.7942  -7.7804
    -7.7764  -7.7761  -7.7670  -7.7605  -7.7536  -7.7504  -7.7033  -7.6758
    -7.6700  -7.6674  -7.6669  -7.6486  -7.6286  -7.5924  -7.5894  -7.5374
    -7.5231  -7.4191  -7.3845  -7.3820  -7.3811  -7.3756  -7.3476  -7.3391
    -7.3345  -7.3258  -7.3134  -7.3071  -7.2847  -7.2659  -7.2593  -7.2503
    -7.2346  -7.2238  -7.2123  -7.2074  -7.1926  -7.1881  -7.1705  -7.1574
    -7.1317  -7.1261  -7.1072  -7.1049  -7.0897  -7.0834  -7.0746  -7.0717
    -7.0607  -7.0392  -7.0075  -6.9899  -6.9832  -6.9629  -6.9495  -6.9456
    -6.9015  -6.8869  -6.8824  -6.8502  -6.8394  -6.8299  -6.8264  -6.8186
    -6.8180  -6.8168  -6.8148  -6.8003  -6.8000  -6.7985  -6.7978  -6.7919
    -6.7917  -6.7910  -6.7907  -6.7708  -6.7574  -6.7420  -6.7112  -6.6864
    -6.6697  -6.6490  -6.6193  -6.6031  -6.5410  -6.5358  -6.5349  -6.5300
    -6.5118  -6.5061  -6.4916  -6.4877  -6.4870  -6.4863  -6.4838  -6.4823
    -6.4735  -6.4686  -6.4562  -6.4479  -6.4425  -6.4316  -6.4248  -6.4168
    -6.4101  -6.4007  -6.3996  -6.2885  -6.2154  -6.2080  -6.1847  -6.1661
    -6.1416  -6.1183  -6.0990  -6.0697  -6.0586  -6.0521  -5.9640  -5.9157
    -5.8828  -5.8294  -5.8039  -5.7710  -5.4361  -5.3750  -5.3642  -5.2832
    -5.2205  -5.1234  -4.3057  -4.3002  -4.2927  -4.2822  -4.1588  -4.1420
    -4.1315  -4.1258  -4.1148  -4.0828  -4.0549  -4.0519  -4.0439  -4.0335
    -4.0255  -4.0169  -4.0114  -4.0089  -4.0047  -3.9786  -3.9141  -3.8965
    -3.8921  -3.8582  -3.8248  -3.8126  -3.8107  -3.8085  -3.8055  -3.7952
    -3.7649  -3.7604  -3.7466  -3.7366  -3.7314  -3.7275  -3.7190  -3.7180
    -3.7029  -3.6943  -3.6910  -3.6842  -3.6816  -3.6803  -3.6726  -3.6692
    -3.6589  -3.6496  -3.6394  -3.6329  -3.6279  -3.6227  -3.6151  -3.6071
    -3.5759  -3.5625  -3.5609  -3.5547  -3.5535  -3.5495  -3.5478  -3.5443
    -3.5242  -3.5142  -3.5030  -3.4972  -3.4967  -3.4922  -3.4891  -3.4873
    -3.4860  -3.4802  -3.4636  -3.4608  -3.4479  -3.4465  -3.4405  -3.4334
    -3.4332  -3.4232  -3.4200  -3.4175  -3.4145  -3.4042  -3.3920  -3.3872
    -3.3812  -3.3772  -3.3743  -3.3741  -3.3729  -3.3684  -3.3583  -3.3379
    -3.3149  -3.3098  -3.2900  -3.2790  -3.2755  -3.2738  -3.2690  -3.2637
    -3.2334  -3.2327  -3.2320  -3.2305  -3.2305  -3.2294  -3.2196  -3.2172
    -3.2159  -3.2154  -3.2082  -3.2054  -3.1988  -3.1928  -3.1896  -3.1862
    -3.1825  -3.1759  -3.1734  -3.1702  -3.1668  -3.1585  -3.1571  -3.1550
    -3.1527  -3.1494  -3.1419  -3.1394  -3.1281  -3.1154  -3.1080  -3.1025
    -3.0933  -3.0886  -3.0831  -3.0807  -3.0777  -3.0582  -3.0043  -3.0034
    -2.9980  -2.9919  -2.9500  -2.9363  -2.9237  -2.9202  -2.8294  -2.8187
    -2.8046  -2.7861  -2.7778  -2.7691  -2.7608  -2.7532  -2.7452  -2.7433
    -2.7370  -2.7346  -2.7284  -2.7202  -2.6483  -2.6188  -2.6100  -2.6062
    -2.6050  -2.5956  -2.5937  -2.5739  -2.5697  -2.5553  -2.5536  -2.5444

          k =-0.5000-0.8660 0.0000 (386352 PWs)   bands (ev):

  -103.9551-101.5591 -89.0753 -72.3592 -72.3481 -72.3085 -72.2704 -72.2619
   -72.2013 -72.1944 -70.0557 -70.0480 -70.0087 -69.9544 -69.9444 -69.7711
   -69.7704 -66.8370 -66.8326 -66.8326 -66.8321 -66.8321 -66.8289 -66.8286
   -66.8258 -66.8219 -66.8219 -66.8215 -66.8215 -66.8182 -66.8180 -66.8126
   -66.8068 -66.8068 -66.8068 -66.8068 -66.8064 -66.8064 -66.8064 -66.8064
   -66.8044 -66.8034 -66.8033 -66.8028 -66.8026 -66.8024 -66.8024 -66.8019
   -66.8019 -66.7996 -66.7987 -66.7984 -66.7961 -66.7961 -66.7961 -66.7961
   -66.7957 -66.7957 -66.7956 -66.7956 -66.7936 -66.7928 -66.7924 -66.7922
   -66.7917 -66.7917 -66.7917 -66.7912 -66.7912 -66.7891 -66.7879 -66.7877
   -66.7870 -66.7823 -66.7813 -66.7771 -66.7666 -66.7531 -66.7454 -66.7415
   -66.7347 -58.3547 -58.0949 -57.9242 -56.1649 -55.4981 -55.4530 -54.9802
   -54.8551 -54.7597 -41.1347 -41.1347 -41.1347 -41.1347 -41.1345 -41.1345
   -41.1345 -41.1345 -41.1310 -41.1307 -41.1306 -41.1301 -41.1248 -41.1215
   -41.1079 -41.1079 -41.1077 -41.1077 -41.1039 -41.1037 -41.0981 -41.0963
   -41.0959 -41.0958 -41.0956 -41.0956 -41.0927 -41.0918 -41.0917 -41.0814
   -41.0702 -41.0570 -41.0451 -41.0451 -41.0451 -41.0451 -41.0450 -41.0450
   -41.0450 -41.0450 -41.0411 -41.0411 -41.0410 -41.0409 -41.0303 -41.0228
   -41.0191 -41.0112 -41.0059 -40.9954 -40.9865 -40.9865 -40.9863 -40.9863
   -40.9827 -40.9826 -40.9825 -40.9767 -40.9767 -40.9767 -40.9767 -40.9728
   -40.9727 -40.9656 -40.9656 -40.9654 -40.9654 -40.9642 -40.9618 -40.9617
   -40.9567 -40.9497 -40.9437 -40.9411 -40.9359 -40.9359 -40.9359 -40.9359
   -40.9358 -40.9358 -40.9358 -40.9358 -40.9325 -40.9324 -40.9319 -40.9317
   -40.9302 -40.9272 -40.9272 -40.9271 -40.9271 -40.9244 -40.9235 -40.9232
   -40.9164 -40.9152 -40.9152 -40.9152 -40.9152 -40.9149 -40.9149 -40.9149
   -40.9149 -40.9148 -40.9148 -40.9148 -40.9148 -40.9116 -40.9113 -40.9112
   -40.9112 -40.9109 -40.9106 -40.9100 -40.9070 -40.9062 -40.9062 -40.9061
   -40.9061 -40.9025 -40.9024 -40.9023 -40.8968 -40.8939 -40.8902 -40.8853
   -40.8843 -40.8843 -40.8842 -40.8842 -40.8842 -40.8842 -40.8842 -40.8842
   -40.8808 -40.8805 -40.8801 -40.8800 -40.8799 -40.8743 -40.8699 -40.8629
   -40.8545 -40.8495 -40.8495 -40.8495 -40.8495 -40.8494 -40.8494 -40.8494
   -40.8494 -40.8457 -40.8456 -40.8456 -40.8455 -40.8428 -40.8374 -40.8374
   -40.8373 -40.8373 -40.8336 -40.8333 -40.8269 -40.8246 -40.8221 -40.8181
   -40.8180 -40.8180 -40.8180 -40.8145 -40.8139 -40.8138 -40.8078 -40.8011
   -40.8011 -40.8009 -40.8009 -40.7972 -40.7971 -40.7955 -40.7894 -40.7803
   -40.7704 -40.7704 -40.7703 -40.7703 -40.7672 -40.7667 -40.7662 -40.7563
   -40.7416 -40.7260 -20.3217 -20.0990 -20.0827 -20.0389 -19.9854 -19.9483
   -19.8760 -19.8595 -19.7455 -19.6787 -19.6453 -19.6282 -19.5556 -19.5359
   -19.4526 -19.4394 -19.3511 -19.0792 -19.0231 -18.9839 -18.9707 -18.9495
   -18.9369 -18.9336 -18.9309 -18.9202 -18.9008 -18.8716 -18.8656 -18.8556
[...]
S                0.0000152751        3.6387340328      -10.7330757790    0   0   0
S               -1.5755906502        4.5484413613       -1.4877305502    0   0   0
Mo              -1.5751602557        4.5477935362        3.0573293868
Mo              -0.0345888192        3.6459862630        9.2244697275
S               -1.5901476963        4.5414233748        7.6106813041
S                0.0010372206        3.6376192645        4.6246457807
S               -0.0003158845        3.6386694324        1.4882873383
S               -1.6384469994        4.5894921869       10.7744284266
Mo              -3.1512226931        7.2774749019       -9.1672481230    0   0   0
Mo              -1.5755910988        6.3678216792       -3.0555115988    0   0   0
S               -3.1512162438        7.2774954350       -4.6232578178    0   0   0
S               -1.5756025210        6.3677884239       -7.6014065489    0   0   0
S               -1.5756020673        6.3677895528      -10.7330757790    0   0   0
S               -3.1512127704        7.2774877076       -1.4877200710    0   0   0
Mo              -3.1512031246        7.2771265845        3.0567117669
Mo              -1.5829804890        6.3808393815        9.1683195063
S               -3.1570917823        7.2822851560        7.5739200977
S               -1.5749539678        6.3675390656        4.6238326711
S               -1.5760867472        6.3668381408        1.4887667425
S               -3.1623243828        7.2884602685       10.7119592055
Mo              -4.7268400355       10.0065304219       -9.1672481230    0   0   0
Mo              -3.1512405618        9.0968403586       -3.0554816746    0   0   0
S               -4.7268341792       10.0065523623       -4.6232463762    0   0   0
S               -3.1512198634        9.0968439439       -7.6014065489    0   0   0
S               -3.1512194097        9.0968450728      -10.7330757790    0   0   0
S               -4.7268370797       10.0065537885       -1.4877176751    0   0   0
Mo              -4.7271138824       10.0068230596        3.0568194048
Mo              -3.1539819343        9.1042248545        9.1443923143
S               -4.7392492931       10.0401595785        7.6098406182
S               -3.1518195825        9.0970458632        4.6237667117
S               -3.1514230882        9.0965922386        1.4890257238
S               -4.7201083406        9.9906102025       10.7355574663
Mo               3.1512517547        1.8193638619       -9.1672481230    0   0   0
Mo               4.7269020221        0.9097289540       -3.0554823951    0   0   0
S                3.1512612351        1.8193882564       -4.6232320683    0   0   0
S                4.7268719268        0.9096773839       -7.6014065489    0   0   0
S                4.7268723805        0.9096785128      -10.7330757790    0   0   0
S                3.1512592485        1.8193890201       -1.4877261251    0   0   0
Mo               3.1508006595        1.8190854313        3.0570585106
Mo               4.7238179355        0.9136418115        9.1507550628
S                3.1305962004        1.8312958794        7.6128593382
S                4.7266421735        0.9095532890        4.6237812111
S                4.7265048603        0.9094299609        1.4889302793
S                3.1754139213        1.8481815271       10.7402756564
Mo               1.5756344123        4.5484193819       -9.1672481230    0   0   0
Mo               3.1512756394        3.6387769522       -3.0554814834    0   0   0
S                1.5756504879        4.5484423799       -4.6232390542    0   0   0
S                3.1512545844        3.6387329039       -7.6014065489    0   0   0
S                3.1512550381        3.6387340328      -10.7330757790    0   0   0
S                1.5756466253        4.5484431864       -1.4877251801    0   0   0
Mo               1.5756399250        4.5477427983        3.0559535823
Mo               3.1628162851        3.6586691905        9.1727013349
S                1.5299237360        4.5778885937        7.6712158887
S                3.1499055869        3.6386853797        4.6248723187
S                3.1521930475        3.6380040955        1.4891352202
S                1.6372587649        4.5938116591       10.7326513443
Mo               0.0000170699        7.2774749019       -9.1672481230    0   0   0
Mo               1.5756764447        6.3678236689       -3.0554877708    0   0   0
S                0.0000381981        7.2774979204       -4.6232454413    0   0   0
S                1.5756372420        6.3677884239       -7.6014065489    0   0   0
S                1.5756376957        6.3677895528      -10.7330757790    0   0   0
S                0.0000328088        7.2774946042       -1.4877307940    0   0   0
Mo               0.0001363043        7.2767263126        3.0558239288
Mo               1.5855203093        6.4372777388        9.1815504760
S               -0.0199245579        7.2835609528        7.5918993239
S                1.5760271510        6.3669986957        4.6240933199
S                1.5755052815        6.3668588346        1.4877724806
S               -0.0139952706        7.3253123210       10.7844762540
Mo              -1.5756002725       10.0065304219       -9.1672481230    0   0   0
Mo               0.0000873425        9.0968676911       -3.0554912329    0   0   0
S               -1.5755883952       10.0065504530       -4.6232240150    0   0   0
S                0.0000198996        9.0968439439       -7.6014065489    0   0   0
S                0.0000203533        9.0968450728      -10.7330757790    0   0   0
S               -1.5755859047       10.0065492576       -1.4877362381    0   0   0
Mo              -1.5755957804       10.0062676020        3.0565581682
Mo              -0.0154374952        9.1029716942        9.1402013212
S               -1.5861782891       10.0152744836        7.5682931672
S                0.0001033149        9.0955023243        4.6233148158
S                0.0003566211        9.0969158454        1.4886864669
S               -1.5730462317       10.0045384901       10.7115111059
Mo               6.3024915177        1.8193638619       -9.1672481230    0   0   0
Mo               7.8781001445        0.9096521684       -3.0554919963    0   0   0
S                6.3025008696        1.8193826232       -4.6232480596    0   0   0
S                7.8781116898        0.9096773839       -7.6014065489    0   0   0
S                7.8781121435        0.9096785128      -10.7330757790    0   0   0
S                6.3025042007        1.8193849068       -1.4877147524    0   0   0
Mo               6.3026061016        1.8188410008        3.0561921370
Mo               7.8755504966        0.9157778951        9.1430291745
S                6.2982084203        1.8182391808        7.5738620315
S                7.8787238162        0.9099760394        4.6238219395
S                7.8787629879        0.9090044739        1.4893709221
S                6.3025545330        1.8211333752       10.7103825469
Mo               4.7268741753        4.5484193819       -9.1672481230    0   0   0
Mo               6.3024679138        3.6387501714       -3.0554895197    0   0   0
S                4.7268748770        4.5484386753       -4.6232519432    0   0   0
S                6.3024943474        3.6387329039       -7.6014065489    0   0   0
S                6.3024948011        3.6387340328      -10.7330757790    0   0   0
S                4.7268770533        4.5484432419       -1.4877137856    0   0   0
Mo               4.7268213081        4.5481701100        3.0574610550
Mo               6.2994223719        3.6404223875        9.1398997922
S                4.7225261062        4.5441364980        7.5720032539
S                6.3034596619        3.6377357370        4.6234471235
S                6.3024231356        3.6385999233        1.4892017997
S                4.7373388768        4.5588569012       10.7140422622
Mo               3.1512568329        7.2774749019       -9.1672481230    0   0   0
Mo               4.7268384135        6.3678043337       -3.0554959052    0   0   0
S                3.1512606125        7.2774972547       -4.6232589675    0   0   0
S                4.7268770050        6.3677884239       -7.6014065489    0   0   0
S                4.7268774587        6.3677895528      -10.7330757790    0   0   0
S                3.1512629079        7.2774963749       -1.4877081835    0   0   0
Mo               3.1512650675        7.2771750807        3.0552027377
Mo               4.7308791096        6.3701463723        9.1455332342
S                3.1537623389        7.2978815519        7.5927491068
S                4.7258559387        6.3686600363        4.6236189683
S                4.7277442061        6.3668554676        1.4884493656
S                3.2909658364        7.3604442019       10.8193551966
Mo               1.5756394905       10.0065304219       -9.1672481230    0   0   0
Mo               3.1512330605        9.0968514907       -3.0554878870    0   0   0
S                1.5756499830       10.0065443759       -4.6232632674    0   0   0
S                3.1512596626        9.0968439439       -7.6014065489    0   0   0
S                3.1512601163        9.0968450728      -10.7330757790    0   0   0
S                1.5756503041       10.0065459699       -1.4877044377    0   0   0
Mo               1.5762030906       10.0059516424        3.0571064789
Mo               3.1559201763        9.1163821726        9.1522555150
S                1.5750225160       10.0228491199        7.5664025955
S                3.1521425211        9.0954674420        4.6238164983
S                3.1514176743        9.0973121607        1.4882199743
S                1.5595077466       10.0088016421       10.6946959637
Mo               9.4537312807        1.8193638619       -9.1672481230    0   0   0
Mo              11.0293863460        0.9096952246       -3.0554894007    0   0   0
S                9.4537395970        1.8193770750       -4.6232328036    0   0   0
S               11.0293514528        0.9096773839       -7.6014065489    0   0   0
S               11.0293519066        0.9096785128      -10.7330757790    0   0   0
S                9.4537393632        1.8193794783       -1.4877366147    0   0   0
Mo               9.4545582636        1.8191315984        3.0568012809
Mo              11.0360384690        0.9194863380        9.2075394508
S                9.4796933654        1.8118422452        7.6037125802
S               11.0308612327        0.9100311529        4.6239465828
S               11.0292905352        0.9091971890        1.4883416455
S                9.4279498567        1.8301335325       10.7346787606
Mo               7.8781139383        4.5484193819       -9.1672481230    0   0   0
Mo               9.4537539161        3.6387607911       -3.0554933032    0   0   0
S                7.8781175448        4.5484378232       -4.6232366318    0   0   0
S                9.4537341104        3.6387329039       -7.6014065489    0   0   0
S                9.4537345641        3.6387340328      -10.7330757790    0   0   0
S                7.8781194018        4.5484411585       -1.4877377057    0   0   0
Mo               7.8786806926        4.5478856018        3.0565147494
Mo               9.4356841643        3.6449046160        9.1595399511
S                7.8771126392        4.5465608321        7.5702381885
S                9.4540275570        3.6380065689        4.6248691671
S                9.4545261206        3.6383272730        1.4892913628
S                7.8613435935        4.5551796806       10.7121204349
Mo               6.3024965959        7.2774749019       -9.1672481230    0   0   0
Mo               7.8781361655        6.3678242352       -3.0555014130    0   0   0
S                6.3024973331        7.2774953556       -4.6232392528    0   0   0
S                7.8781167680        6.3677884239       -7.6014065489    0   0   0
S                7.8781172217        6.3677895528      -10.7330757790    0   0   0
S                6.3024989866        7.2774929744       -1.4877349119    0   0   0
Mo               6.3024485699        7.2773958107        3.0567085707
Mo               7.8758341806        6.3701143785        9.1363002312
S                6.2990421114        7.2946460574        7.5773607634
S                7.8779571628        6.3672975612        4.6235538877
S                7.8781910722        6.3675181758        1.4889784777
S                6.3115754362        7.2658612337       10.7098313463
Mo               4.7268792535       10.0065304219       -9.1672481230    0   0   0
Mo               6.3025111524        9.0968738021       -3.0554915260    0   0   0
S                4.7268840634       10.0065452125       -4.6232380477    0   0   0
S                6.3024994256        9.0968439439       -7.6014065489    0   0   0
S                6.3024998793        9.0968450728      -10.7330757790    0   0   0
S                4.7268847312       10.0065459141       -1.4877283294    0   0   0
Mo               4.7270777334       10.0065086380        3.0565916145
Mo               6.2962817595        9.1048248280        9.1647330410
S                4.7339122432       10.0436954437        7.6040860063
S                6.3024867783        9.0971173942        4.6245406870
S                6.3026509513        9.0966792512        1.4891721845
S                4.7188287211       10.0041149159       10.7446198969
Pt               1.8315879259        6.2371002811       12.2402259733
Pd               0.2757799367        3.9558611673       12.3676055305
Pt               1.0340960682        5.4806384141       14.4568963290



     Writing config-only to output data dir ./outdir/pwscf.save/ :
     XML data file
     NEW-OLD atomic charge density approx. for the potential

     negative rho (up, down):  7.979E-04 0.000E+00

     total cpu time spent up to now is   248927.0 secs

     Self-consistent Calculation

     iteration #  1     ecut=    77.00 Ry     beta= 0.20
     Davidson diagonalization with overlap
     ethr =  1.00E-06,  avg # of iterations = 32.0

     negative rho (up, down):  8.019E-04 0.000E+00

     total cpu time spent up to now is   250839.4 secs

     total energy              =  -35655.59741033 Ry
     estimated scf accuracy    <       0.88429773 Ry

     iteration #  2     ecut=    77.00 Ry     beta= 0.20
     Davidson diagonalization with overlap
     ethr =  5.06E-05,  avg # of iterations =  9.0

     negative rho (up, down):  7.992E-04 0.000E+00

     total cpu time spent up to now is   251288.1 secs

     total energy              =  -35654.25727602 Ry
     estimated scf accuracy    <      37.41866376 Ry

     iteration #  3     ecut=    77.00 Ry     beta= 0.20
     Davidson diagonalization with overlap
     c_bands:  4 eigenvalues not converged
     ethr =  5.06E-05,  avg # of iterations = 21.0

     negative rho (up, down):  8.006E-04 0.000E+00

     total cpu time spent up to now is   251957.9 secs

     total energy              =  -35655.41188414 Ry
     estimated scf accuracy    <       4.49714483 Ry

     iteration #  4     ecut=    77.00 Ry     beta= 0.20
     Davidson diagonalization with overlap
     ethr =  5.06E-05,  avg # of iterations =  7.5

     negative rho (up, down):  7.989E-04 0.000E+00

     total cpu time spent up to now is   252390.6 secs

     total energy              =  -35655.31572051 Ry
     estimated scf accuracy    <       0.19256386 Ry

     iteration #  5     ecut=    77.00 Ry     beta= 0.20
     Davidson diagonalization with overlap
     c_bands:  3 eigenvalues not converged
     c_bands:  1 eigenvalues not converged
     ethr =  1.10E-05,  avg # of iterations = 17.2

     negative rho (up, down):  8.005E-04 0.000E+00

     total cpu time spent up to now is   252888.1 secs

     total energy              =  -35655.20098192 Ry
     estimated scf accuracy    <       0.02370495 Ry

     iteration #  6     ecut=    77.00 Ry     beta= 0.20
     Davidson diagonalization with overlap
     c_bands:  5 eigenvalues not converged
     c_bands: 14 eigenvalues not converged
     c_bands:  3 eigenvalues not converged
     ethr =  1.36E-06,  avg # of iterations = 60.5

     negative rho (up, down):  8.019E-04 0.000E+00

     total cpu time spent up to now is   254416.5 secs

     total energy              =  -35655.15680162 Ry
     estimated scf accuracy    <       0.01570252 Ry

     iteration #  7     ecut=    77.00 Ry     beta= 0.20
     Davidson diagonalization with overlap
     c_bands:  1 eigenvalues not converged
     ethr =  8.99E-07,  avg # of iterations = 13.0

     negative rho (up, down):  8.009E-04 0.000E+00

     total cpu time spent up to now is   254956.9 secs

     total energy              =  -35655.05666468 Ry
     estimated scf accuracy    <       0.01115726 Ry

     iteration #  8     ecut=    77.00 Ry     beta= 0.20
     Davidson diagonalization with overlap
     ethr =  6.39E-07,  avg # of iterations = 21.2

     negative rho (up, down):  8.025E-04 0.000E+00

     total cpu time spent up to now is   255572.4 secs

     total energy              =  -35655.02759046 Ry
     estimated scf accuracy    <       0.01106780 Ry

     iteration #  9     ecut=    77.00 Ry     beta= 0.20
     Davidson diagonalization with overlap
     ethr =  6.34E-07,  avg # of iterations =  5.0

     negative rho (up, down):  8.040E-04 0.000E+00

     total cpu time spent up to now is   255999.9 secs

     total energy              =  -35655.00765499 Ry
     estimated scf accuracy    <       0.00898408 Ry

     iteration # 10     ecut=    77.00 Ry     beta= 0.20
     Davidson diagonalization with overlap
     ethr =  5.15E-07,  avg # of iterations =  5.0

     negative rho (up, down):  8.053E-04 0.000E+00

     total cpu time spent up to now is   256426.8 secs

     total energy              =  -35654.98836323 Ry
     estimated scf accuracy    <       0.00734603 Ry

     iteration # 11     ecut=    77.00 Ry     beta= 0.20
     Davidson diagonalization with overlap
     ethr =  4.21E-07,  avg # of iterations =  8.0

     negative rho (up, down):  8.058E-04 0.000E+00

     total cpu time spent up to now is   256869.3 secs

     total energy              =  -35654.96726092 Ry
     estimated scf accuracy    <       0.00524106 Ry

     iteration # 12     ecut=    77.00 Ry     beta= 0.20
     Davidson diagonalization with overlap
     ethr =  3.00E-07,  avg # of iterations = 13.0

     negative rho (up, down):  8.081E-04 0.000E+00

     total cpu time spent up to now is   257368.3 secs

     total energy              =  -35654.97519425 Ry
     estimated scf accuracy    <       0.00452694 Ry

     iteration # 13     ecut=    77.00 Ry     beta= 0.20
     Davidson diagonalization with overlap
     ethr =  2.59E-07,  avg # of iterations =  3.0

     negative rho (up, down):  8.099E-04 0.000E+00

     total cpu time spent up to now is   257783.7 secs

     total energy              =  -35654.97200026 Ry
     estimated scf accuracy    <       0.00419531 Ry

     iteration # 14     ecut=    77.00 Ry     beta= 0.20
     Davidson diagonalization with overlap
     ethr =  2.40E-07,  avg # of iterations =  1.2

     negative rho (up, down):  8.061E-04 0.000E+00

     total cpu time spent up to now is   258164.3 secs

     total energy              =  -35654.91610582 Ry
     estimated scf accuracy    <       0.00316306 Ry

     iteration # 15     ecut=    77.00 Ry     beta= 0.20
     Davidson diagonalization with overlap
     c_bands:  1 eigenvalues not converged
     ethr =  1.81E-07,  avg # of iterations = 16.5

     negative rho (up, down):  8.089E-04 0.000E+00

     total cpu time spent up to now is   258772.9 secs

     total energy              =  -35654.92554284 Ry
     estimated scf accuracy    <       0.00084622 Ry

     iteration # 16     ecut=    77.00 Ry     beta= 0.20
     Davidson diagonalization with overlap
     ethr =  4.85E-08,  avg # of iterations = 11.0
