
     Program PWSCF v.7.2 starts on  4Oct2023 at 23:21:21 

     This program is part of the open-source Quantum ESPRESSO suite
     for quantum simulation of materials; please cite
         "P. Giannozzi et al., J. Phys.:Condens. Matter 21 395502 (2009);
         "P. Giannozzi et al., J. Phys.:Condens. Matter 29 465901 (2017);
         "P. Giannozzi et al., J. Chem. Phys. 152 154105 (2020);
          URL http://www.quantum-espresso.org", 
     in publications or presentations arising from this work. More details at
     http://www.quantum-espresso.org/quote

     Parallel version (MPI), running on    36 processors

     MPI processes distributed on     1 nodes
     770548 MiB available memory on the printing compute node when the environment starts
 
     Waiting for input...
     Reading input from standard input
Warning: card &CELL ignored
Warning: card / ignored

     Current dimensions of program PWSCF are:
     Max number of different atomic species (ntypx) = 10
     Max number of k-points (npk) =  40000
     Max angular momentum in pseudopotentials (lmaxx) =  4
     file Mo.pbe-spn-kjpaw_psl.1.0.0.UPF: wavefunction(s)  4S 4D renormalized
     file S.pbe-n-kjpaw_psl.1.0.0.UPF: wavefunction(s)  3S 3P renormalized
     file Pd.pbe-spn-kjpaw_psl.1.0.0.UPF: wavefunction(s)  4S 5S 4D renormalized
 
     R & G space division:  proc/nbgrp/npool/nimage =      36
     Subspace diagonalization in iterative solution of the eigenvalue problem:
     one sub-group per band group will be used
     custom distributed-memory algorithm (size of sub-group:  6*  6 procs)

 
     Parallelization info
     --------------------
     sticks:   dense  smooth     PW     G-vecs:    dense   smooth      PW
     Min         586     335     89               165416    71459    9765
     Max         587     337     90               165425    71461    9778
     Sum       21109   12085   3205              5955087  2572543  351657
 
     Using Slab Decomposition
 


     bravais-lattice index     =            0
     lattice parameter (alat)  =      23.8395  a.u.
     unit-cell volume          =   28182.8498 (a.u.)^3
     number of atoms/cell      =          146
     number of atomic types    =            3
     number of electrons       =      1284.00
     number of Kohn-Sham states=          770
     kinetic-energy cutoff     =      77.0000  Ry
     charge density cutoff     =     539.0000  Ry
     scf convergence threshold =      1.0E-06
     mixing beta               =       0.2000
     number of iterations used =            8  plain     mixing
     energy convergence thresh.=      1.0E-04
     force convergence thresh. =      1.0E-03
     Exchange-correlation= SLA  PW   PBX  PBC
                           (   1   4   3   4   0   0   0)
     nstep                     =         1000


     Effective Screening Medium Method
     =================================
     Boundary Conditions: Vacuum-Slab-Vacuum
     total charge in unit cell        =   0.0000
     grid points for fit at edges     =        4 
 

     celldm(1)=  23.839504  celldm(2)=   0.000000  celldm(3)=   0.000000
     celldm(4)=   0.000000  celldm(5)=   0.000000  celldm(6)=   0.000000

     crystal axes: (cart. coord. in units of alat)
               a(1) = (   1.000000   0.000000   0.000000 )  
               a(2) = (  -0.500001   0.866026   0.000000 )  
               a(3) = (   0.000000   0.000000   2.401941 )  

     reciprocal axes: (cart. coord. in units 2 pi/alat)
               b(1) = (  1.000000  0.577351  0.000000 )  
               b(2) = (  0.000000  1.154700  0.000000 )  
               b(3) = (  0.000000  0.000000  0.416330 )  


     PseudoPot. # 1 for Mo read from file:
     ./pseudo/Mo.pbe-spn-kjpaw_psl.1.0.0.UPF
     MD5 check sum: 317bf72632116215fd98f72de1686f13
     Pseudo is Projector augmented-wave + core cor, Zval = 14.0
     Generated using 'atomic' code by A. Dal Corso  v.7.2
     Shape of augmentation charge: PSQ
     Using radial grid of 1229 points,  6 beta functions with: 
                l(1) =   0
                l(2) =   0
                l(3) =   1
                l(4) =   1
                l(5) =   2
                l(6) =   2
     Q(r) pseudized with 0 coefficients 


     PseudoPot. # 2 for S  read from file:
     ./pseudo/S.pbe-n-kjpaw_psl.1.0.0.UPF
     MD5 check sum: 8b7b5302570d38d5e87fed6a1065abda
     Pseudo is Projector augmented-wave + core cor, Zval =  6.0
     Generated using 'atomic' code by A. Dal Corso  v.7.2
     Shape of augmentation charge: PSQ
     Using radial grid of 1151 points,  6 beta functions with: 
                l(1) =   0
                l(2) =   0
                l(3) =   1
                l(4) =   1
                l(5) =   2
                l(6) =   2
     Q(r) pseudized with 0 coefficients 


     PseudoPot. # 3 for Pd read from file:
     ./pseudo/Pd.pbe-spn-kjpaw_psl.1.0.0.UPF
     MD5 check sum: a60571a671f2502b8a6a4569d20a6edb
     Pseudo is Projector augmented-wave + core cor, Zval = 18.0
     Generated using 'atomic' code by A. Dal Corso  v.7.2
     Shape of augmentation charge: PSQ
     Using radial grid of 1235 points,  6 beta functions with: 
                l(1) =   0
                l(2) =   0
                l(3) =   1
                l(4) =   1
                l(5) =   2
                l(6) =   2
     Q(r) pseudized with 0 coefficients 


     atomic species   valence    mass     pseudopotential
        Mo            14.00    95.95000     Mo( 1.00)
        S              6.00    32.06000     S ( 1.00)
        Pd            18.00   106.42000     Pd( 1.00)

     No symmetry found



   Cartesian axes

     site n.     atom                  positions (alat units)
         1           Mo  tau(   1) = (   0.1244805   0.2154429   0.4826124  )
         2           Mo  tau(   2) = (   0.1250004   0.0721694  -0.4825273  )
         3           Mo  tau(   3) = (   0.0000154   0.1443583  -0.0000534  )
         4           S   tau(   4) = (   0.0000004   0.0000006  -0.6064556  )
         5           S   tau(   5) = (   0.1249822   0.0722030  -0.1241916  )
         6           S   tau(   6) = (   0.0001873   0.1444894   0.3573292  )
         7           S   tau(   7) = (   0.0000004   0.0000005  -0.3584711  )
         8           S   tau(   8) = (   0.1250220   0.0721432   0.1241096  )
         9           S   tau(   9) = (  -0.0009222   0.1433430   0.6062350  )
        10           Mo  tau(  10) = (  -0.0011812   0.4330952   0.4826123  )
        11           Mo  tau(  11) = (   0.0000001   0.2886759  -0.4825273  )
        12           Mo  tau(  12) = (  -0.1249761   0.3608493  -0.0000533  )
        13           S   tau(  13) = (  -0.1249999   0.2165071  -0.6064556  )
        14           S   tau(  14) = (   0.0000232   0.2886904  -0.1241345  )
        15           S   tau(  15) = (  -0.1247753   0.3609305   0.3573291  )
        16           S   tau(  16) = (  -0.1249998   0.2165070  -0.3584711  )
        17           S   tau(  17) = (   0.0000901   0.2887289   0.1242236  )
        18           S   tau(  18) = (  -0.1263226   0.3605428   0.6062351  )
        19           Mo  tau(  19) = (  -0.1251400   0.6495983   0.4819363  )
        20           Mo  tau(  20) = (  -0.1250002   0.5051824  -0.4825273  )
        21           Mo  tau(  21) = (  -0.2500026   0.5773383  -0.0001491  )
        22           S   tau(  22) = (  -0.2500002   0.4330136  -0.6064556  )
        23           S   tau(  23) = (  -0.1249812   0.5051509  -0.1241919  )
        24           S   tau(  24) = (  -0.2500015   0.5775831   0.3575295  )
        25           S   tau(  25) = (  -0.2500001   0.4330135  -0.3584711  )
        26           S   tau(  26) = (  -0.1250129   0.5052153   0.1241101  )
        27           S   tau(  27) = (  -0.2500018   0.5771934   0.6060379  )
        28           Mo  tau(  28) = (   0.2499987  -0.0001601   0.4819365  )
        29           Mo  tau(  29) = (  -0.2500004   0.7216889  -0.4825273  )
        30           Mo  tau(  30) = (  -0.3750135   0.7938631  -0.0001491  )
        31           S   tau(  31) = (  -0.3750004   0.6495201  -0.6064556  )
        32           S   tau(  32) = (  -0.2500026   0.7216883  -0.1242347  )
        33           S   tau(  33) = (  -0.3747997   0.7937400   0.3575295  )
        34           S   tau(  34) = (  -0.3750004   0.6495200  -0.3584711  )
        35           S   tau(  35) = (  -0.2500029   0.7216883   0.1240299  )
        36           S   tau(  36) = (  -0.3751376   0.7939346   0.6060379  )
        37           Mo  tau(  37) = (   0.3755166   0.2154425   0.4826119  )
        38           Mo  tau(  38) = (   0.3750004   0.0721694  -0.4825273  )
        39           Mo  tau(  39) = (   0.2499990   0.1443474  -0.0000968  )
        40           S   tau(  40) = (   0.2500004   0.0000006  -0.6064556  )
        41           S   tau(  41) = (   0.3750152   0.0722028  -0.1241921  )
        42           S   tau(  42) = (   0.2499983   0.1443201   0.3580593  )
        43           S   tau(  43) = (   0.2500004   0.0000005  -0.3584711  )
        44           S   tau(  44) = (   0.3749754   0.0721432   0.1241106  )
        45           S   tau(  45) = (   0.2499987   0.1437775   0.6065499  )
        46           Mo  tau(  46) = (   0.2499984   0.4330123   0.4872880  )
        47           Mo  tau(  47) = (   0.2500001   0.2886759  -0.4825273  )
        48           Mo  tau(  48) = (   0.1250277   0.3608616  -0.0000572  )
        49           S   tau(  49) = (   0.1250001   0.2165071  -0.6064556  )
        50           S   tau(  50) = (   0.2499987   0.2886898  -0.1241693  )
        51           S   tau(  51) = (   0.1266397   0.3617911   0.3615924  )
        52           S   tau(  52) = (   0.1250002   0.2165070  -0.3584711  )
        53           S   tau(  53) = (   0.2499988   0.2886671   0.1241958  )
        54           S   tau(  54) = (   0.1173054   0.3564020   0.6108885  )
        55           Mo  tau(  55) = (   0.1243363   0.6504991   0.4826116  )
        56           Mo  tau(  56) = (   0.1249998   0.5051824  -0.4825273  )
        57           Mo  tau(  57) = (   0.0000060   0.5773464  -0.0000969  )
        58           S   tau(  58) = (  -0.0000002   0.4330136  -0.6064556  )
        59           S   tau(  59) = (   0.1250101   0.5051751  -0.1241696  )
        60           S   tau(  60) = (  -0.0000165   0.5773581   0.3580590  )
        61           S   tau(  61) = (  -0.0000001   0.4330135  -0.3584711  )
        62           S   tau(  62) = (   0.1249907   0.5051868   0.1241956  )
        63           S   tau(  63) = (  -0.0004863   0.5776299   0.6065497  )
        64           Mo  tau(  64) = (   0.5000682   0.0000393   0.4813064  )
        65           Mo  tau(  65) = (  -0.0000004   0.7216889  -0.4825273  )
        66           Mo  tau(  66) = (  -0.1249919   0.7938635  -0.0001489  )
        67           S   tau(  67) = (  -0.1250004   0.6495201  -0.6064556  )
        68           S   tau(  68) = (   0.0000350   0.7216859  -0.1241920  )
        69           S   tau(  69) = (  -0.1252051   0.7937392   0.3575294  )
        70           S   tau(  70) = (  -0.1250004   0.6495200  -0.3584711  )
        71           S   tau(  71) = (  -0.0000364   0.7216812   0.1241103  )
        72           S   tau(  72) = (  -0.1248667   0.7939344   0.6060378  )
        73           Mo  tau(  73) = (   0.6250985   0.2164481   0.4814760  )
        74           Mo  tau(  74) = (   0.6250004   0.0721694  -0.4825273  )
        75           Mo  tau(  75) = (   0.4999807   0.1443583  -0.0000532  )
        76           S   tau(  76) = (   0.5000004   0.0000006  -0.6064556  )
        77           S   tau(  77) = (   0.6249710   0.0721537  -0.1241599  )
        78           S   tau(  78) = (   0.4998101   0.1444887   0.3573287  )
        79           S   tau(  79) = (   0.5000004   0.0000005  -0.3584711  )
        80           S   tau(  80) = (   0.6250072   0.0721744   0.1241160  )
        81           S   tau(  81) = (   0.5009199   0.1433424   0.6062338  )
        82           Mo  tau(  82) = (   0.5011786   0.4330950   0.4826115  )
        83           Mo  tau(  83) = (   0.5000001   0.2886759  -0.4825273  )
        84           Mo  tau(  84) = (   0.3749686   0.3608615  -0.0000573  )
        85           S   tau(  85) = (   0.3750001   0.2165071  -0.6064556  )
        86           S   tau(  86) = (   0.4999725   0.2886900  -0.1241349  )
        87           S   tau(  87) = (   0.3733572   0.3617909   0.3615920  )
        88           S   tau(  88) = (   0.3750002   0.2165070  -0.3584711  )
        89           S   tau(  89) = (   0.4999057   0.2887288   0.1242238  )
        90           S   tau(  90) = (   0.3826919   0.3564018   0.6108876  )
        91           Mo  tau(  91) = (   0.3756598   0.6504996   0.4826113  )
        92           Mo  tau(  92) = (   0.3749998   0.5051824  -0.4825273  )
        93           Mo  tau(  93) = (   0.2499978   0.5773166  -0.0000576  )
        94           S   tau(  94) = (   0.2499998   0.4330136  -0.6064556  )
        95           S   tau(  95) = (   0.3749857   0.5051746  -0.1241697  )
        96           S   tau(  96) = (   0.2499981   0.5754545   0.3615919  )
        97           S   tau(  97) = (   0.2499999   0.4330135  -0.3584711  )
        98           S   tau(  98) = (   0.3750048   0.5051860   0.1241960  )
        99           S   tau(  99) = (   0.2499983   0.5862331   0.6108872  )
       100           Mo  tau( 100) = (   0.7499988   0.0001148   0.4814756  )
       101           Mo  tau( 101) = (   0.2499996   0.7216889  -0.4825273  )
       102           Mo  tau( 102) = (   0.1250062   0.7938321  -0.0000534  )
       103           S   tau( 103) = (   0.1249996   0.6495201  -0.6064556  )
       104           S   tau( 104) = (   0.2499971   0.7216593  -0.1241350  )
       105           S   tau( 105) = (   0.1250350   0.7936175   0.3573284  )
       106           S   tau( 106) = (   0.1249996   0.6495200  -0.3584711  )
       107           S   tau( 107) = (   0.2499972   0.7215818   0.1242234  )
       108           S   tau( 108) = (   0.1245975   0.7951515   0.6062336  )
       109           Mo  tau( 109) = (  -0.1251006   0.2164484   0.4814769  )
       110           Mo  tau( 110) = (   0.8750004   0.0721694  -0.4825273  )
       111           Mo  tau( 111) = (   0.7499976   0.1443379  -0.0001196  )
       112           S   tau( 112) = (   0.7500004   0.0000006  -0.6064556  )
       113           S   tau( 113) = (   0.8750246   0.0721533  -0.1241599  )
       114           S   tau( 114) = (   0.7499994   0.1443376   0.3572937  )
       115           S   tau( 115) = (   0.7500004   0.0000005  -0.3584711  )
       116           S   tau( 116) = (   0.8749884   0.0721739   0.1241157  )
       117           S   tau( 117) = (   0.7499987   0.1443370   0.6058240  )
       118           Mo  tau( 118) = (  -0.2500010   0.4329316   0.4813070  )
       119           Mo  tau( 119) = (   0.7500001   0.2886759  -0.4825273  )
       120           Mo  tau( 120) = (   0.6249710   0.3608493  -0.0000534  )
       121           S   tau( 121) = (   0.6250001   0.2165071  -0.6064556  )
       122           S   tau( 122) = (   0.7499973   0.2887067  -0.1241600  )
       123           S   tau( 123) = (   0.6247737   0.3609305   0.3573287  )
       124           S   tau( 124) = (   0.6250002   0.2165070  -0.3584711  )
       125           S   tau( 125) = (   0.7499971   0.2886649   0.1241160  )
       126           S   tau( 126) = (   0.6263203   0.3605423   0.6062340  )
       127           Mo  tau( 127) = (  -0.3748636   0.6495986   0.4819361  )
       128           Mo  tau( 128) = (   0.6249998   0.5051824  -0.4825273  )
       129           Mo  tau( 129) = (   0.4999891   0.5773453  -0.0000967  )
       130           S   tau( 130) = (   0.4999998   0.4330136  -0.6064556  )
       131           S   tau( 131) = (   0.6249761   0.5051506  -0.1241920  )
       132           S   tau( 132) = (   0.5000130   0.5773585   0.3580587  )
       133           S   tau( 133) = (   0.4999999   0.4330135  -0.3584711  )
       134           S   tau( 134) = (   0.6250081   0.5052147   0.1241104  )
       135           S   tau( 135) = (   0.5004826   0.5776298   0.6065487  )
       136           Mo  tau( 136) = (  -0.0000706   0.0000401   0.4813070  )
       137           Mo  tau( 137) = (   0.4999996   0.7216889  -0.4825273  )
       138           Mo  tau( 138) = (   0.3749881   0.7938314  -0.0000535  )
       139           S   tau( 139) = (   0.3749996   0.6495201  -0.6064556  )
       140           S   tau( 140) = (   0.4999594   0.7216844  -0.1241918  )
       141           S   tau( 141) = (   0.3749610   0.7936184   0.3573285  )
       142           S   tau( 142) = (   0.3749996   0.6495200  -0.3584711  )
       143           S   tau( 143) = (   0.5000310   0.7216802   0.1241101  )
       144           S   tau( 144) = (   0.3753979   0.7951517   0.6062337  )
       145           Pd  tau( 145) = (   0.2499985   0.4330123   0.7148096  )
       146           Pd  tau( 146) = (   0.1247689   0.5819511   0.7514275  )

     --------------------------------------------
     DFT-D3 Dispersion Correction (3-body terms):
     --------------------------------------------
       Reference C6 values for interpolation: 

         atom   Coordination number   C6
         S          0.000           268.01
         S          0.995           261.99
         S          1.990           251.62
         Mo         0.000          1691.79
         Mo         1.942          1004.01
         Mo        11.056           674.22
         Pd         0.000          1217.01
         Pd         1.863           573.90
         Pd         5.710           531.75

       Values used:

         atom   Coordination number  R0_AB[au]  C6      C8
         Mo        10.173            3.547    674.22  77634.20
         Mo        10.189            3.547    674.22  77634.20
         Mo        10.201            3.547    674.22  77634.20
         S          3.753            3.128    251.62  12327.25
         S          3.858            3.128    251.62  12327.25
         S          3.848            3.128    251.62  12327.25
         S          3.859            3.128    251.62  12327.25
         S          3.860            3.128    251.62  12327.25
         S          3.798            3.128    251.62  12327.25
         Mo        10.188            3.547    674.22  77634.20
         Mo        10.189            3.547    674.22  77634.20
         Mo        10.201            3.547    674.22  77634.20
         S          3.753            3.128    251.62  12327.25
         S          3.859            3.128    251.62  12327.25
         S          3.848            3.128    251.62  12327.25
         S          3.858            3.128    251.62  12327.25
         S          3.855            3.128    251.62  12327.25
         S          3.800            3.128    251.62  12327.25
         Mo        10.212            3.547    674.22  77634.20
         Mo        10.189            3.547    674.22  77634.20
         Mo        10.200            3.547    674.22  77634.20
         S          3.753            3.128    251.62  12327.25
         S          3.858            3.128    251.62  12327.25
         S          3.862            3.128    251.62  12327.25
         S          3.859            3.128    251.62  12327.25
         S          3.860            3.128    251.62  12327.25
         S          3.760            3.128    251.62  12327.25
         Mo        10.208            3.547    674.22  77634.20
         Mo        10.189            3.547    674.22  77634.20
         Mo        10.200            3.547    674.22  77634.20
         S          3.753            3.128    251.62  12327.25
         S          3.858            3.128    251.62  12327.25
         S          3.862            3.128    251.62  12327.25
         S          3.859            3.128    251.62  12327.25
         S          3.862            3.128    251.62  12327.25
         S          3.759            3.128    251.62  12327.25
         Mo        10.173            3.547    674.22  77634.20
         Mo        10.189            3.547    674.22  77634.20
         Mo        10.202            3.547    674.22  77634.20
         S          3.753            3.128    251.62  12327.25
         S          3.858            3.128    251.62  12327.25
         S          3.857            3.128    251.62  12327.25
         S          3.859            3.128    251.62  12327.25
         S          3.860            3.128    251.62  12327.25
         S          3.751            3.128    251.62  12327.25
         Mo        10.827            3.547    674.22  77634.20
         Mo        10.189            3.547    674.22  77634.20
         Mo        10.202            3.547    674.22  77634.20
         S          3.753            3.128    251.62  12327.25
         S          3.859            3.128    251.62  12327.25
         S          3.867            3.128    251.62  12327.25
         S          3.859            3.128    251.62  12327.25
         S          3.853            3.128    251.62  12327.25
         S          4.712            3.128    251.62  12327.25
         Mo        10.308            3.547    674.22  77634.20
         Mo        10.189            3.547    674.22  77634.20
         Mo        10.202            3.547    674.22  77634.20
         S          3.753            3.128    251.62  12327.25
         S          3.859            3.128    251.62  12327.25
         S          3.858            3.128    251.62  12327.25
         S          3.859            3.128    251.62  12327.25
         S          3.853            3.128    251.62  12327.25
         S          4.677            3.128    251.62  12327.25
         Mo        10.224            3.547    674.22  77634.20
         Mo        10.189            3.547    674.22  77634.20
         Mo        10.200            3.547    674.22  77634.20
         S          3.753            3.128    251.62  12327.25
         S          3.858            3.128    251.62  12327.25
         S          3.862            3.128    251.62  12327.25
         S          3.859            3.128    251.62  12327.25
         S          3.860            3.128    251.62  12327.25
         S          3.761            3.128    251.62  12327.25
         Mo        10.213            3.547    674.22  77634.20
         Mo        10.189            3.547    674.22  77634.20
         Mo        10.201            3.547    674.22  77634.20
         S          3.753            3.128    251.62  12327.25
         S          3.858            3.128    251.62  12327.25
         S          3.848            3.128    251.62  12327.25
         S          3.859            3.128    251.62  12327.25
         S          3.860            3.128    251.62  12327.25
         S          3.798            3.128    251.62  12327.25
         Mo        10.173            3.547    674.22  77634.20
         Mo        10.189            3.547    674.22  77634.20
         Mo        10.202            3.547    674.22  77634.20
         S          3.753            3.128    251.62  12327.25
         S          3.859            3.128    251.62  12327.25
         S          3.866            3.128    251.62  12327.25
         S          3.859            3.128    251.62  12327.25
         S          3.855            3.128    251.62  12327.25
         S          4.647            3.128    251.62  12327.25
         Mo        10.177            3.547    674.22  77634.20
         Mo        10.189            3.547    674.22  77634.20
         Mo        10.202            3.547    674.22  77634.20
         S          3.753            3.128    251.62  12327.25
         S          3.859            3.128    251.62  12327.25
         S          3.867            3.128    251.62  12327.25
         S          3.859            3.128    251.62  12327.25
         S          3.853            3.128    251.62  12327.25
         S          5.591            3.128    251.62  12327.25
         Mo        10.215            3.547    674.22  77634.20
         Mo        10.189            3.547    674.22  77634.20
         Mo        10.201            3.547    674.22  77634.20
         S          3.753            3.128    251.62  12327.25
         S          3.859            3.128    251.62  12327.25
         S          3.848            3.128    251.62  12327.25
         S          3.859            3.128    251.62  12327.25
         S          3.855            3.128    251.62  12327.25
         S          3.895            3.128    251.62  12327.25
         Mo        10.213            3.547    674.22  77634.20
         Mo        10.189            3.547    674.22  77634.20
         Mo        10.199            3.547    674.22  77634.20
         S          3.753            3.128    251.62  12327.25
         S          3.858            3.128    251.62  12327.25
         S          3.855            3.128    251.62  12327.25
         S          3.858            3.128    251.62  12327.25
         S          3.860            3.128    251.62  12327.25
         S          3.777            3.128    251.62  12327.25
         Mo        10.223            3.547    674.22  77634.20
         Mo        10.189            3.547    674.22  77634.20
         Mo        10.201            3.547    674.22  77634.20
         S          3.753            3.128    251.62  12327.25
         S          3.858            3.128    251.62  12327.25
         S          3.848            3.128    251.62  12327.25
         S          3.858            3.128    251.62  12327.25
         S          3.860            3.128    251.62  12327.25
         S          3.798            3.128    251.62  12327.25
         Mo        10.208            3.547    674.22  77634.20
         Mo        10.189            3.547    674.22  77634.20
         Mo        10.202            3.547    674.22  77634.20
         S          3.753            3.128    251.62  12327.25
         S          3.859            3.128    251.62  12327.25
         S          3.857            3.128    251.62  12327.25
         S          3.859            3.128    251.62  12327.25
         S          3.860            3.128    251.62  12327.25
         S          3.751            3.128    251.62  12327.25
         Mo        10.223            3.547    674.22  77634.20
         Mo        10.189            3.547    674.22  77634.20
         Mo        10.201            3.547    674.22  77634.20
         S          3.753            3.128    251.62  12327.25
         S          3.858            3.128    251.62  12327.25
         S          3.848            3.128    251.62  12327.25
         S          3.859            3.128    251.62  12327.25
         S          3.860            3.128    251.62  12327.25
         S          3.800            3.128    251.62  12327.25
         Pd         4.692            3.168    531.75  48720.73
         Pd         3.155            3.168    573.90  52583.08

         Molecular C6 ( Ry / a.u.^6 ) =   7919224.27


     number of k points=     4  Gaussian smearing, width (Ry)=  0.0100
                       cart. coord. in units 2pi/alat
        k(    1) = (   0.0000000   0.0000000   0.0000000), wk =   0.5000000
        k(    2) = (   0.0000000  -0.5773499   0.0000000), wk =   0.5000000
        k(    3) = (  -0.5000000  -0.2886755   0.0000000), wk =   0.5000000
        k(    4) = (  -0.5000000  -0.8660254   0.0000000), wk =   0.5000000

     Dense  grid:  5955087 G-vectors     FFT dimensions: ( 180, 180, 432)

     Smooth grid:  2572543 G-vectors     FFT dimensions: ( 135, 135, 320)

     Estimated max dynamical RAM per process >       2.14 GB

     Estimated total dynamical RAM >      76.86 GB

     Initial potential from superposition of free atoms

     starting charge    1283.9538, renormalised to    1284.0000

     negative rho (up, down):  1.067E-03 0.000E+00
     Starting wfcs are  884 randomized atomic wfcs
     Checking if some PAW data can be deallocated... 

     total cpu time spent up to now is      106.2 secs

     Self-consistent Calculation

     iteration #  1     ecut=    77.00 Ry     beta= 0.20
     Davidson diagonalization with overlap
     ethr =  1.00E-02,  avg # of iterations =  2.0

     Threshold (ethr) on eigenvalues was too large:
     Diagonalizing with lowered threshold

     Davidson diagonalization with overlap
     ethr =  2.22E-04,  avg # of iterations = 15.0

     negative rho (up, down):  3.497E-04 0.000E+00

     total cpu time spent up to now is     1105.6 secs

     total energy              =  -24868.95732058 Ry
     estimated scf accuracy    <       4.74223585 Ry

     iteration #  2     ecut=    77.00 Ry     beta= 0.20
     Davidson diagonalization with overlap
     ethr =  3.69E-04,  avg # of iterations =  8.0

     negative rho (up, down):  8.934E-05 0.000E+00

     total cpu time spent up to now is     1350.7 secs

     total energy              =  -24868.44544748 Ry
     estimated scf accuracy    <       2.25869741 Ry

     iteration #  3     ecut=    77.00 Ry     beta= 0.20
     Davidson diagonalization with overlap
     ethr =  1.76E-04,  avg # of iterations =  8.5

     negative rho (up, down):  3.113E-05 0.000E+00

     total cpu time spent up to now is     1599.4 secs

     total energy              =  -24868.21674232 Ry
     estimated scf accuracy    <       0.97072331 Ry

     iteration #  4     ecut=    77.00 Ry     beta= 0.20
     Davidson diagonalization with overlap
     ethr =  7.56E-05,  avg # of iterations = 15.5

     negative rho (up, down):  3.887E-05 0.000E+00

     total cpu time spent up to now is     2086.1 secs

     total energy              =  -24868.75317684 Ry
     estimated scf accuracy    <       0.48611208 Ry

     iteration #  5     ecut=    77.00 Ry     beta= 0.20
     Davidson diagonalization with overlap
     c_bands:  1 eigenvalues not converged
     c_bands:  1 eigenvalues not converged
     ethr =  3.79E-05,  avg # of iterations = 15.2

     negative rho (up, down):  4.730E-05 0.000E+00

     total cpu time spent up to now is     2423.5 secs

     total energy              =  -24868.93524198 Ry
     estimated scf accuracy    <       0.13122529 Ry

     iteration #  6     ecut=    77.00 Ry     beta= 0.20
     Davidson diagonalization with overlap
     c_bands:  4 eigenvalues not converged
     c_bands:  1 eigenvalues not converged
     ethr =  1.02E-05,  avg # of iterations = 46.0

     negative rho (up, down):  1.004E-04 0.000E+00

     total cpu time spent up to now is     3527.3 secs

     total energy              =  -24869.08048618 Ry
     estimated scf accuracy    <       0.11954238 Ry

     iteration #  7     ecut=    77.00 Ry     beta= 0.20
     Davidson diagonalization with overlap
     c_bands:  1 eigenvalues not converged
     ethr =  9.31E-06,  avg # of iterations =  6.0

     negative rho (up, down):  3.620E-04 0.000E+00

     total cpu time spent up to now is     3757.3 secs

     total energy              =  -24869.05438947 Ry
     estimated scf accuracy    <       0.08779713 Ry

     iteration #  8     ecut=    77.00 Ry     beta= 0.20
     Davidson diagonalization with overlap
     c_bands:  1 eigenvalues not converged
     ethr =  6.84E-06,  avg # of iterations = 14.2

     negative rho (up, down):  6.643E-04 0.000E+00

     total cpu time spent up to now is     4086.8 secs

     total energy              =  -24869.08060178 Ry
     estimated scf accuracy    <       0.02229438 Ry

     iteration #  9     ecut=    77.00 Ry     beta= 0.20
     Davidson diagonalization with overlap
     c_bands:  4 eigenvalues not converged
     c_bands:  4 eigenvalues not converged
     c_bands:  2 eigenvalues not converged
     c_bands:  5 eigenvalues not converged
     ethr =  1.74E-06,  avg # of iterations = 60.0

     negative rho (up, down):  5.053E-04 0.000E+00

     total cpu time spent up to now is     5161.4 secs

     total energy              =  -24869.09183714 Ry
     estimated scf accuracy    <       0.01992624 Ry

     iteration # 10     ecut=    77.00 Ry     beta= 0.20
     Davidson diagonalization with overlap
     c_bands:  5 eigenvalues not converged
     c_bands:  3 eigenvalues not converged
     ethr =  1.55E-06,  avg # of iterations = 24.0

     negative rho (up, down):  4.983E-04 0.000E+00

     total cpu time spent up to now is     5547.3 secs

     total energy              =  -24869.09337858 Ry
     estimated scf accuracy    <       0.00250647 Ry

     iteration # 11     ecut=    77.00 Ry     beta= 0.20
     Davidson diagonalization with overlap
     c_bands:  4 eigenvalues not converged
     c_bands:  5 eigenvalues not converged
     c_bands:  2 eigenvalues not converged
     c_bands:  1 eigenvalues not converged
     ethr =  1.95E-07,  avg # of iterations = 25.0

     negative rho (up, down):  5.972E-04 0.000E+00

     total cpu time spent up to now is     6524.2 secs

     total energy              =  -24869.09880453 Ry
     estimated scf accuracy    <       0.00816625 Ry

     iteration # 12     ecut=    77.00 Ry     beta= 0.20
     Davidson diagonalization with overlap
     c_bands:  4 eigenvalues not converged
     ethr =  1.95E-07,  avg # of iterations =  9.2

     negative rho (up, down):  8.787E-04 0.000E+00

     total cpu time spent up to now is     6805.5 secs

     total energy              =  -24869.09715816 Ry
     estimated scf accuracy    <       0.00275181 Ry

     iteration # 13     ecut=    77.00 Ry     beta= 0.20
     Davidson diagonalization with overlap
     c_bands:  3 eigenvalues not converged
     ethr =  1.95E-07,  avg # of iterations = 14.8

     negative rho (up, down):  8.810E-04 0.000E+00

     total cpu time spent up to now is     7463.6 secs

     total energy              =  -24869.10073074 Ry
     estimated scf accuracy    <       0.00780151 Ry

     iteration # 14     ecut=    77.00 Ry     beta= 0.20
     Davidson diagonalization with overlap
     c_bands:  5 eigenvalues not converged
     ethr =  1.95E-07,  avg # of iterations =  5.8

     negative rho (up, down):  8.905E-04 0.000E+00

     total cpu time spent up to now is     7694.4 secs

     total energy              =  -24869.09870649 Ry
     estimated scf accuracy    <       0.00476096 Ry

     iteration # 15     ecut=    77.00 Ry     beta= 0.20
     Davidson diagonalization with overlap
     c_bands:  1 eigenvalues not converged
     ethr =  1.95E-07,  avg # of iterations =  9.5

     negative rho (up, down):  9.455E-04 0.000E+00

     total cpu time spent up to now is     7957.3 secs

     total energy              =  -24869.09828994 Ry
     estimated scf accuracy    <       0.00145187 Ry

     iteration # 16     ecut=    77.00 Ry     beta= 0.20
     Davidson diagonalization with overlap
     ethr =  1.13E-07,  avg # of iterations =  7.0

     negative rho (up, down):  9.200E-04 0.000E+00

     total cpu time spent up to now is     8320.6 secs

     total energy              =  -24869.09929370 Ry
     estimated scf accuracy    <       0.00003348 Ry

     iteration # 17     ecut=    77.00 Ry     beta= 0.20
     Davidson diagonalization with overlap
     c_bands:  3 eigenvalues not converged
     ethr =  2.61E-09,  avg # of iterations = 34.0

     negative rho (up, down):  9.395E-04 0.000E+00

     total cpu time spent up to now is    10528.1 secs

     total energy              =  -24869.09965248 Ry
     estimated scf accuracy    <       0.00101124 Ry

     iteration # 18     ecut=    77.00 Ry     beta= 0.20
     Davidson diagonalization with overlap
     ethr =  2.61E-09,  avg # of iterations =  5.2

     negative rho (up, down):  9.528E-04 0.000E+00

     total cpu time spent up to now is    10883.2 secs

     total energy              =  -24869.09954784 Ry
     estimated scf accuracy    <       0.00061078 Ry

     iteration # 19     ecut=    77.00 Ry     beta= 0.20
     Davidson diagonalization with overlap
     ethr =  2.61E-09,  avg # of iterations =  8.2

     negative rho (up, down):  9.716E-04 0.000E+00

     total cpu time spent up to now is    11307.5 secs

     total energy              =  -24869.09942761 Ry
     estimated scf accuracy    <       0.00030447 Ry

     iteration # 20     ecut=    77.00 Ry     beta= 0.20
     Davidson diagonalization with overlap
     ethr =  2.61E-09,  avg # of iterations = 15.0

     negative rho (up, down):  9.783E-04 0.000E+00

     total cpu time spent up to now is    11923.1 secs

     total energy              =  -24869.09948915 Ry
     estimated scf accuracy    <       0.00000623 Ry

     iteration # 21     ecut=    77.00 Ry     beta= 0.20
     Davidson diagonalization with overlap
     ethr =  4.85E-10,  avg # of iterations = 17.2

     negative rho (up, down):  9.772E-04 0.000E+00

     total cpu time spent up to now is    12748.9 secs

     total energy              =  -24869.09950217 Ry
     estimated scf accuracy    <       0.00001079 Ry

     iteration # 22     ecut=    77.00 Ry     beta= 0.20
     Davidson diagonalization with overlap
     ethr =  4.85E-10,  avg # of iterations =  1.8

     negative rho (up, down):  9.778E-04 0.000E+00

     total cpu time spent up to now is    12978.6 secs

     total energy              =  -24869.09949975 Ry
     estimated scf accuracy    <       0.00000458 Ry

     iteration # 23     ecut=    77.00 Ry     beta= 0.20
     Davidson diagonalization with overlap
     ethr =  3.57E-10,  avg # of iterations =  8.2

     negative rho (up, down):  9.869E-04 0.000E+00

     total cpu time spent up to now is    13295.2 secs

     End of self-consistent calculation

          k = 0.0000 0.0000 0.0000 (321495 PWs)   bands (ev):

   -88.8123 -87.7737 -66.6689 -66.6479 -66.6479 -66.6478 -66.6478 -66.6478
   -66.6478 -66.6267 -66.6267 -66.6267 -66.6267 -66.6267 -66.6266 -66.6266
   -66.6266 -66.6266 -66.6029 -66.5821 -66.5820 -66.5818 -66.5817 -66.5815
   -66.5815 -66.5612 -66.5609 -66.5608 -66.5607 -66.5606 -66.5605 -66.5603
   -66.5602 -66.5601 -66.5322 -66.5178 -66.5134 -66.5129 -66.5087 -66.5041
   -66.4998 -66.4966 -66.4956 -66.4909 -66.4807 -66.4761 -66.4714 -66.4663
   -66.4547 -66.4489 -54.6831 -54.6026 -54.5585 -53.6687 -53.5909 -53.4742
   -40.9953 -40.9953 -40.9953 -40.9282 -40.9281 -40.9280 -40.9205 -40.9205
   -40.9205 -40.9205 -40.9205 -40.9205 -40.8536 -40.8535 -40.8533 -40.8533
   -40.8532 -40.8532 -40.8525 -40.8496 -40.8481 -40.8291 -40.7949 -40.7949
   -40.7949 -40.7949 -40.7949 -40.7949 -40.7876 -40.7876 -40.7876 -40.7876
   -40.7876 -40.7876 -40.7818 -40.7786 -40.7735 -40.7677 -40.7657 -40.7637
   -40.7635 -40.7601 -40.7601 -40.7601 -40.7601 -40.7601 -40.7601 -40.7460
   -40.7460 -40.7459 -40.7459 -40.7459 -40.7459 -40.7459 -40.7459 -40.7459
   -40.7281 -40.7280 -40.7279 -40.7278 -40.7278 -40.7277 -40.7224 -40.7223
   -40.7222 -40.7220 -40.7219 -40.7218 -40.7003 -40.6933 -40.6933 -40.6931
   -40.6931 -40.6930 -40.6930 -40.6823 -40.6823 -40.6823 -40.6809 -40.6808
   -40.6806 -40.6805 -40.6805 -40.6804 -40.6802 -40.6801 -40.6801 -40.6800
   -40.6595 -40.6571 -40.6565 -40.6555 -40.6545 -40.6515 -40.6504 -40.6457
   -40.6423 -40.6366 -40.6355 -40.6355 -40.6355 -40.6355 -40.6355 -40.6355
   -40.6291 -40.6246 -40.6209 -40.6193 -40.6180 -40.6156 -40.6155 -40.6154
   -40.6154 -40.6137 -40.6129 -40.6108 -40.6096 -40.6041 -40.6014 -40.6003
   -40.5976 -40.5882 -40.5882 -40.5877 -40.5820 -40.5690 -40.5686 -40.5686
   -40.5686 -40.5685 -40.5684 -40.5376 -40.5365 -40.5326 -40.5214 -40.5214
   -40.4918 -40.4894 -40.4879 -40.4817 -40.4808 -40.4773 -40.4367 -40.4324
   -20.1033 -20.0042 -19.8818 -19.3126 -19.2375 -19.2364 -19.2343 -19.2336
   -19.2332 -19.2209 -19.1601 -19.1530 -19.1276 -19.1202 -19.1179 -19.0734
   -19.0469 -19.0417 -19.0123 -18.9932 -18.9897 -18.8511 -18.6904 -18.5683
   -18.4911 -18.4695 -18.4521 -18.4440 -18.4361 -18.4354 -18.3945 -18.3444
   -18.3340 -18.3171 -18.2833 -18.2806 -18.2360 -18.2065 -18.1862 -18.1833
   -18.1452 -18.1411 -18.1292 -18.1284 -18.1284 -18.1283 -18.1280 -18.1279
   -18.1226 -18.0950 -18.0879 -18.0879 -18.0878 -18.0531 -18.0502 -18.0495
   -18.0468 -18.0413 -18.0387 -18.0186 -18.0155 -18.0152 -17.9950 -17.9703
   -17.9628 -17.9577 -17.9496 -17.9474 -17.9458 -17.9305 -17.9271 -17.9257
   -17.9090 -17.9049 -17.9009 -17.9007 -17.8985 -17.8968 -17.8707 -17.8658
   -17.8621 -17.8433 -17.8417 -17.8315 -17.8284 -17.8267 -17.8243 -17.8014
   -17.7979 -17.7881 -17.7634 -17.7585 -17.7512 -17.7468 -17.7452 -17.7366
   -11.9346 -11.7932 -11.7540 -11.7465 -11.7390 -11.7227 -11.6882 -11.6554
   -11.6477 -11.6276 -11.5734 -11.3075 -11.2168 -11.1998 -11.1943 -11.1916
   -11.1909 -11.1622 -11.1473 -11.1231 -11.1196 -11.1180 -11.1163 -11.1158
   -11.0946 -11.0936 -11.0528 -11.0235 -10.9987 -10.9937 -10.9840 -10.9645
   -10.9592 -10.9511 -10.9281 -10.9160 -10.9114 -10.9018 -10.8995 -10.8953
   -10.8941 -10.8808 -10.8556 -10.8444 -10.8264 -10.8235 -10.8213 -10.8204
   -10.8186 -10.8175 -10.8084 -10.8014 -10.7969 -10.7902 -10.7886 -10.7868
   -10.7759 -10.7697 -10.7694 -10.7628 -10.7622 -10.7545 -10.7298 -10.7122
   -10.7094 -10.7092 -10.6838 -10.6580 -10.6387 -10.6272 -10.6064 -10.5986
   -10.5840 -10.5831 -10.5786 -10.3814 -10.1921 -10.0438 -10.0356 -10.0341
    -9.9779  -9.8793  -9.8745  -9.8543  -9.7981  -9.7732  -9.7671  -9.7652
    -9.7613  -9.7589  -9.7379  -9.7080  -9.6994  -9.6924  -9.6787  -9.6720
    -9.6654  -9.6608  -9.6593  -9.6445  -9.6137  -9.6134  -9.6068  -9.6059
    -9.6028  -9.5960  -9.5640  -9.5632  -9.5627  -9.5609  -9.5598  -9.5586
    -9.5576  -9.5428  -9.5239  -9.5211  -9.5061  -9.5051  -9.4932  -9.4905
    -9.4466  -9.4370  -9.4223  -9.4195  -9.4180  -9.4145  -9.3416  -9.3344
    -9.3232  -9.3156  -9.3079  -9.2948  -9.2885  -9.2768  -9.2402  -9.2217
    -9.2049  -9.1994  -9.1821  -9.1788  -9.1743  -9.1736  -9.1673  -9.1532
    -9.0653  -9.0423  -9.0217  -9.0082  -9.0074  -9.0068  -9.0066  -9.0051
    -9.0008  -8.9943  -8.9847  -8.9380  -8.9273  -8.9261  -8.9177  -8.9002
    -8.8658  -8.8569  -8.8441  -8.8359  -8.8322  -8.7994  -8.7919  -8.7868
    -8.7859  -8.7853  -8.7812  -8.7711  -8.7564  -8.7387  -8.7280  -8.7203
    -8.7173  -8.7085  -8.7034  -8.7030  -8.6790  -8.6685  -8.6656  -8.5159
    -8.4194  -8.4179  -8.4179  -8.3728  -8.3454  -8.3453  -8.3061  -8.3058
    -8.3058  -8.3057  -8.3057  -8.3057  -8.2827  -8.2551  -8.2512  -8.2400
    -8.2357  -8.2343  -8.2334  -8.2274  -8.2254  -8.2070  -8.1874  -8.1825
    -8.1575  -8.0700  -8.0224  -7.9869  -7.9221  -7.9161  -7.8871  -7.7126
    -7.6915  -7.6623  -7.6262  -7.5730  -7.5716  -7.5704  -7.5703  -7.5702
    -7.5702  -7.5639  -7.5526  -7.5338  -7.5250  -7.5240  -7.5238  -7.5237
    -7.5237  -7.5204  -7.5098  -7.4999  -7.4961  -7.4949  -7.4925  -7.4875
    -7.4849  -7.4715  -7.4617  -7.4573  -7.4525  -7.4513  -7.4502  -7.4491
    -7.4420  -7.4335  -7.4242  -7.4147  -7.4076  -7.4052  -7.4041  -7.4028
    -7.4010  -7.4005  -7.3849  -7.3686  -7.3596  -7.2891  -7.2890  -7.2750
    -7.2388  -7.2312  -7.2228  -7.2165  -7.2093  -7.1715  -7.1627  -7.1554
    -7.1444  -7.0522  -7.0234  -6.9589  -6.9306  -6.8850  -6.8734  -6.8486
    -6.8359  -6.8177  -6.7932  -6.7882  -6.7822  -6.7155  -6.7123  -6.7041
    -6.6600  -6.6473  -6.6205  -6.6123  -6.6113  -6.5998  -6.5988  -6.5955
    -6.5759  -6.5481  -6.5198  -6.5098  -6.5071  -6.5054  -6.4940  -6.4894
    -6.4859  -6.4750  -6.4693  -6.4446  -6.4376  -6.4237  -6.4188  -6.4124
    -6.4077  -6.4024  -6.3915  -6.3630  -6.3371  -6.3370  -6.3370  -6.3370
    -6.3370  -6.3370  -6.3327  -6.3095  -6.2930  -6.2613  -6.2605  -6.2602
    -6.2594  -6.2585  -6.2560  -6.2189  -6.2057  -6.1956  -6.1646  -6.1571
    -6.0903  -6.0636  -5.8424  -5.7929  -5.6481  -5.4944  -5.4571  -5.3286
    -5.1500  -5.0400  -4.0461  -3.8399  -3.8236  -3.8190  -3.8181  -3.8161
    -3.7930  -3.7912  -3.7876  -3.7861  -3.7847  -3.7838  -3.7560  -3.6450
    -3.5946  -3.5733  -3.5672  -3.5665  -3.5636  -3.5626  -3.5566  -3.5527
    -3.5507  -3.5505  -3.4778  -3.4777  -3.4776  -3.4627  -3.4602  -3.4597
    -3.4592  -3.4582  -3.4578  -3.4144  -3.4105  -3.4103  -3.4102  -3.3781
    -3.3770  -3.3648  -3.3604  -3.3583  -3.3555  -3.3524  -3.3503  -3.3466
    -3.3447  -3.3435  -3.3286  -3.3243  -3.3203  -3.3169  -3.2782  -3.2701
    -3.2527  -3.2493  -3.2455  -3.2368  -3.2240  -3.2201  -3.2137  -3.2064
    -3.1788  -3.0154  -3.0121  -3.0117  -3.0067  -3.0063  -3.0056  -2.9405
    -2.9402  -2.9390  -2.9389  -2.9387  -2.9386  -2.9384  -2.9383  -2.9233
    -2.9183  -2.9163  -2.9150  -2.9045  -2.9018  -2.8822  -2.8799  -2.8783
    -2.8767  -2.8698  -2.8668  -2.8651  -2.8646  -2.8560  -2.8530  -2.8433
    -2.8388  -2.8272  -2.8011  -2.7836  -2.7756  -2.7738  -2.7668  -2.7543
    -2.7488  -2.7464  -2.7240  -2.7233  -2.7215  -2.7193  -2.7180  -2.7106
    -2.6845  -2.6787  -2.6730  -2.6453  -2.6351  -2.6160  -2.6149  -2.6123
    -2.6057  -2.5944  -2.5337  -2.5128  -2.4891  -2.4621  -2.4517  -2.4386
    -2.4368  -2.4319

          k = 0.0000-0.5773 0.0000 (321564 PWs)   bands (ev):

   -88.8123 -87.7737 -66.6628 -66.6628 -66.6522 -66.6522 -66.6373 -66.6373
   -66.6373 -66.6373 -66.6329 -66.6329 -66.6267 -66.6267 -66.6267 -66.6266
   -66.6223 -66.6223 -66.5968 -66.5966 -66.5862 -66.5861 -66.5713 -66.5713
   -66.5712 -66.5709 -66.5669 -66.5667 -66.5608 -66.5607 -66.5606 -66.5603
   -66.5562 -66.5561 -66.5298 -66.5236 -66.5137 -66.5122 -66.5049 -66.5027
   -66.5013 -66.4971 -66.4951 -66.4917 -66.4800 -66.4770 -66.4711 -66.4664
   -66.4547 -66.4488 -54.6831 -54.6026 -54.5585 -53.6687 -53.5909 -53.4742
   -40.9639 -40.9639 -40.9639 -40.9639 -40.9372 -40.9372 -40.9253 -40.9253
   -40.8968 -40.8968 -40.8967 -40.8966 -40.8749 -40.8749 -40.8749 -40.8749
   -40.8701 -40.8701 -40.8582 -40.8581 -40.8315 -40.8218 -40.8170 -40.8170
   -40.8147 -40.8079 -40.8078 -40.8077 -40.8077 -40.8070 -40.8070 -40.8040
   -40.7999 -40.7962 -40.7962 -40.7932 -40.7760 -40.7668 -40.7668 -40.7668
   -40.7668 -40.7650 -40.7581 -40.7581 -40.7514 -40.7513 -40.7460 -40.7460
   -40.7459 -40.7459 -40.7459 -40.7459 -40.7400 -40.7399 -40.7373 -40.7373
   -40.7307 -40.7306 -40.7284 -40.7256 -40.7237 -40.7211 -40.7152 -40.7152
   -40.7152 -40.7152 -40.7014 -40.7014 -40.7012 -40.7011 -40.6938 -40.6927
   -40.6926 -40.6859 -40.6807 -40.6807 -40.6807 -40.6807 -40.6806 -40.6806
   -40.6804 -40.6802 -40.6790 -40.6789 -40.6718 -40.6718 -40.6715 -40.6686
   -40.6686 -40.6596 -40.6586 -40.6543 -40.6494 -40.6494 -40.6486 -40.6484
   -40.6484 -40.6482 -40.6481 -40.6345 -40.6336 -40.6326 -40.6326 -40.6282
   -40.6229 -40.6185 -40.6152 -40.6139 -40.6138 -40.6137 -40.6137 -40.6109
   -40.6047 -40.6022 -40.6021 -40.6021 -40.6018 -40.6017 -40.6011 -40.5960
   -40.5878 -40.5827 -40.5824 -40.5817 -40.5759 -40.5722 -40.5658 -40.5656
   -40.5637 -40.5625 -40.5360 -40.5353 -40.5352 -40.5333 -40.5308 -40.5278
   -40.5242 -40.5075 -40.5027 -40.4992 -40.4807 -40.4724 -40.4581 -40.4422
   -19.8728 -19.8640 -19.8003 -19.7487 -19.6680 -19.6240 -19.4313 -19.4306
   -19.3426 -19.3318 -19.2317 -19.2183 -18.8695 -18.7528 -18.7243 -18.7229
   -18.7210 -18.7208 -18.7114 -18.6575 -18.6405 -18.6374 -18.6073 -18.5890
   -18.5709 -18.5615 -18.5317 -18.5267 -18.5191 -18.5171 -18.4733 -18.4729
   -18.4302 -18.4153 -18.3906 -18.3820 -18.3770 -18.3664 -18.3397 -18.2786
   -18.2659 -18.2521 -18.2204 -18.2062 -18.1990 -18.1968 -18.1570 -18.1307
   -18.1088 -18.1086 -18.1085 -18.1083 -18.1043 -18.0927 -18.0827 -18.0803
   -18.0464 -18.0397 -18.0342 -18.0323 -18.0275 -18.0200 -18.0113 -17.9926
   -17.9751 -17.9695 -17.9613 -17.9541 -17.9526 -17.9495 -17.9211 -17.9192
   -17.9121 -17.9075 -17.9042 -17.8906 -17.8593 -17.8564 -17.8451 -17.8450
   -17.8416 -17.8392 -17.7937 -17.7888 -17.7855 -17.7852 -17.7698 -17.7687
   -17.7643 -17.7596 -17.7320 -17.7275 -17.7199 -17.7101 -17.6636 -17.6578
   -11.7291 -11.6565 -11.5950 -11.5229 -11.4669 -11.4567 -11.4562 -11.4509
   -11.4424 -11.4310 -11.4149 -11.3831 -11.3775 -11.3596 -11.3502 -11.3400
   -11.3204 -11.3045 -11.2953 -11.2836 -11.2782 -11.2619 -11.2614 -11.2380
   -11.2380 -11.2102 -11.1928 -11.1921 -11.1870 -11.1518 -11.1359 -11.1352
   -11.1338 -11.1319 -11.0483 -11.0024 -10.9780 -10.9573 -10.9533 -10.9404
   -10.9112 -10.8976 -10.8922 -10.8819 -10.8728 -10.8512 -10.8384 -10.8275
   -10.8212 -10.8118 -10.8108 -10.8100 -10.8094 -10.7957 -10.7932 -10.7831
   -10.7702 -10.7671 -10.7505 -10.7460 -10.7381 -10.7319 -10.7254 -10.6559
   -10.5737 -10.5507 -10.4926 -10.4735 -10.4588 -10.3717 -10.3497 -10.3102
   -10.2685 -10.2221 -10.1172 -10.1091 -10.1035 -10.0949 -10.0493 -10.0334
   -10.0120  -9.9909  -9.9766  -9.9299  -9.9190  -9.9178  -9.9165  -9.9126
    -9.9029  -9.8904  -9.8814  -9.8755  -9.8735  -9.8707  -9.8434  -9.7805
    -9.7744  -9.7558  -9.7412  -9.7336  -9.7310  -9.7255  -9.7005  -9.6963
    -9.6892  -9.6866  -9.6722  -9.6475  -9.6287  -9.6241  -9.6233  -9.6130
    -9.5940  -9.5898  -9.5863  -9.5813  -9.5240  -9.5117  -9.5089  -9.5062
    -9.4919  -9.4744  -9.4504  -9.4495  -9.4097  -9.4084  -9.3177  -9.2950
    -9.2663  -9.2346  -9.1865  -9.1830  -9.1592  -9.1513  -9.1380  -9.1227
    -9.1095  -9.1070  -9.1066  -9.1020  -9.0754  -9.0462  -9.0340  -9.0182
    -8.9958  -8.9912  -8.9869  -8.9821  -8.9686  -8.9626  -8.9506  -8.9404
    -8.9320  -8.9194  -8.9168  -8.9124  -8.9119  -8.9029  -8.8952  -8.8837
    -8.8707  -8.8641  -8.8436  -8.8371  -8.8322  -8.8240  -8.8210  -8.8206
    -8.8113  -8.8089  -8.8017  -8.7965  -8.7810  -8.7758  -8.7600  -8.7521
    -8.7434  -8.7366  -8.7279  -8.7179  -8.6888  -8.6771  -8.5780  -8.4950
    -8.4934  -8.4722  -8.4581  -8.4095  -8.3980  -8.3884  -8.3059  -8.2358
    -8.2062  -8.1743  -8.1743  -8.1058  -8.1026  -8.1010  -8.0746  -8.0409
    -8.0251  -7.9513  -7.9257  -7.9132  -7.9097  -7.8731  -7.8558  -7.8435
    -7.8364  -7.8315  -7.8283  -7.8276  -7.8276  -7.8238  -7.8191  -7.8055
    -7.7848  -7.7818  -7.7813  -7.7803  -7.7701  -7.7611  -7.7570  -7.7536
    -7.7413  -7.7347  -7.7325  -7.7269  -7.7108  -7.7073  -7.7028  -7.7001
    -7.6897  -7.6818  -7.6752  -7.6724  -7.6644  -7.6609  -7.6424  -7.6424
    -7.6371  -7.6294  -7.6272  -7.6181  -7.6000  -7.5931  -7.5821  -7.5726
    -7.5699  -7.5613  -7.5561  -7.5249  -7.5139  -7.5027  -7.4774  -7.4607
    -7.4358  -7.4263  -7.3367  -7.2927  -7.2578  -7.2359  -7.2245  -7.2143
    -7.2038  -7.1760  -7.1425  -7.1006  -7.0961  -7.0713  -7.0564  -7.0394
    -6.9949  -6.9903  -6.9872  -6.9580  -6.9447  -6.9260  -6.9252  -6.9120
    -6.9069  -6.8872  -6.8790  -6.8462  -6.8185  -6.8163  -6.8096  -6.7895
    -6.7423  -6.7132  -6.6695  -6.6396  -6.6394  -6.6393  -6.6392  -6.6364
    -6.6030  -6.5925  -6.5820  -6.5729  -6.5701  -6.5686  -6.5643  -6.5524
    -6.5167  -6.5067  -6.4952  -6.4786  -6.4515  -6.4139  -6.3904  -6.3717
    -6.3084  -6.3080  -6.3078  -6.3075  -6.2616  -6.2445  -6.2424  -6.2335
    -6.2312  -6.2268  -6.2180  -6.2015  -6.1835  -6.1765  -6.1668  -6.1601
    -6.1359  -6.0651  -5.9592  -5.9592  -5.8962  -5.8832  -5.8786  -5.8322
    -5.7955  -5.7693  -5.7142  -5.7007  -5.6066  -5.5479  -5.4937  -5.4712
    -5.3095  -5.0627  -4.0869  -4.0017  -3.9990  -3.9943  -3.9452  -3.8748
    -3.8748  -3.8575  -3.8368  -3.8100  -3.8097  -3.7671  -3.7568  -3.7440
    -3.7409  -3.7302  -3.6914  -3.6598  -3.6015  -3.5790  -3.5762  -3.5749
    -3.5732  -3.5604  -3.5601  -3.5347  -3.5260  -3.5160  -3.4864  -3.4820
    -3.4799  -3.4796  -3.4589  -3.4549  -3.4499  -3.4479  -3.4425  -3.4422
    -3.3978  -3.3816  -3.3750  -3.3458  -3.3357  -3.3345  -3.3278  -3.3273
    -3.3234  -3.3001  -3.2941  -3.2917  -3.2887  -3.2699  -3.2519  -3.2514
    -3.2510  -3.2507  -3.2485  -3.2272  -3.2197  -3.2170  -3.2074  -3.1871
    -3.1866  -3.1813  -3.1784  -3.1715  -3.1663  -3.1655  -3.1387  -3.1160
    -3.0957  -3.0942  -3.0874  -3.0719  -3.0477  -3.0461  -3.0112  -3.0089
    -3.0071  -3.0061  -2.9880  -2.9879  -2.9875  -2.9873  -2.9534  -2.9477
    -2.9402  -2.9383  -2.9270  -2.9188  -2.9080  -2.8989  -2.8933  -2.8922
    -2.8851  -2.8746  -2.8622  -2.8602  -2.8465  -2.8399  -2.8360  -2.8147
    -2.8060  -2.7981  -2.7813  -2.7789  -2.7776  -2.7707  -2.7169  -2.7043
    -2.6879  -2.6715  -2.6346  -2.6252  -2.6245  -2.6155  -2.6068  -2.6021
    -2.5437  -2.5389  -2.5107  -2.4819  -2.4662  -2.4652  -2.4577  -2.4356
    -2.3824  -2.3119

          k =-0.5000-0.2887 0.0000 (321564 PWs)   bands (ev):

   -88.8123 -87.7737 -66.6628 -66.6628 -66.6522 -66.6522 -66.6373 -66.6373
   -66.6373 -66.6373 -66.6329 -66.6329 -66.6267 -66.6267 -66.6266 -66.6266
   -66.6223 -66.6223 -66.5969 -66.5965 -66.5862 -66.5861 -66.5713 -66.5713
   -66.5712 -66.5710 -66.5670 -66.5666 -66.5609 -66.5608 -66.5605 -66.5602
   -66.5562 -66.5561 -66.5303 -66.5221 -66.5142 -66.5136 -66.5040 -66.5026
   -66.5012 -66.4972 -66.4953 -66.4915 -66.4800 -66.4768 -66.4718 -66.4662
   -66.4547 -66.4489 -54.6831 -54.6026 -54.5586 -53.6687 -53.5909 -53.4742
   -40.9639 -40.9639 -40.9639 -40.9639 -40.9372 -40.9372 -40.9253 -40.9253
   -40.8970 -40.8968 -40.8966 -40.8964 -40.8749 -40.8749 -40.8749 -40.8749
   -40.8702 -40.8699 -40.8582 -40.8581 -40.8328 -40.8252 -40.8170 -40.8169
   -40.8079 -40.8078 -40.8077 -40.8077 -40.8070 -40.8070 -40.8067 -40.8036
   -40.8004 -40.7962 -40.7962 -40.7919 -40.7767 -40.7693 -40.7668 -40.7668
   -40.7668 -40.7668 -40.7581 -40.7581 -40.7515 -40.7512 -40.7460 -40.7460
   -40.7459 -40.7459 -40.7459 -40.7459 -40.7400 -40.7399 -40.7373 -40.7373
   -40.7307 -40.7307 -40.7294 -40.7271 -40.7250 -40.7191 -40.7152 -40.7152
   -40.7152 -40.7152 -40.7014 -40.7014 -40.7012 -40.7011 -40.6940 -40.6928
   -40.6925 -40.6853 -40.6807 -40.6807 -40.6807 -40.6807 -40.6807 -40.6805
   -40.6803 -40.6801 -40.6790 -40.6789 -40.6718 -40.6718 -40.6715 -40.6686
   -40.6686 -40.6597 -40.6585 -40.6522 -40.6501 -40.6494 -40.6494 -40.6485
   -40.6484 -40.6482 -40.6480 -40.6349 -40.6326 -40.6326 -40.6317 -40.6268
   -40.6241 -40.6184 -40.6139 -40.6139 -40.6138 -40.6137 -40.6137 -40.6113
   -40.6088 -40.6024 -40.6021 -40.6021 -40.6019 -40.6016 -40.5984 -40.5940
   -40.5876 -40.5827 -40.5824 -40.5816 -40.5769 -40.5747 -40.5658 -40.5656
   -40.5625 -40.5603 -40.5354 -40.5351 -40.5340 -40.5331 -40.5307 -40.5283
   -40.5254 -40.5070 -40.5053 -40.4988 -40.4799 -40.4769 -40.4581 -40.4393
   -19.8731 -19.8639 -19.8018 -19.7470 -19.6684 -19.6206 -19.4330 -19.4298
   -19.3538 -19.3256 -19.2387 -19.2103 -18.8603 -18.7526 -18.7294 -18.7216
   -18.7212 -18.7207 -18.7125 -18.6602 -18.6408 -18.6364 -18.6088 -18.5883
   -18.5756 -18.5560 -18.5335 -18.5269 -18.5188 -18.5157 -18.4735 -18.4728
   -18.4317 -18.4142 -18.3916 -18.3817 -18.3755 -18.3689 -18.3390 -18.2791
   -18.2733 -18.2449 -18.2184 -18.2059 -18.1990 -18.1961 -18.1531 -18.1354
   -18.1088 -18.1086 -18.1086 -18.1083 -18.1048 -18.0896 -18.0842 -18.0800
   -18.0484 -18.0404 -18.0335 -18.0330 -18.0270 -18.0218 -18.0127 -17.9892
   -17.9766 -17.9699 -17.9629 -17.9547 -17.9509 -17.9492 -17.9226 -17.9194
   -17.9125 -17.9056 -17.9036 -17.8884 -17.8634 -17.8542 -17.8451 -17.8450
   -17.8405 -17.8381 -17.7980 -17.7856 -17.7853 -17.7839 -17.7697 -17.7687
   -17.7625 -17.7579 -17.7322 -17.7281 -17.7197 -17.7133 -17.6633 -17.6586
   -11.7250 -11.6563 -11.5961 -11.5591 -11.4582 -11.4561 -11.4559 -11.4507
   -11.4414 -11.4315 -11.4022 -11.3757 -11.3726 -11.3604 -11.3528 -11.3447
   -11.3196 -11.2931 -11.2843 -11.2788 -11.2672 -11.2627 -11.2620 -11.2380
   -11.2380 -11.2119 -11.1949 -11.1921 -11.1915 -11.1619 -11.1392 -11.1342
   -11.1322 -11.1317 -11.0529 -11.0059 -10.9691 -10.9581 -10.9463 -10.9408
   -10.9026 -10.8993 -10.8912 -10.8793 -10.8713 -10.8624 -10.8358 -10.8250
   -10.8166 -10.8121 -10.8113 -10.8105 -10.8080 -10.8020 -10.7945 -10.7881
   -10.7690 -10.7613 -10.7493 -10.7461 -10.7395 -10.7300 -10.7131 -10.6637
   -10.5950 -10.5504 -10.5340 -10.4768 -10.4711 -10.4097 -10.3546 -10.3229
   -10.2190 -10.1605 -10.1097 -10.1055 -10.1035 -10.0961 -10.0360 -10.0197
   -10.0104 -10.0057  -9.9795  -9.9385  -9.9278  -9.9179  -9.9164  -9.9135
    -9.9025  -9.8981  -9.8905  -9.8767  -9.8726  -9.8633  -9.8599  -9.7838
    -9.7717  -9.7553  -9.7471  -9.7326  -9.7301  -9.7157  -9.7050  -9.6979
    -9.6899  -9.6830  -9.6788  -9.6460  -9.6352  -9.6216  -9.6155  -9.6128
    -9.5955  -9.5926  -9.5886  -9.5769  -9.5324  -9.5106  -9.5083  -9.5024
    -9.4871  -9.4769  -9.4499  -9.4495  -9.4152  -9.4010  -9.3134  -9.2977
    -9.2526  -9.2381  -9.1824  -9.1713  -9.1517  -9.1443  -9.1351  -9.1199
    -9.1120  -9.1077  -9.1058  -9.1012  -9.0671  -9.0482  -9.0448  -9.0189
    -9.0130  -8.9919  -8.9842  -8.9770  -8.9602  -8.9584  -8.9524  -8.9384
    -8.9310  -8.9220  -8.9171  -8.9125  -8.9122  -8.9049  -8.8978  -8.8806
    -8.8742  -8.8635  -8.8458  -8.8372  -8.8336  -8.8269  -8.8216  -8.8206
    -8.8203  -8.8099  -8.7988  -8.7924  -8.7830  -8.7773  -8.7629  -8.7493
    -8.7438  -8.7323  -8.7211  -8.7156  -8.6870  -8.6783  -8.5272  -8.4971
    -8.4945  -8.4881  -8.4775  -8.4100  -8.4040  -8.3811  -8.3159  -8.2805
    -8.1793  -8.1743  -8.1743  -8.1072  -8.1026  -8.1015  -8.0623  -8.0392
    -8.0229  -7.9574  -7.9237  -7.9153  -7.9130  -7.9047  -7.8488  -7.8435
    -7.8347  -7.8327  -7.8305  -7.8276  -7.8276  -7.8263  -7.8183  -7.8110
    -7.7941  -7.7822  -7.7814  -7.7808  -7.7788  -7.7590  -7.7572  -7.7498
    -7.7400  -7.7383  -7.7357  -7.7252  -7.7127  -7.7091  -7.7075  -7.7004
    -7.6970  -7.6776  -7.6734  -7.6730  -7.6649  -7.6597  -7.6470  -7.6424
    -7.6423  -7.6311  -7.6269  -7.6092  -7.6001  -7.5869  -7.5806  -7.5760
    -7.5726  -7.5574  -7.5540  -7.5494  -7.5234  -7.5024  -7.4962  -7.4433
    -7.4335  -7.4071  -7.3574  -7.2627  -7.2462  -7.2307  -7.2259  -7.2023
    -7.1873  -7.1686  -7.1368  -7.1017  -7.0985  -7.0852  -7.0377  -7.0260
    -6.9942  -6.9913  -6.9847  -6.9633  -6.9542  -6.9275  -6.9211  -6.9190
    -6.9098  -6.8863  -6.8600  -6.8219  -6.8143  -6.8059  -6.8053  -6.7686
    -6.7491  -6.7078  -6.6980  -6.6605  -6.6394  -6.6394  -6.6393  -6.6392
    -6.6242  -6.5955  -6.5802  -6.5768  -6.5724  -6.5689  -6.5649  -6.5613
    -6.5268  -6.5112  -6.5067  -6.4901  -6.4394  -6.4162  -6.3921  -6.3100
    -6.3080  -6.3079  -6.3076  -6.2976  -6.2927  -6.2422  -6.2376  -6.2339
    -6.2307  -6.2271  -6.2217  -6.2003  -6.1729  -6.1694  -6.1634  -6.1616
    -6.1258  -6.0642  -5.9593  -5.9592  -5.9359  -5.8866  -5.8797  -5.8551
    -5.8139  -5.7722  -5.7204  -5.6812  -5.5934  -5.5531  -5.4885  -5.4669
    -5.3090  -5.0502  -4.0820  -4.0055  -3.9981  -3.9928  -3.9419  -3.8748
    -3.8748  -3.8610  -3.8381  -3.8099  -3.8096  -3.7804  -3.7518  -3.7425
    -3.7403  -3.7294  -3.6905  -3.6636  -3.6000  -3.5797  -3.5762  -3.5749
    -3.5748  -3.5604  -3.5601  -3.5430  -3.5255  -3.5159  -3.4873  -3.4843
    -3.4799  -3.4706  -3.4582  -3.4565  -3.4519  -3.4480  -3.4427  -3.4404
    -3.4016  -3.3790  -3.3744  -3.3566  -3.3418  -3.3317  -3.3285  -3.3274
    -3.3255  -3.2986  -3.2952  -3.2901  -3.2870  -3.2599  -3.2516  -3.2512
    -3.2511  -3.2502  -3.2418  -3.2249  -3.2185  -3.2140  -3.2045  -3.1951
    -3.1844  -3.1816  -3.1805  -3.1708  -3.1667  -3.1636  -3.1291  -3.1088
    -3.1007  -3.0864  -3.0828  -3.0693  -3.0481  -3.0462  -3.0133  -3.0075
    -3.0072  -3.0040  -2.9885  -2.9879  -2.9875  -2.9873  -2.9568  -2.9493
    -2.9394  -2.9384  -2.9269  -2.9213  -2.9112  -2.8988  -2.8912  -2.8906
    -2.8799  -2.8742  -2.8656  -2.8602  -2.8541  -2.8403  -2.8387  -2.8175
    -2.8088  -2.7971  -2.7795  -2.7774  -2.7753  -2.7738  -2.7109  -2.6920
    -2.6766  -2.6307  -2.6261  -2.6247  -2.6126  -2.6104  -2.6028  -2.5441
    -2.5423  -2.5046  -2.4834  -2.4696  -2.4631  -2.4598  -2.4497  -2.3917
    -2.3418  -2.3266

          k =-0.5000-0.8660 0.0000 (321564 PWs)   bands (ev):

   -88.8123 -87.7737 -66.6628 -66.6628 -66.6522 -66.6522 -66.6373 -66.6373
   -66.6373 -66.6373 -66.6329 -66.6329 -66.6267 -66.6267 -66.6266 -66.6266
   -66.6223 -66.6223 -66.5968 -66.5965 -66.5862 -66.5861 -66.5713 -66.5713
   -66.5712 -66.5710 -66.5670 -66.5666 -66.5609 -66.5607 -66.5605 -66.5603
   -66.5562 -66.5561 -66.5287 -66.5255 -66.5151 -66.5078 -66.5048 -66.5033
   -66.5018 -66.4985 -66.4963 -66.4904 -66.4802 -66.4762 -66.4716 -66.4665
   -66.4547 -66.4488 -54.6831 -54.6026 -54.5586 -53.6687 -53.5909 -53.4742
   -40.9639 -40.9639 -40.9639 -40.9639 -40.9373 -40.9372 -40.9253 -40.9253
   -40.8969 -40.8968 -40.8966 -40.8965 -40.8749 -40.8749 -40.8749 -40.8749
   -40.8702 -40.8700 -40.8582 -40.8581 -40.8232 -40.8229 -40.8170 -40.8169
   -40.8169 -40.8107 -40.8079 -40.8078 -40.8077 -40.8077 -40.8070 -40.8070
   -40.8012 -40.7962 -40.7962 -40.7936 -40.7805 -40.7668 -40.7668 -40.7668
   -40.7668 -40.7581 -40.7581 -40.7574 -40.7515 -40.7512 -40.7460 -40.7460
   -40.7459 -40.7459 -40.7459 -40.7459 -40.7400 -40.7399 -40.7373 -40.7373
   -40.7331 -40.7307 -40.7306 -40.7265 -40.7196 -40.7164 -40.7152 -40.7152
   -40.7152 -40.7152 -40.7014 -40.7014 -40.7013 -40.7011 -40.6949 -40.6928
   -40.6925 -40.6816 -40.6807 -40.6807 -40.6807 -40.6807 -40.6807 -40.6805
   -40.6803 -40.6802 -40.6790 -40.6789 -40.6752 -40.6718 -40.6718 -40.6686
   -40.6686 -40.6616 -40.6593 -40.6569 -40.6494 -40.6494 -40.6484 -40.6484
   -40.6482 -40.6480 -40.6403 -40.6353 -40.6339 -40.6326 -40.6326 -40.6311
   -40.6272 -40.6174 -40.6139 -40.6139 -40.6137 -40.6137 -40.6129 -40.6101
   -40.6053 -40.6021 -40.6021 -40.6019 -40.6016 -40.6013 -40.5995 -40.5986
   -40.5881 -40.5827 -40.5824 -40.5817 -40.5714 -40.5704 -40.5679 -40.5672
   -40.5658 -40.5656 -40.5404 -40.5354 -40.5352 -40.5351 -40.5287 -40.5250
   -40.5185 -40.5118 -40.5053 -40.4940 -40.4832 -40.4685 -40.4555 -40.4466
   -19.8731 -19.8639 -19.8014 -19.7474 -19.6683 -19.6217 -19.4325 -19.4300
   -19.3508 -19.3271 -19.2369 -19.2127 -18.8616 -18.7504 -18.7322 -18.7214
   -18.7211 -18.7204 -18.7125 -18.6734 -18.6441 -18.6180 -18.6094 -18.5820
   -18.5816 -18.5494 -18.5333 -18.5291 -18.5215 -18.5037 -18.4741 -18.4728
   -18.4316 -18.4289 -18.3881 -18.3864 -18.3766 -18.3695 -18.3439 -18.2877
   -18.2755 -18.2379 -18.2133 -18.2033 -18.2006 -18.1945 -18.1485 -18.1251
   -18.1224 -18.1086 -18.1085 -18.1084 -18.1082 -18.0859 -18.0837 -18.0728
   -18.0460 -18.0422 -18.0338 -18.0331 -18.0282 -18.0219 -18.0102 -17.9821
   -17.9790 -17.9677 -17.9619 -17.9563 -17.9525 -17.9482 -17.9251 -17.9216
   -17.9121 -17.9089 -17.9030 -17.8897 -17.8622 -17.8541 -17.8456 -17.8451
   -17.8450 -17.8377 -17.7967 -17.7898 -17.7852 -17.7845 -17.7723 -17.7688
   -17.7686 -17.7560 -17.7316 -17.7270 -17.7208 -17.7048 -17.6664 -17.6548
   -11.7339 -11.6577 -11.6136 -11.4991 -11.4612 -11.4560 -11.4557 -11.4527
   -11.4331 -11.4292 -11.4108 -11.3811 -11.3725 -11.3708 -11.3481 -11.3440
   -11.3220 -11.3026 -11.2910 -11.2804 -11.2692 -11.2633 -11.2605 -11.2380
   -11.2380 -11.2212 -11.1963 -11.1921 -11.1906 -11.1628 -11.1383 -11.1345
   -11.1327 -11.1319 -11.0517 -10.9931 -10.9713 -10.9667 -10.9503 -10.9424
   -10.9060 -10.8967 -10.8892 -10.8823 -10.8636 -10.8602 -10.8462 -10.8259
   -10.8224 -10.8121 -10.8113 -10.8102 -10.8100 -10.8031 -10.7903 -10.7855
   -10.7697 -10.7517 -10.7505 -10.7469 -10.7380 -10.7300 -10.7109 -10.6803
   -10.5725 -10.5526 -10.5090 -10.4722 -10.4677 -10.4073 -10.3566 -10.3185
   -10.2233 -10.1646 -10.1181 -10.1095 -10.1055 -10.0962 -10.0687 -10.0371
   -10.0128  -9.9985  -9.9826  -9.9357  -9.9203  -9.9175  -9.9153  -9.9124
    -9.9015  -9.8941  -9.8802  -9.8743  -9.8737  -9.8634  -9.8569  -9.7801
    -9.7767  -9.7591  -9.7421  -9.7351  -9.7297  -9.7167  -9.7048  -9.6904
    -9.6894  -9.6812  -9.6787  -9.6563  -9.6292  -9.6242  -9.6173  -9.6046
    -9.5934  -9.5917  -9.5896  -9.5776  -9.5277  -9.5112  -9.5082  -9.4977
    -9.4922  -9.4578  -9.4508  -9.4497  -9.4083  -9.4023  -9.3344  -9.2884
    -9.2466  -9.2368  -9.1820  -9.1656  -9.1552  -9.1505  -9.1343  -9.1236
    -9.1197  -9.1096  -9.1050  -9.1009  -9.0725  -9.0570  -9.0410  -9.0156
    -9.0041  -8.9975  -8.9847  -8.9810  -8.9691  -8.9528  -8.9464  -8.9373
    -8.9346  -8.9271  -8.9171  -8.9125  -8.9122  -8.9046  -8.8979  -8.8891
    -8.8714  -8.8615  -8.8445  -8.8378  -8.8339  -8.8211  -8.8206  -8.8201
    -8.8128  -8.8090  -8.8023  -8.7922  -8.7856  -8.7798  -8.7687  -8.7491
    -8.7427  -8.7356  -8.7197  -8.7161  -8.6877  -8.6766  -8.5686  -8.4955
    -8.4933  -8.4819  -8.4478  -8.4092  -8.4011  -8.3915  -8.3234  -8.2634
    -8.1977  -8.1743  -8.1743  -8.1142  -8.1026  -8.1021  -8.0718  -8.0432
    -8.0024  -7.9526  -7.9212  -7.9138  -7.9130  -7.8822  -7.8492  -7.8451
    -7.8341  -7.8334  -7.8302  -7.8276  -7.8276  -7.8242  -7.8194  -7.8159
    -7.7869  -7.7822  -7.7815  -7.7800  -7.7749  -7.7581  -7.7575  -7.7470
    -7.7443  -7.7346  -7.7309  -7.7228  -7.7104  -7.7085  -7.7030  -7.6957
    -7.6893  -7.6827  -7.6750  -7.6742  -7.6658  -7.6599  -7.6424  -7.6424
    -7.6369  -7.6314  -7.6263  -7.6019  -7.5959  -7.5935  -7.5896  -7.5741
    -7.5725  -7.5611  -7.5497  -7.5396  -7.5152  -7.4967  -7.4806  -7.4524
    -7.4424  -7.4242  -7.3717  -7.2840  -7.2462  -7.2320  -7.2228  -7.2145
    -7.1902  -7.1640  -7.1255  -7.1025  -7.0978  -7.0816  -7.0591  -7.0315
    -6.9945  -6.9910  -6.9870  -6.9717  -6.9482  -6.9281  -6.9195  -6.9166
    -6.9049  -6.8827  -6.8779  -6.8444  -6.8194  -6.8122  -6.8109  -6.7750
    -6.7512  -6.6996  -6.6710  -6.6449  -6.6394  -6.6394  -6.6392  -6.6391
    -6.6172  -6.6027  -6.5791  -6.5736  -6.5716  -6.5695  -6.5668  -6.5428
    -6.5268  -6.5138  -6.5027  -6.4827  -6.4683  -6.4205  -6.4051  -6.3122
    -6.3081  -6.3080  -6.3076  -6.2966  -6.2638  -6.2431  -6.2366  -6.2310
    -6.2295  -6.2241  -6.2193  -6.1980  -6.1871  -6.1715  -6.1624  -6.1502
    -6.1270  -6.0849  -5.9592  -5.9592  -5.9093  -5.8848  -5.8806  -5.8417
    -5.7895  -5.7636  -5.7245  -5.6954  -5.6139  -5.5445  -5.4903  -5.4708
    -5.3117  -5.0675  -4.0930  -4.0033  -3.9980  -3.9930  -3.9569  -3.8748
    -3.8748  -3.8575  -3.8300  -3.8100  -3.8097  -3.7750  -3.7517  -3.7443
    -3.7373  -3.7326  -3.7011  -3.6632  -3.5958  -3.5787  -3.5758  -3.5750
    -3.5717  -3.5602  -3.5601  -3.5418  -3.5270  -3.5192  -3.4936  -3.4840
    -3.4802  -3.4711  -3.4579  -3.4541  -3.4517  -3.4454  -3.4415  -3.4412
    -3.3972  -3.3813  -3.3706  -3.3485  -3.3363  -3.3349  -3.3277  -3.3273
    -3.3146  -3.2986  -3.2953  -3.2867  -3.2846  -3.2656  -3.2513  -3.2512
    -3.2510  -3.2498  -3.2432  -3.2227  -3.2185  -3.2109  -3.2047  -3.1974
    -3.1848  -3.1815  -3.1773  -3.1726  -3.1655  -3.1624  -3.1237  -3.0998
    -3.0987  -3.0924  -3.0843  -3.0720  -3.0483  -3.0467  -3.0124  -3.0080
    -3.0069  -3.0041  -2.9880  -2.9877  -2.9876  -2.9875  -2.9554  -2.9475
    -2.9391  -2.9383  -2.9237  -2.9128  -2.9001  -2.8994  -2.8947  -2.8930
    -2.8736  -2.8673  -2.8648  -2.8587  -2.8564  -2.8453  -2.8376  -2.8210
    -2.8154  -2.8010  -2.7835  -2.7791  -2.7755  -2.7723  -2.7098  -2.6884
    -2.6774  -2.6364  -2.6258  -2.6246  -2.6160  -2.6097  -2.6037  -2.5461
    -2.5406  -2.5127  -2.4825  -2.4820  -2.4656  -2.4617  -2.4443  -2.3935
    -2.3195  -2.3089

     the Fermi energy is    -4.5677 ev

!    total energy              =  -24869.09949805 Ry
     total all-electron energy =   -485549.002995 Ry
     estimated scf accuracy    <       0.00000019 Ry
     smearing contrib. (-TS)   =      -0.00000004 Ry
     internal energy E=F+TS    =  -24869.09949801 Ry

     The total energy is F=E-TS. E is the sum of the following terms:
     one-electron contribution =  478506.48416163 Ry
     hartree contribution      = -239358.02046662 Ry
     xc contribution           =   -1489.98765849 Ry
     ewald contribution        = -246670.54885628 Ry
     DFT-D3 Dispersion         =      -4.01448345 Ry
     one-center paw contrib.   =  -15853.01219482 Ry

     convergence has been achieved in  23 iterations

     negative rho (up, down):  9.869E-04 0.000E+00

     Forces acting on atoms (cartesian axes, Ry/au):

     atom    1 type  1   force =     0.00071693   -0.00120718    0.00019634
     atom    2 type  1   force =     0.00000717    0.00001251    0.00189384
     atom    3 type  1   force =    -0.00003496    0.00000366   -0.00002665
     atom    4 type  2   force =     0.00000087    0.00000128   -0.00313709
     atom    5 type  2   force =     0.00000584   -0.00000094    0.00011582
     atom    6 type  2   force =    -0.00005537    0.00009754    0.00021138
     atom    7 type  2   force =     0.00000132   -0.00000032    0.00135753
     atom    8 type  2   force =     0.00001376   -0.00000680   -0.00014126
     atom    9 type  2   force =    -0.00045992    0.00063956   -0.00020789
     atom   10 type  1   force =    -0.00306021    0.00122639   -0.00030806
     atom   11 type  1   force =     0.00000224    0.00000206    0.00188891
     atom   12 type  1   force =    -0.00001618   -0.00002908   -0.00001691
     atom   13 type  2   force =    -0.00000119    0.00000198   -0.00313292
     atom   14 type  2   force =    -0.00002198   -0.00001051    0.00012409
     atom   15 type  2   force =    -0.00022853   -0.00018571   -0.00031546
     atom   16 type  2   force =    -0.00000025    0.00000070    0.00137517
     atom   17 type  2   force =    -0.00004160   -0.00002337   -0.00016018
     atom   18 type  2   force =     0.00029336   -0.00047607   -0.00004875
     atom   19 type  1   force =    -0.00556981    0.00123049   -0.00591048
     atom   20 type  1   force =     0.00001382   -0.00000016    0.00189302
     atom   21 type  1   force =    -0.00002009    0.00001387   -0.00003950
     atom   22 type  2   force =     0.00000046   -0.00000058   -0.00313514
     atom   23 type  2   force =     0.00001152    0.00000538    0.00011088
     atom   24 type  2   force =     0.00018287    0.00022265    0.00017714
     atom   25 type  2   force =    -0.00000190    0.00000224    0.00136245
     atom   26 type  2   force =     0.00000701    0.00002530   -0.00010818
     atom   27 type  2   force =    -0.00008492   -0.00026681    0.00045213
     atom   28 type  1   force =    -0.00017091    0.00071706   -0.00013268
     atom   29 type  1   force =     0.00000465   -0.00000190    0.00189308
     atom   30 type  1   force =     0.00001568   -0.00002353   -0.00003464
     atom   31 type  2   force =     0.00000364    0.00000047   -0.00313236
     atom   32 type  2   force =    -0.00000113    0.00000226    0.00008573
     atom   33 type  2   force =    -0.00015313   -0.00012490    0.00006381
     atom   34 type  2   force =    -0.00000010   -0.00000340    0.00136522
     atom   35 type  2   force =     0.00000066    0.00000154   -0.00013276
     atom   36 type  2   force =     0.00019529   -0.00023383   -0.00033288
     atom   37 type  1   force =    -0.00102221    0.00041981    0.00038200
     atom   38 type  1   force =     0.00000126   -0.00000074    0.00188924
     atom   39 type  1   force =     0.00003348    0.00002493   -0.00002413
     atom   40 type  2   force =     0.00000152    0.00000099   -0.00313335
     atom   41 type  2   force =    -0.00001075    0.00000071    0.00010102
     atom   42 type  2   force =     0.00013096    0.00073229   -0.00000731
     atom   43 type  2   force =     0.00000194    0.00000512    0.00136291
     atom   44 type  2   force =    -0.00001912   -0.00000360   -0.00014079
     atom   45 type  2   force =     0.00028359    0.00080642   -0.00005100
     atom   46 type  1   force =     0.00118814    0.00096294    0.00097496
     atom   47 type  1   force =    -0.00000420   -0.00000177    0.00189025
     atom   48 type  1   force =    -0.00000546   -0.00001657    0.00000212
     atom   49 type  2   force =     0.00000133   -0.00000064   -0.00313198
     atom   50 type  2   force =    -0.00000434    0.00000524    0.00011583
     atom   51 type  2   force =    -0.00036287   -0.00034101   -0.00011936
     atom   52 type  2   force =     0.00000013    0.00000352    0.00136253
     atom   53 type  2   force =    -0.00000142    0.00000610   -0.00015009
     atom   54 type  2   force =     0.00127838   -0.00244016   -0.00422895
     atom   55 type  1   force =     0.00116635    0.00740040   -0.01575691
     atom   56 type  1   force =     0.00000065   -0.00000122    0.00188856
     atom   57 type  1   force =     0.00002070   -0.00002066   -0.00003291
     atom   58 type  2   force =     0.00000066    0.00000092   -0.00313415
     atom   59 type  2   force =     0.00000995   -0.00000617    0.00012166
     atom   60 type  2   force =    -0.00042852   -0.00098063    0.00207880
     atom   61 type  2   force =     0.00000325   -0.00000098    0.00135975
     atom   62 type  2   force =     0.00000921   -0.00000536   -0.00010773
     atom   63 type  2   force =     0.00292277   -0.00824371    0.01580754
     atom   64 type  1   force =     0.00151685    0.00060391    0.00060184
     atom   65 type  1   force =     0.00000513    0.00000159    0.00189017
     atom   66 type  1   force =    -0.00001666    0.00000526   -0.00002879
     atom   67 type  2   force =     0.00000118   -0.00000135   -0.00313619
     atom   68 type  2   force =     0.00000066   -0.00001377    0.00011116
     atom   69 type  2   force =    -0.00023395    0.00025150   -0.00045078
     atom   70 type  2   force =     0.00000286   -0.00000303    0.00136708
     atom   71 type  2   force =    -0.00002656   -0.00002955   -0.00010095
     atom   72 type  2   force =     0.00007700   -0.00005320   -0.00001809
     atom   73 type  1   force =    -0.00028556   -0.00018888   -0.00016758
     atom   74 type  1   force =     0.00000275   -0.00000284    0.00189438
     atom   75 type  1   force =    -0.00000308   -0.00001071   -0.00001843
     atom   76 type  2   force =     0.00000008   -0.00000043   -0.00313710
     atom   77 type  2   force =     0.00004995    0.00002617    0.00015455
     atom   78 type  2   force =    -0.00005415   -0.00026148    0.00008574
     atom   79 type  2   force =    -0.00000301   -0.00000079    0.00135613
     atom   80 type  2   force =    -0.00003636   -0.00002461   -0.00004813
     atom   81 type  2   force =     0.00003352    0.00013366    0.00031111
     atom   82 type  1   force =    -0.00156898    0.00141647   -0.00000419
     atom   83 type  1   force =     0.00000275   -0.00000337    0.00189376
     atom   84 type  1   force =     0.00001342   -0.00002522    0.00000232
     atom   85 type  2   force =     0.00000110   -0.00000319   -0.00313447
     atom   86 type  2   force =     0.00002368   -0.00001143    0.00011544
     atom   87 type  2   force =    -0.00063754    0.00014209   -0.00018108
     atom   88 type  2   force =     0.00000028    0.00000514    0.00136315
     atom   89 type  2   force =     0.00003587   -0.00003113   -0.00014956
     atom   90 type  2   force =     0.00096502   -0.00265263    0.00284023
     atom   91 type  1   force =     0.00718202   -0.00313138    0.00083372
     atom   92 type  1   force =    -0.00000166    0.00000484    0.00188989
     atom   93 type  1   force =    -0.00001299    0.00002117   -0.00003434
     atom   94 type  2   force =    -0.00000380    0.00000132   -0.00313466
     atom   95 type  2   force =    -0.00001079   -0.00000063    0.00013075
     atom   96 type  2   force =     0.00000172   -0.00013984    0.00204346
     atom   97 type  2   force =    -0.00000108    0.00000110    0.00136072
     atom   98 type  2   force =    -0.00002754   -0.00001202   -0.00012518
     atom   99 type  2   force =    -0.00315363   -0.00762382    0.00573146
     atom  100 type  1   force =    -0.00200068    0.00116477    0.00046964
     atom  101 type  1   force =    -0.00000099    0.00000082    0.00188719
     atom  102 type  1   force =     0.00001006    0.00001839    0.00000422
     atom  103 type  2   force =     0.00000050    0.00000014   -0.00313339
     atom  104 type  2   force =     0.00000002    0.00002020    0.00013265
     atom  105 type  2   force =     0.00004237    0.00004609    0.00163248
     atom  106 type  2   force =     0.00000342   -0.00000253    0.00136478
     atom  107 type  2   force =    -0.00000038    0.00004272   -0.00015872
     atom  108 type  2   force =    -0.00013493    0.00093851    0.00226751
     atom  109 type  1   force =    -0.00005078    0.00010923    0.00043090
     atom  110 type  1   force =     0.00000078    0.00000419    0.00189391
     atom  111 type  1   force =     0.00002306   -0.00001993    0.00009970
     atom  112 type  2   force =    -0.00000149    0.00000156   -0.00313154
     atom  113 type  2   force =    -0.00004781    0.00002696    0.00015793
     atom  114 type  2   force =     0.00014903   -0.00025592   -0.00009755
     atom  115 type  2   force =    -0.00000116   -0.00000257    0.00137496
     atom  116 type  2   force =     0.00004422   -0.00001500   -0.00008071
     atom  117 type  2   force =     0.00006246    0.00015059   -0.00024187
     atom  118 type  1   force =     0.00068322    0.00012449    0.00055391
     atom  119 type  1   force =     0.00000749   -0.00000688    0.00189515
     atom  120 type  1   force =     0.00000629   -0.00000280   -0.00001264
     atom  121 type  2   force =     0.00000187    0.00000061   -0.00313564
     atom  122 type  2   force =     0.00000376   -0.00005400    0.00015372
     atom  123 type  2   force =    -0.00000915    0.00001149    0.00009390
     atom  124 type  2   force =    -0.00000147    0.00000006    0.00137784
     atom  125 type  2   force =     0.00000725    0.00003857   -0.00007625
     atom  126 type  2   force =     0.00012910   -0.00001384    0.00009532
     atom  127 type  1   force =    -0.00062038    0.00014215    0.00034519
     atom  128 type  1   force =     0.00000115    0.00000720    0.00189311
     atom  129 type  1   force =     0.00001103   -0.00002158   -0.00000659
     atom  130 type  2   force =     0.00000341   -0.00000109   -0.00313197
     atom  131 type  2   force =    -0.00000339    0.00000699    0.00010253
     atom  132 type  2   force =    -0.00119258    0.00049301    0.00031469
     atom  133 type  2   force =    -0.00000298   -0.00000327    0.00136161
     atom  134 type  2   force =     0.00000332    0.00001866   -0.00017307
     atom  135 type  2   force =    -0.00045818   -0.00045469   -0.00001392
     atom  136 type  1   force =    -0.00008391    0.00017013    0.00012036
     atom  137 type  1   force =     0.00000462   -0.00000312    0.00188994
     atom  138 type  1   force =    -0.00000739    0.00003396    0.00000327
     atom  139 type  2   force =    -0.00000021   -0.00000036   -0.00313174
     atom  140 type  2   force =     0.00000198   -0.00000501    0.00011636
     atom  141 type  2   force =     0.00012989    0.00061743   -0.00057284
     atom  142 type  2   force =    -0.00000732   -0.00000399    0.00136033
     atom  143 type  2   force =     0.00001431    0.00000560   -0.00013121
     atom  144 type  2   force =     0.00028528    0.00060122   -0.00090876
     atom  145 type  3   force =     0.03864897   -0.04072447   -0.01050969
     atom  146 type  3   force =    -0.03624250    0.04848836   -0.00050031
     The non-local contrib.  to forces
     atom    1 type  1   force =    -0.00035038    0.00573908   -0.00217556
     atom    2 type  1   force =     0.00000285    0.00000021   -0.00196953
     atom    3 type  1   force =     0.00009122   -0.00009400   -0.00077999
     atom    4 type  2   force =    -0.00000132   -0.00000175    0.26312036
     atom    5 type  2   force =     0.00002149   -0.00007947    0.26635419
     atom    6 type  2   force =    -0.00095196   -0.00194503    0.26623676
     atom    7 type  2   force =    -0.00000075   -0.00000254   -0.26453971
     atom    8 type  2   force =    -0.00018955    0.00013265   -0.26488754
     atom    9 type  2   force =    -0.00295608    0.00023697   -0.26047948
     atom   10 type  1   force =     0.00040846    0.00361859    0.00343337
     atom   11 type  1   force =    -0.00000009    0.00000380   -0.00196797
     atom   12 type  1   force =    -0.00005700    0.00014021   -0.00078058
     atom   13 type  2   force =    -0.00000243    0.00000064    0.26311058
     atom   14 type  2   force =    -0.00000287   -0.00000428    0.26628860
     atom   15 type  2   force =    -0.00281216   -0.00053075    0.26583381
     atom   16 type  2   force =    -0.00000562   -0.00000162   -0.26451088
     atom   17 type  2   force =    -0.00044434   -0.00028906   -0.26444052
[...]
     atom   65 type  1   force =    -0.00000020    0.00000008    0.00260382
     atom   66 type  1   force =    -0.00001314    0.00000385   -0.00003367
     atom   67 type  2   force =    -0.00000006    0.00000004    0.00441097
     atom   68 type  2   force =    -0.00000252    0.00000080   -0.00005276
     atom   69 type  2   force =     0.00001088   -0.00002172   -0.00010382
     atom   70 type  2   force =     0.00000003    0.00000029    0.00023587
     atom   71 type  2   force =    -0.00002867    0.00001351    0.00007862
     atom   72 type  2   force =     0.00048562   -0.00025767   -0.00417498
     atom   73 type  1   force =    -0.00007143   -0.00004111   -0.00245328
     atom   74 type  1   force =    -0.00000034   -0.00000036    0.00260318
     atom   75 type  1   force =     0.00000290    0.00000217   -0.00003465
     atom   76 type  2   force =    -0.00000001    0.00000004    0.00441091
     atom   77 type  2   force =    -0.00000098   -0.00000042   -0.00004937
     atom   78 type  2   force =     0.00001331    0.00000890   -0.00011256
     atom   79 type  2   force =    -0.00000050   -0.00000044    0.00023568
     atom   80 type  2   force =     0.00000415    0.00000888    0.00010150
     atom   81 type  2   force =    -0.00008912   -0.00004867   -0.00423223
     atom   82 type  1   force =    -0.00041455    0.00005374   -0.00215811
     atom   83 type  1   force =    -0.00000052   -0.00000005    0.00260320
     atom   84 type  1   force =     0.00001464   -0.00000930   -0.00005853
     atom   85 type  2   force =     0.00000002   -0.00000003    0.00441093
     atom   86 type  2   force =    -0.00000083   -0.00000013   -0.00004926
     atom   87 type  2   force =    -0.00004648    0.00004897    0.00018119
     atom   88 type  2   force =    -0.00000068   -0.00000021    0.00023568
     atom   89 type  2   force =     0.00001084   -0.00000222    0.00010047
     atom   90 type  2   force =    -0.00033446    0.00030071   -0.00430888
     atom   91 type  1   force =    -0.00048561   -0.00028083   -0.00186031
     atom   92 type  1   force =    -0.00000020    0.00000010    0.00260366
     atom   93 type  1   force =     0.00000943    0.00000569   -0.00008389
     atom   94 type  2   force =     0.00000001    0.00000001    0.00441075
     atom   95 type  2   force =     0.00000088    0.00000074   -0.00005416
     atom   96 type  2   force =    -0.00004969   -0.00003072    0.00047569
     atom   97 type  2   force =    -0.00000009    0.00000013    0.00023569
     atom   98 type  2   force =     0.00002651    0.00000316    0.00008473
     atom   99 type  2   force =    -0.00018273   -0.00010313   -0.00430964
     atom  100 type  1   force =    -0.00015891   -0.00038597   -0.00215930
     atom  101 type  1   force =    -0.00000001   -0.00000022    0.00260359
     atom  102 type  1   force =    -0.00000131    0.00001706   -0.00005866
     atom  103 type  2   force =     0.00000001   -0.00000001    0.00441075
     atom  104 type  2   force =     0.00000084    0.00000044   -0.00005430
     atom  105 type  2   force =     0.00001900   -0.00006130    0.00017945
     atom  106 type  2   force =     0.00000011   -0.00000020    0.00023563
     atom  107 type  2   force =     0.00001625    0.00001884    0.00008513
     atom  108 type  2   force =     0.00009533   -0.00044051   -0.00431023
     atom  109 type  1   force =     0.00007103    0.00005835   -0.00245600
     atom  110 type  1   force =     0.00000039   -0.00000033    0.00260322
     atom  111 type  1   force =     0.00000578    0.00000901   -0.00001935
     atom  112 type  2   force =     0.00000001   -0.00000001    0.00441081
     atom  113 type  2   force =     0.00000216   -0.00000087   -0.00004660
     atom  114 type  2   force =     0.00000480    0.00001332   -0.00013598
     atom  115 type  2   force =     0.00000002   -0.00000081    0.00023556
     atom  116 type  2   force =     0.00001529    0.00001398    0.00009415
     atom  117 type  2   force =    -0.00008785   -0.00025229   -0.00431857
     atom  118 type  1   force =     0.00008498    0.00003024   -0.00245555
     atom  119 type  1   force =     0.00000005    0.00000008    0.00260257
     atom  120 type  1   force =     0.00001026    0.00000153   -0.00001839
     atom  121 type  2   force =    -0.00000003   -0.00000002    0.00441081
     atom  122 type  2   force =     0.00000019    0.00000054   -0.00004576
     atom  123 type  2   force =     0.00001414    0.00000194   -0.00013607
     atom  124 type  2   force =    -0.00000049   -0.00000032    0.00023579
     atom  125 type  2   force =     0.00000032   -0.00000019    0.00010228
     atom  126 type  2   force =    -0.00026373    0.00004945   -0.00431923
     atom  127 type  1   force =    -0.00009229   -0.00006210   -0.00245910
     atom  128 type  1   force =    -0.00000012    0.00000053    0.00260324
     atom  129 type  1   force =     0.00002027    0.00000545   -0.00003532
     atom  130 type  2   force =    -0.00000001    0.00000001    0.00441083
     atom  131 type  2   force =     0.00000037    0.00000254   -0.00004628
     atom  132 type  2   force =    -0.00004056   -0.00000311   -0.00005255
     atom  133 type  2   force =    -0.00000076    0.00000027    0.00023558
     atom  134 type  2   force =     0.00002036    0.00000337    0.00009383
     atom  135 type  2   force =    -0.00074173   -0.00022254   -0.00408454
     atom  136 type  1   force =    -0.00009968   -0.00004787   -0.00245992
     atom  137 type  1   force =     0.00000025    0.00000015    0.00260389
     atom  138 type  1   force =     0.00001529    0.00001426   -0.00003637
     atom  139 type  2   force =     0.00000001    0.00000001    0.00441084
     atom  140 type  2   force =     0.00000200    0.00000133   -0.00004687
     atom  141 type  2   force =    -0.00002374   -0.00003229   -0.00005194
     atom  142 type  2   force =    -0.00000011   -0.00000021    0.00023547
     atom  143 type  2   force =     0.00003150    0.00001592    0.00009271
     atom  144 type  2   force =    -0.00056019   -0.00052890   -0.00408869
     atom  145 type  3   force =    -0.00008256    0.00012440   -0.00626747
     atom  146 type  3   force =     0.00006731   -0.00013227   -0.00626684

     Total force =     0.003726     Total SCF correction =     0.000644
     SCF correction compared to forces is large: reduce conv_thr to get better values
     Energy error            =      3.1E-05 Ry
     Gradient error          =      8.3E-04 Ry/Bohr

     bfgs converged in  24 scf cycles and  23 bfgs steps
     (criteria: energy <  1.0E-04 Ry, force <  1.0E-03 Ry/Bohr)

     End of BFGS Geometry Optimization

     Final energy             =  -24869.1297194123 Ry

     File ./outdir/pwscf.bfgs deleted, as requested
Begin final coordinates

ATOMIC_POSITIONS (angstrom)
Mo            1.5717671441        2.7030156807        6.0848019660
Mo            1.5769197498        0.9104407117       -6.0872367793    0   0   0
Mo            0.0002403072        1.8206093331       -0.0010611363
S             0.0000044503        0.0000077495       -7.6506323570    0   0   0
S             1.5767619702        0.9104221559       -1.5673495303
S             0.0048969002        1.8099950522        4.5034926738
S             0.0000053241        0.0000068460       -4.5222282367    0   0   0
S             1.5776719873        0.9095753337        1.5646846291
S            -0.0093586189        1.7977722745        7.6448917383
Mo           -0.0249296330        5.4328541168        6.0897959040
Mo            0.0000011799        3.6417399547       -6.0872367793    0   0   0
Mo           -1.5768248409        4.5516153410        0.0010738313
S            -1.5769141197        2.7313069925       -7.6506323570    0   0   0
S            -0.0004201884        3.6420460602       -1.5653998849
S            -1.5809923521        4.5344072636        4.4999616183
S            -1.5769132459        2.7313060890       -4.5222282367    0   0   0
S             0.0014291137        3.6411341140        1.5674161125
S            -1.6063443485        4.5191512478        7.6455148733
Mo           -1.5907729515        8.1786151764        6.0830194229
Mo           -1.5769173901        6.3730391977       -6.0872367793    0   0   0
Mo           -3.1536495300        7.2828083235       -0.0010430892
S            -3.1538326896        5.4626062355       -7.6506323570    0   0   0
S            -1.5766923179        6.3717039500       -1.5654028714
S            -3.1483885414        7.2676653122        4.5004581919
S            -3.1538318159        5.4626053320       -4.5222282367    0   0   0
S            -1.5762311273        6.3735021518        1.5674959910
S            -3.1670447714        7.2622868725        7.6428266549
Mo            3.1550672173       -0.0150041188        6.0777950752
Mo           -3.1538359601        9.1043384407       -6.0872367793    0   0   0
Mo           -4.7309265945       10.0141658991       -0.0022646072
S            -4.7307512596        8.1939054785       -7.6506323570    0   0   0
S            -3.1539199473        9.1034871900       -1.5673134710
S            -4.7251674555       10.0042681545        4.5040303421
S            -4.7307503859        8.1939045750       -4.5222282367    0   0   0
S            -3.1539507604        9.1042357181        1.5648294225
S            -4.7291751607        9.9996217438        7.6389402192
Mo            4.7375538004        2.7077714391        6.0899860485
Mo            4.7307503218        0.9104407117       -6.0872367793    0   0   0
Mo            3.1541500800        1.8205261445       -0.0019607868
S             3.1538350223        0.0000077495       -7.6506323570    0   0   0
S             4.7315221944        0.9103625258       -1.5670355294
S             3.1566704265        1.8086109523        4.5148372956
S             3.1538358961        0.0000068460       -4.5222282367    0   0   0
S             4.7299882535        0.9090992587        1.5654818402
S             3.1526534209        1.7998653087        7.6498278741
Mo            3.1609830233        5.4368668990        6.1441721800
Mo            3.1538317519        3.6417399547       -6.0872367793    0   0   0
Mo            1.5772089768        4.5518992562       -0.0004484942
S             1.5769164523        2.7313069925       -7.6506323570    0   0   0
S             3.1539835902        3.6420205404       -1.5664693573
S             1.5940050684        4.5481476235        4.5566555185
S             1.5769173261        2.7313060890       -4.5222282367    0   0   0
S             3.1538092368        3.6406379883        1.5665766969
S             1.4852983763        4.4808776046        7.6951560488
Mo            1.5717829493        8.1899058888        6.1461858170
Mo            1.5769131819        6.3730391977       -6.0872367793    0   0   0
Mo            0.0002730159        7.2827972112       -0.0004336937
S            -0.0000021176        5.4626062355       -7.6506323570    0   0   0
S             1.5767921611        6.3724878580       -1.5660702222
S             0.0210766449        7.2760765046        4.5560914156
S            -0.0000012439        5.4626053320       -4.5222282367    0   0   0
S             1.5770054704        6.3722874528        1.5674916149
S            -0.0943892572        7.2173031710        7.6942523159
Mo            6.3026799011       -0.0069541809        6.0900028282
Mo           -0.0000053881        9.1043384407       -6.0872367793    0   0   0
Mo           -1.5768573314       10.0141734631       -0.0020002230
S            -1.5769206876        8.1939054785       -7.6506323570    0   0   0
S             0.0004161848        9.1033193877       -1.5665153541
S            -1.5733713143       10.0007573416        4.5135528289
S            -1.5769198139        8.1939045750       -4.5222282367    0   0   0
S            -0.0006864495        9.1036681041        1.5664387470
S            -1.5839627913        9.9987391215        7.6502816578
Mo            7.8843290438        2.7139562197        6.0771700291
Mo            7.8845808939        0.9104407117       -6.0872367793    0   0   0
Mo            6.3075946259        1.8199517299       -0.0000782986
S             6.3076655943        0.0000077495       -7.6506323570    0   0   0
S             7.8847695118        0.9096274476       -1.5653209254
S             6.3042807599        1.8026926849        4.5130082325
S             6.3076664681        0.0000068460       -4.5222282367    0   0   0
S             7.8841105175        0.9080754023        1.5675636451
S             6.3142289574        1.8070571815        7.6573343642
Mo            6.3187162591        5.4466665803        6.0886564024
Mo            6.3076623239        3.6417399547       -6.0872367793    0   0   0
Mo            4.7304686569        4.5516874549       -0.0002289343
S             4.7307470244        2.7313069925       -7.6506323570    0   0   0
S             6.3077784234        3.6410475967       -1.5654483586
S             4.7117605888        4.5472837573        4.5555157510
S             4.7307478981        2.7313060890       -4.5222282367    0   0   0
S             6.3064067356        3.6409981904        1.5674739811
S             4.8104012632        4.4861181187        7.7141917721
Mo            4.7678929856        8.1994529274        6.0781260727
Mo            4.7307437539        6.3730391977       -6.0872367793    0   0   0
Mo            3.1535143865        7.2826070273       -0.0002409876
S             3.1538284544        5.4626062355       -7.6506323570    0   0   0
S             4.7303968351        6.3723002331       -1.5657985134
S             3.1394909816        7.2607798364        4.5905194775
S             3.1538293281        5.4626053320       -4.5222282367    0   0   0
S             4.7299158868        6.3725309460        1.5677863421
S             3.2706482472        7.3322107181        7.7033395793
Mo            9.4665424194       -0.0080711052        6.0895697102
Mo            3.1538251839        9.1043384407       -6.0872367793    0   0   0
Mo            1.5768660909       10.0134561065       -0.0002959738
S             1.5769098844        8.1939054785       -7.6506323570    0   0   0
S             3.1537154446        9.1033919969       -1.5658575783
S             1.5751260334        9.9758590332        4.5570730192
S             1.5769107581        8.1939045750       -4.5222282367    0   0   0
S             3.1537799375        9.1027891548        1.5677070261
S             1.5713224502       10.0930476564        7.7146379841
Mo           -1.5803056637        2.7130891862        6.0683188057
Mo           11.0384114659        0.9104407117       -6.0872367793    0   0   0
Mo            9.4613458139        1.8198496112        0.0002975778
S             9.4614961663        0.0000077495       -7.6506323570    0   0   0
S            11.0380300997        0.9101444105       -1.5658693728
S             9.4566864303        1.7976168174        4.5086713717
S             9.4614970401        0.0000068460       -4.5222282367    0   0   0
S            11.0392410785        0.9096125474        1.5660613402
S             9.4673839013        1.8150222857        7.6476524911
Mo           -3.1584976570        5.4437451790        6.0672780661
Mo            9.4614928959        3.6417399547       -6.0872367793    0   0   0
Mo            7.8843346818        4.5512515329        0.0001025408
S             7.8845775964        2.7313069925       -7.6506323570    0   0   0
S             9.4617464413        3.6410494245       -1.5647474216
S             7.8756678699        4.5332838122        4.5071730584
S             7.8845784701        2.7313060890       -4.5222282367    0   0   0
S             9.4609575477        3.6405291815        1.5674385833
S             7.8977276422        4.5334741707        7.6477696025
Mo           -4.7236506901        8.1790742722        6.0673823287
Mo            7.8845743259        6.3730391977       -6.0872367793    0   0   0
Mo            6.3073491056        7.2825957196       -0.0005892306
S             6.3076590264        5.4626062355       -7.6506323570    0   0   0
S             7.8844216490        6.3718251530       -1.5659890230
S             6.3156529440        7.2640845079        4.5049927016
S             6.3076599001        5.4626053320       -4.5222282367    0   0   0
S             7.8848646112        6.3725963886        1.5659208998
S             6.3334528918        7.2744161426        7.6457961676
Mo            0.0034483008       -0.0100431468        6.0701012952
Mo            6.3076557559        9.1043384407       -6.0872367793    0   0   0
Mo            4.7305545443       10.0139346537       -0.0006008767
S             4.7307404564        8.1939054785       -7.6506323570    0   0   0
S             6.3069459754        9.1033526012       -1.5666880607
S             4.7311376430       10.0077777678        4.5061977530
S             4.7307413301        8.1939045750       -4.5222282367    0   0   0
S             6.3080303390        9.1037078024        1.5657069096
S             4.7483295979       10.0158953860        7.6481253418
Pd            3.0930535561        5.4859564733        9.0497301709
Pd            1.5888505809        8.0967267137        9.0502707052
End final coordinates



     Writing all to output data dir ./outdir/pwscf.save/
 
     init_run     :    103.51s CPU    105.87s WALL (       1 calls)
     electrons    : 112086.76s CPU 113401.61s WALL (      24 calls)
     update_pot   :     97.10s CPU     97.46s WALL (      23 calls)
     forces       :   1626.46s CPU   1673.88s WALL (      24 calls)
     force_dftd3  :     11.14s CPU     11.15s WALL (      24 calls)

     Called by init_run:
     wfcinit      :     84.67s CPU     85.95s WALL (       1 calls)
     potinit      :      1.82s CPU      1.89s WALL (       1 calls)
     hinit0       :     11.68s CPU     11.70s WALL (       1 calls)

     Called by electrons:
     c_bands      : 100661.19s CPU 101287.16s WALL (     294 calls)
     sum_band     :  10462.82s CPU  10856.89s WALL (     294 calls)
     v_of_rho     :    121.54s CPU    123.51s WALL (     303 calls)
     newd         :    628.76s CPU    935.46s WALL (     303 calls)
     PAW_pot      :    177.32s CPU    177.34s WALL (     326 calls)
     mix_rho      :     28.38s CPU     28.49s WALL (     294 calls)
     energy_dftd3 :      5.07s CPU      5.05s WALL (      24 calls)

     Called by c_bands:
     init_us_2    :    456.26s CPU    456.38s WALL (    2544 calls)
     init_us_2:cp :    456.23s CPU    456.37s WALL (    2544 calls)
     cegterg      :  99137.49s CPU  99756.80s WALL (    1216 calls)

     Called by *egterg:
     cdiaghg      :   6099.42s CPU   6119.19s WALL (   15236 calls)
     h_psi        :  52396.34s CPU  52588.62s WALL (   15409 calls)
     s_psi        :  10470.21s CPU  10471.11s WALL (   15409 calls)
     g_psi        :    117.39s CPU    117.27s WALL (   14189 calls)

     Called by h_psi:
     h_psi:calbec :  10729.92s CPU  10731.92s WALL (   15409 calls)
     vloc_psi     :  30944.99s CPU  31030.59s WALL (   15409 calls)
     add_vuspsi   :  10581.64s CPU  10584.24s WALL (   15409 calls)

     General routines
     calbec       :  14993.44s CPU  14996.17s WALL (   17061 calls)
     fft          :    131.91s CPU    134.73s WALL (    4193 calls)
     ffts         :      5.34s CPU      5.37s WALL (     597 calls)
     fftw         :  24580.02s CPU  24645.69s WALL ( 6872818 calls)
     interpolate  :     12.22s CPU     12.32s WALL (     303 calls)
 
     Parallel routines
 
     PWSCF        :   1d 7h47m CPU   1d 8h11m WALL

 
   This run was terminated on:   7:32:33   6Oct2023            

=------------------------------------------------------------------------------=
   JOB DONE.
=------------------------------------------------------------------------------=
Application 11267987 resources: utime ~4121210s, stime ~49941s, Rss ~2393236, inblocks ~0, outblocks ~39415984
