
     Program PWSCF v.7.2 starts on  4Oct2023 at 23:40:44 

     This program is part of the open-source Quantum ESPRESSO suite
     for quantum simulation of materials; please cite
         "P. Giannozzi et al., J. Phys.:Condens. Matter 21 395502 (2009);
         "P. Giannozzi et al., J. Phys.:Condens. Matter 29 465901 (2017);
         "P. Giannozzi et al., J. Chem. Phys. 152 154105 (2020);
          URL http://www.quantum-espresso.org", 
     in publications or presentations arising from this work. More details at
     http://www.quantum-espresso.org/quote

     Parallel version (MPI), running on    36 processors

     MPI processes distributed on     1 nodes
     769123 MiB available memory on the printing compute node when the environment starts
 
     Waiting for input...
     Reading input from standard input
Warning: card &CELL ignored
Warning: card / ignored

     Current dimensions of program PWSCF are:
     Max number of different atomic species (ntypx) = 10
     Max number of k-points (npk) =  40000
     Max angular momentum in pseudopotentials (lmaxx) =  4
     file Mo.pbe-spn-kjpaw_psl.1.0.0.UPF: wavefunction(s)  4S 4D renormalized
     file S.pbe-n-kjpaw_psl.1.0.0.UPF: wavefunction(s)  3S 3P renormalized
     file Pd.pbe-spn-kjpaw_psl.1.0.0.UPF: wavefunction(s)  4S 5S 4D renormalized
 
     R & G space division:  proc/nbgrp/npool/nimage =      36
     Subspace diagonalization in iterative solution of the eigenvalue problem:
     one sub-group per band group will be used
     custom distributed-memory algorithm (size of sub-group:  6*  6 procs)

 
     Parallelization info
     --------------------
     sticks:   dense  smooth     PW     G-vecs:    dense   smooth      PW
     Min         585     334     89               198743    85850   11735
     Max         586     335     90               198750    85861   11748
     Sum       21073   12049   3205              7154885  3090769  422587
 
     Using Slab Decomposition
 


     bravais-lattice index     =            0
     lattice parameter (alat)  =      23.8199  a.u.
     unit-cell volume          =   33861.0370 (a.u.)^3
     number of atoms/cell      =          194
     number of atomic types    =            3
     number of electrons       =      1700.00
     number of Kohn-Sham states=         1020
     kinetic-energy cutoff     =      77.0000  Ry
     charge density cutoff     =     539.0000  Ry
     scf convergence threshold =      1.0E-06
     mixing beta               =       0.2000
     number of iterations used =            8  plain     mixing
     energy convergence thresh.=      1.0E-04
     force convergence thresh. =      1.0E-03
     Exchange-correlation= SLA  PW   PBX  PBC
                           (   1   4   3   4   0   0   0)
     nstep                     =         1000


     Effective Screening Medium Method
     =================================
     Boundary Conditions: Vacuum-Slab-Vacuum
     total charge in unit cell        =   0.0000
     grid points for fit at edges     =        4 
 

     celldm(1)=  23.819920  celldm(2)=   0.000000  celldm(3)=   0.000000
     celldm(4)=   0.000000  celldm(5)=   0.000000  celldm(6)=   0.000000

     crystal axes: (cart. coord. in units of alat)
               a(1) = (   1.000000   0.000000   0.000000 )  
               a(2) = (  -0.499999   0.866026   0.000000 )  
               a(3) = (   0.000000   0.000000   2.893000 )  

     reciprocal axes: (cart. coord. in units 2 pi/alat)
               b(1) = (  1.000000  0.577349  0.000000 )  
               b(2) = (  0.000000  1.154700  0.000000 )  
               b(3) = (  0.000000  0.000000  0.345662 )  


     PseudoPot. # 1 for Mo read from file:
     ./pseudo/Mo.pbe-spn-kjpaw_psl.1.0.0.UPF
     MD5 check sum: 317bf72632116215fd98f72de1686f13
     Pseudo is Projector augmented-wave + core cor, Zval = 14.0
     Generated using 'atomic' code by A. Dal Corso  v.7.2
     Shape of augmentation charge: PSQ
     Using radial grid of 1229 points,  6 beta functions with: 
                l(1) =   0
                l(2) =   0
                l(3) =   1
                l(4) =   1
                l(5) =   2
                l(6) =   2
     Q(r) pseudized with 0 coefficients 


     PseudoPot. # 2 for S  read from file:
     ./pseudo/S.pbe-n-kjpaw_psl.1.0.0.UPF
     MD5 check sum: 8b7b5302570d38d5e87fed6a1065abda
     Pseudo is Projector augmented-wave + core cor, Zval =  6.0
     Generated using 'atomic' code by A. Dal Corso  v.7.2
     Shape of augmentation charge: PSQ
     Using radial grid of 1151 points,  6 beta functions with: 
                l(1) =   0
                l(2) =   0
                l(3) =   1
                l(4) =   1
                l(5) =   2
                l(6) =   2
     Q(r) pseudized with 0 coefficients 


     PseudoPot. # 3 for Pd read from file:
     ./pseudo/Pd.pbe-spn-kjpaw_psl.1.0.0.UPF
     MD5 check sum: a60571a671f2502b8a6a4569d20a6edb
     Pseudo is Projector augmented-wave + core cor, Zval = 18.0
     Generated using 'atomic' code by A. Dal Corso  v.7.2
     Shape of augmentation charge: PSQ
     Using radial grid of 1235 points,  6 beta functions with: 
                l(1) =   0
                l(2) =   0
                l(3) =   1
                l(4) =   1
                l(5) =   2
                l(6) =   2
     Q(r) pseudized with 0 coefficients 


     atomic species   valence    mass     pseudopotential
        Mo            14.00    95.95000     Mo( 1.00)
        S              6.00    32.06000     S ( 1.00)
        Pd            18.00   106.42000     Pd( 1.00)

     No symmetry found



   Cartesian axes

     site n.     atom                  positions (alat units)
         1           Mo  tau(   1) = (   0.0000010   0.1443372  -0.7272732  )
         2           Mo  tau(   2) = (   0.1249995   0.0721706  -0.2424038  )
         3           S   tau(   3) = (   0.0000015   0.1443386  -0.3667807  )
         4           S   tau(   4) = (   0.1250010   0.0721682  -0.6030489  )
         5           S   tau(   5) = (   0.1250010   0.0721683  -0.8514963  )
         6           S   tau(   6) = (   0.0000015   0.1443389  -0.1180260  )
         7           Mo  tau(   7) = (   0.0000007   0.1443589   0.2424205  )
         8           Mo  tau(   8) = (   0.1250041   0.0720322   0.7266168  )
         9           S   tau(   9) = (   0.0000742   0.1444871   0.6020949  )
        10           S   tau(  10) = (   0.1250024   0.0721701   0.3667478  )
        11           S   tau(  11) = (   0.1250035   0.0721876   0.1180348  )
        12           S   tau(  12) = (  -0.0004118   0.1430864   0.8514340  )
        13           Mo  tau(  13) = (  -0.1249989   0.3608437  -0.7272732  )
        14           Mo  tau(  14) = (   0.0000030   0.2886752  -0.2424042  )
        15           S   tau(  15) = (  -0.1249977   0.3608450  -0.3667802  )
        16           S   tau(  16) = (   0.0000012   0.2886747  -0.6030489  )
        17           S   tau(  17) = (   0.0000012   0.2886748  -0.8514963  )
        18           S   tau(  18) = (  -0.1249977   0.3608454  -0.1180274  )
        19           Mo  tau(  19) = (  -0.1249729   0.3608584   0.2424608  )
        20           Mo  tau(  20) = (  -0.0007193   0.2876626   0.7275440  )
        21           S   tau(  21) = (  -0.1251115   0.3607789   0.6027257  )
        22           S   tau(  22) = (   0.0000621   0.2887099   0.3668377  )
        23           S   tau(  23) = (  -0.0000096   0.2886902   0.1180527  )
        24           S   tau(  24) = (  -0.1254673   0.3605734   0.8517408  )
        25           Mo  tau(  25) = (  -0.2499987   0.5773502  -0.7272732  )
        26           Mo  tau(  26) = (  -0.1249977   0.5051839  -0.2424055  )
        27           S   tau(  27) = (  -0.2499981   0.5773518  -0.3667809  )
        28           S   tau(  28) = (  -0.1249986   0.5051812  -0.6030489  )
        29           S   tau(  29) = (  -0.1249986   0.5051813  -0.8514963  )
        30           S   tau(  30) = (  -0.2499979   0.5773512  -0.1180266  )
        31           Mo  tau(  31) = (  -0.2499795   0.5773389   0.2424205  )
        32           Mo  tau(  32) = (  -0.1262356   0.5050639   0.7275441  )
        33           S   tau(  33) = (  -0.2498323   0.5773390   0.6020948  )
        34           S   tau(  34) = (  -0.1249376   0.5052159   0.3668377  )
        35           S   tau(  35) = (  -0.1249905   0.5051638   0.1180531  )
        36           S   tau(  36) = (  -0.2512883   0.5776183   0.8514340  )
        37           Mo  tau(  37) = (  -0.3749985   0.7938567  -0.7272732  )
        38           Mo  tau(  38) = (  -0.2500001   0.7216874  -0.2424031  )
        39           S   tau(  39) = (  -0.3749980   0.7938584  -0.3667800  )
        40           S   tau(  40) = (  -0.2499984   0.7216877  -0.6030489  )
        41           S   tau(  41) = (  -0.2499984   0.7216878  -0.8514963  )
        42           S   tau(  42) = (  -0.3749982   0.7938585  -0.1180264  )
        43           Mo  tau(  43) = (  -0.3749962   0.7938568   0.2423838  )
        44           Mo  tau(  44) = (  -0.2501148   0.7217588   0.7266170  )
        45           S   tau(  45) = (  -0.3749945   0.7938590   0.6021274  )
        46           S   tau(  46) = (  -0.2499958   0.7216877   0.3667488  )
        47           S   tau(  47) = (  -0.2499810   0.7216794   0.1180323  )
        48           S   tau(  48) = (  -0.3749953   0.7938585   0.8511588  )
        49           Mo  tau(  49) = (   0.2500010   0.1443372  -0.7272732  )
        50           Mo  tau(  50) = (   0.3750034   0.0721723  -0.2424032  )
        51           S   tau(  51) = (   0.2500017   0.1443391  -0.3667788  )
        52           S   tau(  52) = (   0.3750010   0.0721682  -0.6030489  )
        53           S   tau(  53) = (   0.3750010   0.0721683  -0.8514963  )
        54           S   tau(  54) = (   0.2500016   0.1443391  -0.1180271  )
        55           Mo  tau(  55) = (   0.2500054   0.1443594   0.2424211  )
        56           Mo  tau(  56) = (   0.3749279   0.0721263   0.7263991  )
        57           S   tau(  57) = (   0.2499344   0.1444864   0.6020948  )
        58           S   tau(  58) = (   0.3750316   0.0721860   0.3667597  )
        59           S   tau(  59) = (   0.3749924   0.0721644   0.1180346  )
        60           S   tau(  60) = (   0.2504199   0.1430865   0.8514340  )
        61           Mo  tau(  61) = (   0.1250012   0.3608437  -0.7272732  )
        62           Mo  tau(  62) = (   0.2500029   0.2886782  -0.2424031  )
        63           S   tau(  63) = (   0.1250024   0.3608455  -0.3667794  )
        64           S   tau(  64) = (   0.2500012   0.2886747  -0.6030489  )
        65           S   tau(  65) = (   0.2500012   0.2886748  -0.8514963  )
        66           S   tau(  66) = (   0.1250021   0.3608455  -0.1180270  )
        67           Mo  tau(  67) = (   0.1250038   0.3608653   0.2423963  )
        68           Mo  tau(  68) = (   0.2507284   0.2876625   0.7275438  )
        69           S   tau(  69) = (   0.1250046   0.3627170   0.6061948  )
        70           S   tau(  70) = (   0.2499461   0.2887116   0.3668373  )
        71           S   tau(  71) = (   0.2500171   0.2886900   0.1180543  )
        72           S   tau(  72) = (   0.1250046   0.3519103   0.8557806  )
        73           Mo  tau(  73) = (   0.0000014   0.5773502  -0.7272732  )
        74           Mo  tau(  74) = (   0.1250045   0.5051840  -0.2424036  )
        75           S   tau(  75) = (   0.0000030   0.5773520  -0.3667799  )
        76           S   tau(  76) = (   0.1250014   0.5051812  -0.6030489  )
        77           S   tau(  77) = (   0.1250014   0.5051813  -0.8514963  )
        78           S   tau(  78) = (   0.0000026   0.5773517  -0.1180274  )
        79           Mo  tau(  79) = (   0.0000222   0.5773400   0.2423964  )
        80           Mo  tau(  80) = (   0.1250047   0.5051836   0.7321380  )
        81           S   tau(  81) = (   0.0016251   0.5764170   0.6061946  )
        82           S   tau(  82) = (   0.1250047   0.5051815   0.3667777  )
        83           S   tau(  83) = (   0.1250048   0.5051819   0.1179962  )
        84           S   tau(  84) = (  -0.0077335   0.5818202   0.8557807  )
        85           Mo  tau(  85) = (  -0.1249984   0.7938567  -0.7272732  )
        86           Mo  tau(  86) = (   0.0000069   0.7216896  -0.2424039  )
        87           S   tau(  87) = (  -0.1249975   0.7938582  -0.3667782  )
        88           S   tau(  88) = (   0.0000016   0.7216877  -0.6030489  )
        89           S   tau(  89) = (   0.0000016   0.7216878  -0.8514963  )
        90           S   tau(  90) = (  -0.1249973   0.7938582  -0.1180279  )
        91           Mo  tau(  91) = (  -0.1249774   0.7938494   0.2424207  )
        92           Mo  tau(  92) = (  -0.0005116   0.7228241   0.7275438  )
        93           S   tau(  93) = (  -0.1249026   0.7937246   0.6020948  )
        94           S   tau(  94) = (   0.0000043   0.7216209   0.3668361  )
        95           S   tau(  95) = (   0.0000226   0.7216928   0.1180549  )
        96           S   tau(  96) = (  -0.1258721   0.7948451   0.8514341  )
        97           Mo  tau(  97) = (   0.5000010   0.1443372  -0.7272732  )
        98           Mo  tau(  98) = (   0.6250001   0.0721662  -0.2424040  )
        99           S   tau(  99) = (   0.5000017   0.1443386  -0.3667801  )
       100           S   tau( 100) = (   0.6250010   0.0721682  -0.6030489  )
       101           S   tau( 101) = (   0.6250010   0.0721683  -0.8514963  )
       102           S   tau( 102) = (   0.5000020   0.1443388  -0.1180261  )
       103           Mo  tau( 103) = (   0.5000075   0.1443411   0.2423793  )
       104           Mo  tau( 104) = (   0.6250042   0.0723339   0.7270464  )
       105           S   tau( 105) = (   0.5002366   0.1444733   0.6023595  )
       106           S   tau( 106) = (   0.6250029   0.0721787   0.3667562  )
       107           S   tau( 107) = (   0.6250040   0.0721260   0.1180315  )
       108           S   tau( 108) = (   0.4998752   0.1442648   0.8512770  )
       109           Mo  tau( 109) = (   0.3750012   0.3608437  -0.7272732  )
       110           Mo  tau( 110) = (   0.4999991   0.2886761  -0.2424038  )
       111           S   tau( 111) = (   0.3750012   0.3608452  -0.3667804  )
       112           S   tau( 112) = (   0.5000012   0.2886747  -0.6030489  )
       113           S   tau( 113) = (   0.5000012   0.2886748  -0.8514963  )
       114           S   tau( 114) = (   0.3750014   0.3608455  -0.1180261  )
       115           Mo  tau( 115) = (   0.3749795   0.3608597   0.2424601  )
       116           Mo  tau( 116) = (   0.5001461   0.2885951   0.7270464  )
       117           S   tau( 117) = (   0.3751205   0.3607791   0.6027254  )
       118           S   tau( 118) = (   0.5000105   0.2886721   0.3667569  )
       119           S   tau( 119) = (   0.4999655   0.2886989   0.1180297  )
       120           S   tau( 120) = (   0.3754765   0.3605739   0.8517402  )
       121           Mo  tau( 121) = (   0.2500014   0.5773502  -0.7272732  )
       122           Mo  tau( 122) = (   0.3749983   0.5051825  -0.2424043  )
       123           S   tau( 123) = (   0.2500017   0.5773519  -0.3667810  )
       124           S   tau( 124) = (   0.3750014   0.5051812  -0.6030489  )
       125           S   tau( 125) = (   0.3750014   0.5051813  -0.8514963  )
       126           S   tau( 126) = (   0.2500018   0.5773519  -0.1180256  )
       127           Mo  tau( 127) = (   0.2499863   0.5773402   0.2423965  )
       128           Mo  tau( 128) = (   0.3762454   0.5050642   0.7275433  )
       129           S   tau( 129) = (   0.2483844   0.5764169   0.6061944  )
       130           S   tau( 130) = (   0.3749442   0.5052158   0.3668400  )
       131           S   tau( 131) = (   0.3749972   0.5051650   0.1180510  )
       132           S   tau( 132) = (   0.2577438   0.5818204   0.8557797  )
       133           Mo  tau( 133) = (   0.1250016   0.7938567  -0.7272732  )
       134           Mo  tau( 134) = (   0.2499995   0.7216883  -0.2424036  )
       135           S   tau( 135) = (   0.1250024   0.7938578  -0.3667813  )
       136           S   tau( 136) = (   0.2500016   0.7216877  -0.6030489  )
       137           S   tau( 137) = (   0.2500016   0.7216878  -0.8514963  )
       138           S   tau( 138) = (   0.1250024   0.7938579  -0.1180253  )
       139           Mo  tau( 139) = (   0.1250047   0.7938294   0.2424606  )
       140           Mo  tau( 140) = (   0.2505220   0.7228241   0.7275433  )
       141           S   tau( 141) = (   0.1250053   0.7939926   0.6027252  )
       142           S   tau( 142) = (   0.2500048   0.7216200   0.3668387  )
       143           S   tau( 143) = (   0.2499864   0.7216915   0.1180524  )
       144           S   tau( 144) = (   0.1250054   0.7944033   0.8517402  )
       145           Mo  tau( 145) = (   0.7500010   0.1443372  -0.7272732  )
       146           Mo  tau( 146) = (   0.8750038   0.0721696  -0.2424038  )
       147           S   tau( 147) = (   0.7500016   0.1443382  -0.3667789  )
       148           S   tau( 148) = (   0.8750010   0.0721682  -0.6030489  )
       149           S   tau( 149) = (   0.8750010   0.0721683  -0.8514963  )
       150           S   tau( 150) = (   0.7500016   0.1443384  -0.1180279  )
       151           Mo  tau( 151) = (   0.7499986   0.1443409   0.2423802  )
       152           Mo  tau( 152) = (   0.8750804   0.0721266   0.7263988  )
       153           S   tau( 153) = (   0.7497713   0.1444738   0.6023592  )
       154           S   tau( 154) = (   0.8749758   0.0721848   0.3667595  )
       155           S   tau( 155) = (   0.8750127   0.0721632   0.1180342  )
       156           S   tau( 156) = (   0.7501331   0.1442647   0.8512770  )
       157           Mo  tau( 157) = (   0.6250012   0.3608437  -0.7272732  )
       158           Mo  tau( 158) = (   0.7500028   0.2886769  -0.2424041  )
       159           S   tau( 159) = (   0.6250015   0.3608451  -0.3667792  )
       160           S   tau( 160) = (   0.7500012   0.2886747  -0.6030489  )
       161           S   tau( 161) = (   0.7500012   0.2886748  -0.8514963  )
       162           S   tau( 162) = (   0.6250016   0.3608454  -0.1180280  )
       163           Mo  tau( 163) = (   0.6250032   0.3608391   0.2423797  )
       164           Mo  tau( 164) = (   0.7498627   0.2885951   0.7270467  )
       165           S   tau( 165) = (   0.6250046   0.3605769   0.6023590  )
       166           S   tau( 166) = (   0.7499943   0.2886711   0.3667569  )
       167           S   tau( 167) = (   0.7500399   0.2886970   0.1180318  )
       168           S   tau( 168) = (   0.6250043   0.3609947   0.8512770  )
       169           Mo  tau( 169) = (   0.5000014   0.5773502  -0.7272732  )
       170           Mo  tau( 170) = (   0.6250029   0.5051841  -0.2424047  )
       171           S   tau( 171) = (   0.5000014   0.5773518  -0.3667794  )
       172           S   tau( 172) = (   0.6250014   0.5051812  -0.6030489  )
       173           S   tau( 173) = (   0.6250014   0.5051813  -0.8514963  )
       174           S   tau( 174) = (   0.5000016   0.5773516  -0.1180277  )
       175           Mo  tau( 175) = (   0.4999855   0.5773383   0.2424207  )
       176           Mo  tau( 176) = (   0.6250049   0.5052713   0.7263986  )
       177           S   tau( 177) = (   0.4998428   0.5773389   0.6020941  )
       178           S   tau( 178) = (   0.6250030   0.5051500   0.3667588  )
       179           S   tau( 179) = (   0.6250025   0.5051935   0.1180351  )
       180           S   tau( 180) = (   0.5012979   0.5776190   0.8514332  )
       181           Mo  tau( 181) = (   0.3750016   0.7938567  -0.7272732  )
       182           Mo  tau( 182) = (   0.5000025   0.7216901  -0.2424039  )
       183           S   tau( 183) = (   0.3750019   0.7938578  -0.3667793  )
       184           S   tau( 184) = (   0.5000016   0.7216877  -0.6030489  )
       185           S   tau( 185) = (   0.5000016   0.7216878  -0.8514963  )
       186           S   tau( 186) = (   0.3750020   0.7938579  -0.1180272  )
       187           Mo  tau( 187) = (   0.3749848   0.7938487   0.2424206  )
       188           Mo  tau( 188) = (   0.5001249   0.7217591   0.7266160  )
       189           S   tau( 189) = (   0.3749125   0.7937251   0.6020942  )
       190           S   tau( 190) = (   0.5000021   0.7216868   0.3667472  )
       191           S   tau( 191) = (   0.4999874   0.7216780   0.1180346  )
       192           S   tau( 192) = (   0.3758826   0.7948451   0.8514332  )
       193           Pd  tau( 193) = (   0.1250063   0.5051842   0.9601361  )
       194           Pd  tau( 194) = (   0.2504570   0.1431183   1.0259454  )

     --------------------------------------------
     DFT-D3 Dispersion Correction (3-body terms):
     --------------------------------------------
       Reference C6 values for interpolation: 

         atom   Coordination number   C6
         S          0.000           268.01
         S          0.995           261.99
         S          1.990           251.62
         Mo         0.000          1691.79
         Mo         1.942          1004.01
         Mo        11.056           674.22
         Pd         0.000          1217.01
         Pd         1.863           573.90
         Pd         5.710           531.75

       Values used:

         atom   Coordination number  R0_AB[au]  C6      C8
         Mo        10.208            3.547    674.22  77634.20
         Mo        10.221            3.547    674.22  77634.20
         S          3.858            3.128    251.62  12327.25
         S          3.859            3.128    251.62  12327.25
         S          3.758            3.128    251.62  12327.25
         S          3.859            3.128    251.62  12327.25
         Mo        10.220            3.547    674.22  77634.20
         Mo        10.248            3.547    674.22  77634.20
         S          3.847            3.128    251.62  12327.25
         S          3.861            3.128    251.62  12327.25
         S          3.859            3.128    251.62  12327.25
         S          3.817            3.128    251.62  12327.25
         Mo        10.208            3.547    674.22  77634.20
         Mo        10.221            3.547    674.22  77634.20
         S          3.858            3.128    251.62  12327.25
         S          3.859            3.128    251.62  12327.25
         S          3.758            3.128    251.62  12327.25
         S          3.859            3.128    251.62  12327.25
         Mo        10.221            3.547    674.22  77634.20
         Mo        10.192            3.547    674.22  77634.20
         S          3.855            3.128    251.62  12327.25
         S          3.856            3.128    251.62  12327.25
         S          3.859            3.128    251.62  12327.25
         S          3.756            3.128    251.62  12327.25
         Mo        10.208            3.547    674.22  77634.20
         Mo        10.221            3.547    674.22  77634.20
         S          3.858            3.128    251.62  12327.25
         S          3.859            3.128    251.62  12327.25
         S          3.758            3.128    251.62  12327.25
         S          3.859            3.128    251.62  12327.25
         Mo        10.220            3.547    674.22  77634.20
         Mo        10.191            3.547    674.22  77634.20
         S          3.847            3.128    251.62  12327.25
         S          3.856            3.128    251.62  12327.25
         S          3.859            3.128    251.62  12327.25
         S          3.805            3.128    251.62  12327.25
         Mo        10.208            3.547    674.22  77634.20
         Mo        10.221            3.547    674.22  77634.20
         S          3.858            3.128    251.62  12327.25
         S          3.859            3.128    251.62  12327.25
         S          3.758            3.128    251.62  12327.25
         S          3.859            3.128    251.62  12327.25
         Mo        10.219            3.547    674.22  77634.20
         Mo        10.235            3.547    674.22  77634.20
         S          3.856            3.128    251.62  12327.25
         S          3.861            3.128    251.62  12327.25
         S          3.859            3.128    251.62  12327.25
         S          3.795            3.128    251.62  12327.25
         Mo        10.208            3.547    674.22  77634.20
         Mo        10.221            3.547    674.22  77634.20
         S          3.858            3.128    251.62  12327.25
         S          3.859            3.128    251.62  12327.25
         S          3.758            3.128    251.62  12327.25
         S          3.859            3.128    251.62  12327.25
         Mo        10.220            3.547    674.22  77634.20
         Mo        10.259            3.547    674.22  77634.20
         S          3.847            3.128    251.62  12327.25
         S          3.860            3.128    251.62  12327.25
         S          3.859            3.128    251.62  12327.25
         S          4.792            3.128    251.62  12327.25
         Mo        10.208            3.547    674.22  77634.20
         Mo        10.221            3.547    674.22  77634.20
         S          3.858            3.128    251.62  12327.25
         S          3.859            3.128    251.62  12327.25
         S          3.758            3.128    251.62  12327.25
         S          3.859            3.128    251.62  12327.25
         Mo        10.222            3.547    674.22  77634.20
         Mo        10.206            3.547    674.22  77634.20
         S          3.865            3.128    251.62  12327.25
         S          3.856            3.128    251.62  12327.25
         S          3.859            3.128    251.62  12327.25
         S          4.670            3.128    251.62  12327.25
         Mo        10.208            3.547    674.22  77634.20
         Mo        10.221            3.547    674.22  77634.20
         S          3.858            3.128    251.62  12327.25
         S          3.859            3.128    251.62  12327.25
         S          3.758            3.128    251.62  12327.25
         S          3.859            3.128    251.62  12327.25
         Mo        10.222            3.547    674.22  77634.20
         Mo        10.821            3.547    674.22  77634.20
         S          3.865            3.128    251.62  12327.25
         S          3.853            3.128    251.62  12327.25
         S          3.859            3.128    251.62  12327.25
         S          4.653            3.128    251.62  12327.25
         Mo        10.208            3.547    674.22  77634.20
         Mo        10.221            3.547    674.22  77634.20
         S          3.858            3.128    251.62  12327.25
         S          3.859            3.128    251.62  12327.25
         S          3.758            3.128    251.62  12327.25
         S          3.859            3.128    251.62  12327.25
         Mo        10.220            3.547    674.22  77634.20
         Mo        10.191            3.547    674.22  77634.20
         S          3.847            3.128    251.62  12327.25
         S          3.856            3.128    251.62  12327.25
         S          3.859            3.128    251.62  12327.25
         S          3.818            3.128    251.62  12327.25
         Mo        10.208            3.547    674.21  77634.20
         Mo        10.221            3.547    674.22  77634.20
         S          3.858            3.128    251.62  12327.25
         S          3.859            3.128    251.62  12327.25
         S          3.758            3.128    251.62  12327.25
         S          3.859            3.128    251.62  12327.25
         Mo        10.220            3.547    674.22  77634.20
         Mo        10.230            3.547    674.22  77634.20
         S          3.862            3.128    251.62  12327.25
         S          3.860            3.128    251.62  12327.25
         S          3.859            3.128    251.62  12327.25
         S          3.778            3.128    251.62  12327.25
         Mo        10.208            3.547    674.22  77634.20
         Mo        10.221            3.547    674.22  77634.20
         S          3.858            3.128    251.62  12327.25
         S          3.859            3.128    251.62  12327.25
         S          3.758            3.128    251.62  12327.25
         S          3.859            3.128    251.62  12327.25
         Mo        10.221            3.547    674.22  77634.20
         Mo        10.231            3.547    674.22  77634.20
         S          3.855            3.128    251.62  12327.25
         S          3.860            3.128    251.62  12327.25
         S          3.859            3.128    251.62  12327.25
         S          3.769            3.128    251.62  12327.25
         Mo        10.208            3.547    674.22  77634.20
         Mo        10.221            3.547    674.22  77634.20
         S          3.858            3.128    251.62  12327.25
         S          3.859            3.128    251.62  12327.25
         S          3.758            3.128    251.62  12327.25
         S          3.859            3.128    251.62  12327.25
         Mo        10.222            3.547    674.22  77634.20
         Mo        10.191            3.547    674.22  77634.20
         S          3.865            3.128    251.62  12327.25
         S          3.856            3.128    251.62  12327.25
         S          3.859            3.128    251.62  12327.25
         S          4.653            3.128    251.62  12327.25
         Mo        10.208            3.547    674.22  77634.20
         Mo        10.221            3.547    674.22  77634.20
         S          3.858            3.128    251.62  12327.25
         S          3.859            3.128    251.62  12327.25
         S          3.758            3.128    251.62  12327.25
         S          3.859            3.128    251.62  12327.25
         Mo        10.221            3.547    674.22  77634.20
         Mo        10.191            3.547    674.22  77634.20
         S          3.855            3.128    251.62  12327.25
         S          3.856            3.128    251.62  12327.25
         S          3.859            3.128    251.62  12327.25
         S          3.756            3.128    251.62  12327.25
         Mo        10.208            3.547    674.22  77634.20
         Mo        10.221            3.547    674.22  77634.20
         S          3.858            3.128    251.62  12327.25
         S          3.859            3.128    251.62  12327.25
         S          3.758            3.128    251.62  12327.25
         S          3.859            3.128    251.62  12327.25
         Mo        10.220            3.547    674.22  77634.20
         Mo        10.244            3.547    674.22  77634.20
         S          3.862            3.128    251.62  12327.25
         S          3.860            3.128    251.62  12327.25
         S          3.859            3.128    251.62  12327.25
         S          3.765            3.128    251.62  12327.25
         Mo        10.208            3.547    674.21  77634.20
         Mo        10.220            3.547    674.22  77634.20
         S          3.858            3.128    251.62  12327.25
         S          3.859            3.128    251.62  12327.25
         S          3.758            3.128    251.62  12327.25
         S          3.859            3.128    251.62  12327.25
         Mo        10.220            3.547    674.22  77634.20
         Mo        10.230            3.547    674.22  77634.20
         S          3.862            3.128    251.62  12327.25
         S          3.860            3.128    251.62  12327.25
         S          3.859            3.128    251.62  12327.25
         S          3.765            3.128    251.62  12327.25
         Mo        10.208            3.547    674.22  77634.20
         Mo        10.221            3.547    674.22  77634.20
         S          3.858            3.128    251.62  12327.25
         S          3.859            3.128    251.62  12327.25
         S          3.758            3.128    251.62  12327.25
         S          3.859            3.128    251.62  12327.25
         Mo        10.220            3.547    674.22  77634.20
         Mo        10.244            3.547    674.22  77634.20
         S          3.847            3.128    251.62  12327.25
         S          3.860            3.128    251.62  12327.25
         S          3.859            3.128    251.62  12327.25
         S          3.805            3.128    251.62  12327.25
         Mo        10.208            3.547    674.22  77634.20
         Mo        10.221            3.547    674.22  77634.20
         S          3.858            3.128    251.62  12327.25
         S          3.859            3.128    251.62  12327.25
         S          3.758            3.128    251.62  12327.25
         S          3.859            3.128    251.62  12327.25
         Mo        10.220            3.547    674.22  77634.20
         Mo        10.234            3.547    674.22  77634.20
         S          3.847            3.128    251.62  12327.25
         S          3.861            3.128    251.62  12327.25
         S          3.859            3.128    251.62  12327.25
         S          3.805            3.128    251.62  12327.25
         Pd         3.768            3.168    558.24  51147.93
         Pd         1.131            3.168    598.25  54813.51

         Molecular C6 ( Ry / a.u.^6 ) =  13969178.88


     number of k points=     4  Gaussian smearing, width (Ry)=  0.0100
                       cart. coord. in units 2pi/alat
        k(    1) = (   0.0000000   0.0000000   0.0000000), wk =   0.5000000
        k(    2) = (   0.0000000  -0.5773499   0.0000000), wk =   0.5000000
        k(    3) = (  -0.5000000  -0.2886744   0.0000000), wk =   0.5000000
        k(    4) = (  -0.5000000  -0.8660242   0.0000000), wk =   0.5000000

     Dense  grid:  7154885 G-vectors     FFT dimensions: ( 180, 180, 512)

     Smooth grid:  3090769 G-vectors     FFT dimensions: ( 135, 135, 400)

     Estimated max dynamical RAM per process >       3.19 GB

     Estimated total dynamical RAM >     114.77 GB

     Initial potential from superposition of free atoms

     starting charge    1699.9387, renormalised to    1700.0000

     negative rho (up, down):  9.928E-04 0.000E+00
     Starting wfcs are 1172 randomized atomic wfcs
     Checking if some PAW data can be deallocated... 

     total cpu time spent up to now is      196.9 secs

     Self-consistent Calculation

     iteration #  1     ecut=    77.00 Ry     beta= 0.20
     Davidson diagonalization with overlap
     ethr =  1.00E-02,  avg # of iterations =  2.0

     Threshold (ethr) on eigenvalues was too large:
     Diagonalizing with lowered threshold

     Davidson diagonalization with overlap
     ethr =  1.97E-04,  avg # of iterations = 15.8

     negative rho (up, down):  2.788E-04 0.000E+00

     total cpu time spent up to now is     2250.7 secs

     total energy              =  -32817.47751843 Ry
     estimated scf accuracy    <       6.47292862 Ry

     iteration #  2     ecut=    77.00 Ry     beta= 0.20
     Davidson diagonalization with overlap
     ethr =  3.81E-04,  avg # of iterations =  6.0

     negative rho (up, down):  3.644E-05 0.000E+00

     total cpu time spent up to now is     2711.0 secs

     total energy              =  -32816.34234940 Ry
     estimated scf accuracy    <       3.25552019 Ry

     iteration #  3     ecut=    77.00 Ry     beta= 0.20
     Davidson diagonalization with overlap
     ethr =  1.92E-04,  avg # of iterations = 12.0

     negative rho (up, down):  2.049E-05 0.000E+00

     total cpu time spent up to now is     3228.3 secs

     total energy              =  -32816.57079117 Ry
     estimated scf accuracy    <       1.07765782 Ry

     iteration #  4     ecut=    77.00 Ry     beta= 0.20
     Davidson diagonalization with overlap
     ethr =  6.34E-05,  avg # of iterations = 12.8

     negative rho (up, down):  1.902E-05 0.000E+00

     total cpu time spent up to now is     4240.3 secs

     total energy              =  -32817.27014022 Ry
     estimated scf accuracy    <       0.28665569 Ry

     iteration #  5     ecut=    77.00 Ry     beta= 0.20
     Davidson diagonalization with overlap
     c_bands:  1 eigenvalues not converged
     c_bands:  1 eigenvalues not converged
     c_bands:  1 eigenvalues not converged
     ethr =  1.69E-05,  avg # of iterations = 19.5

     negative rho (up, down):  3.908E-05 0.000E+00

     total cpu time spent up to now is     5342.7 secs

     total energy              =  -32817.51702837 Ry
     estimated scf accuracy    <       0.17748764 Ry

     iteration #  6     ecut=    77.00 Ry     beta= 0.20
     Davidson diagonalization with overlap
     c_bands:  5 eigenvalues not converged
     ethr =  1.04E-05,  avg # of iterations = 14.0

     negative rho (up, down):  3.879E-04 0.000E+00

     total cpu time spent up to now is     5862.4 secs

     total energy              =  -32817.49257608 Ry
     estimated scf accuracy    <       0.11926851 Ry

     iteration #  7     ecut=    77.00 Ry     beta= 0.20
     Davidson diagonalization with overlap
     c_bands:  1 eigenvalues not converged
     c_bands:  1 eigenvalues not converged
     ethr =  7.02E-06,  avg # of iterations = 19.2

     negative rho (up, down):  9.076E-04 0.000E+00

     total cpu time spent up to now is     6666.9 secs

     total energy              =  -32817.53543280 Ry
     estimated scf accuracy    <       0.06708588 Ry

     iteration #  8     ecut=    77.00 Ry     beta= 0.20
     Davidson diagonalization with overlap
     c_bands:  4 eigenvalues not converged
     c_bands:  5 eigenvalues not converged
     c_bands:  4 eigenvalues not converged
     ethr =  3.95E-06,  avg # of iterations = 44.8

     negative rho (up, down):  6.228E-04 0.000E+00

     total cpu time spent up to now is     8109.7 secs

     total energy              =  -32817.54461933 Ry
     estimated scf accuracy    <       0.07705273 Ry

     iteration #  9     ecut=    77.00 Ry     beta= 0.20
     Davidson diagonalization with overlap
     c_bands:  2 eigenvalues not converged
     c_bands:  5 eigenvalues not converged
     c_bands:  5 eigenvalues not converged
     ethr =  3.95E-06,  avg # of iterations = 37.2

     negative rho (up, down):  4.806E-04 0.000E+00

     total cpu time spent up to now is     9062.2 secs

     total energy              =  -32817.54249959 Ry
     estimated scf accuracy    <       0.01694224 Ry

     iteration # 10     ecut=    77.00 Ry     beta= 0.20
     Davidson diagonalization with overlap
     c_bands:  5 eigenvalues not converged
     c_bands:  4 eigenvalues not converged
     c_bands:  3 eigenvalues not converged
     ethr =  9.97E-07,  avg # of iterations = 44.0

     negative rho (up, down):  5.457E-04 0.000E+00

     total cpu time spent up to now is    10916.7 secs

     total energy              =  -32817.56582466 Ry
     estimated scf accuracy    <       0.01179754 Ry

     iteration # 11     ecut=    77.00 Ry     beta= 0.20
     Davidson diagonalization with overlap
     c_bands:  2 eigenvalues not converged
     c_bands:  3 eigenvalues not converged
     c_bands:  5 eigenvalues not converged
     ethr =  6.94E-07,  avg # of iterations = 15.2

     negative rho (up, down):  7.665E-04 0.000E+00

     total cpu time spent up to now is    11417.3 secs

     total energy              =  -32817.56189297 Ry
     estimated scf accuracy    <       0.00688742 Ry

     iteration # 12     ecut=    77.00 Ry     beta= 0.20
     Davidson diagonalization with overlap
     c_bands:  2 eigenvalues not converged
     c_bands:  5 eigenvalues not converged
     c_bands:  5 eigenvalues not converged
     ethr =  4.05E-07,  avg # of iterations = 17.5

     negative rho (up, down):  9.389E-04 0.000E+00

     total cpu time spent up to now is    12160.8 secs

     total energy              =  -32817.56463630 Ry
     estimated scf accuracy    <       0.00040064 Ry

     iteration # 13     ecut=    77.00 Ry     beta= 0.20
     Davidson diagonalization with overlap
     c_bands:  4 eigenvalues not converged
     c_bands:  5 eigenvalues not converged
     c_bands:  1 eigenvalues not converged
     ethr =  2.36E-08,  avg # of iterations = 58.5

     negative rho (up, down):  8.632E-04 0.000E+00

     total cpu time spent up to now is    16245.3 secs

     total energy              =  -32817.56590264 Ry
     estimated scf accuracy    <       0.00541943 Ry

     iteration # 14     ecut=    77.00 Ry     beta= 0.20
     Davidson diagonalization with overlap
     ethr =  2.36E-08,  avg # of iterations = 12.0

     negative rho (up, down):  8.813E-04 0.000E+00

     total cpu time spent up to now is    17151.1 secs

     total energy              =  -32817.56592957 Ry
     estimated scf accuracy    <       0.00095349 Ry

     iteration # 15     ecut=    77.00 Ry     beta= 0.20
     Davidson diagonalization with overlap
     ethr =  2.36E-08,  avg # of iterations =  9.5

     negative rho (up, down):  9.319E-04 0.000E+00

     total cpu time spent up to now is    18073.8 secs

     total energy              =  -32817.56628161 Ry
     estimated scf accuracy    <       0.00004894 Ry

     iteration # 16     ecut=    77.00 Ry     beta= 0.20
     Davidson diagonalization with overlap
     ethr =  2.88E-09,  avg # of iterations = 13.8

     negative rho (up, down):  9.525E-04 0.000E+00

     total cpu time spent up to now is    19334.0 secs

     total energy              =  -32817.56635152 Ry
     estimated scf accuracy    <       0.00002300 Ry

     iteration # 17     ecut=    77.00 Ry     beta= 0.20
     Davidson diagonalization with overlap
     ethr =  1.35E-09,  avg # of iterations = 12.2

     negative rho (up, down):  9.469E-04 0.000E+00

     total cpu time spent up to now is    20094.2 secs

     total energy              =  -32817.56636277 Ry
     estimated scf accuracy    <       0.00000845 Ry

     iteration # 18     ecut=    77.00 Ry     beta= 0.20
     Davidson diagonalization with overlap
     ethr =  4.97E-10,  avg # of iterations = 18.2

     negative rho (up, down):  9.538E-04 0.000E+00

     total cpu time spent up to now is    20952.2 secs

     total energy              =  -32817.56636280 Ry
     estimated scf accuracy    <       0.00000327 Ry

     iteration # 19     ecut=    77.00 Ry     beta= 0.20
     Davidson diagonalization with overlap
     ethr =  1.92E-10,  avg # of iterations = 13.8

     negative rho (up, down):  9.574E-04 0.000E+00

     total cpu time spent up to now is    21752.8 secs

     total energy              =  -32817.56636218 Ry
     estimated scf accuracy    <       0.00000163 Ry

     iteration # 20     ecut=    77.00 Ry     beta= 0.20
     Davidson diagonalization with overlap
     ethr =  9.59E-11,  avg # of iterations = 13.2

     negative rho (up, down):  9.547E-04 0.000E+00

     total cpu time spent up to now is    22353.2 secs

     End of self-consistent calculation

          k = 0.0000 0.0000 0.0000 (386245 PWs)   bands (ev):

   -88.5719 -87.2829 -66.4601 -66.4601 -66.4592 -66.4588 -66.4493 -66.4442
   -66.4403 -66.4390 -66.4389 -66.4389 -66.4388 -66.4388 -66.4388 -66.4388
   -66.4388 -66.4388 -66.4388 -66.4385 -66.4385 -66.4375 -66.4375 -66.4375
   -66.4375 -66.4375 -66.4375 -66.4360 -66.4341 -66.4269 -66.4235 -66.4177
   -66.4176 -66.4175 -66.4175 -66.4175 -66.4174 -66.4174 -66.4174 -66.4174
   -66.4174 -66.4174 -66.4174 -66.4174 -66.4173 -66.4173 -66.4172 -66.4172
   -66.4170 -66.4161 -66.4161 -66.4161 -66.4161 -66.4161 -66.4161 -66.4161
   -66.4161 -66.4161 -66.4123 -66.4118 -66.4090 -66.4045 -66.4014 -66.3948
   -66.3856 -66.3632 -54.3936 -54.3681 -54.3606 -53.4070 -52.9487 -52.9440
   -40.7876 -40.7875 -40.7875 -40.7875 -40.7875 -40.7874 -40.7869 -40.7869
   -40.7869 -40.7797 -40.7779 -40.7767 -40.7123 -40.7123 -40.7122 -40.7122
   -40.7122 -40.7122 -40.7122 -40.7122 -40.7122 -40.7121 -40.7120 -40.7120
   -40.7115 -40.7115 -40.7115 -40.7115 -40.7115 -40.7115 -40.7079 -40.7056
   -40.7013 -40.6980 -40.6950 -40.6925 -40.6376 -40.6197 -40.6197 -40.6191
   -40.6124 -40.5862 -40.5860 -40.5859 -40.5859 -40.5859 -40.5859 -40.5859
   -40.5859 -40.5858 -40.5858 -40.5858 -40.5857 -40.5856 -40.5850 -40.5850
   -40.5850 -40.5850 -40.5850 -40.5850 -40.5845 -40.5821 -40.5804 -40.5782
   -40.5782 -40.5782 -40.5781 -40.5780 -40.5780 -40.5780 -40.5780 -40.5780
   -40.5780 -40.5779 -40.5779 -40.5777 -40.5774 -40.5773 -40.5773 -40.5773
   -40.5773 -40.5773 -40.5766 -40.5758 -40.5729 -40.5705 -40.5609 -40.5598
   -40.5510 -40.5509 -40.5509 -40.5508 -40.5508 -40.5508 -40.5508 -40.5508
   -40.5508 -40.5508 -40.5507 -40.5506 -40.5506 -40.5499 -40.5499 -40.5499
   -40.5499 -40.5499 -40.5499 -40.5487 -40.5457 -40.5436 -40.5421 -40.5391
   -40.5383 -40.5363 -40.5362 -40.5362 -40.5361 -40.5361 -40.5361 -40.5361
   -40.5361 -40.5361 -40.5361 -40.5360 -40.5360 -40.5360 -40.5360 -40.5360
   -40.5359 -40.5358 -40.5356 -40.5354 -40.5353 -40.5353 -40.5353 -40.5353
   -40.5353 -40.5353 -40.5353 -40.5353 -40.5353 -40.5345 -40.5308 -40.5306
   -40.5253 -40.5234 -40.5090 -40.4960 -40.4725 -40.4725 -40.4725 -40.4725
   -40.4725 -40.4723 -40.4715 -40.4715 -40.4715 -40.4653 -40.4614 -40.4575
   -40.4255 -40.4255 -40.4254 -40.4254 -40.4254 -40.4254 -40.4254 -40.4254
   -40.4254 -40.4253 -40.4251 -40.4251 -40.4244 -40.4244 -40.4244 -40.4244
   -40.4244 -40.4244 -40.4195 -40.4151 -40.4126 -40.4099 -40.4065 -40.4046
   -40.3778 -40.3778 -40.3777 -40.3777 -40.3767 -40.3767 -40.3630 -40.3589
   -19.9632 -19.9036 -19.8101 -19.7172 -19.1604 -19.1041 -19.0961 -19.0865
   -19.0841 -19.0837 -19.0671 -19.0537 -19.0480 -19.0304 -19.0219 -19.0210
   -18.9765 -18.9657 -18.9629 -18.9485 -18.9367 -18.9357 -18.8761 -18.8720
   -18.8712 -18.8662 -18.8606 -18.8601 -18.7354 -18.6143 -18.4608 -18.3922
   -18.3532 -18.3482 -18.3332 -18.3138 -18.3059 -18.3055 -18.2552 -18.2472
   -18.2447 -18.2296 -18.1995 -18.1984 -18.1437 -18.1248 -18.1209 -18.1126
   -18.0885 -18.0873 -18.0674 -18.0349 -18.0223 -18.0185 -18.0107 -18.0102
   -18.0073 -17.9969 -17.9646 -17.9587 -17.9578 -17.9577 -17.9557 -17.9541
   -17.9460 -17.9296 -17.9257 -17.9252 -17.9218 -17.9173 -17.9140 -17.9124
   -17.9113 -17.9068 -17.8894 -17.8876 -17.8863 -17.8834 -17.8800 -17.8793
   -17.8697 -17.8627 -17.8554 -17.8508 -17.8451 -17.8413 -17.8349 -17.8332
   -17.8331 -17.8238 -17.8192 -17.8172 -17.7858 -17.7843 -17.7720 -17.7601
   -17.7560 -17.7539 -17.7510 -17.7501 -17.7496 -17.7312 -17.7289 -17.7206
   -17.7147 -17.7105 -17.7061 -17.7011 -17.6987 -17.6978 -17.6945 -17.6933
   -17.6904 -17.6770 -17.6767 -17.6750 -17.6650 -17.6636 -17.6605 -17.6576
   -17.6556 -17.6547 -17.6329 -17.6327 -17.6316 -17.6306 -17.6298 -17.6294
   -11.8238 -11.7014 -11.6625 -11.6618 -11.6198 -11.5997 -11.5902 -11.5807
   -11.4994 -11.4817 -11.4784 -11.3888 -11.3832 -11.3821 -11.2757 -11.1325
   -11.0894 -11.0779 -11.0769 -11.0740 -11.0736 -11.0320 -11.0110 -10.9966
   -10.9847 -10.9729 -10.9700 -10.9669 -10.9580 -10.9558 -10.9449 -10.9220
   -10.9119 -10.9053 -10.9012 -10.8995 -10.8978 -10.8955 -10.8924 -10.8917
   -10.8676 -10.8594 -10.8559 -10.8292 -10.8208 -10.8130 -10.7879 -10.7862
   -10.7724 -10.7575 -10.7537 -10.7489 -10.7339 -10.7255 -10.7215 -10.7164
   -10.6964 -10.6929 -10.6889 -10.6862 -10.6844 -10.6829 -10.6746 -10.6688
   -10.6644 -10.6639 -10.6610 -10.6545 -10.6484 -10.6469 -10.6424 -10.6406
   -10.6393 -10.6389 -10.6373 -10.6357 -10.6127 -10.6122 -10.6053 -10.6052
   -10.6039 -10.6003 -10.5861 -10.5830 -10.5819 -10.5731 -10.5730 -10.5702
   -10.5693 -10.5678 -10.5675 -10.4933 -10.4882 -10.4877 -10.4470 -10.4309
   -10.4197 -10.4172 -10.4125 -10.4117 -10.1656 -10.1219 -10.0448  -9.9901
    -9.9601  -9.9475  -9.8236  -9.7713  -9.7363  -9.6585  -9.6498  -9.6440
    -9.6398  -9.6345  -9.6325  -9.6211  -9.6120  -9.6056  -9.6053  -9.6037
    -9.6029  -9.6014  -9.5917  -9.5910  -9.5850  -9.5835  -9.5808  -9.5768
    -9.5594  -9.5512  -9.5434  -9.4883  -9.4701  -9.4664  -9.4649  -9.4624
    -9.4616  -9.4585  -9.4546  -9.4541  -9.4526  -9.4525  -9.4519  -9.4501
    -9.4413  -9.4327  -9.4185  -9.4094  -9.3950  -9.3778  -9.3773  -9.3772
    -9.3767  -9.3767  -9.3761  -9.3605  -9.3573  -9.3555  -9.3526  -9.3508
    -9.3381  -9.3301  -9.3059  -9.2895  -9.2826  -9.2824  -9.2059  -9.1906
    -9.1850  -9.1791  -9.1685  -9.1669  -9.1645  -9.1620  -9.1568  -9.1485
    -9.1419  -9.1410  -9.0764  -9.0722  -9.0689  -9.0610  -9.0566  -9.0489
    -9.0192  -9.0187  -9.0168  -9.0145  -9.0132  -9.0109  -8.9889  -8.9725
    -8.9615  -8.9547  -8.9488  -8.9405  -8.8952  -8.8835  -8.8415  -8.8215
    -8.8175  -8.8162  -8.8133  -8.8053  -8.7915  -8.7898  -8.7817  -8.7748
    -8.7737  -8.7636  -8.7613  -8.7525  -8.7521  -8.7488  -8.7309  -8.7252
    -8.7212  -8.7083  -8.6950  -8.6810  -8.6568  -8.6566  -8.6566  -8.6565
    -8.6562  -8.6558  -8.5816  -8.5760  -8.5759  -8.5755  -8.5701  -8.5596
    -8.4995  -8.4974  -8.4925  -8.4906  -8.4886  -8.4743  -8.4282  -8.4278
    -8.4254  -8.4249  -8.4243  -8.4194  -8.3889  -8.2778  -8.2572  -8.2023
    -8.2022  -8.1975  -8.1973  -8.1911  -8.1908  -8.1838  -8.1704  -8.1297
    -8.1219  -8.1174  -8.1164  -8.1116  -8.1113  -8.1083  -8.1060  -8.1013
    -8.0990  -8.0917  -8.0845  -8.0841  -8.0803  -8.0784  -8.0765  -8.0745
    -8.0566  -8.0565  -8.0550  -8.0547  -8.0540  -8.0532  -8.0159  -7.8842
    -7.8463  -7.7861  -7.6979  -7.6945  -7.6908  -7.6277  -7.6150  -7.5973
    -7.5489  -7.5387  -7.5058  -7.4800  -7.4785  -7.4743  -7.4683  -7.4655
    -7.4504  -7.4452  -7.4425  -7.4242  -7.4171  -7.4040  -7.3906  -7.3866
    -7.3807  -7.3773  -7.3749  -7.3729  -7.3692  -7.3670  -7.3656  -7.3639
    -7.3623  -7.3578  -7.3511  -7.3428  -7.3415  -7.3398  -7.3395  -7.3388
    -7.3277  -7.3194  -7.3181  -7.3173  -7.3170  -7.3168  -7.3128  -7.3088
    -7.2896  -7.2850  -7.2600  -7.2548  -7.2508  -7.2473  -7.2468  -7.2446
    -7.2412  -7.2377  -7.2356  -7.1872  -7.1731  -7.1657  -7.1547  -7.1375
    -7.1327  -7.1309  -7.1277  -7.1255  -7.1241  -7.1213  -7.1145  -7.0974
    -7.0955  -7.0843  -7.0838  -7.0661  -7.0659  -7.0489  -7.0489  -7.0309
    -6.9702  -6.9436  -6.9401  -6.9349  -6.9098  -6.8392  -6.8216  -6.8139
    -6.7238  -6.7122  -6.7028  -6.6858  -6.6808  -6.6470  -6.6265  -6.6184
    -6.6173  -6.5970  -6.5789  -6.5569  -6.5484  -6.5289  -6.5193  -6.5177
    -6.4847  -6.4685  -6.4622  -6.4546  -6.4539  -6.4466  -6.4410  -6.4390
    -6.4156  -6.3997  -6.3938  -6.3855  -6.3770  -6.3746  -6.3610  -6.3506
    -6.3478  -6.3474  -6.3451  -6.3433  -6.3426  -6.3422  -6.3418  -6.3333
    -6.3330  -6.3329  -6.3327  -6.3326  -6.3326  -6.3226  -6.3004  -6.2939
    -6.2784  -6.2654  -6.2548  -6.2452  -6.2438  -6.2392  -6.2217  -6.1968
    -6.1765  -6.1739  -6.1684  -6.1683  -6.1648  -6.1619  -6.1527  -6.1464
    -6.1311  -6.1299  -6.1237  -6.1218  -6.1182  -6.1126  -6.0933  -6.0914
    -6.0879  -6.0873  -6.0867  -6.0849  -6.0652  -6.0563  -6.0391  -5.7743
    -5.7363  -5.6946  -5.5672  -5.5550  -5.4742  -5.3959  -5.3824  -5.1706
    -5.1402  -4.9913  -3.8152  -3.7600  -3.6879  -3.6867  -3.6842  -3.6818
    -3.6624  -3.6613  -3.6594  -3.6586  -3.6574  -3.6563  -3.6149  -3.6068
    -3.5325  -3.5313  -3.5250  -3.5192  -3.5142  -3.5122  -3.5106  -3.5106
    -3.5099  -3.5056  -3.3868  -3.3807  -3.3406  -3.3403  -3.3324  -3.3294
    -3.3261  -3.3194  -3.3138  -3.3086  -3.3081  -3.3076  -3.3049  -3.3038
    -3.2919  -3.2900  -3.2885  -3.2839  -3.2782  -3.2779  -3.2778  -3.2697
    -3.2636  -3.2632  -3.2625  -3.2497  -3.2490  -3.2487  -3.2470  -3.2460
    -3.2453  -3.2370  -3.2362  -3.2361  -3.2312  -3.2308  -3.1915  -3.1825
    -3.1799  -3.1795  -3.1790  -3.1758  -3.1740  -3.1734  -3.1725  -3.1700
    -3.1537  -3.1535  -3.1222  -3.1181  -3.1177  -3.1174  -3.1088  -3.1045
    -3.1033  -3.0951  -3.0528  -3.0460  -3.0437  -3.0357  -2.9035  -2.9020
    -2.8999  -2.8962  -2.8947  -2.8940  -2.8825  -2.8785  -2.8767  -2.8720
    -2.8488  -2.8227  -2.8214  -2.8108  -2.8079  -2.8070  -2.8066  -2.8061
    -2.7995  -2.7985  -2.7981  -2.7980  -2.7951  -2.7913  -2.7894  -2.7885
    -2.7815  -2.7785  -2.7731  -2.7710  -2.7669  -2.7666  -2.7647  -2.7641
    -2.7633  -2.7627  -2.7591  -2.7587  -2.7232  -2.7147  -2.7106  -2.7060
    -2.6901  -2.6862  -2.6843  -2.6823  -2.6785  -2.6399  -2.6394  -2.6391
    -2.6390  -2.6386  -2.6380  -2.6376  -2.6373  -2.6370  -2.6255  -2.6236
    -2.6179  -2.5927  -2.5845  -2.5796  -2.5700  -2.5676  -2.5635  -2.5625
    -2.5100  -2.5090  -2.4762  -2.4735  -2.4687  -2.4613  -2.4609  -2.4584
    -2.4524  -2.4508  -2.4460  -2.4107  -2.3898  -2.3873  -2.3775  -2.3757
    -2.2961  -2.2545  -2.2458  -2.2445

          k = 0.0000-0.5773 0.0000 (386352 PWs)   bands (ev):

   -88.5719 -87.2829 -66.4554 -66.4539 -66.4539 -66.4539 -66.4538 -66.4532
   -66.4526 -66.4526 -66.4483 -66.4432 -66.4432 -66.4432 -66.4431 -66.4419
   -66.4419 -66.4387 -66.4341 -66.4308 -66.4283 -66.4282 -66.4281 -66.4281
   -66.4281 -66.4281 -66.4280 -66.4279 -66.4276 -66.4268 -66.4268 -66.4268
   -66.4268 -66.4252 -66.4237 -66.4237 -66.4237 -66.4236 -66.4224 -66.4224
   -66.4176 -66.4174 -66.4174 -66.4174 -66.4174 -66.4174 -66.4173 -66.4171
   -66.4161 -66.4161 -66.4161 -66.4161 -66.4130 -66.4130 -66.4130 -66.4129
   -66.4126 -66.4116 -66.4116 -66.4113 -66.4094 -66.4043 -66.4010 -66.3954
   -66.3854 -66.3632 -54.3936 -54.3681 -54.3606 -53.4070 -52.9487 -52.9440
   -40.7560 -40.7559 -40.7559 -40.7559 -40.7559 -40.7559 -40.7559 -40.7557
   -40.7552 -40.7552 -40.7552 -40.7552 -40.7500 -40.7478 -40.7462 -40.7413
   -40.7291 -40.7291 -40.7291 -40.7290 -40.7284 -40.7284 -40.7276 -40.7226
   -40.7170 -40.7170 -40.7170 -40.7170 -40.7163 -40.7163 -40.7050 -40.6908
   -40.6663 -40.6663 -40.6663 -40.6663 -40.6663 -40.6663 -40.6663 -40.6662
   -40.6656 -40.6656 -40.6656 -40.6656 -40.6565 -40.6554 -40.6496 -40.6484
   -40.6354 -40.6084 -40.6076 -40.6075 -40.6075 -40.6074 -40.6069 -40.6069
   -40.6028 -40.5981 -40.5981 -40.5981 -40.5980 -40.5972 -40.5972 -40.5897
   -40.5867 -40.5867 -40.5867 -40.5866 -40.5860 -40.5860 -40.5840 -40.5814
   -40.5692 -40.5607 -40.5588 -40.5572 -40.5572 -40.5571 -40.5571 -40.5571
   -40.5571 -40.5569 -40.5568 -40.5564 -40.5564 -40.5564 -40.5564 -40.5549
   -40.5495 -40.5484 -40.5484 -40.5483 -40.5482 -40.5476 -40.5476 -40.5434
   -40.5384 -40.5366 -40.5366 -40.5366 -40.5365 -40.5362 -40.5361 -40.5360
   -40.5360 -40.5360 -40.5360 -40.5360 -40.5357 -40.5357 -40.5356 -40.5353
   -40.5353 -40.5353 -40.5353 -40.5344 -40.5307 -40.5297 -40.5274 -40.5274
   -40.5273 -40.5273 -40.5266 -40.5266 -40.5251 -40.5216 -40.5088 -40.5058
   -40.5056 -40.5056 -40.5056 -40.5056 -40.5055 -40.5055 -40.5054 -40.5047
   -40.5047 -40.5047 -40.5047 -40.4996 -40.4980 -40.4973 -40.4940 -40.4903
   -40.4709 -40.4709 -40.4709 -40.4709 -40.4709 -40.4709 -40.4708 -40.4708
   -40.4699 -40.4699 -40.4699 -40.4699 -40.4628 -40.4623 -40.4588 -40.4587
   -40.4587 -40.4586 -40.4578 -40.4578 -40.4568 -40.4536 -40.4445 -40.4395
   -40.4394 -40.4394 -40.4392 -40.4385 -40.4384 -40.4384 -40.4327 -40.4245
   -40.4224 -40.4224 -40.4224 -40.4223 -40.4214 -40.4214 -40.4086 -40.3946
   -40.3918 -40.3918 -40.3918 -40.3917 -40.3907 -40.3907 -40.3788 -40.3752
   -19.7281 -19.7248 -19.6722 -19.6661 -19.5796 -19.5744 -19.4848 -19.4828
   -19.2928 -19.2846 -19.2416 -19.2277 -19.1531 -19.1422 -19.0596 -19.0559
   -18.7004 -18.6367 -18.6096 -18.5832 -18.5714 -18.5640 -18.5548 -18.5479
   -18.5355 -18.5168 -18.5104 -18.4967 -18.4768 -18.4669 -18.4578 -18.4380
   -18.4257 -18.4090 -18.3907 -18.3897 -18.3796 -18.3716 -18.3633 -18.3477
   -18.3342 -18.3154 -18.3095 -18.2990 -18.2931 -18.2733 -18.2431 -18.2393
   -18.2371 -18.2166 -18.1858 -18.1777 -18.1632 -18.1557 -18.1179 -18.0900
   -18.0853 -18.0783 -18.0653 -18.0557 -18.0194 -18.0123 -18.0056 -17.9715
   -17.9686 -17.9531 -17.9454 -17.9378 -17.9372 -17.9366 -17.9311 -17.9233
   -17.9195 -17.9077 -17.9033 -17.9027 -17.9004 -17.8924 -17.8864 -17.8819
   -17.8782 -17.8738 -17.8705 -17.8659 -17.8429 -17.8399 -17.8383 -17.8347
   -17.8313 -17.8297 -17.8286 -17.8241 -17.8184 -17.8116 -17.7805 -17.7731
   -17.7697 -17.7638 -17.7612 -17.7551 -17.7265 -17.7196 -17.7156 -17.7099
   -17.6838 -17.6814 -17.6772 -17.6738 -17.6619 -17.6551 -17.6544 -17.6537
   -17.6531 -17.6521 -17.6495 -17.6437 -17.6383 -17.6324 -17.6191 -17.6149
   -17.5955 -17.5931 -17.5767 -17.5733 -17.5621 -17.5599 -17.5544 -17.5541
   -11.5687 -11.5595 -11.4502 -11.3825 -11.3674 -11.3598 -11.3487 -11.3468
   -11.3307 -11.3196 -11.3142 -11.2986 -11.2941 -11.2788 -11.2706 -11.2337
   -11.2112 -11.2032 -11.1922 -11.1837 -11.1632 -11.1577 -11.1522 -11.1273
   -11.1200 -11.1061 -11.1035 -11.0963 -11.0949 -11.0940 -11.0813 -11.0773
   -11.0565 -11.0398 -11.0339 -11.0276 -11.0200 -11.0146 -11.0037 -11.0027
   -11.0008 -10.9945 -10.9792 -10.9777 -10.9517 -10.9444 -10.9117 -10.8987
   -10.8938 -10.8878 -10.8148 -10.7882 -10.7763 -10.7656 -10.7601 -10.7462
   -10.7392 -10.7294 -10.7240 -10.7075 -10.6851 -10.6793 -10.6667 -10.6643
   -10.6604 -10.6551 -10.6485 -10.6467 -10.6452 -10.6449 -10.6433 -10.6350
   -10.6300 -10.6287 -10.6276 -10.6262 -10.6254 -10.6243 -10.6168 -10.6140
   -10.6137 -10.6018 -10.5778 -10.5775 -10.5773 -10.5761 -10.3881 -10.3807
   -10.3711 -10.3614 -10.3343 -10.3191 -10.2556 -10.2512 -10.2150 -10.1619
   -10.1303 -10.0694 -10.0390  -9.9847  -9.9776  -9.9707  -9.9646  -9.9359
    -9.9335  -9.9201  -9.9155  -9.8899  -9.8844  -9.8758  -9.8635  -9.8588
    -9.8562  -9.8493  -9.8352  -9.8179  -9.8116  -9.7674  -9.7607  -9.7546
    -9.7480  -9.7420  -9.7360  -9.7320  -9.7194  -9.7040  -9.6912  -9.6751
    -9.6655  -9.6287  -9.6261  -9.6155  -9.6054  -9.5987  -9.5949  -9.5773
    -9.5684  -9.5524  -9.5241  -9.5161  -9.5101  -9.4948  -9.4800  -9.4781
    -9.4483  -9.4480  -9.4412  -9.4082  -9.3985  -9.3878  -9.3757  -9.3745
    -9.3697  -9.3683  -9.3518  -9.3466  -9.3242  -9.3205  -9.3125  -9.3039
    -9.2990  -9.2983  -9.2923  -9.2878  -9.2742  -9.2630  -9.2590  -9.2523
    -9.2138  -9.1869  -9.1253  -9.1078  -9.0862  -9.0751  -9.0659  -9.0535
    -9.0360  -9.0231  -9.0203  -9.0091  -9.0024  -8.9991  -8.9844  -8.9630
    -8.9450  -8.9223  -8.9200  -8.9122  -8.9020  -8.8866  -8.8754  -8.8714
    -8.8693  -8.8616  -8.8531  -8.8526  -8.8165  -8.8028  -8.8000  -8.7888
    -8.7753  -8.7722  -8.7699  -8.7644  -8.7439  -8.7239  -8.7215  -8.7212
    -8.7207  -8.7108  -8.7076  -8.7066  -8.7046  -8.7026  -8.7009  -8.6955
    -8.6906  -8.6856  -8.6791  -8.6749  -8.6742  -8.6694  -8.6647  -8.6579
    -8.6446  -8.6361  -8.6257  -8.6224  -8.6204  -8.6183  -8.6159  -8.6143
    -8.5964  -8.5915  -8.5681  -8.5657  -8.5588  -8.5565  -8.5459  -8.5282
    -8.4906  -8.4806  -8.4653  -8.4415  -8.4168  -8.3660  -8.3375  -8.3304
    -8.2768  -8.2648  -8.1985  -8.1875  -8.1800  -8.1502  -8.1201  -8.0736
    -7.9961  -7.9774  -7.9639  -7.9623  -7.9595  -7.9532  -7.9508  -7.9420
    -7.9411  -7.8995  -7.8905  -7.8724  -7.8148  -7.8048  -7.7962  -7.7683
    -7.7263  -7.6865  -7.6833  -7.6776  -7.6692  -7.6618  -7.6545  -7.6534
    -7.6434  -7.6398  -7.6372  -7.6340  -7.6309  -7.6284  -7.6280  -7.6238
    -7.6226  -7.6182  -7.6174  -7.6145  -7.6098  -7.6060  -7.6052  -7.6034
    -7.5989  -7.5987  -7.5966  -7.5928  -7.5923  -7.5900  -7.5855  -7.5713
    -7.5640  -7.5610  -7.5598  -7.5560  -7.5507  -7.5429  -7.5306  -7.5301
    -7.5290  -7.5287  -7.5015  -7.5006  -7.5005  -7.4989  -7.4855  -7.4815
    -7.4673  -7.4571  -7.4478  -7.4424  -7.4406  -7.4338  -7.4337  -7.4308
    -7.4300  -7.4191  -7.4165  -7.4155  -7.3984  -7.3981  -7.3929  -7.3851
    -7.3818  -7.3783  -7.3184  -7.2993  -7.2917  -7.2903  -7.2871  -7.2604
    -7.2270  -7.1962  -7.1087  -7.0438  -7.0075  -7.0056  -7.0031  -6.9989
    -6.9744  -6.9617  -6.9591  -6.9449  -6.9392  -6.9345  -6.9233  -6.9059
    -6.8779  -6.8663  -6.8625  -6.8555  -6.8534  -6.8367  -6.8231  -6.8102
    -6.7963  -6.7822  -6.7481  -6.7437  -6.7370  -6.7279  -6.7165  -6.7062
    -6.7007  -6.6938  -6.6898  -6.6737  -6.6472  -6.6177  -6.5910  -6.5851
    -6.5828  -6.5351  -6.5191  -6.5140  -6.4951  -6.4797  -6.4600  -6.4542
    -6.4429  -6.4419  -6.4394  -6.4389  -6.4381  -6.4255  -6.4227  -6.4215
    -6.4213  -6.4148  -6.4137  -6.4134  -6.4134  -6.4108  -6.3636  -6.3575
    -6.3306  -6.3104  -6.2547  -6.2444  -6.2149  -6.1728  -6.1705  -6.1612
    -6.1551  -6.1388  -6.1343  -6.1317  -6.1247  -6.1172  -6.1117  -6.1112
    -6.1072  -6.1065  -6.0854  -6.0824  -6.0791  -6.0718  -6.0690  -6.0465
    -6.0373  -6.0363  -6.0354  -6.0328  -5.8666  -5.8594  -5.8183  -5.8158
    -5.7912  -5.7560  -5.7538  -5.7189  -5.6944  -5.6892  -5.6801  -5.6554
    -5.5888  -5.5479  -5.5249  -5.4885  -5.4542  -5.4217  -5.4046  -5.3845
    -5.3708  -5.1484  -3.9408  -3.9269  -3.9230  -3.9190  -3.8137  -3.7923
    -3.7654  -3.7520  -3.7473  -3.7380  -3.6818  -3.6751  -3.6721  -3.6602
    -3.6560  -3.6447  -3.6404  -3.6341  -3.6319  -3.6276  -3.5589  -3.5386
    -3.5153  -3.5086  -3.4863  -3.4498  -3.4380  -3.4334  -3.4325  -3.4315
    -3.3879  -3.3851  -3.3802  -3.3742  -3.3580  -3.3535  -3.3492  -3.3473
    -3.3346  -3.3287  -3.3155  -3.3133  -3.3073  -3.3064  -3.3045  -3.3036
    -3.2964  -3.2811  -3.2796  -3.2722  -3.2590  -3.2529  -3.2492  -3.2445
    -3.2200  -3.2050  -3.1869  -3.1811  -3.1802  -3.1773  -3.1761  -3.1739
    -3.1688  -3.1570  -3.1373  -3.1367  -3.1223  -3.1187  -3.1154  -3.1145
    -3.1108  -3.1089  -3.1059  -3.1028  -3.0773  -3.0760  -3.0704  -3.0667
    -3.0607  -3.0571  -3.0515  -3.0447  -3.0421  -3.0353  -3.0232  -3.0179
    -3.0077  -3.0068  -3.0048  -3.0003  -2.9983  -2.9946  -2.9945  -2.9833
    -2.9404  -2.9340  -2.9202  -2.9045  -2.9008  -2.8990  -2.8971  -2.8912
    -2.8583  -2.8569  -2.8553  -2.8548  -2.8545  -2.8534  -2.8459  -2.8444
    -2.8417  -2.8389  -2.8361  -2.8336  -2.8245  -2.8220  -2.8159  -2.8100
    -2.8056  -2.8049  -2.8011  -2.7994  -2.7948  -2.7906  -2.7835  -2.7795
    -2.7779  -2.7736  -2.7694  -2.7636  -2.7604  -2.7497  -2.7285  -2.7239
    -2.7201  -2.7157  -2.7098  -2.7079  -2.6953  -2.6933  -2.6384  -2.6250
    -2.6243  -2.6205  -2.5902  -2.5649  -2.5504  -2.5429  -2.5220  -2.4496
    -2.4433  -2.4226  -2.4085  -2.4063  -2.3961  -2.3762  -2.3719  -2.3711
    -2.3591  -2.3587  -2.3561  -2.3532  -2.3470  -2.2336  -2.2312  -2.2271
    -2.2231  -2.2147  -2.2012  -2.1894

          k =-0.5000-0.2887 0.0000 (386352 PWs)   bands (ev):

   -88.5719 -87.2829 -66.4566 -66.4539 -66.4539 -66.4539 -66.4538 -66.4526
   -66.4526 -66.4523 -66.4463 -66.4432 -66.4432 -66.4432 -66.4431 -66.4419
   -66.4419 -66.4407 -66.4350 -66.4315 -66.4283 -66.4282 -66.4281 -66.4281
   -66.4281 -66.4281 -66.4280 -66.4279 -66.4272 -66.4268 -66.4268 -66.4268
   -66.4268 -66.4237 -66.4237 -66.4237 -66.4236 -66.4235 -66.4224 -66.4224
   -66.4176 -66.4174 -66.4174 -66.4174 -66.4174 -66.4174 -66.4173 -66.4171
   -66.4161 -66.4161 -66.4161 -66.4161 -66.4130 -66.4130 -66.4130 -66.4129
   -66.4121 -66.4116 -66.4116 -66.4108 -66.4098 -66.4057 -66.4009 -66.3951
   -66.3854 -66.3632 -54.3936 -54.3681 -54.3606 -53.4070 -52.9487 -52.9440
   -40.7618 -40.7559 -40.7559 -40.7559 -40.7559 -40.7559 -40.7559 -40.7559
   -40.7557 -40.7552 -40.7552 -40.7552 -40.7552 -40.7514 -40.7399 -40.7295
   -40.7291 -40.7291 -40.7291 -40.7290 -40.7284 -40.7284 -40.7251 -40.7170
   -40.7170 -40.7170 -40.7170 -40.7166 -40.7163 -40.7163 -40.7047 -40.6987
   -40.6664 -40.6663 -40.6663 -40.6663 -40.6663 -40.6663 -40.6663 -40.6662
   -40.6656 -40.6656 -40.6656 -40.6656 -40.6585 -40.6556 -40.6531 -40.6498
   -40.6353 -40.6130 -40.6076 -40.6075 -40.6075 -40.6075 -40.6069 -40.6069
   -40.5981 -40.5981 -40.5981 -40.5980 -40.5972 -40.5972 -40.5948 -40.5888
   -40.5867 -40.5867 -40.5867 -40.5866 -40.5860 -40.5860 -40.5846 -40.5807
   -40.5768 -40.5618 -40.5572 -40.5572 -40.5571 -40.5571 -40.5571 -40.5571
   -40.5569 -40.5568 -40.5565 -40.5564 -40.5564 -40.5564 -40.5564 -40.5484
   -40.5484 -40.5484 -40.5483 -40.5482 -40.5476 -40.5476 -40.5469 -40.5454
   -40.5401 -40.5374 -40.5366 -40.5366 -40.5366 -40.5365 -40.5362 -40.5361
   -40.5361 -40.5360 -40.5360 -40.5360 -40.5359 -40.5358 -40.5357 -40.5357
   -40.5353 -40.5353 -40.5353 -40.5353 -40.5312 -40.5290 -40.5274 -40.5274
   -40.5273 -40.5273 -40.5266 -40.5266 -40.5237 -40.5216 -40.5086 -40.5058
   -40.5057 -40.5056 -40.5056 -40.5056 -40.5056 -40.5055 -40.5054 -40.5047
   -40.5047 -40.5047 -40.5047 -40.5027 -40.4989 -40.4963 -40.4917 -40.4833
   -40.4709 -40.4709 -40.4709 -40.4709 -40.4709 -40.4709 -40.4708 -40.4708
   -40.4699 -40.4699 -40.4699 -40.4699 -40.4622 -40.4611 -40.4588 -40.4587
   -40.4587 -40.4586 -40.4582 -40.4578 -40.4578 -40.4539 -40.4524 -40.4395
   -40.4394 -40.4394 -40.4392 -40.4384 -40.4384 -40.4338 -40.4301 -40.4229
   -40.4224 -40.4224 -40.4224 -40.4224 -40.4214 -40.4214 -40.4103 -40.4017
   -40.3918 -40.3918 -40.3917 -40.3916 -40.3907 -40.3907 -40.3863 -40.3652
   -19.7371 -19.7199 -19.6816 -19.6541 -19.5852 -19.5627 -19.4863 -19.4784
   -19.2980 -19.2845 -19.2464 -19.2276 -19.1562 -19.1422 -19.0607 -19.0558
   -18.6825 -18.6321 -18.6199 -18.5839 -18.5723 -18.5640 -18.5544 -18.5485
   -18.5347 -18.5278 -18.5103 -18.4914 -18.4806 -18.4678 -18.4606 -18.4378
   -18.4181 -18.4060 -18.3906 -18.3852 -18.3808 -18.3760 -18.3715 -18.3478
   -18.3283 -18.3131 -18.3083 -18.2989 -18.2898 -18.2692 -18.2464 -18.2386
   -18.2311 -18.2078 -18.1874 -18.1833 -18.1610 -18.1490 -18.1300 -18.1020
   -18.0855 -18.0735 -18.0656 -18.0558 -18.0432 -18.0124 -17.9997 -17.9800
   -17.9694 -17.9541 -17.9433 -17.9373 -17.9372 -17.9367 -17.9335 -17.9199
   -17.9092 -17.9078 -17.9052 -17.9033 -17.8997 -17.8962 -17.8862 -17.8818
   -17.8744 -17.8735 -17.8677 -17.8660 -17.8448 -17.8391 -17.8372 -17.8345
   -17.8314 -17.8288 -17.8243 -17.8239 -17.8189 -17.8101 -17.7839 -17.7715
   -17.7682 -17.7614 -17.7552 -17.7547 -17.7271 -17.7165 -17.7108 -17.7099
   -17.6848 -17.6807 -17.6748 -17.6741 -17.6698 -17.6550 -17.6546 -17.6536
   -17.6527 -17.6524 -17.6519 -17.6453 -17.6392 -17.6336 -17.6195 -17.6154
   -17.5956 -17.5933 -17.5767 -17.5735 -17.5621 -17.5600 -17.5544 -17.5541
   -11.5777 -11.5521 -11.4737 -11.3901 -11.3573 -11.3564 -11.3496 -11.3472
   -11.3264 -11.3168 -11.3119 -11.2998 -11.2804 -11.2721 -11.2650 -11.2348
   -11.2138 -11.2013 -11.1814 -11.1764 -11.1703 -11.1562 -11.1494 -11.1374
   -11.1258 -11.1050 -11.1043 -11.0964 -11.0919 -11.0912 -11.0873 -11.0763
   -11.0564 -11.0407 -11.0351 -11.0291 -11.0177 -11.0149 -11.0031 -11.0022
   -11.0010 -10.9843 -10.9796 -10.9787 -10.9732 -10.9443 -10.9103 -10.8967
   -10.8931 -10.8881 -10.8195 -10.7884 -10.7822 -10.7603 -10.7566 -10.7461
   -10.7401 -10.7331 -10.7202 -10.7049 -10.6877 -10.6748 -10.6672 -10.6643
   -10.6605 -10.6565 -10.6512 -10.6468 -10.6454 -10.6439 -10.6433 -10.6347
   -10.6309 -10.6289 -10.6271 -10.6258 -10.6246 -10.6245 -10.6163 -10.6152
   -10.6133 -10.5995 -10.5777 -10.5777 -10.5772 -10.5754 -10.4051 -10.3822
   -10.3693 -10.3611 -10.3438 -10.3134 -10.2677 -10.2200 -10.2057 -10.1598
   -10.1054 -10.0705 -10.0473  -9.9883  -9.9816  -9.9712  -9.9611  -9.9382
    -9.9343  -9.9196  -9.9124  -9.8909  -9.8867  -9.8835  -9.8637  -9.8602
    -9.8523  -9.8461  -9.8414  -9.8306  -9.8082  -9.7664  -9.7581  -9.7514
    -9.7500  -9.7423  -9.7367  -9.7347  -9.7281  -9.7190  -9.6871  -9.6738
    -9.6566  -9.6408  -9.6283  -9.6160  -9.6077  -9.5970  -9.5941  -9.5711
    -9.5689  -9.5516  -9.5499  -9.5196  -9.5095  -9.4948  -9.4809  -9.4750
    -9.4603  -9.4419  -9.4362  -9.4167  -9.3997  -9.3828  -9.3782  -9.3725
    -9.3713  -9.3697  -9.3484  -9.3455  -9.3226  -9.3212  -9.3135  -9.3024
    -9.2995  -9.2947  -9.2921  -9.2880  -9.2662  -9.2609  -9.2588  -9.2522
    -9.1982  -9.1869  -9.1206  -9.1125  -9.0892  -9.0783  -9.0463  -9.0407
    -9.0358  -9.0254  -9.0200  -9.0151  -9.0067  -8.9991  -8.9669  -8.9605
    -8.9493  -8.9243  -8.9123  -8.9077  -8.9031  -8.8917  -8.8860  -8.8677
    -8.8646  -8.8600  -8.8529  -8.8515  -8.8189  -8.8060  -8.7964  -8.7883
    -8.7785  -8.7739  -8.7720  -8.7585  -8.7437  -8.7274  -8.7232  -8.7207
    -8.7175  -8.7161  -8.7097  -8.7077  -8.7044  -8.7015  -8.7006  -8.6979
    -8.6924  -8.6805  -8.6777  -8.6746  -8.6732  -8.6724  -8.6656  -8.6576
    -8.6484  -8.6356  -8.6271  -8.6210  -8.6193  -8.6166  -8.6159  -8.6141
    -8.5969  -8.5897  -8.5676  -8.5650  -8.5588  -8.5565  -8.5418  -8.5301
    -8.4951  -8.4832  -8.4810  -8.4357  -8.4149  -8.3607  -8.3377  -8.3280
    -8.2769  -8.2632  -8.2235  -8.1926  -8.1812  -8.1510  -8.1219  -8.0683
    -8.0003  -7.9732  -7.9634  -7.9624  -7.9577  -7.9534  -7.9488  -7.9421
    -7.9403  -7.8987  -7.8909  -7.8867  -7.8162  -7.8034  -7.7937  -7.7633
    -7.6961  -7.6822  -7.6774  -7.6758  -7.6702  -7.6636  -7.6589  -7.6504
    -7.6496  -7.6469  -7.6363  -7.6342  -7.6296  -7.6273  -7.6246  -7.6237
    -7.6201  -7.6183  -7.6156  -7.6134  -7.6063  -7.6051  -7.6036  -7.6022
    -7.5988  -7.5966  -7.5935  -7.5931  -7.5893  -7.5885  -7.5859  -7.5707
    -7.5653  -7.5623  -7.5600  -7.5533  -7.5489  -7.5396  -7.5307  -7.5302
    -7.5300  -7.5287  -7.5061  -7.5010  -7.5003  -7.4989  -7.4988  -7.4842
    -7.4759  -7.4515  -7.4486  -7.4426  -7.4419  -7.4354  -7.4316  -7.4294
    -7.4273  -7.4197  -7.4146  -7.4065  -7.3985  -7.3974  -7.3876  -7.3853
    -7.3758  -7.3744  -7.3271  -7.2931  -7.2915  -7.2883  -7.2842  -7.2707
    -7.2546  -7.1933  -7.1322  -7.0395  -7.0089  -7.0067  -7.0021  -6.9978
    -6.9770  -6.9654  -6.9592  -6.9467  -6.9401  -6.9353  -6.9212  -6.9073
    -6.8794  -6.8709  -6.8614  -6.8551  -6.8528  -6.8275  -6.8135  -6.8100
    -6.8009  -6.7737  -6.7520  -6.7483  -6.7338  -6.7315  -6.7123  -6.7049
    -6.6989  -6.6938  -6.6879  -6.6668  -6.6536  -6.6070  -6.5978  -6.5899
    -6.5823  -6.5290  -6.5246  -6.5117  -6.4835  -6.4756  -6.4618  -6.4528
    -6.4426  -6.4410  -6.4389  -6.4383  -6.4320  -6.4257  -6.4226  -6.4215
    -6.4212  -6.4150  -6.4137  -6.4135  -6.4133  -6.4110  -6.3642  -6.3576
    -6.3400  -6.3215  -6.2597  -6.2428  -6.2204  -6.1737  -6.1660  -6.1593
    -6.1555  -6.1438  -6.1375  -6.1285  -6.1220  -6.1120  -6.1112  -6.1097
    -6.1072  -6.1064  -6.0920  -6.0864  -6.0793  -6.0675  -6.0585  -6.0422
    -6.0370  -6.0353  -6.0331  -6.0286  -5.9114  -5.8652  -5.8227  -5.8182
    -5.7865  -5.7569  -5.7541  -5.7014  -5.6924  -5.6881  -5.6757  -5.6443
    -5.5923  -5.5523  -5.5242  -5.4787  -5.4589  -5.4184  -5.4106  -5.3963
    -5.3621  -5.1446  -3.9501  -3.9269  -3.9229  -3.9180  -3.8303  -3.7783
    -3.7623  -3.7525  -3.7469  -3.7371  -3.6775  -3.6750  -3.6658  -3.6596
    -3.6537  -3.6452  -3.6416  -3.6352  -3.6319  -3.6271  -3.5521  -3.5447
    -3.5148  -3.5081  -3.4680  -3.4581  -3.4389  -3.4357  -3.4332  -3.4328
    -3.4027  -3.3871  -3.3851  -3.3662  -3.3551  -3.3523  -3.3501  -3.3480
    -3.3380  -3.3287  -3.3149  -3.3144  -3.3076  -3.3065  -3.3038  -3.3032
    -3.2904  -3.2824  -3.2802  -3.2787  -3.2567  -3.2557  -3.2528  -3.2490
    -3.2273  -3.1964  -3.1859  -3.1809  -3.1793  -3.1782  -3.1759  -3.1736
    -3.1693  -3.1597  -3.1385  -3.1265  -3.1215  -3.1211  -3.1147  -3.1141
    -3.1112  -3.1103  -3.1082  -3.0900  -3.0833  -3.0766  -3.0702  -3.0657
    -3.0634  -3.0560  -3.0508  -3.0444  -3.0420  -3.0359  -3.0209  -3.0203
    -3.0118  -3.0062  -3.0042  -2.9989  -2.9971  -2.9946  -2.9945  -2.9849
    -2.9396  -2.9329  -2.9174  -2.9024  -2.9019  -2.8994  -2.8967  -2.8910
    -2.8599  -2.8567  -2.8557  -2.8550  -2.8547  -2.8531  -2.8472  -2.8463
    -2.8408  -2.8388  -2.8352  -2.8337  -2.8247  -2.8205  -2.8167  -2.8078
    -2.8064  -2.8028  -2.8023  -2.8004  -2.7964  -2.7916  -2.7833  -2.7798
    -2.7780  -2.7737  -2.7694  -2.7635  -2.7603  -2.7506  -2.7316  -2.7270
    -2.7188  -2.7129  -2.7100  -2.7082  -2.6964  -2.6927  -2.6375  -2.6258
    -2.6198  -2.6193  -2.5891  -2.5640  -2.5528  -2.5431  -2.5139  -2.4485
    -2.4437  -2.4216  -2.4066  -2.4010  -2.3916  -2.3757  -2.3715  -2.3695
    -2.3590  -2.3586  -2.3557  -2.3519  -2.3432  -2.2343  -2.2305  -2.2266
    -2.2144  -2.2129  -2.1943  -2.1894

          k =-0.5000-0.8660 0.0000 (386352 PWs)   bands (ev):

   -88.5719 -87.2829 -66.4559 -66.4539 -66.4539 -66.4539 -66.4538 -66.4526
   -66.4526 -66.4524 -66.4487 -66.4432 -66.4432 -66.4432 -66.4432 -66.4419
   -66.4419 -66.4368 -66.4363 -66.4308 -66.4282 -66.4281 -66.4281 -66.4281
   -66.4281 -66.4281 -66.4280 -66.4280 -66.4275 -66.4268 -66.4268 -66.4268
   -66.4268 -66.4250 -66.4237 -66.4237 -66.4237 -66.4236 -66.4224 -66.4224
   -66.4175 -66.4174 -66.4174 -66.4174 -66.4174 -66.4174 -66.4173 -66.4173
   -66.4161 -66.4161 -66.4161 -66.4161 -66.4133 -66.4130 -66.4130 -66.4129
   -66.4129 -66.4116 -66.4116 -66.4107 -66.4092 -66.4042 -66.4010 -66.3958
   -66.3853 -66.3632 -54.3936 -54.3681 -54.3606 -53.4070 -52.9487 -52.9440
   -40.7560 -40.7559 -40.7559 -40.7559 -40.7559 -40.7558 -40.7558 -40.7558
   -40.7552 -40.7552 -40.7552 -40.7552 -40.7539 -40.7536 -40.7391 -40.7371
   -40.7291 -40.7291 -40.7291 -40.7290 -40.7284 -40.7284 -40.7274 -40.7215
   -40.7170 -40.7170 -40.7170 -40.7170 -40.7163 -40.7163 -40.7014 -40.6962
   -40.6663 -40.6663 -40.6663 -40.6663 -40.6663 -40.6663 -40.6663 -40.6663
   -40.6656 -40.6656 -40.6656 -40.6656 -40.6561 -40.6548 -40.6538 -40.6476
   -40.6350 -40.6100 -40.6076 -40.6075 -40.6075 -40.6074 -40.6069 -40.6069
   -40.6011 -40.5981 -40.5981 -40.5980 -40.5980 -40.5972 -40.5972 -40.5902
   -40.5867 -40.5867 -40.5867 -40.5866 -40.5860 -40.5860 -40.5806 -40.5804
   -40.5755 -40.5604 -40.5579 -40.5572 -40.5571 -40.5571 -40.5571 -40.5571
   -40.5570 -40.5570 -40.5570 -40.5564 -40.5564 -40.5564 -40.5564 -40.5526
   -40.5501 -40.5484 -40.5483 -40.5483 -40.5483 -40.5476 -40.5476 -40.5425
   -40.5389 -40.5366 -40.5366 -40.5365 -40.5365 -40.5361 -40.5361 -40.5360
   -40.5360 -40.5360 -40.5360 -40.5360 -40.5359 -40.5357 -40.5357 -40.5353
   -40.5353 -40.5353 -40.5353 -40.5339 -40.5308 -40.5304 -40.5274 -40.5274
   -40.5273 -40.5273 -40.5266 -40.5266 -40.5265 -40.5206 -40.5084 -40.5057
   -40.5056 -40.5056 -40.5056 -40.5056 -40.5056 -40.5056 -40.5055 -40.5047
   -40.5047 -40.5047 -40.5047 -40.4994 -40.4985 -40.4969 -40.4949 -40.4876
   -40.4709 -40.4709 -40.4709 -40.4709 -40.4709 -40.4708 -40.4708 -40.4708
   -40.4699 -40.4699 -40.4699 -40.4699 -40.4635 -40.4590 -40.4588 -40.4587
   -40.4587 -40.4586 -40.4578 -40.4578 -40.4577 -40.4550 -40.4484 -40.4395
   -40.4394 -40.4394 -40.4393 -40.4385 -40.4384 -40.4364 -40.4294 -40.4247
   -40.4224 -40.4224 -40.4224 -40.4224 -40.4214 -40.4214 -40.4091 -40.3983
   -40.3918 -40.3917 -40.3917 -40.3917 -40.3907 -40.3907 -40.3835 -40.3692
   -19.7324 -19.7219 -19.6772 -19.6599 -19.5827 -19.5691 -19.4856 -19.4810
   -19.2951 -19.2848 -19.2443 -19.2280 -19.1551 -19.1421 -19.0604 -19.0557
   -18.6714 -18.6297 -18.6047 -18.5886 -18.5791 -18.5685 -18.5534 -18.5487
   -18.5456 -18.5331 -18.5088 -18.4948 -18.4802 -18.4731 -18.4572 -18.4490
   -18.4120 -18.4104 -18.3912 -18.3870 -18.3813 -18.3778 -18.3603 -18.3459
   -18.3289 -18.3138 -18.3073 -18.2990 -18.2926 -18.2725 -18.2432 -18.2393
   -18.2371 -18.2139 -18.1859 -18.1770 -18.1632 -18.1535 -18.1121 -18.0906
   -18.0856 -18.0793 -18.0668 -18.0611 -18.0235 -18.0128 -18.0007 -17.9832
   -17.9587 -17.9513 -17.9447 -17.9381 -17.9378 -17.9368 -17.9311 -17.9226
   -17.9205 -17.9080 -17.9036 -17.9020 -17.9002 -17.8971 -17.8840 -17.8812
   -17.8786 -17.8750 -17.8710 -17.8664 -17.8429 -17.8391 -17.8386 -17.8354
   -17.8315 -17.8297 -17.8291 -17.8234 -17.8181 -17.8114 -17.7776 -17.7718
   -17.7714 -17.7635 -17.7620 -17.7540 -17.7254 -17.7183 -17.7170 -17.7095
   -17.6829 -17.6795 -17.6782 -17.6735 -17.6581 -17.6571 -17.6544 -17.6536
   -17.6534 -17.6520 -17.6498 -17.6464 -17.6373 -17.6355 -17.6175 -17.6169
   -17.5945 -17.5940 -17.5757 -17.5742 -17.5617 -17.5605 -17.5543 -17.5542
   -11.5709 -11.5570 -11.4571 -11.3771 -11.3693 -11.3561 -11.3524 -11.3470
   -11.3241 -11.3221 -11.3148 -11.3053 -11.2805 -11.2797 -11.2632 -11.2415
   -11.2118 -11.2050 -11.1826 -11.1792 -11.1678 -11.1572 -11.1505 -11.1360
   -11.1272 -11.1047 -11.1021 -11.0965 -11.0947 -11.0922 -11.0851 -11.0739
   -11.0650 -11.0393 -11.0358 -11.0242 -11.0215 -11.0099 -11.0029 -11.0024
   -11.0004 -10.9944 -10.9797 -10.9777 -10.9555 -10.9458 -10.9046 -10.9040
   -10.8912 -10.8895 -10.8109 -10.7970 -10.7806 -10.7690 -10.7510 -10.7487
   -10.7409 -10.7300 -10.7160 -10.6963 -10.6881 -10.6713 -10.6701 -10.6622
   -10.6589 -10.6568 -10.6527 -10.6464 -10.6454 -10.6431 -10.6419 -10.6396
   -10.6315 -10.6292 -10.6281 -10.6262 -10.6249 -10.6244 -10.6160 -10.6139
   -10.6126 -10.6075 -10.5778 -10.5774 -10.5771 -10.5766 -10.4170 -10.3758
   -10.3702 -10.3643 -10.3416 -10.3150 -10.2742 -10.2201 -10.1973 -10.1733
   -10.0972 -10.0584 -10.0551  -9.9839  -9.9798  -9.9721  -9.9651  -9.9341
    -9.9306  -9.9268  -9.9167  -9.8877  -9.8856  -9.8706  -9.8625  -9.8578
    -9.8531  -9.8520  -9.8379  -9.8247  -9.8175  -9.7695  -9.7613  -9.7537
    -9.7515  -9.7382  -9.7363  -9.7321  -9.7211  -9.7085  -9.6832  -9.6740
    -9.6626  -9.6382  -9.6274  -9.6222  -9.6012  -9.5993  -9.5931  -9.5764
    -9.5670  -9.5510  -9.5216  -9.5174  -9.5102  -9.5079  -9.4777  -9.4747
    -9.4519  -9.4454  -9.4408  -9.4105  -9.3990  -9.3899  -9.3756  -9.3733
    -9.3706  -9.3690  -9.3529  -9.3444  -9.3221  -9.3219  -9.3043  -9.3028
    -9.3002  -9.2962  -9.2913  -9.2880  -9.2760  -9.2614  -9.2603  -9.2580
    -9.1947  -9.1909  -9.1467  -9.0989  -9.0911  -9.0856  -9.0503  -9.0464
    -9.0402  -9.0264  -9.0217  -9.0133  -9.0062  -8.9936  -8.9796  -8.9591
    -8.9446  -8.9259  -8.9179  -8.9094  -8.9035  -8.8854  -8.8840  -8.8723
    -8.8645  -8.8601  -8.8549  -8.8535  -8.8128  -8.8045  -8.8007  -8.7884
    -8.7786  -8.7729  -8.7694  -8.7609  -8.7463  -8.7235  -8.7228  -8.7217
    -8.7187  -8.7156  -8.7070  -8.7068  -8.7045  -8.7020  -8.6996  -8.6953
    -8.6901  -8.6811  -8.6757  -8.6745  -8.6728  -8.6701  -8.6667  -8.6637
    -8.6420  -8.6363  -8.6257  -8.6214  -8.6202  -8.6172  -8.6160  -8.6150
    -8.5963  -8.5911  -8.5678  -8.5657  -8.5585  -8.5568  -8.5369  -8.5326
    -8.4883  -8.4810  -8.4736  -8.4329  -8.4206  -8.3649  -8.3376  -8.3298
    -8.2774  -8.2638  -8.1945  -8.1856  -8.1621  -8.1532  -8.1147  -8.0972
    -8.0251  -7.9764  -7.9641  -7.9624  -7.9595  -7.9535  -7.9504  -7.9421
    -7.9409  -7.8960  -7.8926  -7.8826  -7.8124  -7.8047  -7.7872  -7.7648
    -7.7225  -7.6993  -7.6797  -7.6759  -7.6684  -7.6629  -7.6545  -7.6497
    -7.6428  -7.6416  -7.6369  -7.6319  -7.6288  -7.6259  -7.6253  -7.6241
    -7.6222  -7.6178  -7.6163  -7.6117  -7.6093  -7.6069  -7.6055  -7.6022
    -7.6010  -7.5981  -7.5955  -7.5931  -7.5924  -7.5900  -7.5888  -7.5727
    -7.5667  -7.5623  -7.5609  -7.5565  -7.5498  -7.5437  -7.5306  -7.5303
    -7.5299  -7.5281  -7.5013  -7.5007  -7.5005  -7.4989  -7.4851  -7.4819
    -7.4697  -7.4508  -7.4480  -7.4427  -7.4397  -7.4376  -7.4325  -7.4298
    -7.4280  -7.4189  -7.4152  -7.4116  -7.3984  -7.3978  -7.3974  -7.3847
    -7.3777  -7.3768  -7.3194  -7.2941  -7.2930  -7.2893  -7.2883  -7.2588
    -7.2419  -7.1421  -7.1072  -7.0930  -7.0071  -7.0060  -7.0019  -7.0017
    -6.9651  -6.9625  -6.9581  -6.9479  -6.9406  -6.9355  -6.9114  -6.8969
    -6.8827  -6.8717  -6.8599  -6.8573  -6.8534  -6.8470  -6.8159  -6.8112
    -6.8089  -6.7816  -6.7484  -6.7462  -6.7353  -6.7266  -6.7185  -6.7057
    -6.7017  -6.6939  -6.6898  -6.6675  -6.6468  -6.6085  -6.6008  -6.5903
    -6.5800  -6.5265  -6.5128  -6.5093  -6.4962  -6.4784  -6.4606  -6.4560
    -6.4518  -6.4414  -6.4391  -6.4385  -6.4384  -6.4325  -6.4225  -6.4217
    -6.4213  -6.4204  -6.4136  -6.4135  -6.4134  -6.4133  -6.3604  -6.3503
    -6.3262  -6.3174  -6.2565  -6.2441  -6.2164  -6.1734  -6.1636  -6.1618
    -6.1548  -6.1388  -6.1370  -6.1321  -6.1197  -6.1132  -6.1117  -6.1102
[...]
     atom  162 type  2   force =    -0.00000007   -0.00000001    0.00009785
     atom  163 type  1   force =    -0.00000262   -0.00000309   -0.00000067
     atom  164 type  1   force =     0.00009454    0.00004825   -0.00243333
     atom  165 type  2   force =     0.00000596    0.00000133   -0.00016627
     atom  166 type  2   force =    -0.00000812   -0.00000630    0.00004640
     atom  167 type  2   force =     0.00000016    0.00000006   -0.00009609
     atom  168 type  2   force =    -0.00010315   -0.00003396   -0.00435243
     atom  169 type  1   force =    -0.00000004   -0.00000001    0.00255959
     atom  170 type  1   force =    -0.00000004   -0.00000005    0.00001465
     atom  171 type  2   force =    -0.00000003    0.00000000   -0.00003325
     atom  172 type  2   force =    -0.00000001    0.00000000    0.00017169
     atom  173 type  2   force =    -0.00000003    0.00000002    0.00441444
     atom  174 type  2   force =    -0.00000013   -0.00000004    0.00009784
     atom  175 type  1   force =     0.00000876    0.00000125   -0.00000843
     atom  176 type  1   force =    -0.00000505    0.00001795   -0.00244303
     atom  177 type  2   force =    -0.00000123    0.00001031   -0.00012352
     atom  178 type  2   force =    -0.00000216    0.00000234    0.00004432
     atom  179 type  2   force =    -0.00000004    0.00000041   -0.00009582
     atom  180 type  2   force =    -0.00027441   -0.00004692   -0.00429263
     atom  181 type  1   force =    -0.00000002   -0.00000002    0.00255964
     atom  182 type  1   force =    -0.00000006   -0.00000001    0.00001469
     atom  183 type  2   force =     0.00000000   -0.00000001   -0.00003321
     atom  184 type  2   force =     0.00000001    0.00000001    0.00017167
     atom  185 type  2   force =     0.00000003    0.00000004    0.00441438
     atom  186 type  2   force =    -0.00000008   -0.00000004    0.00009784
     atom  187 type  1   force =     0.00000670    0.00000820   -0.00001028
     atom  188 type  1   force =     0.00001909    0.00005727   -0.00233039
     atom  189 type  2   force =     0.00000601   -0.00000538   -0.00012033
     atom  190 type  2   force =     0.00001799    0.00000982    0.00003693
     atom  191 type  2   force =     0.00000092    0.00000038   -0.00009602
     atom  192 type  2   force =    -0.00007544   -0.00015090   -0.00426245
     atom  193 type  3   force =     0.00017009   -0.00059485    0.00256263
     atom  194 type  3   force =    -0.00011814    0.00038147   -0.00539060

     Total force =     0.003094     Total SCF correction =     0.000288
     Energy error            =      1.7E-05 Ry
     Gradient error          =      9.3E-04 Ry/Bohr

     bfgs converged in  10 scf cycles and   9 bfgs steps
     (criteria: energy <  1.0E-04 Ry, force <  1.0E-03 Ry/Bohr)

     End of BFGS Geometry Optimization

     Final energy             =  -32817.5674455474 Ry

     File ./outdir/pwscf.bfgs deleted, as requested
Begin final coordinates

ATOMIC_POSITIONS (angstrom)
Mo            0.0000119917        1.8193638619       -9.1672481230    0   0   0
Mo            1.5756136568        0.9097075315       -3.0554901653    0   0   0
S             0.0000188998        1.8193822938       -4.6232556019    0   0   0
S             1.5756321638        0.9096773839       -7.6014065489    0   0   0
S             1.5756326175        0.9096785128      -10.7330757790    0   0   0
S             0.0000189190        1.8193860094       -1.4877129945    0   0   0
Mo            0.0000806980        1.8195489488        3.0559247644
Mo            1.5695101157        0.9042279777        9.1499827768
S            -0.0042169029        1.8258884522        7.5896747230
S             1.5758558182        0.9098784740        4.6233838578
S             1.5755866763        0.9097993297        1.4879984994
S             0.0006281298        1.7997380966       10.7348199715
Mo           -1.5756053507        4.5484193819       -9.1672481230    0   0   0
Mo            0.0000378379        3.6387394919       -3.0554952701    0   0   0
S            -1.5755913433        4.5484363582       -4.6232494962    0   0   0
S             0.0000148214        3.6387329039       -7.6014065489    0   0   0
S             0.0000152751        3.6387340328      -10.7330757790    0   0   0
S            -1.5755906502        4.5484413613       -1.4877305502    0   0   0
Mo           -1.5753526770        4.5485520565        3.0560857553
Mo           -0.0059873071        3.6265692825        9.1778845603
S            -1.5728567619        4.5485388737        7.6029864767
S             0.0005318942        3.6391782897        4.6237957917
S             0.0000753328        3.6388162827        1.4881406087
S            -1.5802200452        4.5454896190       10.7393822375
Mo           -3.1512226931        7.2774749019       -9.1672481230    0   0   0
Mo           -1.5755910988        6.3678216792       -3.0555115988    0   0   0
S            -3.1512162438        7.2774954350       -4.6232578178    0   0   0
S            -1.5756025210        6.3677884239       -7.6014065489    0   0   0
S            -1.5756020673        6.3677895528      -10.7330757790    0   0   0
S            -3.1512127704        7.2774877076       -1.4877200710    0   0   0
Mo           -3.1510072505        7.2773460374        3.0558292267
Mo           -1.5897825116        6.3672858603        9.1752527726
S            -3.1486629434        7.2771719830        7.5937931463
S            -1.5750315933        6.3679644509        4.6240045342
S            -1.5754937205        6.3677245668        1.4880918409
S            -3.1672288703        7.2831482153       10.7355776534
Mo           -4.7268400355       10.0065304219       -9.1672481230    0   0   0
Mo           -3.1512405618        9.0968403586       -3.0554816746    0   0   0
S            -4.7268341792       10.0065523623       -4.6232463762    0   0   0
S            -3.1512198634        9.0968439439       -7.6014065489    0   0   0
S            -3.1512194097        9.0968450728      -10.7330757790    0   0   0
S            -4.7268370797       10.0065537885       -1.4877176751    0   0   0
Mo           -4.7268347320       10.0066069401        3.0556256450
Mo           -3.1525620714        9.0997187085        9.1624609945
S            -4.7265609572       10.0011558050        7.5866681800
S            -3.1511243995        9.0968081813        4.6230728665
S            -3.1510598966        9.0968395271        1.4880430538
S            -4.7273071292       10.0124047441       10.7284413675
Mo            3.1512517547        1.8193638619       -9.1672481230    0   0   0
Mo            4.7269020221        0.9097289540       -3.0554823951    0   0   0
S             3.1512612351        1.8193882564       -4.6232320683    0   0   0
S             4.7268719268        0.9096773839       -7.6014065489    0   0   0
S             4.7268723805        0.9096785128      -10.7330757790    0   0   0
S             3.1512592485        1.8193890201       -1.4877261251    0   0   0
Mo            3.1512722914        1.8195791744        3.0558011477
Mo            4.7332210644        0.9051862009        9.1489408867
S             3.1516419902        1.8218802053        7.5896817163
S             4.7268609211        0.9098940252        4.6235067021
S             4.7269083905        0.9096140473        1.4880505445
S             3.1569531605        1.8059313795       10.7209418608
Mo            1.5756344123        4.5484193819       -9.1672481230    0   0   0
Mo            3.1512756394        3.6387769522       -3.0554814834    0   0   0
S             1.5756504879        4.5484423799       -4.6232390542    0   0   0
S             3.1512545844        3.6387329039       -7.6014065489    0   0   0
S             3.1512550381        3.6387340328      -10.7330757790    0   0   0
S             1.5756466253        4.5484431864       -1.4877251801    0   0   0
Mo            1.5757361545        4.5486734276        3.0556986465
Mo            3.1590836340        3.6346990287        9.1629875837
S             1.5702884232        4.5754912102        7.6397466550
S             3.1508047476        3.6388945399        4.6240995297
S             3.1513130011        3.6389066850        1.4880927168
S             1.5820125129        4.4339602782       10.7910464996
Mo            0.0000170699        7.2774749019       -9.1672481230    0   0   0
Mo            1.5756764447        6.3678236689       -3.0554877708    0   0   0
S             0.0000381981        7.2774979204       -4.6232454413    0   0   0
S             1.5756372420        6.3677884239       -7.6014065489    0   0   0
S             1.5756376957        6.3677895528      -10.7330757790    0   0   0
S             0.0000328088        7.2774946042       -1.4877307940    0   0   0
Mo            0.0002542138        7.2773230796        3.0556619816
Mo            1.5737726391        6.3673835301        9.2302198285
S             0.0190006291        7.2653031167        7.6435549753
S             1.5757043128        6.3678836989        4.6237651740
S             1.5756585111        6.3677606311        1.4877209930
S            -0.0958034255        7.3316287421       10.7921074266
Mo           -1.5756002725       10.0065304219       -9.1672481230    0   0   0
Mo            0.0000873425        9.0968676911       -3.0554912329    0   0   0
S            -1.5755883952       10.0065504530       -4.6232240150    0   0   0
S             0.0000198996        9.0968439439       -7.6014065489    0   0   0
S             0.0000203533        9.0968450728      -10.7330757790    0   0   0
S            -1.5755859047       10.0065492576       -1.4877362381    0   0   0
Mo           -1.5753538615       10.0065048034        3.0559155162
Mo           -0.0082979398        9.1080912854        9.1749064783
S            -1.5731420718        9.9991716068        7.5886787071
S             0.0002486453        9.0962295256        4.6239132939
S             0.0001110216        9.0968437351        1.4881239749
S            -1.5867602453       10.0238365372       10.7346454891
Mo            6.3024915177        1.8193638619       -9.1672481230    0   0   0
Mo            7.8781001445        0.9096521684       -3.0554919963    0   0   0
S             6.3025008696        1.8193826232       -4.6232480596    0   0   0
S             7.8781116898        0.9096773839       -7.6014065489    0   0   0
S             7.8781121435        0.9096785128      -10.7330757790    0   0   0
S             6.3025042007        1.8193849068       -1.4877147524    0   0   0
Mo            6.3025066381        1.8193474056        3.0556575074
Mo            7.8784394620        0.9132687700        9.1658003583
S             6.3095093084        1.8235250846        7.5905159752
S             7.8781801817        0.9095532184        4.6233232764
S             7.8781011092        0.9095207453        1.4880187838
S             6.2972273036        1.8156863845       10.7316361934
Mo            4.7268741753        4.5484193819       -9.1672481230    0   0   0
Mo            6.3024679138        3.6387501714       -3.0554895197    0   0   0
S             4.7268748770        4.5484386753       -4.6232519432    0   0   0
S             6.3024943474        3.6387329039       -7.6014065489    0   0   0
S             6.3024948011        3.6387340328      -10.7330757790    0   0   0
S             4.7268770533        4.5484432419       -1.4877137856    0   0   0
Mo            4.7266146821        4.5485154920        3.0561778315
Mo            6.3020902940        3.6370354885        9.1678967597
S             4.7309292960        4.5522472835        7.5966656281
S             6.3024735384        3.6387640908        4.6231964267
S             6.3023065587        3.6387979625        1.4880410358
S             4.7267844393        4.5434014875       10.7369734812
Mo            3.1512568329        7.2774749019       -9.1672481230    0   0   0
Mo            4.7268384135        6.3678043337       -3.0554959052    0   0   0
S             3.1512606125        7.2774972547       -4.6232589675    0   0   0
S             4.7268770050        6.3677884239       -7.6014065489    0   0   0
S             4.7268774587        6.3677895528      -10.7330757790    0   0   0
S             3.1512629079        7.2774963749       -1.4877081835    0   0   0
Mo            3.1510549574        7.2773931121        3.0556199981
Mo            4.7429960049        6.3667629764        9.1744076871
S             3.1311666497        7.2649823973        7.6435530247
S             4.7262621972        6.3680717304        4.6238980438
S             4.7268311139        6.3676740799        1.4881423680
S             3.2466261733        7.3323142768       10.7893119014
Mo            1.5756394905       10.0065304219       -9.1672481230    0   0   0
Mo            3.1512330605        9.0968514907       -3.0554878870    0   0   0
S             1.5756499830       10.0065443759       -4.6232632674    0   0   0
S             3.1512596626        9.0968439439       -7.6014065489    0   0   0
S             3.1512601163        9.0968450728      -10.7330757790    0   0   0
S             1.5756503041       10.0065459699       -1.4877044377    0   0   0
Mo            1.5757046860       10.0062616743        3.0560869146
Mo            3.1580942304        9.1098639585        9.1728572970
S             1.5742935134       10.0057489920        7.6014501038
S             3.1511521849        9.0962527987        4.6240554104
S             3.1511819419        9.0968405168        1.4880689752
S             1.5752754066       10.0128856246       10.7364701128
Mo            9.4537312807        1.8193638619       -9.1672481230    0   0   0
Mo           11.0293863460        0.9096952246       -3.0554894007    0   0   0
S             9.4537395970        1.8193770750       -4.6232328036    0   0   0
S            11.0293514528        0.9096773839       -7.6014065489    0   0   0
S            11.0293519066        0.9096785128      -10.7330757790    0   0   0
S             9.4537393632        1.8193794783       -1.4877366147    0   0   0
Mo            9.4537111183        1.8194286174        3.0556270022
Mo           11.0300390030        0.9113396391        9.1595022679
S             9.4517997732        1.8220380945        7.5945075692
S            11.0291795587        0.9097352977        4.6233618845
S            11.0294619922        0.9096821832        1.4881071888
S             9.4546763582        1.8201540536       10.7319951517
Mo            7.8781139383        4.5484193819       -9.1672481230    0   0   0
Mo            9.4537539161        3.6387607911       -3.0554933032    0   0   0
S             7.8781175448        4.5484378232       -4.6232366318    0   0   0
S             9.4537341104        3.6387329039       -7.6014065489    0   0   0
S             9.4537345641        3.6387340328      -10.7330757790    0   0   0
S             7.8781194018        4.5484411585       -1.4877377057    0   0   0
Mo            7.8781519777        4.5483672420        3.0555739124
Mo            9.4526563215        3.6382584078        9.1663061788
S             7.8773851176        4.5456621254        7.5957982285
S             9.4538215101        3.6388306370        4.6233957653
S             9.4539186510        3.6388248397        1.4879973618
S             7.8770681017        4.5489633422       10.7324830649
Mo            6.3024965959        7.2774749019       -9.1672481230    0   0   0
Mo            7.8781361655        6.3678242352       -3.0555014130    0   0   0
S             6.3024973331        7.2774953556       -4.6232392528    0   0   0
S             7.8781167680        6.3677884239       -7.6014065489    0   0   0
S             7.8781172217        6.3677895528      -10.7330757790    0   0   0
S             6.3024989866        7.2774929744       -1.4877349119    0   0   0
Mo            6.3023535264        7.2773456156        3.0558702561
Mo            7.8783208391        6.3687158396        9.1597192487
S             6.3014507718        7.2753303531        7.5922271581
S             7.8782009736        6.3675791236        4.6233958004
S             7.8781383306        6.3678593279        1.4880519885
S             6.3196252935        7.2812857855       10.7348835644
Mo            4.7268792535       10.0065304219       -9.1672481230    0   0   0
Mo            6.3025111524        9.0968738021       -3.0554915260    0   0   0
S             4.7268840634       10.0065452125       -4.6232380477    0   0   0
S             6.3024994256        9.0968439439       -7.6014065489    0   0   0
S             6.3024998793        9.0968450728      -10.7330757790    0   0   0
S             4.7268847312       10.0065459141       -1.4877283294    0   0   0
Mo            4.7266619485       10.0064273977        3.0558515419
Mo            6.3057102414        9.0964056486        9.1601041932
S             4.7258119870       10.0060493633        7.5924636187
S             6.3023867441        9.0968092431        4.6232017045
S             6.3024271626        9.0967975746        1.4880435950
S             4.7393881676       10.0182728104       10.7333027506
Pd            1.5777936307        6.3544066013       12.1059531707
Pd            3.1481436288        1.8109672277       12.8784801359
End final coordinates



     Writing all to output data dir ./outdir/pwscf.save/
 
     init_run     :    192.95s CPU    196.52s WALL (       1 calls)
     electrons    :  85320.85s CPU  86178.09s WALL (      10 calls)
     update_pot   :     48.72s CPU     48.94s WALL (       9 calls)
     forces       :   1227.91s CPU   1257.23s WALL (      10 calls)
     force_dftd3  :      7.54s CPU      8.09s WALL (      10 calls)

     Called by init_run:
     wfcinit      :    167.99s CPU    170.12s WALL (       1 calls)
     potinit      :      2.22s CPU      2.30s WALL (       1 calls)
     hinit0       :     15.98s CPU     16.01s WALL (       1 calls)

     Called by electrons:
     c_bands      :  76998.38s CPU  77496.27s WALL (     119 calls)
     sum_band     :   7831.47s CPU   8045.83s WALL (     119 calls)
     v_of_rho     :     58.83s CPU     60.03s WALL (     119 calls)
     newd         :    320.68s CPU    473.17s WALL (     119 calls)
     PAW_pot      :     86.18s CPU     86.20s WALL (     128 calls)
     mix_rho      :     13.96s CPU     14.01s WALL (     119 calls)
     energy_dftd3 :      3.54s CPU      3.54s WALL (      10 calls)

     Called by c_bands:
     init_us_2    :    298.19s CPU    298.57s WALL (    1032 calls)
     init_us_2:cp :    298.18s CPU    298.57s WALL (    1032 calls)
     cegterg      :  75997.26s CPU  76478.22s WALL (     499 calls)

     Called by *egterg:
     cdiaghg      :   4996.52s CPU   5012.91s WALL (    6740 calls)
     h_psi        :  39584.06s CPU  39730.44s WALL (    6820 calls)
     s_psi        :   8105.77s CPU   8137.07s WALL (    6820 calls)
     g_psi        :     71.61s CPU     71.73s WALL (    6317 calls)

     Called by h_psi:
     h_psi:calbec :   8598.97s CPU   8600.61s WALL (    6820 calls)
     vloc_psi     :  22782.36s CPU  22831.93s WALL (    6820 calls)
     add_vuspsi   :   8118.25s CPU   8148.94s WALL (    6820 calls)

     General routines
     calbec       :  12138.19s CPU  12140.40s WALL (    7492 calls)
     fft          :     58.94s CPU     60.21s WALL (    1656 calls)
     ffts         :      3.02s CPU      3.06s WALL (     238 calls)
     fftw         :  18518.20s CPU  18557.60s WALL ( 3589774 calls)
     interpolate  :      6.16s CPU      6.20s WALL (     119 calls)
 
     Parallel routines
 
     PWSCF        :   1d 0h12m CPU   1d 0h28m WALL

 
   This run was terminated on:   0: 9:12   6Oct2023            

=------------------------------------------------------------------------------=
   JOB DONE.
=------------------------------------------------------------------------------=
Application 11268042 resources: utime ~3139474s, stime ~32163s, Rss ~3502356, inblocks ~0, outblocks ~53797488
