
     Program PWSCF v.7.3 starts on 29Mar2024 at 21:45: 4 

     This program is part of the open-source Quantum ESPRESSO suite
     for quantum simulation of materials; please cite
         "P. Giannozzi et al., J. Phys.:Condens. Matter 21 395502 (2009);
         "P. Giannozzi et al., J. Phys.:Condens. Matter 29 465901 (2017);
         "P. Giannozzi et al., J. Chem. Phys. 152 154105 (2020);
          URL http://www.quantum-espresso.org", 
     in publications or presentations arising from this work. More details at
     http://www.quantum-espresso.org/quote

     Parallel version (MPI & OpenMP), running on      36 processor cores
     Number of MPI processes:                36
     Threads/MPI process:                     1

     MPI processes distributed on     1 nodes
     550260 MiB available memory on the printing compute node when the environment starts
 
     Waiting for input...
     Reading input from standard input
Warning: card &CELL ignored
Warning: card / ignored

     Current dimensions of program PWSCF are:
     Max number of different atomic species (ntypx) = 10
     Max number of k-points (npk) =  40000
     Max angular momentum in pseudopotentials (lmaxx) =  4
     file Mo.pbe-spn-kjpaw_psl.1.0.0.UPF: wavefunction(s)  4S 4D renormalized
     file S.pbe-n-kjpaw_psl.1.0.0.UPF: wavefunction(s)  3S 3P renormalized
     file Pd.pbe-spn-kjpaw_psl.1.0.0.UPF: wavefunction(s)  4S 5S 4D renormalized
     file Pt.pbe-spfn-kjpaw_psl.1.0.0.UPF: wavefunction(s)  5P 4F renormalized
 
     R & G space division:  proc/nbgrp/npool/nimage =      36
     Subspace diagonalization in iterative solution of the eigenvalue problem:
     one sub-group per band group will be used
     scalapack distributed-memory algorithm (size of sub-group:  6*  6 procs)

 
     Parallelization info
     --------------------
     sticks:   dense  smooth     PW     G-vecs:    dense   smooth      PW
     Min         586     335     89               165416    71459    9765
     Max         587     337     90               165425    71461    9778
     Sum       21109   12085   3205              5955087  2572543  351657
 
     Using Slab Decomposition
 


     bravais-lattice index     =            0
     lattice parameter (alat)  =      23.8395  a.u.
     unit-cell volume          =   28182.8498 (a.u.)^3
     number of atoms/cell      =          147
     number of atomic types    =            4
     number of electrons       =      1316.00
     number of Kohn-Sham states=          790
     kinetic-energy cutoff     =      77.0000  Ry
     charge density cutoff     =     539.0000  Ry
     scf convergence threshold =      1.0E-06
     mixing beta               =       0.2000
     number of iterations used =            8  plain     mixing
     energy convergence thresh.=      1.0E-04
     force convergence thresh. =      1.0E-03
     Exchange-correlation= SLA  PW   PBX  PBC
                           (   1   4   3   4   0   0   0)
     nstep                     =         1000


     Effective Screening Medium Method
     =================================
     Boundary Conditions: Vacuum-Slab-Vacuum
     total charge in unit cell        =   0.0000
     grid points for fit at edges     =        4 
 

     celldm(1)=  23.839504  celldm(2)=   0.000000  celldm(3)=   0.000000
     celldm(4)=   0.000000  celldm(5)=   0.000000  celldm(6)=   0.000000

     crystal axes: (cart. coord. in units of alat)
               a(1) = (   1.000000   0.000000   0.000000 )  
               a(2) = (  -0.500001   0.866026   0.000000 )  
               a(3) = (   0.000000   0.000000   2.401941 )  

     reciprocal axes: (cart. coord. in units 2 pi/alat)
               b(1) = (  1.000000  0.577351  0.000000 )  
               b(2) = (  0.000000  1.154700  0.000000 )  
               b(3) = (  0.000000  0.000000  0.416330 )  


     PseudoPot. # 1 for Mo read from file:
     ./pseudo/Mo.pbe-spn-kjpaw_psl.1.0.0.UPF
     MD5 check sum: 317bf72632116215fd98f72de1686f13
     Pseudo is Projector augmented-wave + core cor, Zval = 14.0
     Generated using 'atomic' code by A. Dal Corso  v.7.2
     Shape of augmentation charge: PSQ
     Using radial grid of 1229 points,  6 beta functions with: 
                l(1) =   0
                l(2) =   0
                l(3) =   1
                l(4) =   1
                l(5) =   2
                l(6) =   2
     Q(r) pseudized with 0 coefficients 


     PseudoPot. # 2 for S  read from file:
     ./pseudo/S.pbe-n-kjpaw_psl.1.0.0.UPF
     MD5 check sum: 8b7b5302570d38d5e87fed6a1065abda
     Pseudo is Projector augmented-wave + core cor, Zval =  6.0
     Generated using 'atomic' code by A. Dal Corso  v.7.2
     Shape of augmentation charge: PSQ
     Using radial grid of 1151 points,  6 beta functions with: 
                l(1) =   0
                l(2) =   0
                l(3) =   1
                l(4) =   1
                l(5) =   2
                l(6) =   2
     Q(r) pseudized with 0 coefficients 


     PseudoPot. # 3 for Pd read from file:
     ./pseudo/Pd.pbe-spn-kjpaw_psl.1.0.0.UPF
     MD5 check sum: a60571a671f2502b8a6a4569d20a6edb
     Pseudo is Projector augmented-wave + core cor, Zval = 18.0
     Generated using 'atomic' code by A. Dal Corso  v.7.2
     Shape of augmentation charge: PSQ
     Using radial grid of 1235 points,  6 beta functions with: 
                l(1) =   0
                l(2) =   0
                l(3) =   1
                l(4) =   1
                l(5) =   2
                l(6) =   2
     Q(r) pseudized with 0 coefficients 


     PseudoPot. # 4 for Pt read from file:
     ./pseudo/Pt.pbe-spfn-kjpaw_psl.1.0.0.UPF
     MD5 check sum: 620096ebf4e6ebacc94de60fd67efcb5
     Pseudo is Projector augmented-wave + core cor, Zval = 32.0
     Generated using 'atomic' code by A. Dal Corso  v.7.2
     Shape of augmentation charge: PSQ
     Using radial grid of 1277 points,  8 beta functions with: 
                l(1) =   0
                l(2) =   0
                l(3) =   1
                l(4) =   1
                l(5) =   2
                l(6) =   2
                l(7) =   3
                l(8) =   3
     Q(r) pseudized with 0 coefficients 


     atomic species   valence    mass     pseudopotential
     Mo               14.00    95.95000     Mo( 1.00)
     S                 6.00    32.06000     S ( 1.00)
     Pd               18.00   106.42000     Pd( 1.00)
     Pt               32.00   195.08400     Pt( 1.00)

     No symmetry found



   Cartesian axes

     site n.     atom                  positions (alat units)
         1        Mo     tau(   1) = (   0.1248625   0.2131281   0.4810783  )
         2        Mo     tau(   2) = (   0.1250004   0.0721694  -0.4825273  )
         3        Mo     tau(   3) = (  -0.0000005   0.1443526  -0.0000490  )
         4        S      tau(   4) = (   0.0000004   0.0000006  -0.6064556  )
         5        S      tau(   5) = (   0.1249809   0.0722325  -0.1242083  )
         6        S      tau(   6) = (  -0.0008091   0.1437924   0.3564499  )
         7        S      tau(   7) = (   0.0000004   0.0000005  -0.3584711  )
         8        S      tau(   8) = (   0.1250266   0.0721270   0.1240857  )
         9        S      tau(   9) = (  -0.0005942   0.1424836   0.6054838  )
        10        Mo     tau(  10) = (  -0.0011099   0.4328730   0.4866737  )
        11        Mo     tau(  11) = (   0.0000001   0.2886759  -0.4825273  )
        12        Mo     tau(  12) = (  -0.1249710   0.3608625  -0.0000153  )
        13        S      tau(  13) = (  -0.1249999   0.2165071  -0.6064556  )
        14        S      tau(  14) = (   0.0000009   0.2886909  -0.1241159  )
        15        S      tau(  15) = (  -0.1236884   0.3618446   0.3606188  )
        16        S      tau(  16) = (  -0.1249998   0.2165070  -0.3584711  )
        17        S      tau(  17) = (   0.0000530   0.2887092   0.1242638  )
        18        S      tau(  18) = (  -0.1316249   0.3573130   0.6109420  )
        19        Mo     tau(  19) = (  -0.1257401   0.6504248   0.4820927  )
        20        Mo     tau(  20) = (  -0.1250002   0.5051824  -0.4825273  )
        21        Mo     tau(  21) = (  -0.2499958   0.5773353  -0.0001714  )
        22        S      tau(  22) = (  -0.2500002   0.4330136  -0.6064556  )
        23        S      tau(  23) = (  -0.1249719   0.5051311  -0.1241932  )
        24        S      tau(  24) = (  -0.2500164   0.5770675   0.3576049  )
        25        S      tau(  25) = (  -0.2500001   0.4330135  -0.3584711  )
        26        S      tau(  26) = (  -0.1250100   0.5052346   0.1241515  )
        27        S      tau(  27) = (  -0.2503695   0.5776584   0.6061514  )
        28        Mo     tau(  28) = (   0.2502170  -0.0003953   0.4806411  )
        29        Mo     tau(  29) = (  -0.2500004   0.7216889  -0.4825273  )
        30        Mo     tau(  30) = (  -0.3749978   0.7938641  -0.0002041  )
        31        S      tau(  31) = (  -0.3750004   0.6495201  -0.6064556  )
        32        S      tau(  32) = (  -0.2499890   0.7216755  -0.1242803  )
        33        S      tau(  33) = (  -0.3749740   0.7932749   0.3566586  )
        34        S      tau(  34) = (  -0.3750004   0.6495200  -0.3584711  )
        35        S      tau(  35) = (  -0.2500089   0.7216778   0.1239952  )
        36        S      tau(  36) = (  -0.3749998   0.7939174   0.6051309  )
        37        Mo     tau(  37) = (   0.3753608   0.2157704   0.4822604  )
        38        Mo     tau(  38) = (   0.3750004   0.0721694  -0.4825273  )
        39        Mo     tau(  39) = (   0.2499960   0.1443611  -0.0001003  )
        40        S      tau(  40) = (   0.2500004   0.0000006  -0.6064556  )
        41        S      tau(  41) = (   0.3750017   0.0721909  -0.1242276  )
        42        S      tau(  42) = (   0.2507085   0.1439928   0.3565793  )
        43        S      tau(  43) = (   0.2500004   0.0000005  -0.3584711  )
        44        S      tau(  44) = (   0.3750105   0.0721153   0.1240138  )
        45        S      tau(  45) = (   0.2503040   0.1425185   0.6055897  )
        46        Mo     tau(  46) = (   0.2508295   0.4328457   0.4866827  )
        47        Mo     tau(  47) = (   0.2500001   0.2886759  -0.4825273  )
        48        Mo     tau(  48) = (   0.1249947   0.3608692  -0.0000343  )
        49        S      tau(  49) = (   0.1250001   0.2165071  -0.6064556  )
        50        S      tau(  50) = (   0.2499709   0.2887106  -0.1241515  )
        51        S      tau(  51) = (   0.1248475   0.3620695   0.3632119  )
        52        S      tau(  52) = (   0.1250002   0.2165070  -0.3584711  )
        53        S      tau(  53) = (   0.2499461   0.2887051   0.1242364  )
        54        S      tau(  54) = (   0.1248217   0.3502704   0.6102012  )
        55        Mo     tau(  55) = (   0.1249300   0.6515066   0.4828014  )
        56        Mo     tau(  56) = (   0.1249998   0.5051824  -0.4825273  )
        57        Mo     tau(  57) = (   0.0000129   0.5773133  -0.0000993  )
        58        S      tau(  58) = (  -0.0000002   0.4330136  -0.6064556  )
        59        S      tau(  59) = (   0.1250046   0.5051576  -0.1241791  )
        60        S      tau(  60) = (   0.0000991   0.5758547   0.3610070  )
        61        S      tau(  61) = (  -0.0000001   0.4330135  -0.3584711  )
        62        S      tau(  62) = (   0.1249978   0.5051967   0.1242137  )
        63        S      tau(  63) = (  -0.0004561   0.5855879   0.6099183  )
        64        Mo     tau(  64) = (   0.4999896   0.0002543   0.4809432  )
        65        Mo     tau(  65) = (  -0.0000004   0.7216889  -0.4825273  )
        66        Mo     tau(  66) = (  -0.1249822   0.7938260  -0.0001787  )
        67        S      tau(  67) = (  -0.1250004   0.6495201  -0.6064556  )
        68        S      tau(  68) = (   0.0000560   0.7216541  -0.1241922  )
        69        S      tau(  69) = (  -0.1247643   0.7934174   0.3566857  )
        70        S      tau(  70) = (  -0.1250004   0.6495200  -0.3584711  )
        71        S      tau(  71) = (  -0.0000442   0.7215876   0.1241439  )
        72        S      tau(  72) = (  -0.1253483   0.7949346   0.6057201  )
        73        Mo     tau(  73) = (   0.6249017   0.2165129   0.4812697  )
        74        Mo     tau(  74) = (   0.6250004   0.0721694  -0.4825273  )
        75        Mo     tau(  75) = (   0.4999952   0.1443533  -0.0001098  )
        76        S      tau(  76) = (   0.5000004   0.0000006  -0.6064556  )
        77        S      tau(  77) = (   0.6250318   0.0721540  -0.1241362  )
        78        S      tau(  78) = (   0.4996954   0.1447446   0.3570727  )
        79        S      tau(  79) = (   0.5000004   0.0000005  -0.3584711  )
        80        S      tau(  80) = (   0.6249569   0.0721720   0.1241430  )
        81        S      tau(  81) = (   0.5006050   0.1436236   0.6059489  )
        82        Mo     tau(  82) = (   0.5006857   0.4329470   0.4824369  )
        83        Mo     tau(  83) = (   0.5000001   0.2886759  -0.4825273  )
        84        Mo     tau(  84) = (   0.3749597   0.3608609  -0.0000517  )
        85        S      tau(  85) = (   0.3750001   0.2165071  -0.6064556  )
        86        S      tau(  86) = (   0.4999928   0.2887170  -0.1241435  )
        87        S      tau(  87) = (   0.3733222   0.3618437   0.3607838  )
        88        S      tau(  88) = (   0.3750002   0.2165070  -0.3584711  )
        89        S      tau(  89) = (   0.4999211   0.2887076   0.1241935  )
        90        S      tau(  90) = (   0.3816191   0.3573238   0.6109900  )
        91        Mo     tau(  91) = (   0.3756235   0.6503811   0.4821918  )
        92        Mo     tau(  92) = (   0.3749998   0.5051824  -0.4825273  )
        93        Mo     tau(  93) = (   0.2499864   0.5773188  -0.0000834  )
        94        S      tau(  94) = (   0.2499998   0.4330136  -0.6064556  )
        95        S      tau(  95) = (   0.3749642   0.5051523  -0.1241979  )
        96        S      tau(  96) = (   0.2498138   0.5757592   0.3610614  )
        97        S      tau(  97) = (   0.2499999   0.4330135  -0.3584711  )
        98        S      tau(  98) = (   0.3750061   0.5052047   0.1241511  )
        99        S      tau(  99) = (   0.2502814   0.5855194   0.6099661  )
       100        Mo     tau( 100) = (   0.7499287   0.0002139   0.4807633  )
       101        Mo     tau( 101) = (   0.2499996   0.7216889  -0.4825273  )
       102        Mo     tau( 102) = (   0.1249938   0.7938245  -0.0000338  )
       103        S      tau( 103) = (   0.1249996   0.6495201  -0.6064556  )
       104        S      tau( 104) = (   0.2499613   0.7216724  -0.1241590  )
       105        S      tau( 105) = (   0.1248898   0.7937393   0.3567607  )
       106        S      tau( 106) = (   0.1249996   0.6495200  -0.3584711  )
       107        S      tau( 107) = (   0.2500082   0.7215902   0.1241792  )
       108        S      tau( 108) = (   0.1250505   0.7963098   0.6059971  )
       109        Mo     tau( 109) = (  -0.1255078   0.2157673   0.4820262  )
       110        Mo     tau( 110) = (   0.8750004   0.0721694  -0.4825273  )
       111        Mo     tau( 111) = (   0.7499955   0.1443569  -0.0000274  )
       112        S      tau( 112) = (   0.7500004   0.0000006  -0.6064556  )
       113        S      tau( 113) = (   0.8749777   0.0721989  -0.1241465  )
       114        S      tau( 114) = (   0.7500467   0.1447298   0.3568874  )
       115        S      tau( 115) = (   0.7500004   0.0000005  -0.3584711  )
       116        S      tau( 116) = (   0.8749903   0.0721117   0.1240970  )
       117        S      tau( 117) = (   0.7493677   0.1435906   0.6057073  )
       118        Mo     tau( 118) = (  -0.2508787   0.4328922   0.4823938  )
       119        Mo     tau( 119) = (   0.7500001   0.2886759  -0.4825273  )
       120        Mo     tau( 120) = (   0.6249968   0.3608571  -0.0000279  )
       121        S      tau( 121) = (   0.6250001   0.2165071  -0.6064556  )
       122        S      tau( 122) = (   0.7500208   0.2886896  -0.1240956  )
       123        S      tau( 123) = (   0.6248005   0.3612471   0.3574315  )
       124        S      tau( 124) = (   0.6250002   0.2165070  -0.3584711  )
       125        S      tau( 125) = (   0.7500493   0.2887427   0.1242427  )
       126        S      tau( 126) = (   0.6249033   0.3601959   0.6065890  )
       127        Mo     tau( 127) = (  -0.3750379   0.6494479   0.4815491  )
       128        Mo     tau( 128) = (   0.6249998   0.5051824  -0.4825273  )
       129        Mo     tau( 129) = (   0.4999893   0.5773309  -0.0001634  )
       130        S      tau( 130) = (   0.4999998   0.4330136  -0.6064556  )
       131        S      tau( 131) = (   0.6249961   0.5051217  -0.1242214  )
       132        S      tau( 132) = (   0.4998255   0.5770883   0.3576879  )
       133        S      tau( 133) = (   0.4999999   0.4330135  -0.3584711  )
       134        S      tau( 134) = (   0.6249981   0.5052504   0.1240736  )
       135        S      tau( 135) = (   0.5003122   0.5776902   0.6062470  )
       136        Mo     tau( 136) = (  -0.0002805  -0.0004824   0.4806096  )
       137        Mo     tau( 137) = (   0.4999996   0.7216889  -0.4825273  )
       138        Mo     tau( 138) = (   0.3749756   0.7938309  -0.0001159  )
       139        S      tau( 139) = (   0.3749996   0.6495201  -0.6064556  )
       140        S      tau( 140) = (   0.4999628   0.7216864  -0.1242513  )
       141        S      tau( 141) = (   0.3747357   0.7932164   0.3566619  )
       142        S      tau( 142) = (   0.3749996   0.6495200  -0.3584711  )
       143        S      tau( 143) = (   0.5000348   0.7216656   0.1240143  )
       144        S      tau( 144) = (   0.3751928   0.7949639   0.6056664  )
       145        Pd     tau( 145) = (   0.2448410   0.4348549   0.7173028  )
       146        Pd     tau( 146) = (   0.0055759   0.4353384   0.7172832  )
       147        Pt     tau( 147) = (   0.1248482   0.2131535   0.7291134  )

     --------------------------------------------
     DFT-D3 Dispersion Correction (3-body terms):
     --------------------------------------------
       Reference C6 values for interpolation: 

         atom   Coordination number   C6
         S          0.000           268.01
         S          0.995           261.99
         S          1.990           251.62
         Mo         0.000          1691.79
         Mo         1.942          1004.01
         Mo        11.056           674.22
         Pd         0.000          1217.01
         Pd         1.863           573.90
         Pd         5.710           531.75
         Pt         0.000           782.29
         Pt         1.919           692.72
         Pt         6.667           673.75

       Values used:

         atom   Coordination number  R0_AB[au]  C6      C8
         Mo        10.686            3.547    674.22  77634.20
         Mo        10.189            3.547    674.22  77634.20
         Mo        10.201            3.547    674.22  77634.20
         S          3.753            3.128    251.62  12327.25
         S          3.858            3.128    251.62  12327.25
         S          3.844            3.128    251.62  12327.25
         S          3.859            3.128    251.62  12327.25
         S          3.863            3.128    251.62  12327.25
         S          4.769            3.128    251.62  12327.25
         Mo        10.778            3.547    674.22  77634.20
         Mo        10.189            3.547    674.22  77634.20
         Mo        10.202            3.547    674.22  77634.20
         S          3.753            3.128    251.62  12327.25
         S          3.859            3.128    251.62  12327.25
         S          3.854            3.128    251.62  12327.25
         S          3.858            3.128    251.62  12327.25
         S          3.851            3.128    251.62  12327.25
         S          4.648            3.128    251.62  12327.25
         Mo        10.197            3.547    674.22  77634.20
         Mo        10.189            3.547    674.22  77634.20
         Mo        10.201            3.547    674.22  77634.20
         S          3.753            3.128    251.62  12327.25
         S          3.859            3.128    251.62  12327.25
         S          3.862            3.128    251.62  12327.25
         S          3.859            3.128    251.62  12327.25
         S          3.855            3.128    251.62  12327.25
         S          3.758            3.128    251.62  12327.25
         Mo        10.257            3.547    674.22  77634.20
         Mo        10.189            3.547    674.22  77634.20
         Mo        10.200            3.547    674.22  77634.20
         S          3.753            3.128    251.62  12327.25
         S          3.858            3.128    251.62  12327.25
         S          3.860            3.128    251.62  12327.25
         S          3.859            3.128    251.62  12327.25
         S          3.864            3.128    251.62  12327.25
         S          3.789            3.128    251.62  12327.25
         Mo        10.210            3.547    674.22  77634.20
         Mo        10.189            3.547    674.22  77634.20
         Mo        10.201            3.547    674.22  77634.20
         S          3.753            3.128    251.62  12327.25
         S          3.858            3.128    251.62  12327.25
         S          3.846            3.128    251.62  12327.25
         S          3.859            3.128    251.62  12327.25
         S          3.864            3.128    251.62  12327.25
         S          4.767            3.128    251.62  12327.25
         Mo        10.777            3.547    674.22  77634.20
         Mo        10.189            3.547    674.22  77634.20
         Mo        10.203            3.547    674.22  77634.20
         S          3.753            3.128    251.62  12327.25
         S          3.859            3.128    251.62  12327.25
         S          3.877            3.128    251.62  12327.25
         S          3.859            3.128    251.62  12327.25
         S          3.852            3.128    251.62  12327.25
         S          6.583            3.128    251.62  12327.25
         Mo        10.160            3.547    674.22  77634.20
         Mo        10.189            3.547    674.22  77634.20
         Mo        10.203            3.547    674.22  77634.20
         S          3.753            3.128    251.62  12327.25
         S          3.859            3.128    251.62  12327.25
         S          3.866            3.128    251.62  12327.25
         S          3.859            3.128    251.62  12327.25
         S          3.849            3.128    251.62  12327.25
         S          4.660            3.128    251.62  12327.25
         Mo        10.243            3.547    674.22  77634.20
         Mo        10.189            3.547    674.22  77634.20
         Mo        10.200            3.547    674.22  77634.20
         S          3.753            3.128    251.62  12327.25
         S          3.858            3.128    251.62  12327.25
         S          3.855            3.128    251.62  12327.25
         S          3.859            3.128    251.62  12327.25
         S          3.859            3.128    251.62  12327.25
         S          3.804            3.128    251.62  12327.25
         Mo        10.229            3.547    674.22  77634.20
         Mo        10.189            3.547    674.22  77634.20
         Mo        10.200            3.547    674.22  77634.20
         S          3.753            3.128    251.62  12327.25
         S          3.858            3.128    251.62  12327.25
         S          3.852            3.128    251.62  12327.25
         S          3.859            3.128    251.62  12327.25
         S          3.861            3.128    251.62  12327.25
         S          3.808            3.128    251.62  12327.25
         Mo        10.207            3.547    674.22  77634.20
         Mo        10.189            3.547    674.22  77634.20
         Mo        10.202            3.547    674.22  77634.20
         S          3.753            3.128    251.62  12327.25
         S          3.858            3.128    251.62  12327.25
         S          3.856            3.128    251.62  12327.25
         S          3.859            3.128    251.62  12327.25
         S          3.856            3.128    251.62  12327.25
         S          4.651            3.128    251.62  12327.25
         Mo        10.197            3.547    674.22  77634.20
         Mo        10.189            3.547    674.22  77634.20
         Mo        10.203            3.547    674.22  77634.20
         S          3.753            3.128    251.62  12327.25
         S          3.859            3.128    251.62  12327.25
         S          3.867            3.128    251.62  12327.25
         S          3.859            3.128    251.62  12327.25
         S          3.855            3.128    251.62  12327.25
         S          4.658            3.128    251.62  12327.25
         Mo        10.242            3.547    674.22  77634.20
         Mo        10.189            3.547    674.22  77634.20
         Mo        10.201            3.547    674.22  77634.20
         S          3.753            3.128    251.62  12327.25
         S          3.859            3.128    251.62  12327.25
         S          3.844            3.128    251.62  12327.25
         S          3.859            3.128    251.62  12327.25
         S          3.858            3.128    251.62  12327.25
         S          3.832            3.128    251.62  12327.25
         Mo        10.210            3.547    674.22  77634.20
         Mo        10.189            3.547    674.22  77634.20
         Mo        10.200            3.547    674.22  77634.20
         S          3.753            3.128    251.62  12327.25
         S          3.859            3.128    251.62  12327.25
         S          3.851            3.128    251.62  12327.25
         S          3.859            3.128    251.62  12327.25
         S          3.863            3.128    251.62  12327.25
         S          3.810            3.128    251.62  12327.25
         Mo        10.207            3.547    674.21  77634.20
         Mo        10.189            3.547    674.22  77634.20
         Mo        10.201            3.547    674.22  77634.20
         S          3.753            3.128    251.62  12327.25
         S          3.859            3.128    251.62  12327.25
         S          3.847            3.128    251.62  12327.25
         S          3.858            3.128    251.62  12327.25
         S          3.856            3.128    251.62  12327.25
         S          3.821            3.128    251.62  12327.25
         Mo        10.224            3.547    674.22  77634.20
         Mo        10.189            3.547    674.22  77634.20
         Mo        10.201            3.547    674.22  77634.20
         S          3.753            3.128    251.62  12327.25
         S          3.859            3.128    251.62  12327.25
         S          3.864            3.128    251.62  12327.25
         S          3.859            3.128    251.62  12327.25
         S          3.861            3.128    251.62  12327.25
         S          3.758            3.128    251.62  12327.25
         Mo        10.257            3.547    674.22  77634.20
         Mo        10.189            3.547    674.22  77634.20
         Mo        10.200            3.547    674.22  77634.20
         S          3.753            3.128    251.62  12327.25
         S          3.858            3.128    251.62  12327.25
         S          3.854            3.128    251.62  12327.25
         S          3.859            3.128    251.62  12327.25
         S          3.864            3.128    251.62  12327.25
         S          3.805            3.128    251.62  12327.25
         Pd         4.257            3.168    531.75  48720.73
         Pd         4.255            3.168    531.75  48720.73
         Pt         3.965            3.168    692.72  72035.24

         Molecular C6 ( Ry / a.u.^6 ) =   8063085.37


     number of k points=     4  Gaussian smearing, width (Ry)=  0.0100
                       cart. coord. in units 2pi/alat
        k(    1) = (   0.0000000   0.0000000   0.0000000), wk =   0.5000000
        k(    2) = (   0.0000000  -0.5773499   0.0000000), wk =   0.5000000
        k(    3) = (  -0.5000000  -0.2886755   0.0000000), wk =   0.5000000
        k(    4) = (  -0.5000000  -0.8660254   0.0000000), wk =   0.5000000

     Dense  grid:  5955087 G-vectors     FFT dimensions: ( 180, 180, 432)

     Smooth grid:  2572543 G-vectors     FFT dimensions: ( 135, 135, 320)

     Estimated max dynamical RAM per process >       3.08 GB

     Estimated total dynamical RAM >     110.88 GB

     Initial potential from superposition of free atoms

     starting charge    1315.9537, renormalised to    1316.0000

     negative rho (up, down):  1.046E-03 0.000E+00
     Starting wfcs are  901 randomized atomic wfcs
     Checking if some PAW data can be deallocated... 

     total cpu time spent up to now is       99.0 secs

     Self-consistent Calculation

     iteration #  1     ecut=    77.00 Ry     beta= 0.20
     Davidson diagonalization with overlap
     ethr =  1.00E-02,  avg # of iterations =  2.0

     Threshold (ethr) on eigenvalues was too large:
     Diagonalizing with lowered threshold

     Davidson diagonalization with overlap
     ethr =  2.22E-04,  avg # of iterations = 15.8

     negative rho (up, down):  3.414E-04 0.000E+00

     total cpu time spent up to now is     1045.9 secs

     total energy              =  -26543.60007006 Ry
     estimated scf accuracy    <       4.70437788 Ry

     iteration #  2     ecut=    77.00 Ry     beta= 0.20
     Davidson diagonalization with overlap
     ethr =  3.57E-04,  avg # of iterations =  2.0

     negative rho (up, down):  7.835E-05 0.000E+00

     total cpu time spent up to now is     1265.7 secs

     total energy              =  -26542.96409563 Ry
     estimated scf accuracy    <       2.34445779 Ry

     iteration #  3     ecut=    77.00 Ry     beta= 0.20
     Davidson diagonalization with overlap
     ethr =  1.78E-04,  avg # of iterations = 12.0

     negative rho (up, down):  3.823E-05 0.000E+00

     total cpu time spent up to now is     1528.4 secs

     total energy              =  -26543.09183093 Ry
     estimated scf accuracy    <       0.92464033 Ry

     iteration #  4     ecut=    77.00 Ry     beta= 0.20
     Davidson diagonalization with overlap
     ethr =  7.03E-05,  avg # of iterations = 12.5

     negative rho (up, down):  3.810E-05 0.000E+00

     total cpu time spent up to now is     1954.1 secs

     total energy              =  -26543.43154651 Ry
     estimated scf accuracy    <       0.31151016 Ry

     iteration #  5     ecut=    77.00 Ry     beta= 0.20
     Davidson diagonalization with overlap
     ethr =  2.37E-05,  avg # of iterations = 10.5

     negative rho (up, down):  6.650E-05 0.000E+00

     total cpu time spent up to now is     2403.1 secs

     total energy              =  -26543.68845339 Ry
     estimated scf accuracy    <       0.11849204 Ry

     iteration #  6     ecut=    77.00 Ry     beta= 0.20
     Davidson diagonalization with overlap
     c_bands:  2 eigenvalues not converged
     c_bands:  5 eigenvalues not converged
     ethr =  9.00E-06,  avg # of iterations = 40.2

     negative rho (up, down):  1.400E-04 0.000E+00

     total cpu time spent up to now is     3175.4 secs

     total energy              =  -26543.73891933 Ry
     estimated scf accuracy    <       0.08601168 Ry

     iteration #  7     ecut=    77.00 Ry     beta= 0.20
     Davidson diagonalization with overlap
     c_bands:  1 eigenvalues not converged
     ethr =  6.54E-06,  avg # of iterations =  8.2

     negative rho (up, down):  8.804E-04 0.000E+00

     total cpu time spent up to now is     3409.1 secs

     total energy              =  -26543.73904413 Ry
     estimated scf accuracy    <       0.04721743 Ry

     iteration #  8     ecut=    77.00 Ry     beta= 0.20
     Davidson diagonalization with overlap
     c_bands:  4 eigenvalues not converged
     c_bands:  1 eigenvalues not converged
     ethr =  3.59E-06,  avg # of iterations = 18.0

     negative rho (up, down):  5.835E-04 0.000E+00

     total cpu time spent up to now is     3924.8 secs

     total energy              =  -26543.73870681 Ry
     estimated scf accuracy    <       0.09395944 Ry

     iteration #  9     ecut=    77.00 Ry     beta= 0.20
     Davidson diagonalization with overlap
     ethr =  3.59E-06,  avg # of iterations = 10.2

     negative rho (up, down):  5.419E-04 0.000E+00

     total cpu time spent up to now is     4215.7 secs

     total energy              =  -26543.74986597 Ry
     estimated scf accuracy    <       0.00427626 Ry

     iteration # 10     ecut=    77.00 Ry     beta= 0.20
     Davidson diagonalization with overlap
     c_bands:  3 eigenvalues not converged
     ethr =  3.25E-07,  avg # of iterations = 39.0

     negative rho (up, down):  5.935E-04 0.000E+00

     total cpu time spent up to now is     5569.1 secs

     total energy              =  -26543.76841607 Ry
     estimated scf accuracy    <       0.02047770 Ry

     iteration # 11     ecut=    77.00 Ry     beta= 0.20
     Davidson diagonalization with overlap
     ethr =  3.25E-07,  avg # of iterations =  1.2

     negative rho (up, down):  7.782E-04 0.000E+00

     total cpu time spent up to now is     5774.0 secs

     total energy              =  -26543.76180067 Ry
     estimated scf accuracy    <       0.01350944 Ry

     iteration # 12     ecut=    77.00 Ry     beta= 0.20
     Davidson diagonalization with overlap
     ethr =  3.25E-07,  avg # of iterations =  5.2

     negative rho (up, down):  8.198E-04 0.000E+00

     total cpu time spent up to now is     6138.8 secs

     total energy              =  -26543.76477941 Ry
     estimated scf accuracy    <       0.00063141 Ry

     iteration # 13     ecut=    77.00 Ry     beta= 0.20
     Davidson diagonalization with overlap
     c_bands:  1 eigenvalues not converged
     c_bands:  2 eigenvalues not converged
     c_bands:  3 eigenvalues not converged
     ethr =  4.80E-08,  avg # of iterations = 24.0

     negative rho (up, down):  8.443E-04 0.000E+00

     total cpu time spent up to now is     6800.8 secs

     total energy              =  -26543.76555020 Ry
     estimated scf accuracy    <       0.00017587 Ry

     iteration # 14     ecut=    77.00 Ry     beta= 0.20
     Davidson diagonalization with overlap
     ethr =  1.34E-08,  avg # of iterations = 15.5

     negative rho (up, down):  8.974E-04 0.000E+00

     total cpu time spent up to now is     7332.5 secs

     total energy              =  -26543.76573836 Ry
     estimated scf accuracy    <       0.00015931 Ry

     iteration # 15     ecut=    77.00 Ry     beta= 0.20
     Davidson diagonalization with overlap
     ethr =  1.21E-08,  avg # of iterations =  2.5

     negative rho (up, down):  9.373E-04 0.000E+00

     total cpu time spent up to now is     7552.8 secs

     total energy              =  -26543.76573836 Ry
     estimated scf accuracy    <       0.00005181 Ry

     iteration # 16     ecut=    77.00 Ry     beta= 0.20
     Davidson diagonalization with overlap
     c_bands:  2 eigenvalues not converged
     c_bands:  1 eigenvalues not converged
     ethr =  3.94E-09,  avg # of iterations = 15.8

     negative rho (up, down):  9.475E-04 0.000E+00

     total cpu time spent up to now is     7946.6 secs

     total energy              =  -26543.76575888 Ry
     estimated scf accuracy    <       0.00004203 Ry

     iteration # 17     ecut=    77.00 Ry     beta= 0.20
     Davidson diagonalization with overlap
     ethr =  3.19E-09,  avg # of iterations =  2.0

     negative rho (up, down):  9.520E-04 0.000E+00

     total cpu time spent up to now is     8167.0 secs

     total energy              =  -26543.76574861 Ry
     estimated scf accuracy    <       0.00003176 Ry

     iteration # 18     ecut=    77.00 Ry     beta= 0.20
     Davidson diagonalization with overlap
     c_bands:  2 eigenvalues not converged
     ethr =  2.41E-09,  avg # of iterations = 10.0

     negative rho (up, down):  9.576E-04 0.000E+00

     total cpu time spent up to now is     8415.2 secs

     total energy              =  -26543.76574544 Ry
     estimated scf accuracy    <       0.00001444 Ry

     iteration # 19     ecut=    77.00 Ry     beta= 0.20
     Davidson diagonalization with overlap
     ethr =  1.10E-09,  avg # of iterations = 14.5

     negative rho (up, down):  9.561E-04 0.000E+00

     total cpu time spent up to now is     8839.4 secs

     total energy              =  -26543.76575853 Ry
     estimated scf accuracy    <       0.00000210 Ry

     iteration # 20     ecut=    77.00 Ry     beta= 0.20
     Davidson diagonalization with overlap
     c_bands:  3 eigenvalues not converged
     ethr =  1.59E-10,  avg # of iterations = 22.2

     negative rho (up, down):  9.564E-04 0.000E+00

     total cpu time spent up to now is     9513.0 secs

     total energy              =  -26543.76576176 Ry
     estimated scf accuracy    <       0.00000120 Ry

     iteration # 21     ecut=    77.00 Ry     beta= 0.20
     Davidson diagonalization with overlap
     c_bands:  1 eigenvalues not converged
     ethr =  9.14E-11,  avg # of iterations =  6.5

     negative rho (up, down):  9.669E-04 0.000E+00

     total cpu time spent up to now is     9740.3 secs

     End of self-consistent calculation

          k = 0.0000 0.0000 0.0000 (321495 PWs)   bands (ev):

  -102.3659 -88.8678 -88.8630 -70.7146 -70.7028 -70.6892 -70.6717 -70.6645
   -70.6451 -70.6369 -66.7228 -66.7017 -66.7017 -66.7017 -66.7017 -66.7016
   -66.7016 -66.6805 -66.6805 -66.6805 -66.6805 -66.6805 -66.6805 -66.6805
   -66.6805 -66.6804 -66.6567 -66.6360 -66.6360 -66.6358 -66.6356 -66.6353
   -66.6352 -66.6150 -66.6150 -66.6148 -66.6147 -66.6146 -66.6143 -66.6142
   -66.6140 -66.6136 -66.5785 -66.5678 -66.5611 -66.5596 -66.5569 -66.5533
   -66.5379 -66.5375 -66.5357 -66.5299 -66.5291 -66.5222 -66.5191 -66.5141
   -66.5114 -66.4788 -56.7092 -56.5311 -56.5198 -54.7646 -54.7377 -54.6449
   -54.6382 -54.5827 -54.5621 -41.0491 -41.0491 -41.0491 -40.9820 -40.9819
   -40.9819 -40.9743 -40.9743 -40.9743 -40.9743 -40.9743 -40.9743 -40.9074
   -40.9073 -40.9072 -40.9071 -40.9070 -40.9070 -40.8955 -40.8953 -40.8899
   -40.8829 -40.8487 -40.8487 -40.8487 -40.8487 -40.8487 -40.8487 -40.8415
   -40.8415 -40.8415 -40.8415 -40.8415 -40.8415 -40.8247 -40.8246 -40.8174
   -40.8139 -40.8139 -40.8139 -40.8139 -40.8139 -40.8139 -40.8131 -40.8127
   -40.8099 -40.8094 -40.7999 -40.7998 -40.7998 -40.7998 -40.7998 -40.7998
   -40.7998 -40.7998 -40.7998 -40.7820 -40.7819 -40.7819 -40.7816 -40.7816
   -40.7815 -40.7764 -40.7763 -40.7761 -40.7760 -40.7757 -40.7756 -40.7629
   -40.7472 -40.7471 -40.7471 -40.7469 -40.7468 -40.7467 -40.7361 -40.7361
   -40.7361 -40.7361 -40.7350 -40.7348 -40.7347 -40.7346 -40.7345 -40.7342
   -40.7342 -40.7340 -40.7336 -40.7309 -40.7118 -40.7041 -40.7015 -40.7005
   -40.6952 -40.6949 -40.6932 -40.6893 -40.6893 -40.6893 -40.6893 -40.6893
   -40.6893 -40.6881 -40.6854 -40.6810 -40.6765 -40.6719 -40.6693 -40.6692
   -40.6692 -40.6668 -40.6641 -40.6627 -40.6623 -40.6609 -40.6601 -40.6565
   -40.6526 -40.6496 -40.6485 -40.6481 -40.6462 -40.6434 -40.6420 -40.6420
   -40.6227 -40.6226 -40.6226 -40.6223 -40.6223 -40.6222 -40.5801 -40.5777
   -40.5771 -40.5752 -40.5752 -40.5361 -40.5334 -40.5305 -40.5251 -40.5236
   -40.5208 -40.4783 -40.4782 -20.3476 -20.1445 -19.9892 -19.7689 -19.3419
   -19.3028 -19.2903 -19.2901 -19.2874 -19.2824 -19.2706 -19.2494 -19.2039
   -19.2015 -19.1737 -19.1414 -19.1230 -19.1146 -19.0945 -19.0914 -19.0480
   -18.9202 -18.8496 -18.7509 -18.5651 -18.5538 -18.5534 -18.5235 -18.5225
   -18.4916 -18.4781 -18.4293 -18.4136 -18.4010 -18.4000 -18.3818 -18.3483
   -18.3365 -18.2600 -18.2541 -18.2444 -18.2435 -18.2316 -18.1967 -18.1824
   -18.1823 -18.1818 -18.1818 -18.1818 -18.1817 -18.1420 -18.1419 -18.1418
   -18.1357 -18.1209 -18.1061 -18.1036 -18.0980 -18.0966 -18.0944 -18.0940
   -18.0698 -18.0668 -18.0665 -18.0358 -18.0343 -18.0064 -18.0060 -18.0005
   -17.9897 -17.9848 -17.9847 -17.9791 -17.9641 -17.9622 -17.9598 -17.9555
   -17.9536 -17.9333 -17.9251 -17.9238 -17.9100 -17.9006 -17.8907 -17.8894
   -17.8886 -17.8865 -17.8619 -17.8571 -17.8548 -17.8339 -17.8165 -17.8115
   -17.8107 -17.8008 -17.7994 -12.3551 -12.1430 -12.0852 -11.9200 -11.8303
   -11.7964 -11.7963 -11.7918 -11.7138 -11.7128 -11.7064 -11.5078 -11.4629
   -11.4021 -11.3494 -11.2698 -11.2516 -11.2494 -11.2473 -11.2323 -11.2192
   -11.2086 -11.1738 -11.1717 -11.1680 -11.1666 -11.1636 -11.1569 -11.1488
   -11.0912 -11.0833 -11.0436 -11.0335 -11.0283 -11.0275 -11.0134 -11.0119
   -10.9956 -10.9953 -10.9646 -10.9643 -10.9564 -10.9328 -10.9188 -10.9125
   -10.9103 -10.8824 -10.8795 -10.8745 -10.8730 -10.8726 -10.8716 -10.8693
   -10.8621 -10.8480 -10.8444 -10.8438 -10.8414 -10.8312 -10.8278 -10.8253
   -10.8238 -10.8205 -10.8163 -10.8096 -10.7873 -10.7676 -10.7481 -10.7467
   -10.7147 -10.6945 -10.6838 -10.6656 -10.6500 -10.6499 -10.5796 -10.3924
   -10.3379 -10.1426 -10.1160 -10.0920 -10.0908 -10.0820 -10.0676  -9.9470
    -9.9196  -9.9173  -9.9140  -9.8296  -9.8235  -9.8232  -9.8099  -9.8080
    -9.8000  -9.7810  -9.7532  -9.7493  -9.7439  -9.7397  -9.7308  -9.6995
    -9.6967  -9.6817  -9.6774  -9.6647  -9.6602  -9.6599  -9.6592  -9.6561
    -9.6373  -9.6240  -9.6178  -9.6175  -9.6153  -9.6138  -9.6128  -9.6119
    -9.5890  -9.5878  -9.5639  -9.5258  -9.5082  -9.4884  -9.4868  -9.4781
    -9.4768  -9.4449  -9.4395  -9.4039  -9.4019  -9.3874  -9.3821  -9.3728
    -9.3536  -9.3325  -9.3219  -9.3165  -9.3014  -9.2891  -9.2769  -9.2530
    -9.2467  -9.2439  -9.2258  -9.1934  -9.1929  -9.1524  -9.1286  -9.0970
    -9.0694  -9.0669  -9.0618  -9.0608  -9.0606  -9.0594  -9.0553  -9.0150
    -9.0046  -8.9838  -8.9832  -8.9782  -8.9383  -8.9239  -8.9096  -8.9085
    -8.8663  -8.8651  -8.8505  -8.8455  -8.8401  -8.8378  -8.8321  -8.8308
    -8.8152  -8.8105  -8.8090  -8.7872  -8.7848  -8.7767  -8.7752  -8.7634
    -8.7569  -8.7468  -8.7136  -8.6203  -8.5854  -8.4718  -8.4717  -8.4211
    -8.4046  -8.3993  -8.3993  -8.3958  -8.3651  -8.3597  -8.3597  -8.3596
    -8.3594  -8.3594  -8.3571  -8.3299  -8.3194  -8.2901  -8.2844  -8.2835
    -8.2823  -8.2821  -8.2807  -8.2416  -8.2001  -8.1822  -8.1598  -8.0047
    -8.0020  -7.9743  -7.9700  -7.9692  -7.8923  -7.7625  -7.7492  -7.7312
    -7.7109  -7.7081  -7.6363  -7.6244  -7.6244  -7.6242  -7.6242  -7.6238
    -7.6236  -7.5850  -7.5786  -7.5785  -7.5781  -7.5777  -7.5776  -7.5773
    -7.5678  -7.5633  -7.5593  -7.5538  -7.5480  -7.5469  -7.5428  -7.5401
    -7.5337  -7.5305  -7.5181  -7.5112  -7.5025  -7.5022  -7.5013  -7.4986
    -7.4953  -7.4864  -7.4796  -7.4604  -7.4602  -7.4554  -7.4534  -7.4470
    -7.3744  -7.3550  -7.3520  -7.3429  -7.3429  -7.3171  -7.3013  -7.2832
    -7.2755  -7.2697  -7.2596  -7.2555  -7.2544  -7.1751  -7.1203  -7.1055
    -7.0595  -7.0464  -7.0186  -7.0101  -6.9682  -6.9555  -6.9263  -6.8804
    -6.8380  -6.8379  -6.8369  -6.7622  -6.7366  -6.7159  -6.7093  -6.7078
    -6.7015  -6.6895  -6.6786  -6.6723  -6.6691  -6.6553  -6.6273  -6.6127
    -6.5932  -6.5835  -6.5793  -6.5727  -6.5587  -6.5569  -6.5446  -6.5266
    -6.5245  -6.5199  -6.5101  -6.5024  -6.4960  -6.4670  -6.4664  -6.4597
    -6.4356  -6.4333  -6.4235  -6.3912  -6.3909  -6.3909  -6.3909  -6.3909
    -6.3909  -6.3887  -6.3782  -6.3739  -6.3212  -6.3168  -6.3141  -6.3135
    -6.3119  -6.3113  -6.3084  -6.2986  -6.2824  -6.2597  -6.2324  -6.1072
    -6.0681  -6.0131  -5.8622  -5.7015  -5.5384  -5.5273  -5.4723  -5.2778
    -5.2703  -5.1635  -4.2408  -3.9600  -3.8944  -3.8745  -3.8732  -3.8710
    -3.8547  -3.8484  -3.8475  -3.8427  -3.8410  -3.8378  -3.8211  -3.7712
    -3.7024  -3.6419  -3.6410  -3.6333  -3.6246  -3.6243  -3.6218  -3.6068
    -3.6042  -3.6018  -3.5315  -3.5315  -3.5312  -3.5152  -3.5134  -3.5133
    -3.5123  -3.5119  -3.5113  -3.4838  -3.4642  -3.4639  -3.4637  -3.4580
    -3.4365  -3.4283  -3.4198  -3.4183  -3.4115  -3.4081  -3.4077  -3.4038
    -3.4014  -3.3978  -3.3958  -3.3760  -3.3756  -3.3610  -3.3527  -3.3383
    -3.3227  -3.3064  -3.2960  -3.2862  -3.2682  -3.2664  -3.2374  -3.2288
    -3.2264  -3.0793  -3.0664  -3.0657  -3.0652  -3.0601  -3.0601  -3.0218
    -2.9972  -2.9961  -2.9929  -2.9928  -2.9926  -2.9925  -2.9924  -2.9923
    -2.9789  -2.9776  -2.9729  -2.9723  -2.9652  -2.9533  -2.9380  -2.9326
    -2.9285  -2.9284  -2.9241  -2.9213  -2.9204  -2.9179  -2.9110  -2.9051
    -2.8942  -2.8934  -2.8636  -2.8593  -2.8550  -2.8541  -2.8509  -2.8321
    -2.8068  -2.8060  -2.7954  -2.7854  -2.7836  -2.7815  -2.7802  -2.7794
    -2.7778  -2.7378  -2.7335  -2.7147  -2.6975  -2.6751  -2.6680  -2.6611
    -2.6452  -2.6421  -2.5933  -2.5866  -2.5740  -2.5700  -2.5685  -2.5548
    -2.5477  -2.5203  -2.5128  -2.4928  -2.4853  -2.4833

          k = 0.0000-0.5773 0.0000 (321564 PWs)   bands (ev):

  -102.3659 -88.8678 -88.8630 -70.7146 -70.7028 -70.6892 -70.6717 -70.6645
   -70.6451 -70.6369 -66.7166 -66.7166 -66.7060 -66.7060 -66.6911 -66.6911
   -66.6911 -66.6911 -66.6867 -66.6867 -66.6805 -66.6805 -66.6805 -66.6804
   -66.6761 -66.6761 -66.6509 -66.6502 -66.6400 -66.6400 -66.6253 -66.6252
   -66.6249 -66.6249 -66.6210 -66.6203 -66.6150 -66.6149 -66.6144 -66.6137
   -66.6101 -66.6100 -66.5754 -66.5725 -66.5622 -66.5585 -66.5570 -66.5511
   -66.5379 -66.5374 -66.5369 -66.5291 -66.5283 -66.5225 -66.5201 -66.5146
   -66.5107 -66.4788 -56.7092 -56.5311 -56.5198 -54.7646 -54.7377 -54.6449
   -54.6382 -54.5827 -54.5621 -41.0177 -41.0177 -41.0177 -41.0177 -40.9910
   -40.9910 -40.9791 -40.9791 -40.9509 -40.9509 -40.9503 -40.9500 -40.9287
   -40.9287 -40.9287 -40.9287 -40.9242 -40.9237 -40.9120 -40.9120 -40.8709
   -40.8709 -40.8708 -40.8702 -40.8616 -40.8616 -40.8616 -40.8616 -40.8607
   -40.8607 -40.8560 -40.8514 -40.8501 -40.8501 -40.8416 -40.8382 -40.8207
   -40.8207 -40.8207 -40.8207 -40.8188 -40.8120 -40.8120 -40.8077 -40.8056
   -40.8050 -40.7998 -40.7998 -40.7998 -40.7998 -40.7997 -40.7997 -40.7938
   -40.7938 -40.7912 -40.7912 -40.7846 -40.7846 -40.7713 -40.7697 -40.7690
   -40.7690 -40.7690 -40.7690 -40.7685 -40.7662 -40.7580 -40.7555 -40.7555
   -40.7551 -40.7550 -40.7469 -40.7463 -40.7366 -40.7349 -40.7347 -40.7345
   -40.7345 -40.7345 -40.7345 -40.7343 -40.7337 -40.7328 -40.7328 -40.7326
   -40.7258 -40.7258 -40.7230 -40.7224 -40.7224 -40.7038 -40.7032 -40.7032
   -40.7026 -40.7024 -40.7020 -40.7015 -40.6990 -40.6986 -40.6936 -40.6863
   -40.6863 -40.6860 -40.6770 -40.6766 -40.6711 -40.6693 -40.6677 -40.6677
   -40.6676 -40.6676 -40.6630 -40.6566 -40.6559 -40.6559 -40.6559 -40.6553
   -40.6542 -40.6481 -40.6453 -40.6441 -40.6408 -40.6368 -40.6360 -40.6195
   -40.6195 -40.6142 -40.6133 -40.6130 -40.6079 -40.5894 -40.5888 -40.5808
   -40.5750 -40.5719 -40.5712 -40.5675 -40.5516 -40.5480 -40.5427 -40.5233
   -40.5162 -40.5010 -40.4863 -20.3034 -19.9212 -19.9102 -19.8250 -19.7592
   -19.7029 -19.5620 -19.4893 -19.4753 -19.4155 -19.3365 -19.2925 -19.1869
   -18.8835 -18.8148 -18.8012 -18.7782 -18.7755 -18.7726 -18.7609 -18.7512
   -18.7197 -18.6840 -18.6560 -18.6472 -18.6394 -18.6269 -18.6204 -18.6040
   -18.5839 -18.5465 -18.5268 -18.5225 -18.4980 -18.4827 -18.4535 -18.4492
   -18.4318 -18.4173 -18.3626 -18.3524 -18.3295 -18.3100 -18.2929 -18.2705
   -18.2634 -18.2289 -18.2196 -18.2003 -18.1780 -18.1700 -18.1626 -18.1623
   -18.1623 -18.1621 -18.1381 -18.1300 -18.1200 -18.0943 -18.0936 -18.0872
   -18.0805 -18.0800 -18.0750 -18.0606 -18.0396 -18.0291 -18.0259 -18.0123
   -18.0022 -17.9836 -17.9826 -17.9813 -17.9727 -17.9594 -17.9487 -17.9273
   -17.9209 -17.9079 -17.8989 -17.8989 -17.8952 -17.8609 -17.8578 -17.8394
   -17.8394 -17.8362 -17.8260 -17.8228 -17.8203 -17.8112 -17.7949 -17.7790
   -17.7789 -17.7199 -17.7169 -12.2945 -12.0731 -12.0059 -11.7266 -11.6925
   -11.6285 -11.5126 -11.5116 -11.5074 -11.5066 -11.5007 -11.4818 -11.4644
   -11.4576 -11.4267 -11.4179 -11.4112 -11.4048 -11.3910 -11.3577 -11.3516
   -11.3368 -11.3209 -11.3082 -11.3072 -11.2919 -11.2919 -11.2789 -11.2466
   -11.2462 -11.2314 -11.1986 -11.1917 -11.1882 -11.1751 -11.1362 -11.0855
   -11.0459 -11.0399 -11.0230 -11.0109 -10.9852 -10.9771 -10.9748 -10.9468
   -10.9455 -10.9406 -10.9300 -10.8972 -10.8943 -10.8768 -10.8700 -10.8681
   -10.8651 -10.8649 -10.8639 -10.8479 -10.8459 -10.8352 -10.8169 -10.8023
   -10.7977 -10.7875 -10.7858 -10.7561 -10.6535 -10.6257 -10.5568 -10.5295
   -10.5055 -10.4740 -10.4286 -10.3796 -10.3325 -10.3314 -10.3068 -10.1786
   -10.1649 -10.1620 -10.1559 -10.1344 -10.1218 -10.0981 -10.0700 -10.0504
   -10.0156 -10.0020  -9.9840  -9.9719  -9.9672  -9.9632  -9.9591  -9.9349
    -9.9316  -9.9269  -9.9183  -9.9070  -9.8961  -9.8457  -9.8299  -9.8110
    -9.7944  -9.7895  -9.7713  -9.7634  -9.7501  -9.7469  -9.7395  -9.7323
    -9.7305  -9.6946  -9.6941  -9.6905  -9.6632  -9.6571  -9.6379  -9.6245
    -9.5872  -9.5843  -9.5723  -9.5641  -9.5616  -9.5203  -9.5096  -9.5052
    -9.5046  -9.4571  -9.4345  -9.4045  -9.3646  -9.3239  -9.2890  -9.2460
    -9.2433  -9.2214  -9.2118  -9.1927  -9.1877  -9.1757  -9.1622  -9.1522
    -9.1422  -9.1262  -9.1133  -9.0998  -9.0839  -9.0782  -9.0641  -9.0515
    -9.0468  -9.0393  -9.0313  -9.0112  -9.0014  -8.9980  -8.9832  -8.9827
    -8.9744  -8.9687  -8.9661  -8.9563  -8.9442  -8.9132  -8.9077  -8.8950
    -8.8937  -8.8911  -8.8877  -8.8834  -8.8750  -8.8743  -8.8733  -8.8595
    -8.8522  -8.8388  -8.8233  -8.8181  -8.8003  -8.7967  -8.7921  -8.7736
    -8.7558  -8.7016  -8.6073  -8.5866  -8.5470  -8.5464  -8.5205  -8.4843
    -8.4662  -8.4650  -8.4396  -8.3950  -8.3378  -8.2711  -8.2326  -8.2282
    -8.2281  -8.1913  -8.1715  -8.1565  -8.1550  -8.1383  -8.0714  -8.0688
    -7.9946  -7.9737  -7.9644  -7.9559  -7.9038  -7.9002  -7.8949  -7.8937
    -7.8865  -7.8815  -7.8815  -7.8807  -7.8794  -7.8691  -7.8609  -7.8367
    -7.8355  -7.8350  -7.8316  -7.8173  -7.8114  -7.8108  -7.8029  -7.7932
    -7.7820  -7.7775  -7.7733  -7.7707  -7.7611  -7.7552  -7.7549  -7.7532
    -7.7286  -7.7205  -7.7197  -7.7074  -7.7009  -7.6963  -7.6959  -7.6922
    -7.6831  -7.6659  -7.6593  -7.6485  -7.6270  -7.6228  -7.6080  -7.5871
    -7.5698  -7.5690  -7.5514  -7.5259  -7.5132  -7.4739  -7.4175  -7.3890
    -7.3631  -7.3422  -7.2861  -7.2802  -7.2615  -7.2600  -7.2416  -7.2106
    -7.1643  -7.1548  -7.1497  -7.0954  -7.0900  -7.0888  -7.0653  -7.0462
    -7.0456  -7.0432  -7.0239  -7.0037  -7.0013  -6.9694  -6.9402  -6.9369
    -6.9309  -6.9045  -6.8713  -6.8676  -6.8390  -6.8200  -6.7882  -6.7657
    -6.7478  -6.7246  -6.7083  -6.7025  -6.6933  -6.6932  -6.6931  -6.6927
    -6.6872  -6.6457  -6.6281  -6.6276  -6.6237  -6.6232  -6.6088  -6.5903
    -6.5867  -6.5684  -6.5324  -6.4880  -6.4879  -6.4754  -6.4195  -6.3772
    -6.3616  -6.3614  -6.3610  -6.3609  -6.3234  -6.2986  -6.2939  -6.2832
    -6.2777  -6.2772  -6.2767  -6.2674  -6.2524  -6.2415  -6.1912  -6.1271
    -6.0927  -6.0657  -6.0187  -6.0130  -6.0128  -5.9378  -5.9350  -5.8939
    -5.8339  -5.7407  -5.7192  -5.6166  -5.6045  -5.5909  -5.4993  -5.4350
    -5.3032  -5.2556  -4.2607  -4.0787  -4.0579  -4.0521  -4.0266  -3.9287
    -3.9286  -3.9145  -3.8969  -3.8903  -3.8640  -3.8630  -3.8316  -3.8109
    -3.8000  -3.7977  -3.7591  -3.7165  -3.6562  -3.6409  -3.6373  -3.6331
    -3.6283  -3.6248  -3.6139  -3.6135  -3.5952  -3.5851  -3.5375  -3.5368
    -3.5343  -3.5322  -3.5209  -3.5119  -3.5107  -3.5080  -3.4956  -3.4899
    -3.4507  -3.4430  -3.4221  -3.4162  -3.4110  -3.3979  -3.3814  -3.3810
    -3.3784  -3.3523  -3.3491  -3.3464  -3.3408  -3.3311  -3.3123  -3.3050
    -3.3048  -3.3043  -3.3032  -3.2772  -3.2752  -3.2669  -3.2582  -3.2469
    -3.2428  -3.2386  -3.2317  -3.2268  -3.2109  -3.2100  -3.2041  -3.1884
    -3.1577  -3.1504  -3.1467  -3.1212  -3.1019  -3.0995  -3.0781  -3.0671
    -3.0620  -3.0603  -3.0422  -3.0417  -3.0411  -3.0410  -3.0105  -2.9987
    -2.9927  -2.9912  -2.9830  -2.9733  -2.9577  -2.9571  -2.9535  -2.9483
    -2.9468  -2.9261  -2.9240  -2.9202  -2.9143  -2.9031  -2.8934  -2.8793
    -2.8715  -2.8614  -2.8423  -2.8333  -2.8322  -2.8164  -2.7682  -2.7672
    -2.7396  -2.7386  -2.7081  -2.6961  -2.6831  -2.6789  -2.6695  -2.6625
    -2.6251  -2.6070  -2.5945  -2.5528  -2.5457  -2.5280  -2.5198  -2.5192
    -2.4935  -2.4174  -2.3891  -2.3443  -2.3394  -2.3254

          k =-0.5000-0.2887 0.0000 (321564 PWs)   bands (ev):

  -102.3659 -88.8678 -88.8630 -70.7146 -70.7028 -70.6892 -70.6717 -70.6645
   -70.6451 -70.6369 -66.7166 -66.7166 -66.7060 -66.7060 -66.6911 -66.6911
   -66.6911 -66.6911 -66.6867 -66.6867 -66.6805 -66.6805 -66.6805 -66.6805
   -66.6761 -66.6761 -66.6507 -66.6505 -66.6401 -66.6399 -66.6252 -66.6251
   -66.6250 -66.6250 -66.6207 -66.6206 -66.6146 -66.6146 -66.6144 -66.6143
   -66.6101 -66.6100 -66.5763 -66.5705 -66.5643 -66.5588 -66.5552 -66.5516
   -66.5401 -66.5358 -66.5351 -66.5311 -66.5267 -66.5242 -66.5193 -66.5144
   -66.5108 -66.4788 -56.7092 -56.5311 -56.5198 -54.7646 -54.7377 -54.6449
   -54.6382 -54.5827 -54.5621 -41.0177 -41.0177 -41.0177 -41.0177 -40.9910
   -40.9910 -40.9791 -40.9791 -40.9507 -40.9506 -40.9505 -40.9504 -40.9287
   -40.9287 -40.9287 -40.9287 -40.9240 -40.9238 -40.9120 -40.9119 -40.8751
   -40.8708 -40.8708 -40.8646 -40.8617 -40.8617 -40.8616 -40.8616 -40.8608
   -40.8607 -40.8564 -40.8503 -40.8501 -40.8501 -40.8430 -40.8375 -40.8207
   -40.8207 -40.8207 -40.8207 -40.8198 -40.8120 -40.8120 -40.8088 -40.8055
   -40.8052 -40.7998 -40.7998 -40.7998 -40.7998 -40.7997 -40.7997 -40.7939
   -40.7938 -40.7912 -40.7912 -40.7847 -40.7846 -40.7728 -40.7693 -40.7691
   -40.7690 -40.7690 -40.7690 -40.7690 -40.7651 -40.7566 -40.7553 -40.7553
   -40.7552 -40.7552 -40.7467 -40.7465 -40.7428 -40.7346 -40.7345 -40.7345
   -40.7345 -40.7345 -40.7345 -40.7343 -40.7341 -40.7329 -40.7328 -40.7258
   -40.7257 -40.7254 -40.7224 -40.7224 -40.7211 -40.7060 -40.7056 -40.7032
   -40.7032 -40.7022 -40.7021 -40.7021 -40.7021 -40.6956 -40.6939 -40.6863
   -40.6863 -40.6808 -40.6802 -40.6756 -40.6698 -40.6677 -40.6677 -40.6676
   -40.6675 -40.6667 -40.6639 -40.6603 -40.6559 -40.6559 -40.6557 -40.6555
   -40.6536 -40.6481 -40.6478 -40.6442 -40.6364 -40.6364 -40.6355 -40.6199
   -40.6196 -40.6195 -40.6145 -40.6103 -40.6048 -40.5892 -40.5890 -40.5800
   -40.5790 -40.5732 -40.5681 -40.5671 -40.5516 -40.5485 -40.5417 -40.5274
   -40.5140 -40.5001 -40.4864 -20.3046 -19.9199 -19.9104 -19.8184 -19.7595
   -19.6975 -19.5657 -19.4949 -19.4754 -19.4337 -19.3357 -19.3004 -19.1659
   -18.8537 -18.8250 -18.7934 -18.7882 -18.7750 -18.7727 -18.7597 -18.7572
   -18.7282 -18.6784 -18.6515 -18.6477 -18.6419 -18.6314 -18.6161 -18.6024
   -18.5850 -18.5493 -18.5270 -18.5223 -18.4984 -18.4768 -18.4601 -18.4553
   -18.4331 -18.4159 -18.3821 -18.3531 -18.3100 -18.3051 -18.2982 -18.2762
   -18.2626 -18.2357 -18.2088 -18.1973 -18.1868 -18.1692 -18.1624 -18.1624
   -18.1623 -18.1623 -18.1400 -18.1288 -18.1187 -18.0940 -18.0918 -18.0859
   -18.0817 -18.0790 -18.0735 -18.0607 -18.0411 -18.0311 -18.0260 -18.0123
   -18.0027 -17.9837 -17.9809 -17.9789 -17.9718 -17.9591 -17.9498 -17.9240
   -17.9194 -17.9075 -17.8989 -17.8989 -17.8951 -17.8620 -17.8547 -17.8403
   -17.8391 -17.8378 -17.8240 -17.8228 -17.8166 -17.8123 -17.8029 -17.7790
   -17.7785 -17.7206 -17.7164 -12.3114 -12.0439 -12.0084 -11.7201 -11.7020
   -11.6196 -11.5284 -11.5109 -11.5077 -11.5071 -11.4964 -11.4862 -11.4808
   -11.4507 -11.4215 -11.4141 -11.4098 -11.4015 -11.3855 -11.3581 -11.3479
   -11.3447 -11.3233 -11.3131 -11.2919 -11.2919 -11.2902 -11.2605 -11.2466
   -11.2462 -11.2347 -11.2002 -11.1904 -11.1874 -11.1802 -11.1533 -11.0951
   -11.0593 -11.0331 -11.0126 -11.0050 -10.9973 -10.9803 -10.9648 -10.9504
   -10.9474 -10.9311 -10.9270 -10.8929 -10.8869 -10.8799 -10.8775 -10.8694
   -10.8652 -10.8649 -10.8637 -10.8541 -10.8441 -10.8423 -10.8105 -10.8023
   -10.7962 -10.7873 -10.7828 -10.7464 -10.6426 -10.6302 -10.5855 -10.5294
   -10.5207 -10.4983 -10.4267 -10.3852 -10.3348 -10.3104 -10.2794 -10.2373
   -10.1645 -10.1529 -10.1485 -10.1456 -10.1122 -10.0845 -10.0604 -10.0427
   -10.0254  -9.9866  -9.9794  -9.9725  -9.9689  -9.9638  -9.9610  -9.9483
    -9.9353  -9.9295  -9.9186  -9.9151  -9.8842  -9.8397  -9.8359  -9.8190
    -9.7893  -9.7875  -9.7688  -9.7650  -9.7486  -9.7463  -9.7390  -9.7349
    -9.7257  -9.7013  -9.6967  -9.6829  -9.6589  -9.6533  -9.6406  -9.6301
    -9.5949  -9.5879  -9.5705  -9.5641  -9.5607  -9.5295  -9.5107  -9.5052
    -9.4937  -9.4421  -9.4067  -9.3910  -9.3749  -9.3231  -9.2915  -9.2454
    -9.2385  -9.2171  -9.2086  -9.1991  -9.1812  -9.1757  -9.1645  -9.1489
    -9.1442  -9.1307  -9.1135  -9.0862  -9.0823  -9.0759  -9.0679  -9.0584
    -9.0477  -9.0340  -9.0239  -9.0077  -9.0015  -8.9949  -8.9835  -8.9806
    -8.9757  -8.9677  -8.9655  -8.9618  -8.9453  -8.9338  -8.9122  -8.8993
    -8.8935  -8.8895  -8.8874  -8.8820  -8.8745  -8.8743  -8.8738  -8.8619
    -8.8542  -8.8465  -8.8199  -8.8188  -8.8041  -8.7977  -8.7869  -8.7699
    -8.7495  -8.6909  -8.6180  -8.5913  -8.5469  -8.5466  -8.5224  -8.4817
    -8.4716  -8.4646  -8.4475  -8.4007  -8.3388  -8.2853  -8.2282  -8.2282
    -8.2167  -8.1855  -8.1653  -8.1559  -8.1541  -8.1414  -8.0840  -8.0276
    -7.9955  -7.9756  -7.9642  -7.9565  -7.9063  -7.8978  -7.8930  -7.8905
    -7.8875  -7.8816  -7.8815  -7.8813  -7.8799  -7.8703  -7.8614  -7.8365
    -7.8357  -7.8351  -7.8316  -7.8207  -7.8127  -7.8112  -7.8049  -7.8030
    -7.7830  -7.7822  -7.7766  -7.7751  -7.7625  -7.7563  -7.7554  -7.7547
    -7.7276  -7.7272  -7.7237  -7.7029  -7.6997  -7.6963  -7.6960  -7.6890
    -7.6859  -7.6636  -7.6589  -7.6462  -7.6280  -7.6228  -7.6193  -7.5857
    -7.5729  -7.5717  -7.5569  -7.5266  -7.5101  -7.4745  -7.4334  -7.3877
    -7.3621  -7.3371  -7.2905  -7.2768  -7.2659  -7.2639  -7.2394  -7.2237
    -7.1563  -7.1500  -7.1431  -7.1110  -7.0925  -7.0856  -7.0587  -7.0444
    -7.0388  -7.0236  -7.0118  -7.0014  -6.9906  -6.9698  -6.9503  -6.9377
    -6.9253  -6.9131  -6.8862  -6.8703  -6.8293  -6.8214  -6.7874  -6.7713
    -6.7507  -6.7186  -6.7085  -6.6936  -6.6933  -6.6932  -6.6932  -6.6891
    -6.6848  -6.6526  -6.6286  -6.6258  -6.6241  -6.6227  -6.6076  -6.5971
    -6.5650  -6.5515  -6.5320  -6.5096  -6.4851  -6.4798  -6.4050  -6.3798
    -6.3614  -6.3613  -6.3609  -6.3602  -6.3313  -6.2960  -6.2956  -6.2818
    -6.2780  -6.2774  -6.2760  -6.2588  -6.2534  -6.2420  -6.2028  -6.1190
    -6.0771  -6.0441  -6.0229  -6.0131  -6.0129  -5.9672  -5.9350  -5.9322
    -5.8330  -5.7441  -5.7126  -5.6556  -5.6121  -5.5819  -5.4641  -5.4418
    -5.2885  -5.2558  -4.2273  -4.0743  -4.0563  -4.0533  -4.0207  -3.9478
    -3.9287  -3.9286  -3.8987  -3.8730  -3.8638  -3.8634  -3.8323  -3.8095
    -3.8075  -3.7906  -3.7608  -3.7247  -3.6679  -3.6430  -3.6322  -3.6315
    -3.6286  -3.6202  -3.6141  -3.6136  -3.5974  -3.5803  -3.5463  -3.5389
    -3.5353  -3.5315  -3.5241  -3.5121  -3.5081  -3.5030  -3.5006  -3.4944
    -3.4642  -3.4562  -3.4181  -3.4096  -3.4019  -3.3945  -3.3865  -3.3814
    -3.3808  -3.3528  -3.3504  -3.3478  -3.3417  -3.3305  -3.3087  -3.3055
    -3.3047  -3.3043  -3.3031  -3.2831  -3.2765  -3.2659  -3.2584  -3.2503
    -3.2383  -3.2346  -3.2314  -3.2245  -3.2219  -3.2112  -3.1972  -3.1762
    -3.1642  -3.1515  -3.1440  -3.1277  -3.1017  -3.0998  -3.0738  -3.0679
    -3.0614  -3.0598  -3.0423  -3.0416  -3.0415  -3.0411  -3.0077  -3.0041
    -2.9932  -2.9919  -2.9803  -2.9743  -2.9706  -2.9626  -2.9530  -2.9451
    -2.9435  -2.9291  -2.9244  -2.9140  -2.9132  -2.9023  -2.8862  -2.8791
    -2.8716  -2.8597  -2.8459  -2.8368  -2.8320  -2.8156  -2.7687  -2.7638
    -2.7418  -2.7389  -2.7247  -2.6887  -2.6790  -2.6770  -2.6716  -2.6614
    -2.6121  -2.5993  -2.5935  -2.5462  -2.5387  -2.5216  -2.5180  -2.5074
    -2.4899  -2.4104  -2.3920  -2.3522  -2.3202  -2.3077

          k =-0.5000-0.8660 0.0000 (321564 PWs)   bands (ev):

  -102.3659 -88.8678 -88.8630 -70.7146 -70.7028 -70.6892 -70.6717 -70.6645
   -70.6451 -70.6369 -66.7166 -66.7166 -66.7060 -66.7060 -66.6911 -66.6911
   -66.6911 -66.6911 -66.6867 -66.6867 -66.6805 -66.6805 -66.6805 -66.6805
   -66.6761 -66.6761 -66.6507 -66.6505 -66.6401 -66.6400 -66.6252 -66.6251
   -66.6250 -66.6250 -66.6208 -66.6206 -66.6146 -66.6146 -66.6144 -66.6143
   -66.6101 -66.6100 -66.5763 -66.5705 -66.5643 -66.5588 -66.5552 -66.5516
   -66.5401 -66.5358 -66.5351 -66.5311 -66.5267 -66.5243 -66.5194 -66.5144
   -66.5108 -66.4788 -56.7092 -56.5311 -56.5198 -54.7646 -54.7377 -54.6449
   -54.6382 -54.5827 -54.5621 -41.0177 -41.0177 -41.0177 -41.0177 -40.9910
   -40.9910 -40.9791 -40.9791 -40.9507 -40.9506 -40.9504 -40.9504 -40.9287
   -40.9287 -40.9287 -40.9287 -40.9241 -40.9238 -40.9120 -40.9119 -40.8751
   -40.8709 -40.8708 -40.8645 -40.8617 -40.8617 -40.8616 -40.8616 -40.8607
   -40.8607 -40.8564 -40.8505 -40.8501 -40.8501 -40.8431 -40.8375 -40.8207
   -40.8207 -40.8207 -40.8207 -40.8197 -40.8120 -40.8120 -40.8087 -40.8055
   -40.8052 -40.7998 -40.7998 -40.7998 -40.7998 -40.7997 -40.7997 -40.7939
   -40.7938 -40.7912 -40.7912 -40.7847 -40.7846 -40.7728 -40.7693 -40.7690
   -40.7690 -40.7690 -40.7690 -40.7690 -40.7650 -40.7566 -40.7553 -40.7553
   -40.7552 -40.7552 -40.7467 -40.7465 -40.7428 -40.7346 -40.7345 -40.7345
   -40.7345 -40.7345 -40.7345 -40.7343 -40.7341 -40.7329 -40.7328 -40.7258
   -40.7257 -40.7254 -40.7224 -40.7224 -40.7213 -40.7060 -40.7057 -40.7032
   -40.7032 -40.7022 -40.7022 -40.7021 -40.7020 -40.6957 -40.6939 -40.6863
   -40.6863 -40.6808 -40.6801 -40.6756 -40.6698 -40.6677 -40.6677 -40.6676
   -40.6676 -40.6669 -40.6638 -40.6604 -40.6559 -40.6559 -40.6557 -40.6554
   -40.6535 -40.6481 -40.6478 -40.6442 -40.6364 -40.6364 -40.6355 -40.6199
   -40.6196 -40.6195 -40.6146 -40.6101 -40.6048 -40.5892 -40.5890 -40.5801
   -40.5790 -40.5730 -40.5683 -40.5671 -40.5516 -40.5485 -40.5415 -40.5274
   -40.5141 -40.5000 -40.4865 -20.3047 -19.9199 -19.9104 -19.8183 -19.7594
   -19.6975 -19.5659 -19.4949 -19.4754 -19.4337 -19.3357 -19.3004 -19.1658
   -18.8533 -18.8255 -18.7932 -18.7883 -18.7751 -18.7726 -18.7593 -18.7573
   -18.7292 -18.6780 -18.6515 -18.6477 -18.6420 -18.6316 -18.6155 -18.6026
   -18.5849 -18.5492 -18.5270 -18.5223 -18.4986 -18.4767 -18.4598 -18.4555
   -18.4332 -18.4160 -18.3818 -18.3532 -18.3099 -18.3053 -18.2983 -18.2761
   -18.2627 -18.2357 -18.2088 -18.1975 -18.1868 -18.1693 -18.1624 -18.1624
   -18.1623 -18.1623 -18.1400 -18.1287 -18.1187 -18.0942 -18.0916 -18.0858
   -18.0817 -18.0790 -18.0735 -18.0609 -18.0409 -18.0311 -18.0261 -18.0123
   -18.0025 -17.9838 -17.9807 -17.9790 -17.9718 -17.9590 -17.9497 -17.9243
   -17.9190 -17.9075 -17.8990 -17.8989 -17.8950 -17.8621 -17.8545 -17.8403
   -17.8392 -17.8378 -17.8241 -17.8228 -17.8167 -17.8121 -17.8032 -17.7791
   -17.7785 -17.7205 -17.7163 -12.3112 -12.0437 -12.0089 -11.7202 -11.7019
   -11.6196 -11.5280 -11.5109 -11.5076 -11.5071 -11.4963 -11.4863 -11.4808
   -11.4507 -11.4214 -11.4141 -11.4100 -11.4016 -11.3853 -11.3580 -11.3480
   -11.3447 -11.3235 -11.3134 -11.2919 -11.2919 -11.2900 -11.2609 -11.2466
   -11.2462 -11.2350 -11.2003 -11.1904 -11.1874 -11.1802 -11.1535 -11.0950
   -11.0596 -11.0330 -11.0126 -11.0048 -10.9970 -10.9793 -10.9646 -10.9503
   -10.9474 -10.9313 -10.9274 -10.8931 -10.8868 -10.8799 -10.8774 -10.8692
   -10.8652 -10.8648 -10.8637 -10.8538 -10.8435 -10.8423 -10.8105 -10.8024
   -10.7963 -10.7874 -10.7829 -10.7479 -10.6426 -10.6297 -10.5849 -10.5292
   -10.5201 -10.4981 -10.4266 -10.3855 -10.3358 -10.3088 -10.2788 -10.2370
   -10.1647 -10.1528 -10.1486 -10.1457 -10.1139 -10.0849 -10.0603 -10.0429
   -10.0250  -9.9869  -9.9793  -9.9724  -9.9687  -9.9637  -9.9608  -9.9484
    -9.9352  -9.9297  -9.9187  -9.9152  -9.8841  -9.8394  -9.8354  -9.8189
    -9.7893  -9.7876  -9.7690  -9.7654  -9.7486  -9.7464  -9.7390  -9.7349
    -9.7257  -9.7010  -9.6966  -9.6831  -9.6587  -9.6533  -9.6406  -9.6300
    -9.5949  -9.5875  -9.5704  -9.5640  -9.5605  -9.5298  -9.5106  -9.5053
    -9.4943  -9.4422  -9.4075  -9.3906  -9.3747  -9.3227  -9.2909  -9.2453
    -9.2387  -9.2169  -9.2085  -9.1993  -9.1812  -9.1761  -9.1645  -9.1490
    -9.1441  -9.1304  -9.1138  -9.0858  -9.0823  -9.0760  -9.0681  -9.0581
    -9.0479  -9.0342  -9.0245  -9.0080  -9.0020  -8.9953  -8.9834  -8.9807
    -8.9758  -8.9679  -8.9656  -8.9621  -8.9456  -8.9334  -8.9123  -8.8996
    -8.8935  -8.8895  -8.8872  -8.8820  -8.8745  -8.8741  -8.8738  -8.8618
    -8.8542  -8.8465  -8.8198  -8.8184  -8.8041  -8.7977  -8.7869  -8.7702
    -8.7491  -8.6910  -8.6186  -8.5914  -8.5469  -8.5466  -8.5228  -8.4809
    -8.4717  -8.4647  -8.4478  -8.3998  -8.3398  -8.2842  -8.2282  -8.2281
    -8.2167  -8.1856  -8.1654  -8.1559  -8.1540  -8.1411  -8.0830  -8.0284
    -7.9958  -7.9759  -7.9643  -7.9568  -7.9063  -7.8977  -7.8934  -7.8904
    -7.8875  -7.8817  -7.8815  -7.8814  -7.8802  -7.8705  -7.8616  -7.8365
    -7.8357  -7.8351  -7.8316  -7.8204  -7.8125  -7.8111  -7.8047  -7.8030
    -7.7829  -7.7820  -7.7766  -7.7748  -7.7627  -7.7562  -7.7554  -7.7546
    -7.7280  -7.7273  -7.7231  -7.7026  -7.6996  -7.6963  -7.6960  -7.6892
    -7.6861  -7.6633  -7.6590  -7.6459  -7.6278  -7.6228  -7.6187  -7.5851
    -7.5730  -7.5715  -7.5568  -7.5262  -7.5108  -7.4745  -7.4323  -7.3872
    -7.3617  -7.3383  -7.2907  -7.2767  -7.2660  -7.2637  -7.2392  -7.2238
    -7.1563  -7.1507  -7.1427  -7.1100  -7.0923  -7.0857  -7.0586  -7.0443
    -7.0387  -7.0241  -7.0115  -7.0015  -6.9907  -6.9702  -6.9502  -6.9377
    -6.9254  -6.9136  -6.8860  -6.8706  -6.8295  -6.8223  -6.7879  -6.7719
    -6.7509  -6.7176  -6.7079  -6.6936  -6.6933  -6.6932  -6.6931  -6.6889
    -6.6849  -6.6535  -6.6285  -6.6257  -6.6243  -6.6227  -6.6080  -6.5971
    -6.5657  -6.5519  -6.5315  -6.5103  -6.4848  -6.4799  -6.4035  -6.3800
    -6.3614  -6.3613  -6.3609  -6.3603  -6.3306  -6.2961  -6.2956  -6.2819
    -6.2781  -6.2773  -6.2760  -6.2589  -6.2539  -6.2418  -6.2027  -6.1193
    -6.0770  -6.0444  -6.0229  -6.0131  -6.0129  -5.9672  -5.9350  -5.9322
    -5.8326  -5.7441  -5.7125  -5.6557  -5.6122  -5.5818  -5.4651  -5.4411
    -5.2880  -5.2557  -4.2276  -4.0744  -4.0564  -4.0532  -4.0205  -3.9477
    -3.9287  -3.9286  -3.8988  -3.8730  -3.8638  -3.8633  -3.8323  -3.8095
    -3.8075  -3.7905  -3.7606  -3.7246  -3.6679  -3.6428  -3.6323  -3.6315
    -3.6286  -3.6202  -3.6141  -3.6139  -3.5972  -3.5802  -3.5466  -3.5387
    -3.5349  -3.5313  -3.5238  -3.5120  -3.5080  -3.5030  -3.5003  -3.4943
    -3.4642  -3.4563  -3.4179  -3.4095  -3.4022  -3.3945  -3.3861  -3.3813
    -3.3804  -3.3528  -3.3503  -3.3479  -3.3418  -3.3302  -3.3087  -3.3056
    -3.3047  -3.3044  -3.3032  -3.2830  -3.2767  -3.2655  -3.2583  -3.2505
    -3.2384  -3.2347  -3.2314  -3.2243  -3.2216  -3.2113  -3.1967  -3.1764
    -3.1641  -3.1518  -3.1439  -3.1274  -3.1018  -3.0998  -3.0738  -3.0676
    -3.0617  -3.0594  -3.0425  -3.0417  -3.0415  -3.0412  -3.0077  -3.0043
    -2.9931  -2.9919  -2.9806  -2.9741  -2.9697  -2.9623  -2.9528  -2.9452
    -2.9435  -2.9287  -2.9242  -2.9138  -2.9131  -2.9025  -2.8868  -2.8791
    -2.8716  -2.8598  -2.8461  -2.8349  -2.8313  -2.8145  -2.7689  -2.7639
    -2.7418  -2.7360  -2.7241  -2.6889  -2.6791  -2.6765  -2.6715  -2.6611
    -2.6128  -2.5993  -2.5936  -2.5464  -2.5381  -2.5216  -2.5175  -2.5075
    -2.4905  -2.4103  -2.3924  -2.3547  -2.3112  -2.3096

     the Fermi energy is    -4.7171 ev

!    total energy              =  -26543.76575709 Ry
     total all-electron energy =   -522376.362065 Ry
     estimated scf accuracy    <       0.00000066 Ry
     smearing contrib. (-TS)   =      -0.00000006 Ry
     internal energy E=F+TS    =  -26543.76575703 Ry

     The total energy is F=E-TS. E is the sum of the following terms:
     one-electron contribution =  511606.38475687 Ry
     hartree contribution      = -255949.64057228 Ry
     xc contribution           =   -1565.67076044 Ry
     ewald contribution        = -264186.80448109 Ry
     DFT-D3 Dispersion         =      -4.06092237 Ry
     one-center paw contrib.   =  -16443.97377771 Ry

     convergence has been achieved in  21 iterations

     negative rho (up, down):  9.669E-04 0.000E+00

     Forces acting on atoms (cartesian axes, Ry/au):

     atom    1 type  1   force =     0.00020652    0.00092712   -0.03146835
     atom    2 type  1   force =    -0.00000445   -0.00000066    0.00191701
     atom    3 type  1   force =     0.00002834    0.00001704    0.00002087
     atom    4 type  2   force =     0.00000088   -0.00000290   -0.00331761
     atom    5 type  2   force =    -0.00000551   -0.00001181   -0.00002500
     atom    6 type  2   force =    -0.00042538    0.00013745    0.00341232
     atom    7 type  2   force =    -0.00000491    0.00000349    0.00150489
     atom    8 type  2   force =    -0.00003365   -0.00007535    0.00009468
     atom    9 type  2   force =    -0.01595709   -0.01453113    0.01846252
     atom   10 type  1   force =    -0.00071727    0.00312016    0.00341532
     atom   11 type  1   force =    -0.00000217    0.00000234    0.00190905
     atom   12 type  1   force =    -0.00004572   -0.00000263    0.00000974
     atom   13 type  2   force =    -0.00000077   -0.00000127   -0.00331830
     atom   14 type  2   force =    -0.00001099   -0.00001800   -0.00004121
     atom   15 type  2   force =    -0.00161867    0.00010957   -0.00133211
     atom   16 type  2   force =     0.00000047    0.00000292    0.00152145
     atom   17 type  2   force =    -0.00002529    0.00000015    0.00002042
     atom   18 type  2   force =    -0.00132239    0.00122963   -0.00611345
     atom   19 type  1   force =     0.00043343   -0.00076506    0.00052157
     atom   20 type  1   force =     0.00000050   -0.00000165    0.00191637
     atom   21 type  1   force =     0.00003487    0.00003532   -0.00004217
     atom   22 type  2   force =    -0.00000086   -0.00000089   -0.00331329
     atom   23 type  2   force =    -0.00001234   -0.00000934   -0.00005816
     atom   24 type  2   force =     0.00036959   -0.00015913   -0.00017433
     atom   25 type  2   force =     0.00000544   -0.00000869    0.00150309
     atom   26 type  2   force =    -0.00002364    0.00000472    0.00003766
     atom   27 type  2   force =     0.00023276    0.00026419    0.00040638
     atom   28 type  1   force =     0.00191183   -0.00263835   -0.00392384
     atom   29 type  1   force =     0.00000716   -0.00000569    0.00191525
     atom   30 type  1   force =    -0.00001453   -0.00006694    0.00002817
     atom   31 type  2   force =     0.00000048   -0.00000379   -0.00331316
     atom   32 type  2   force =     0.00000711   -0.00000765   -0.00004662
     atom   33 type  2   force =    -0.00013977   -0.00106084   -0.00125817
     atom   34 type  2   force =    -0.00000342   -0.00000858    0.00150754
     atom   35 type  2   force =    -0.00001053   -0.00002526    0.00001604
     atom   36 type  2   force =    -0.00018779    0.00112927   -0.00055015
     atom   37 type  1   force =     0.00449552   -0.00124562   -0.00083906
     atom   38 type  1   force =     0.00000132   -0.00001348    0.00192107
     atom   39 type  1   force =    -0.00002529   -0.00000158    0.00003597
     atom   40 type  2   force =     0.00000121   -0.00000327   -0.00331339
     atom   41 type  2   force =     0.00003241    0.00002336    0.00002294
     atom   42 type  2   force =     0.00035880   -0.00040304    0.00321416
     atom   43 type  2   force =    -0.00000365    0.00000224    0.00150135
     atom   44 type  2   force =    -0.00004360   -0.00001847    0.00020042
     atom   45 type  2   force =     0.01612843   -0.01445102    0.01834287
     atom   46 type  1   force =     0.00080527    0.00306465    0.00450017
     atom   47 type  1   force =    -0.00000411   -0.00000081    0.00190857
     atom   48 type  1   force =     0.00000598   -0.00005930    0.00000826
     atom   49 type  2   force =     0.00000106    0.00000019   -0.00331737
     atom   50 type  2   force =     0.00002780   -0.00002906   -0.00001878
     atom   51 type  2   force =     0.00006427   -0.00043161    0.00347640
     atom   52 type  2   force =    -0.00000329    0.00000941    0.00150602
     atom   53 type  2   force =     0.00003660   -0.00002202    0.00000002
     atom   54 type  2   force =     0.00063988    0.02868654   -0.00886936
     atom   55 type  1   force =     0.00019919   -0.00113189    0.00103439
     atom   56 type  1   force =    -0.00000371   -0.00000173    0.00190875
     atom   57 type  1   force =    -0.00004903    0.00002591   -0.00000967
     atom   58 type  2   force =     0.00000068   -0.00000396   -0.00331617
     atom   59 type  2   force =    -0.00000314   -0.00003321   -0.00004772
     atom   60 type  2   force =    -0.00048632   -0.00059790   -0.00028769
     atom   61 type  2   force =     0.00000121   -0.00000712    0.00150604
     atom   62 type  2   force =    -0.00001707   -0.00001291    0.00002138
     atom   63 type  2   force =    -0.00068887    0.00235652   -0.00024413
     atom   64 type  1   force =    -0.00096449   -0.00017628   -0.00012044
     atom   65 type  1   force =    -0.00000092    0.00000047    0.00191355
     atom   66 type  1   force =    -0.00001922   -0.00002837    0.00002947
     atom   67 type  2   force =    -0.00000154   -0.00000250   -0.00330976
     atom   68 type  2   force =    -0.00001852    0.00001929   -0.00004589
     atom   69 type  2   force =    -0.00032923   -0.00005226   -0.00007279
     atom   70 type  2   force =     0.00000881   -0.00000631    0.00150613
     atom   71 type  2   force =     0.00000736    0.00001785    0.00002690
     atom   72 type  2   force =     0.00021616    0.00017897    0.00103866
     atom   73 type  1   force =     0.00007955    0.00019112    0.00069188
     atom   74 type  1   force =     0.00000594   -0.00001033    0.00191888
     atom   75 type  1   force =     0.00002723    0.00003176    0.00013358
     atom   76 type  2   force =    -0.00000202   -0.00000256   -0.00331179
     atom   77 type  2   force =    -0.00004976    0.00004810   -0.00002395
     atom   78 type  2   force =    -0.00005408    0.00048261   -0.00043268
     atom   79 type  2   force =     0.00000259   -0.00000078    0.00150969
     atom   80 type  2   force =     0.00004068   -0.00001949    0.00000083
     atom   81 type  2   force =     0.00034396   -0.00024180    0.00002482
     atom   82 type  1   force =    -0.00056990    0.00055141   -0.00007178
     atom   83 type  1   force =     0.00000424    0.00000223    0.00191203
     atom   84 type  1   force =     0.00004848    0.00000081    0.00001695
     atom   85 type  2   force =     0.00000054   -0.00000233   -0.00331470
     atom   86 type  2   force =     0.00000006   -0.00004555    0.00000013
     atom   87 type  2   force =     0.00252874   -0.00019046   -0.00168149
     atom   88 type  2   force =     0.00000126    0.00000727    0.00151580
     atom   89 type  2   force =     0.00002564    0.00003320    0.00008787
     atom   90 type  2   force =     0.00081592    0.00123723   -0.00580018
     atom   91 type  1   force =    -0.00065206   -0.00092419    0.00041059
     atom   92 type  1   force =    -0.00000168    0.00000103    0.00190433
     atom   93 type  1   force =     0.00003185    0.00000209   -0.00002253
     atom   94 type  2   force =     0.00000079   -0.00000328   -0.00331548
     atom   95 type  2   force =     0.00001011   -0.00001212   -0.00005483
     atom   96 type  2   force =     0.00020282   -0.00021510   -0.00032196
     atom   97 type  2   force =    -0.00000354   -0.00000390    0.00149662
     atom   98 type  2   force =     0.00002616    0.00004046    0.00002837
     atom   99 type  2   force =     0.00069320    0.00181243    0.00001125
     atom  100 type  1   force =     0.00093306   -0.00007581    0.00019801
     atom  101 type  1   force =     0.00000037    0.00000911    0.00190773
     atom  102 type  1   force =     0.00000098    0.00000500   -0.00003186
     atom  103 type  2   force =     0.00000061   -0.00000076   -0.00331354
     atom  104 type  2   force =     0.00001328   -0.00001414   -0.00007388
     atom  105 type  2   force =     0.00005246    0.00028969   -0.00031314
     atom  106 type  2   force =     0.00000317   -0.00000841    0.00150115
     atom  107 type  2   force =     0.00001129   -0.00000762   -0.00000105
     atom  108 type  2   force =    -0.00023165    0.00036019    0.00012845
     atom  109 type  1   force =    -0.00459400   -0.00138580   -0.00052293
     atom  110 type  1   force =     0.00000256   -0.00000944    0.00192296
     atom  111 type  1   force =    -0.00003410    0.00001538    0.00000117
     atom  112 type  2   force =     0.00000181   -0.00000320   -0.00331603
     atom  113 type  2   force =     0.00000615   -0.00000817   -0.00004656
     atom  114 type  2   force =     0.00020188    0.00055474   -0.00010516
     atom  115 type  2   force =     0.00000479   -0.00000308    0.00151024
     atom  116 type  2   force =     0.00001921   -0.00001524    0.00013314
     atom  117 type  2   force =    -0.00053678   -0.00012331    0.00045283
     atom  118 type  1   force =     0.00046229    0.00065224   -0.00011910
     atom  119 type  1   force =     0.00000556    0.00000124    0.00191873
     atom  120 type  1   force =    -0.00001075   -0.00005097   -0.00002739
     atom  121 type  2   force =     0.00000011   -0.00000273   -0.00331707
     atom  122 type  2   force =    -0.00003466   -0.00000610   -0.00004243
     atom  123 type  2   force =     0.00034720   -0.00066824    0.00007044
     atom  124 type  2   force =     0.00000276   -0.00000149    0.00153008
     atom  125 type  2   force =    -0.00002599   -0.00001387    0.00004527
     atom  126 type  2   force =     0.00017183   -0.00063764    0.00041517
     atom  127 type  1   force =    -0.00008384   -0.00067522    0.00082362
     atom  128 type  1   force =     0.00000311    0.00000383    0.00191059
     atom  129 type  1   force =    -0.00002540    0.00005469   -0.00004334
     atom  130 type  2   force =     0.00000135   -0.00000168   -0.00331635
     atom  131 type  2   force =    -0.00000226   -0.00000401   -0.00003699
     atom  132 type  2   force =    -0.00009406   -0.00017728   -0.00046084
     atom  133 type  2   force =    -0.00000519   -0.00000299    0.00149852
     atom  134 type  2   force =    -0.00000695    0.00002242    0.00003303
     atom  135 type  2   force =    -0.00031043    0.00028104    0.00023569
     atom  136 type  1   force =    -0.00205531   -0.00255261   -0.00399213
     atom  137 type  1   force =     0.00000008   -0.00000056    0.00191823
     atom  138 type  1   force =     0.00002210   -0.00004622    0.00000416
     atom  139 type  2   force =     0.00000027   -0.00000310   -0.00331634
     atom  140 type  2   force =    -0.00000083   -0.00000143   -0.00005658
     atom  141 type  2   force =     0.00018938    0.00032096   -0.00019507
     atom  142 type  2   force =    -0.00000810   -0.00000428    0.00150710
     atom  143 type  2   force =    -0.00001452   -0.00001801    0.00003142
     atom  144 type  2   force =    -0.00002511    0.00013952    0.00115127
     atom  145 type  3   force =    -0.01096404   -0.01673216    0.00646917
     atom  146 type  3   force =     0.00996947   -0.01720622    0.00715309
     atom  147 type  4   force =     0.00003793    0.03175249   -0.00830852

     Total force =     0.076016     Total SCF correction =     0.001508

     BFGS Geometry Optimization
     Energy error            =      0.0E+00 Ry
     Gradient error          =      3.2E-02 Ry/Bohr

     number of scf cycles    =   1
     number of bfgs steps    =   0

     energy             new  =  -26543.7657570891 Ry

     new trust radius        =       0.0328215423 bohr
[...]
     atom   72 type  2   force =     0.00013022    0.00002969   -0.00007822
     atom   73 type  1   force =     0.00000501    0.00014185   -0.00008872
     atom   74 type  1   force =    -0.00000036    0.00000321    0.00190331
     atom   75 type  1   force =     0.00000593   -0.00000283   -0.00001211
     atom   76 type  2   force =     0.00000054    0.00000362   -0.00327955
     atom   77 type  2   force =    -0.00000015    0.00001818   -0.00002653
     atom   78 type  2   force =     0.00001078    0.00018450   -0.00011319
     atom   79 type  2   force =    -0.00000410    0.00000247    0.00149788
     atom   80 type  2   force =    -0.00000157    0.00001175    0.00000002
     atom   81 type  2   force =     0.00005561    0.00010570   -0.00006575
     atom   82 type  1   force =     0.00009329    0.00009761    0.00000098
     atom   83 type  1   force =    -0.00000145    0.00000440    0.00189951
     atom   84 type  1   force =    -0.00000495    0.00000748   -0.00001702
     atom   85 type  2   force =     0.00000053    0.00000330   -0.00327992
     atom   86 type  2   force =    -0.00001201    0.00000305   -0.00002445
     atom   87 type  2   force =     0.00002827    0.00004985    0.00004448
     atom   88 type  2   force =    -0.00000957    0.00000702    0.00149461
     atom   89 type  2   force =     0.00002095    0.00000206   -0.00004676
     atom   90 type  2   force =    -0.00004567    0.00003272   -0.00008486
     atom   91 type  1   force =    -0.00006488    0.00004132   -0.00007031
     atom   92 type  1   force =    -0.00000112    0.00000272    0.00189390
     atom   93 type  1   force =    -0.00001056   -0.00000237    0.00001470
     atom   94 type  2   force =     0.00000039    0.00000365   -0.00327995
     atom   95 type  2   force =    -0.00002583    0.00002281    0.00001863
     atom   96 type  2   force =    -0.00001739   -0.00025738    0.00002510
     atom   97 type  2   force =    -0.00000390    0.00000052    0.00149684
     atom   98 type  2   force =    -0.00000085   -0.00000755    0.00000045
     atom   99 type  2   force =     0.00004551   -0.00022797    0.00007342
     atom  100 type  1   force =    -0.00003465    0.00009932   -0.00011854
     atom  101 type  1   force =     0.00000026    0.00000156    0.00189827
     atom  102 type  1   force =    -0.00000054    0.00001491   -0.00001627
     atom  103 type  2   force =     0.00000036    0.00000391   -0.00327990
     atom  104 type  2   force =     0.00001454   -0.00002595    0.00003244
     atom  105 type  2   force =     0.00000266   -0.00000529   -0.00003506
     atom  106 type  2   force =    -0.00000079   -0.00000606    0.00149638
     atom  107 type  2   force =    -0.00000956    0.00002816    0.00000680
     atom  108 type  2   force =     0.00000416    0.00016252   -0.00013845
     atom  109 type  1   force =     0.00015378   -0.00000891    0.00003854
     atom  110 type  1   force =     0.00000155    0.00000410    0.00189938
     atom  111 type  1   force =    -0.00000925   -0.00000372   -0.00001774
     atom  112 type  2   force =     0.00000012    0.00000361   -0.00327954
     atom  113 type  2   force =     0.00001804    0.00000599   -0.00001961
     atom  114 type  2   force =    -0.00000698    0.00018185   -0.00012113
     atom  115 type  2   force =     0.00000271    0.00000241    0.00149786
     atom  116 type  2   force =    -0.00000979    0.00000886   -0.00003583
     atom  117 type  2   force =    -0.00005018    0.00010009   -0.00005930
     atom  118 type  1   force =    -0.00008361    0.00010072    0.00000221
     atom  119 type  1   force =     0.00000069    0.00000442    0.00189943
     atom  120 type  1   force =    -0.00000243    0.00001026   -0.00004248
     atom  121 type  2   force =     0.00000035    0.00000322   -0.00327969
     atom  122 type  2   force =     0.00001111    0.00000213   -0.00002063
     atom  123 type  2   force =    -0.00000121    0.00008007   -0.00008397
     atom  124 type  2   force =    -0.00000069    0.00000846    0.00149594
     atom  125 type  2   force =    -0.00002315    0.00000248   -0.00004486
     atom  126 type  2   force =    -0.00000631   -0.00001312    0.00009426
     atom  127 type  1   force =     0.00000203   -0.00005906   -0.00018959
     atom  128 type  1   force =    -0.00000043    0.00000316    0.00189529
     atom  129 type  1   force =    -0.00000531    0.00000316    0.00000881
     atom  130 type  2   force =     0.00000052    0.00000334   -0.00327979
     atom  131 type  2   force =    -0.00000052    0.00003085    0.00001152
     atom  132 type  2   force =    -0.00017505    0.00006251   -0.00011344
     atom  133 type  2   force =    -0.00000384    0.00000388    0.00149076
     atom  134 type  2   force =    -0.00000022   -0.00000512    0.00001433
     atom  135 type  2   force =    -0.00003540    0.00022052   -0.00003296
     atom  136 type  1   force =    -0.00005578    0.00006933    0.00007507
     atom  137 type  1   force =     0.00000005    0.00000252    0.00189461
     atom  138 type  1   force =     0.00000659    0.00000157   -0.00000700
     atom  139 type  2   force =     0.00000028    0.00000382   -0.00327987
     atom  140 type  2   force =    -0.00000197   -0.00000066    0.00000174
     atom  141 type  2   force =    -0.00000329    0.00000085   -0.00006322
     atom  142 type  2   force =     0.00000096   -0.00000352    0.00148920
     atom  143 type  2   force =     0.00000220    0.00000899   -0.00000273
     atom  144 type  2   force =    -0.00013165    0.00002048   -0.00008317
     atom  145 type  3   force =     0.00018909   -0.00038500    0.00025567
     atom  146 type  3   force =    -0.00017214   -0.00038819    0.00024124
     atom  147 type  4   force =    -0.00001872    0.00033926    0.00017871

     Total force =     0.002015     Total SCF correction =     0.000991
     SCF correction compared to forces is large: reduce conv_thr to get better values
     Energy error            =      2.8E-06 Ry
     Gradient error          =      7.9E-04 Ry/Bohr

     bfgs converged in  24 scf cycles and  23 bfgs steps
     (criteria: energy <  1.0E-04 Ry, force <  1.0E-03 Ry/Bohr)

     End of BFGS Geometry Optimization

     Final energy             =  -26543.7934197619 Ry

     File ./outdir/pwscf.bfgs deleted, as requested
Begin final coordinates

ATOMIC_POSITIONS (angstrom)
Mo               1.5761604119        2.6999928617        6.0954155471
Mo               1.5769197498        0.9104407117       -6.0872367793    0   0   0
Mo               0.0001072962        1.8208149055       -0.0006460988
S                0.0000044503        0.0000077495       -7.6506323570    0   0   0
S                1.5768233225        0.9106957883       -1.5664770547
S                0.0009826033        1.8151966854        4.5393136651
S                0.0000053241        0.0000068460       -4.5222282367    0   0   0
S                1.5767979922        0.9098803192        1.5666249138
S               -0.0742191146        1.7694350228        7.7120351739
Mo              -0.0417634669        5.4909583015        6.0682849120
Mo               0.0000011799        3.6417399547       -6.0872367793    0   0   0
Mo              -1.5768426168        4.5518543132       -0.0006178133
S               -1.5769141197        2.7313069925       -7.6506323570    0   0   0
S                0.0003441153        3.6417798564       -1.5656603935
S               -1.5933778605        4.5450402459        4.5156794100
S               -1.5769132459        2.7313060890       -4.5222282367    0   0   0
S               -0.0001981529        3.6413107453        1.5676362334
S               -1.6323360325        4.5370846045        7.6713669744
Mo              -1.5817771351        8.2053930913        6.0791757402
Mo              -1.5769173901        6.3730391977       -6.0872367793    0   0   0
Mo              -3.1538698470        7.2832612588       -0.0017089293
S               -3.1538326896        5.4626062355       -7.6506323570    0   0   0
S               -1.5766432620        6.3725213067       -1.5663947575
S               -3.1580161960        7.2874085554        4.5088374445
S               -3.1538318159        5.4626053320       -4.5222282367    0   0   0
S               -1.5773213423        6.3729876971        1.5664217865
S               -3.1577928271        7.2814403515        7.6426776888
Mo               3.1601199936       -0.0121215847        6.0882522039
Mo              -3.1538359601        9.1043384407       -6.0872367793    0   0   0
Mo              -4.7308629644       10.0146772785       -0.0016993649
S               -4.7307512596        8.1939054785       -7.6506323570    0   0   0
S               -3.1539640470        9.1041465053       -1.5672787350
S               -4.7314839470       10.0160863174        4.5155380865
S               -4.7307503859        8.1939045750       -4.5222282367    0   0   0
S               -3.1541648317        9.1041357080        1.5651763391
S               -4.7314834588       10.0091235340        7.6521522682
Mo               4.7453796630        2.7242953345        6.0910313696
Mo               4.7307503218        0.9104407117       -6.0872367793    0   0   0
Mo               3.1535153872        1.8208135291       -0.0006274585
S                3.1538350223        0.0000077495       -7.6506323570    0   0   0
S                4.7301979635        0.9105868325       -1.5667363891
S                3.1513252342        1.8152287259        4.5393131318
S                3.1538358961        0.0000068460       -4.5222282367    0   0   0
S                4.7304029316        0.9101829240        1.5658705137
S                3.2265731949        1.7694252550        7.7120326195
Mo               3.1940758343        5.4909721227        6.0682359605
Mo               3.1538317519        3.6417399547       -6.0872367793    0   0   0
Mo               1.5768087510        4.5519651524        0.0003524449
S                1.5769164523        2.7313069925       -7.6506323570    0   0   0
S                3.1532928030        3.6417727530       -1.5656439264
S                1.5761189505        4.5446557776        4.5515885171
S                1.5769173261        2.7313060890       -4.5222282367    0   0   0
S                3.1537961070        3.6413119199        1.5676509630
S                1.5762245909        4.6093830164        7.5622781667
Mo               1.5761583488        8.2051755890        6.0884379226
Mo               1.5769131819        6.3730391977       -6.0872367793    0   0   0
Mo              -0.0000647000        7.2832721865       -0.0006974340
S               -0.0000021176        5.4626062355       -7.6506323570    0   0   0
S                1.5768095267        6.3724546978       -1.5656606023
S               -0.0057450322        7.3018883010        4.5151776087
S               -0.0000012439        5.4626053320       -4.5222282367    0   0   0
S                1.5767982186        6.3730403687        1.5675919617
S               -0.0137296076        7.3363353029        7.6801028951
Mo               6.3065193739       -0.0017721255        6.0804797458
Mo              -0.0000053881        9.1043384407       -6.0872367793    0   0   0
Mo              -1.5771980813       10.0146884689       -0.0017784552
S               -1.5769206876        8.1939054785       -7.6506323570    0   0   0
S               -0.0001791361        9.1037987870       -1.5669865773
S               -1.5799137793       10.0178710885        4.5102573162
S               -1.5769198139        8.1939045750       -4.5222282367    0   0   0
S               -0.0002553315        9.1047601198        1.5652699476
S               -1.5722098367       10.0121795726        7.6582887338
Mo               7.8838004398        2.7292312375        6.0745825654
Mo               7.8845808939        0.9104407117       -6.0872367793    0   0   0
Mo               6.3074580612        1.8205608627       -0.0015596113
S                6.3076655943        0.0000077495       -7.6506323570    0   0   0
S                7.8844720824        0.9103195125       -1.5671172656
S                6.3059604511        1.8165070624        4.5112119531
S                6.3076664681        0.0000068460       -4.5222282367    0   0   0
S                7.8844733600        0.9100771045        1.5654135134
S                6.3231887187        1.8133002411        7.6517819860
Mo               6.3207601685        5.4598125417        6.0735009750
Mo               6.3076623239        3.6417399547       -6.0872367793    0   0   0
Mo               4.7304596981        4.5518509054       -0.0006017605
S                4.7307470244        2.7313069925       -7.6506323570    0   0   0
S                6.3070868428        3.6415762378       -1.5667841233
S                4.7456770644        4.5450745598        4.5156364161
S                4.7307478981        2.7313060890       -4.5222282367    0   0   0
S                6.3078890787        3.6412659778        1.5653645491
S                4.7845425866        4.5371675619        7.6713401404
Mo               4.7341026060        8.2053913491        6.0791937238
Mo               4.7307437539        6.3730391977       -6.0872367793    0   0   0
Mo               3.1536720905        7.2832703375       -0.0007006955
S                3.1538284544        5.4626062355       -7.6506323570    0   0   0
S                4.7302601469        6.3725075590       -1.5663911422
S                3.1580726271        7.3018945621        4.5151612877
S                3.1538293281        5.4626053320       -4.5222282367    0   0   0
S                4.7309197403        6.3729946906        1.5664225252
S                3.1660112500        7.3362699560        7.6800714989
Mo               9.4611367530       -0.0017864623        6.0804811372
Mo               3.1538251839        9.1043384407       -6.0872367793    0   0   0
Mo               1.5768000205       10.0146236822       -0.0019450283
S                1.5769098844        8.1939054785       -7.6506323570    0   0   0
S                3.1537776498        9.1037906862       -1.5669994465
S                1.5761602180       10.0154788849        4.5139143209
S                1.5769107581        8.1939045750       -4.5222282367    0   0   0
S                3.1538526552        9.1047642868        1.5652563220
S                1.5761453087       10.0244857437        7.6527510248
Mo              -1.5930797494        2.7242512980        6.0910398466
Mo              11.0384114659        0.9104407117       -6.0872367793    0   0   0
Mo               9.4614886687        1.8205634957       -0.0015721138
S                9.4614961663        0.0000077495       -7.6506323570    0   0   0
S               11.0387587019        0.9105904179       -1.5667642437
S                9.4616664942        1.8164972604        4.5112300697
S                9.4614970401        0.0000068460       -4.5222282367    0   0   0
S               11.0385292842        0.9101792609        1.5658450987
S                9.4444077919        1.8132898770        7.6517716923
Mo              -3.1684717721        5.4597878442        6.0735044040
Mo               9.4614928959        3.6417399547       -6.0872367793    0   0   0
Mo               7.8844714565        4.5518567433       -0.0019008910
S                7.8845775964        2.7313069925       -7.6506323570    0   0   0
S                9.4618581515        3.6415826399       -1.5668020865
S                7.8838138870        4.5482535910        4.5015924399
S                7.8845784701        2.7313060890       -4.5222282367    0   0   0
S                9.4610461821        3.6412637267        1.5653523422
S                7.8838072385        4.5480462776        7.6487708973
Mo              -4.7314917702        8.1948616353        6.0788043892
Mo               7.8845743259        6.3730391977       -6.0872367793    0   0   0
Mo               6.3074751049        7.2832593372       -0.0017163869
S                6.3076590264        5.4626062355       -7.6506323570    0   0   0
S                7.8844729124        6.3727641013       -1.5672821809
S                6.3103648550        7.2874462541        4.5088296364
S                6.3076599001        5.4626053320       -4.5222282367    0   0   0
S                7.8844545301        6.3728823484        1.5649979512
S                6.3101400690        7.2814568228        7.6427050725
Mo              -0.0077654279       -0.0121354264        6.0882651542
Mo               6.3076557559        9.1043384407       -6.0872367793    0   0   0
Mo               4.7307971216       10.0146892229       -0.0018073036
S                4.7307404564        8.1939054785       -7.6506323570    0   0   0
S                6.3075835195        9.1041394692       -1.5672943074
S                4.7322589974       10.0178601092        4.5102617114
S                4.7307413301        8.1939045750       -4.5222282367    0   0   0
S                6.3077381227        9.1041370592        1.5651646929
S                4.7245304208       10.0121951782        7.6583078872
Pd               3.0158257398        5.3485852005        9.1548497041
Pd               0.1361961865        5.3484632444        9.1546485985
Pt               1.5762526389        2.8851366309        9.0066536906
End final coordinates



     Writing all to output data dir ./outdir/pwscf.save/ :
     XML data file, charge density, pseudopotentials, collected wavefunctions
 
     init_run     :     96.12s CPU     98.25s WALL (       1 calls)
     electrons    : 110191.63s CPU 111922.46s WALL (      24 calls)
     update_pot   :     30.24s CPU     31.19s WALL (      23 calls)
     forces       :   1712.83s CPU   1750.22s WALL (      24 calls)
     force_dftd3  :      9.14s CPU      9.56s WALL (      24 calls)

     Called by init_run:
     wfcinit      :     78.07s CPU     79.06s WALL (       1 calls)
     potinit      :      1.09s CPU      1.19s WALL (       1 calls)
     hinit0       :      9.25s CPU      9.32s WALL (       1 calls)

     Called by electrons:
     c_bands      :  95925.47s CPU  96979.39s WALL (     333 calls)
     sum_band     :  12234.94s CPU  12590.75s WALL (     333 calls)
     v_of_rho     :     96.65s CPU    108.63s WALL (     340 calls)
     newd         :   1709.24s CPU   2023.44s WALL (     340 calls)
     PAW_pot      :    275.05s CPU    277.49s WALL (     363 calls)
     mix_rho      :     26.30s CPU     29.73s WALL (     333 calls)
     energy_dftd3 :      5.13s CPU      5.16s WALL (      24 calls)

     Called by c_bands:
     init_us_2    :    465.56s CPU    468.18s WALL (    2856 calls)
     init_us_2:cp :    465.53s CPU    468.17s WALL (    2856 calls)
     cegterg      :  94060.32s CPU  95105.60s WALL (    1356 calls)

     Called by *egterg:
     cdiaghg      :   5151.89s CPU   5382.92s WALL (   16763 calls)
     h_psi        :  48462.67s CPU  48820.83s WALL (   16936 calls)
     s_psi        :  10035.92s CPU  10082.10s WALL (   16936 calls)
     g_psi        :    107.67s CPU    108.20s WALL (   15576 calls)

     Called by h_psi:
     h_psi:calbec :   9954.50s CPU   9993.94s WALL (   16936 calls)
     vloc_psi     :  28204.80s CPU  28394.39s WALL (   16936 calls)
     add_vuspsi   :  10066.83s CPU  10117.05s WALL (   16936 calls)

     General routines
     calbec       :  14139.77s CPU  14195.33s WALL (   18744 calls)
     fft          :     86.07s CPU     97.39s WALL (    4676 calls)
     ffts         :      4.38s CPU      4.51s WALL (     673 calls)
     fftw         :  20981.64s CPU  21121.64s WALL ( 7406574 calls)
     interpolate  :      8.23s CPU      9.10s WALL (     340 calls)
 
     Parallel routines
 
     PWSCF        :   1d 7h16m CPU   1d 7h47m WALL

 
   This run was terminated on:   5:32:41  31Mar2024            

=------------------------------------------------------------------------------=
   JOB DONE.
=------------------------------------------------------------------------------=
