
     Program PWSCF v.7.3 starts on  9Mar2024 at 11: 3:49 

     This program is part of the open-source Quantum ESPRESSO suite
     for quantum simulation of materials; please cite
         "P. Giannozzi et al., J. Phys.:Condens. Matter 21 395502 (2009);
         "P. Giannozzi et al., J. Phys.:Condens. Matter 29 465901 (2017);
         "P. Giannozzi et al., J. Chem. Phys. 152 154105 (2020);
          URL http://www.quantum-espresso.org", 
     in publications or presentations arising from this work. More details at
     http://www.quantum-espresso.org/quote

     Parallel version (MPI & OpenMP), running on      36 processor cores
     Number of MPI processes:                36
     Threads/MPI process:                     1

     MPI processes distributed on     1 nodes
     560867 MiB available memory on the printing compute node when the environment starts
 
     Waiting for input...
     Reading input from standard input
Warning: card &CELL ignored
Warning: card / ignored

     Current dimensions of program PWSCF are:
     Max number of different atomic species (ntypx) = 10
     Max number of k-points (npk) =  40000
     Max angular momentum in pseudopotentials (lmaxx) =  4
     file Mo.pbe-spn-kjpaw_psl.1.0.0.UPF: wavefunction(s)  4S 4D renormalized
     file S.pbe-n-kjpaw_psl.1.0.0.UPF: wavefunction(s)  3S 3P renormalized
     file Pt.pbe-spfn-kjpaw_psl.1.0.0.UPF: wavefunction(s)  5P 4F renormalized
     file Pd.pbe-spn-kjpaw_psl.1.0.0.UPF: wavefunction(s)  4S 5S 4D renormalized
 
     R & G space division:  proc/nbgrp/npool/nimage =      36
     Subspace diagonalization in iterative solution of the eigenvalue problem:
     one sub-group per band group will be used
     scalapack distributed-memory algorithm (size of sub-group:  6*  6 procs)

 
     Parallelization info
     --------------------
     sticks:   dense  smooth     PW     G-vecs:    dense   smooth      PW
     Min         586     335     89               165416    71459    9765
     Max         587     337     90               165425    71461    9778
     Sum       21109   12085   3205              5955087  2572543  351657
 
     Using Slab Decomposition
 


     bravais-lattice index     =            0
     lattice parameter (alat)  =      23.8395  a.u.
     unit-cell volume          =   28182.8498 (a.u.)^3
     number of atoms/cell      =          146
     number of atomic types    =            4
     number of electrons       =      1298.00
     number of Kohn-Sham states=          779
     kinetic-energy cutoff     =      77.0000  Ry
     charge density cutoff     =     539.0000  Ry
     scf convergence threshold =      1.0E-06
     mixing beta               =       0.2000
     number of iterations used =            8  plain     mixing
     energy convergence thresh.=      1.0E-04
     force convergence thresh. =      1.0E-03
     Exchange-correlation= SLA  PW   PBX  PBC
                           (   1   4   3   4   0   0   0)
     nstep                     =         1000


     Effective Screening Medium Method
     =================================
     Boundary Conditions: Vacuum-Slab-Vacuum
     total charge in unit cell        =   0.0000
     grid points for fit at edges     =        4 
 

     celldm(1)=  23.839504  celldm(2)=   0.000000  celldm(3)=   0.000000
     celldm(4)=   0.000000  celldm(5)=   0.000000  celldm(6)=   0.000000

     crystal axes: (cart. coord. in units of alat)
               a(1) = (   1.000000   0.000000   0.000000 )  
               a(2) = (  -0.500001   0.866026   0.000000 )  
               a(3) = (   0.000000   0.000000   2.401941 )  

     reciprocal axes: (cart. coord. in units 2 pi/alat)
               b(1) = (  1.000000  0.577351  0.000000 )  
               b(2) = (  0.000000  1.154700  0.000000 )  
               b(3) = (  0.000000  0.000000  0.416330 )  


     PseudoPot. # 1 for Mo read from file:
     ./pseudo/Mo.pbe-spn-kjpaw_psl.1.0.0.UPF
     MD5 check sum: 317bf72632116215fd98f72de1686f13
     Pseudo is Projector augmented-wave + core cor, Zval = 14.0
     Generated using 'atomic' code by A. Dal Corso  v.7.2
     Shape of augmentation charge: PSQ
     Using radial grid of 1229 points,  6 beta functions with: 
                l(1) =   0
                l(2) =   0
                l(3) =   1
                l(4) =   1
                l(5) =   2
                l(6) =   2
     Q(r) pseudized with 0 coefficients 


     PseudoPot. # 2 for S  read from file:
     ./pseudo/S.pbe-n-kjpaw_psl.1.0.0.UPF
     MD5 check sum: 8b7b5302570d38d5e87fed6a1065abda
     Pseudo is Projector augmented-wave + core cor, Zval =  6.0
     Generated using 'atomic' code by A. Dal Corso  v.7.2
     Shape of augmentation charge: PSQ
     Using radial grid of 1151 points,  6 beta functions with: 
                l(1) =   0
                l(2) =   0
                l(3) =   1
                l(4) =   1
                l(5) =   2
                l(6) =   2
     Q(r) pseudized with 0 coefficients 


     PseudoPot. # 3 for Pt read from file:
     ./pseudo/Pt.pbe-spfn-kjpaw_psl.1.0.0.UPF
     MD5 check sum: 620096ebf4e6ebacc94de60fd67efcb5
     Pseudo is Projector augmented-wave + core cor, Zval = 32.0
     Generated using 'atomic' code by A. Dal Corso  v.7.2
     Shape of augmentation charge: PSQ
     Using radial grid of 1277 points,  8 beta functions with: 
                l(1) =   0
                l(2) =   0
                l(3) =   1
                l(4) =   1
                l(5) =   2
                l(6) =   2
                l(7) =   3
                l(8) =   3
     Q(r) pseudized with 0 coefficients 


     PseudoPot. # 4 for Pd read from file:
     ./pseudo/Pd.pbe-spn-kjpaw_psl.1.0.0.UPF
     MD5 check sum: a60571a671f2502b8a6a4569d20a6edb
     Pseudo is Projector augmented-wave + core cor, Zval = 18.0
     Generated using 'atomic' code by A. Dal Corso  v.7.2
     Shape of augmentation charge: PSQ
     Using radial grid of 1235 points,  6 beta functions with: 
                l(1) =   0
                l(2) =   0
                l(3) =   1
                l(4) =   1
                l(5) =   2
                l(6) =   2
     Q(r) pseudized with 0 coefficients 


     atomic species   valence    mass     pseudopotential
     Mo               14.00    95.95000     Mo( 1.00)
     S                 6.00    32.06000     S ( 1.00)
     Pt               32.00   195.08400     Pt( 1.00)
     Pd               18.00   106.42000     Pd( 1.00)

     No symmetry found



   Cartesian axes

     site n.     atom                  positions (alat units)
         1        Mo     tau(   1) = (   0.1245066   0.2151403   0.4829270  )
         2        Mo     tau(   2) = (   0.1250004   0.0721694  -0.4825273  )
         3        Mo     tau(   3) = (   0.0000143   0.1443586  -0.0000404  )
         4        S      tau(   4) = (   0.0000004   0.0000006  -0.6064556  )
         5        S      tau(   5) = (   0.1249859   0.0722111  -0.1241825  )
         6        S      tau(   6) = (   0.0002990   0.1445714   0.3572522  )
         7        S      tau(   7) = (   0.0000004   0.0000005  -0.3584711  )
         8        S      tau(   8) = (   0.1250243   0.0721377   0.1241202  )
         9        S      tau(   9) = (  -0.0011552   0.1430195   0.6061730  )
        10        Mo     tau(  10) = (  -0.0014303   0.4332690   0.4829269  )
        11        Mo     tau(  11) = (   0.0000001   0.2886759  -0.4825273  )
        12        Mo     tau(  12) = (  -0.1249759   0.3608474  -0.0000404  )
        13        S      tau(  13) = (  -0.1249999   0.2165071  -0.6064556  )
        14        S      tau(  14) = (   0.0000250   0.2886908  -0.1241273  )
        15        S      tau(  15) = (  -0.1246483   0.3609863   0.3572522  )
        16        S      tau(  16) = (  -0.1249998   0.2165070  -0.3584711  )
        17        S      tau(  17) = (   0.0000923   0.2887297   0.1242244  )
        18        S      tau(  18) = (  -0.1267194   0.3605027   0.6061730  )
        19        Mo     tau(  19) = (  -0.1251617   0.6496109   0.4820319  )
        20        Mo     tau(  20) = (  -0.1250002   0.5051824  -0.4825273  )
        21        Mo     tau(  21) = (  -0.2500022   0.5773395  -0.0001503  )
        22        S      tau(  22) = (  -0.2500002   0.4330136  -0.6064556  )
        23        S      tau(  23) = (  -0.1249718   0.5051500  -0.1241823  )
        24        S      tau(  24) = (  -0.2500018   0.5776353   0.3574746  )
        25        S      tau(  25) = (  -0.2500001   0.4330135  -0.3584711  )
        26        S      tau(  26) = (  -0.1250162   0.5052198   0.1241203  )
        27        S      tau(  27) = (  -0.2500018   0.5771316   0.6060170  )
        28        Mo     tau(  28) = (   0.2499988  -0.0001852   0.4820322  )
        29        Mo     tau(  29) = (  -0.2500004   0.7216889  -0.4825273  )
        30        Mo     tau(  30) = (  -0.3750121   0.7938628  -0.0001504  )
        31        S      tau(  31) = (  -0.3750004   0.6495201  -0.6064556  )
        32        S      tau(  32) = (  -0.2500022   0.7216884  -0.1242395  )
        33        S      tau(  33) = (  -0.3747547   0.7937137   0.3574746  )
        34        S      tau(  34) = (  -0.3750004   0.6495200  -0.3584711  )
        35        S      tau(  35) = (  -0.2500023   0.7216883   0.1240244  )
        36        S      tau(  36) = (  -0.3751912   0.7939655   0.6060169  )
        37        Mo     tau(  37) = (   0.3754907   0.2151405   0.4829271  )
        38        Mo     tau(  38) = (   0.3750004   0.0721694  -0.4825273  )
        39        Mo     tau(  39) = (   0.2499984   0.1443573  -0.0000731  )
        40        S      tau(  40) = (   0.2500004   0.0000006  -0.6064556  )
        41        S      tau(  41) = (   0.3750112   0.0722112  -0.1241824  )
        42        S      tau(  42) = (   0.2499987   0.1444686   0.3583292  )
        43        S      tau(  43) = (   0.2500004   0.0000005  -0.3584711  )
        44        S      tau(  44) = (   0.3749727   0.0721378   0.1241202  )
        45        S      tau(  45) = (   0.2499989   0.1436262   0.6067914  )
        46        Mo     tau(  46) = (   0.2499982   0.4330120   0.4873213  )
        47        Mo     tau(  47) = (   0.2500001   0.2886759  -0.4825273  )
        48        Mo     tau(  48) = (   0.1250313   0.3608632  -0.0000369  )
        49        S      tau(  49) = (   0.1250001   0.2165071  -0.6064556  )
        50        S      tau(  50) = (   0.2499984   0.2886902  -0.1241509  )
        51        S      tau(  51) = (   0.1269276   0.3619573   0.3622727  )
        52        S      tau(  52) = (   0.1250002   0.2165070  -0.3584711  )
        53        S      tau(  53) = (   0.2499983   0.2886817   0.1242427  )
        54        S      tau(  54) = (   0.1143670   0.3547054   0.6129634  )
        55        Mo     tau(  55) = (   0.1240620   0.6506275   0.4829270  )
        56        Mo     tau(  56) = (   0.1249998   0.5051824  -0.4825273  )
        57        Mo     tau(  57) = (   0.0000150   0.5773409  -0.0000731  )
        58        S      tau(  58) = (  -0.0000002   0.4330136  -0.6064556  )
        59        S      tau(  59) = (   0.1250108   0.5051746  -0.1241509  )
        60        S      tau(  60) = (   0.0001121   0.5772840   0.3583290  )
        61        S      tau(  61) = (  -0.0000001   0.4330135  -0.3584711  )
        62        S      tau(  62) = (   0.1250034   0.5051788   0.1242428  )
        63        S      tau(  63) = (  -0.0006172   0.5777056   0.6067911  )
        64        Mo     tau(  64) = (   0.5000733   0.0000423   0.4811256  )
        65        Mo     tau(  65) = (  -0.0000004   0.7216889  -0.4825273  )
        66        Mo     tau(  66) = (  -0.1249927   0.7938628  -0.0001503  )
        67        S      tau(  67) = (  -0.1250004   0.6495201  -0.6064556  )
        68        S      tau(  68) = (   0.0000406   0.7216783  -0.1241824  )
        69        S      tau(  69) = (  -0.1252496   0.7937135   0.3574746  )
        70        S      tau(  70) = (  -0.1250004   0.6495200  -0.3584711  )
        71        S      tau(  71) = (  -0.0000422   0.7216817   0.1241204  )
        72        S      tau(  72) = (  -0.1248129   0.7939655   0.6060170  )
        73        Mo     tau(  73) = (   0.6251034   0.2164454   0.4813717  )
        74        Mo     tau(  74) = (   0.6250004   0.0721694  -0.4825273  )
        75        Mo     tau(  75) = (   0.4999826   0.1443587  -0.0000403  )
        76        S      tau(  76) = (   0.5000004   0.0000006  -0.6064556  )
        77        S      tau(  77) = (   0.6249765   0.0721563  -0.1241436  )
        78        S      tau(  78) = (   0.4996985   0.1445712   0.3572516  )
        79        S      tau(  79) = (   0.5000004   0.0000005  -0.3584711  )
        80        S      tau(  80) = (   0.6250052   0.0721729   0.1241442  )
        81        S      tau(  81) = (   0.5011529   0.1430194   0.6061729  )
        82        Mo     tau(  82) = (   0.5014272   0.4332689   0.4829269  )
        83        Mo     tau(  83) = (   0.5000001   0.2886759  -0.4825273  )
        84        Mo     tau(  84) = (   0.3749652   0.3608633  -0.0000370  )
        85        S      tau(  85) = (   0.3750001   0.2165071  -0.6064556  )
        86        S      tau(  86) = (   0.4999715   0.2886908  -0.1241272  )
        87        S      tau(  87) = (   0.3730698   0.3619571   0.3622724  )
        88        S      tau(  88) = (   0.3750002   0.2165070  -0.3584711  )
        89        S      tau(  89) = (   0.4999043   0.2887298   0.1242243  )
        90        S      tau(  90) = (   0.3856284   0.3547066   0.6129638  )
        91        Mo     tau(  91) = (   0.3759345   0.6506277   0.4829270  )
        92        Mo     tau(  92) = (   0.3749998   0.5051824  -0.4825273  )
        93        Mo     tau(  93) = (   0.2499980   0.5773127  -0.0000370  )
        94        S      tau(  94) = (   0.2499998   0.4330136  -0.6064556  )
        95        S      tau(  95) = (   0.3749852   0.5051745  -0.1241508  )
        96        S      tau(  96) = (   0.2499983   0.5751230   0.3622722  )
        97        S      tau(  97) = (   0.2499999   0.4330135  -0.3584711  )
        98        S      tau(  98) = (   0.3749925   0.5051788   0.1242430  )
        99        S      tau(  99) = (   0.2499985   0.5896211   0.6129642  )
       100        Mo     tau( 100) = (   0.7499990   0.0001203   0.4813716  )
       101        Mo     tau( 101) = (   0.2499996   0.7216889  -0.4825273  )
       102        Mo     tau( 102) = (   0.1250080   0.7938333  -0.0000403  )
       103        S      tau( 103) = (   0.1249996   0.6495201  -0.6064556  )
       104        S      tau( 104) = (   0.2499977   0.7216576  -0.1241273  )
       105        S      tau( 105) = (   0.1250507   0.7934796   0.3572514  )
       106        S      tau( 106) = (   0.1249996   0.6495200  -0.3584711  )
       107        S      tau( 107) = (   0.2499978   0.7215798   0.1242243  )
       108        S      tau( 108) = (   0.1244341   0.7955149   0.6061727  )
       109        Mo     tau( 109) = (  -0.1251058   0.2164455   0.4813720  )
       110        Mo     tau( 110) = (   0.8750004   0.0721694  -0.4825273  )
       111        Mo     tau( 111) = (   0.7499984   0.1443377  -0.0000951  )
       112        S      tau( 112) = (   0.7500004   0.0000006  -0.6064556  )
       113        S      tau( 113) = (   0.8750204   0.0721563  -0.1241436  )
       114        S      tau( 114) = (   0.7499989   0.1443372   0.3571897  )
       115        S      tau( 115) = (   0.7500004   0.0000005  -0.3584711  )
       116        S      tau( 116) = (   0.8749917   0.0721728   0.1241442  )
       117        S      tau( 117) = (   0.7499986   0.1443371   0.6056765  )
       118        Mo     tau( 118) = (  -0.2500015   0.4329261   0.4811261  )
       119        Mo     tau( 119) = (   0.7500001   0.2886759  -0.4825273  )
       120        Mo     tau( 120) = (   0.6249722   0.3608476  -0.0000403  )
       121        S      tau( 121) = (   0.6250001   0.2165071  -0.6064556  )
       122        S      tau( 122) = (   0.7499981   0.2887008  -0.1241435  )
       123        S      tau( 123) = (   0.6246456   0.3609863   0.3572519  )
       124        S      tau( 124) = (   0.6250002   0.2165070  -0.3584711  )
       125        S      tau( 125) = (   0.7499982   0.2886677   0.1241441  )
       126        S      tau( 126) = (   0.6267164   0.3605023   0.6061731  )
       127        Mo     tau( 127) = (  -0.3748420   0.6496111   0.4820319  )
       128        Mo     tau( 128) = (   0.6249998   0.5051824  -0.4825273  )
       129        Mo     tau( 129) = (   0.4999808   0.5773409  -0.0000733  )
       130        S      tau( 130) = (   0.4999998   0.4330136  -0.6064556  )
       131        S      tau( 131) = (   0.6249676   0.5051499  -0.1241823  )
       132        S      tau( 132) = (   0.4998845   0.5772841   0.3583289  )
       133        S      tau( 133) = (   0.4999999   0.4330135  -0.3584711  )
       134        S      tau( 134) = (   0.6250119   0.5052197   0.1241202  )
       135        S      tau( 135) = (   0.5006138   0.5777054   0.6067911  )
       136        Mo     tau( 136) = (  -0.0000756   0.0000425   0.4811258  )
       137        Mo     tau( 137) = (   0.4999996   0.7216889  -0.4825273  )
       138        Mo     tau( 138) = (   0.3749875   0.7938333  -0.0000404  )
       139        S      tau( 139) = (   0.3749996   0.6495201  -0.6064556  )
       140        S      tau( 140) = (   0.4999549   0.7216781  -0.1241825  )
       141        S      tau( 141) = (   0.3749453   0.7934797   0.3572516  )
       142        S      tau( 142) = (   0.3749996   0.6495200  -0.3584711  )
       143        S      tau( 143) = (   0.5000375   0.7216816   0.1241203  )
       144        S      tau( 144) = (   0.3755618   0.7955149   0.6061729  )
       145        Pt     tau( 145) = (   0.2499972   0.4330095   0.7045710  )
       146        Pd     tau( 146) = (   0.3754958   0.2151352   0.7398146  )

     --------------------------------------------
     DFT-D3 Dispersion Correction (3-body terms):
     --------------------------------------------
       Reference C6 values for interpolation: 

         atom   Coordination number   C6
         S          0.000           268.01
         S          0.995           261.99
         S          1.990           251.62
         Mo         0.000          1691.79
         Mo         1.942          1004.01
         Mo        11.056           674.22
         Pd         0.000          1217.01
         Pd         1.863           573.90
         Pd         5.710           531.75
         Pt         0.000           782.29
         Pt         1.919           692.72
         Pt         6.667           673.75

       Values used:

         atom   Coordination number  R0_AB[au]  C6      C8
         Mo        10.179            3.547    674.22  77634.20
         Mo        10.189            3.547    674.22  77634.20
         Mo        10.200            3.547    674.22  77634.20
         S          3.753            3.128    251.62  12327.25
         S          3.858            3.128    251.62  12327.25
         S          3.845            3.128    251.62  12327.25
         S          3.859            3.128    251.62  12327.25
         S          3.860            3.128    251.62  12327.25
         S          3.822            3.128    251.62  12327.25
         Mo        10.173            3.547    674.22  77634.20
         Mo        10.189            3.547    674.22  77634.20
         Mo        10.200            3.547    674.22  77634.20
         S          3.753            3.128    251.62  12327.25
         S          3.859            3.128    251.62  12327.25
         S          3.845            3.128    251.62  12327.25
         S          3.858            3.128    251.62  12327.25
         S          3.855            3.128    251.62  12327.25
         S          3.821            3.128    251.62  12327.25
         Mo        10.217            3.547    674.22  77634.20
         Mo        10.189            3.547    674.22  77634.20
         Mo        10.200            3.547    674.22  77634.20
         S          3.753            3.128    251.62  12327.25
         S          3.858            3.128    251.62  12327.25
         S          3.861            3.128    251.62  12327.25
         S          3.859            3.128    251.62  12327.25
         S          3.860            3.128    251.62  12327.25
         S          3.762            3.128    251.62  12327.25
         Mo        10.223            3.547    674.22  77634.20
         Mo        10.189            3.547    674.22  77634.20
         Mo        10.200            3.547    674.22  77634.20
         S          3.753            3.128    251.62  12327.25
         S          3.858            3.128    251.62  12327.25
         S          3.861            3.128    251.62  12327.25
         S          3.859            3.128    251.62  12327.25
         S          3.863            3.128    251.62  12327.25
         S          3.763            3.128    251.62  12327.25
         Mo        10.498            3.547    674.22  77634.20
         Mo        10.189            3.547    674.22  77634.20
         Mo        10.202            3.547    674.22  77634.20
         S          3.753            3.128    251.62  12327.25
         S          3.858            3.128    251.62  12327.25
         S          3.859            3.128    251.62  12327.25
         S          3.859            3.128    251.62  12327.25
         S          3.860            3.128    251.62  12327.25
         S          4.641            3.128    251.62  12327.25
         Mo        10.895            3.547    674.22  77634.20
         Mo        10.189            3.547    674.22  77634.20
         Mo        10.203            3.547    674.22  77634.20
         S          3.753            3.128    251.62  12327.25
         S          3.859            3.128    251.62  12327.25
         S          3.865            3.128    251.62  12327.25
         S          3.859            3.128    251.62  12327.25
         S          3.851            3.128    251.62  12327.25
         S          4.660            3.128    251.62  12327.25
         Mo        10.173            3.547    674.22  77634.20
         Mo        10.189            3.547    674.22  77634.20
         Mo        10.201            3.547    674.22  77634.20
         S          3.753            3.128    251.62  12327.25
         S          3.859            3.128    251.62  12327.25
         S          3.858            3.128    251.62  12327.25
         S          3.859            3.128    251.62  12327.25
         S          3.851            3.128    251.62  12327.25
         S          3.752            3.128    251.62  12327.25
         Mo        10.236            3.547    674.22  77634.20
         Mo        10.189            3.547    674.22  77634.20
         Mo        10.200            3.547    674.22  77634.20
         S          3.753            3.128    251.62  12327.25
         S          3.858            3.128    251.62  12327.25
         S          3.861            3.128    251.62  12327.25
         S          3.859            3.128    251.62  12327.25
         S          3.860            3.128    251.62  12327.25
         S          3.770            3.128    251.62  12327.25
         Mo        10.221            3.547    674.22  77634.20
         Mo        10.189            3.547    674.22  77634.20
         Mo        10.200            3.547    674.22  77634.20
         S          3.753            3.128    251.62  12327.25
         S          3.858            3.128    251.62  12327.25
         S          3.846            3.128    251.62  12327.25
         S          3.859            3.128    251.62  12327.25
         S          3.860            3.128    251.62  12327.25
         S          4.703            3.128    251.62  12327.25
         Mo        10.178            3.547    674.22  77634.20
         Mo        10.189            3.547    674.22  77634.20
         Mo        10.203            3.547    674.22  77634.20
         S          3.753            3.128    251.62  12327.25
         S          3.859            3.128    251.62  12327.25
         S          3.865            3.128    251.62  12327.25
         S          3.859            3.128    251.62  12327.25
         S          3.855            3.128    251.62  12327.25
         S          5.596            3.128    251.62  12327.25
         Mo        10.173            3.547    674.22  77634.20
         Mo        10.189            3.547    674.22  77634.20
         Mo        10.203            3.547    674.22  77634.20
         S          3.753            3.128    251.62  12327.25
         S          3.859            3.128    251.62  12327.25
         S          3.864            3.128    251.62  12327.25
         S          3.859            3.128    251.62  12327.25
         S          3.851            3.128    251.62  12327.25
         S          4.654            3.128    251.62  12327.25
         Mo        10.216            3.547    674.22  77634.20
         Mo        10.189            3.547    674.22  77634.20
         Mo        10.200            3.547    674.22  77634.20
         S          3.753            3.128    251.62  12327.25
         S          3.859            3.128    251.62  12327.25
         S          3.845            3.128    251.62  12327.25
         S          3.859            3.128    251.62  12327.25
         S          3.855            3.128    251.62  12327.25
         S          3.822            3.128    251.62  12327.25
         Mo        10.215            3.547    674.22  77634.20
         Mo        10.189            3.547    674.22  77634.20
         Mo        10.200            3.547    674.22  77634.20
         S          3.753            3.128    251.62  12327.25
         S          3.858            3.128    251.62  12327.25
         S          3.853            3.128    251.62  12327.25
         S          3.858            3.128    251.62  12327.25
         S          3.860            3.128    251.62  12327.25
         S          3.786            3.128    251.62  12327.25
         Mo        10.230            3.547    674.22  77634.20
         Mo        10.189            3.547    674.22  77634.20
         Mo        10.200            3.547    674.22  77634.20
         S          3.753            3.128    251.62  12327.25
         S          3.858            3.128    251.62  12327.25
         S          3.846            3.128    251.62  12327.25
         S          3.858            3.128    251.62  12327.25
         S          3.860            3.128    251.62  12327.25
         S          3.828            3.128    251.62  12327.25
         Mo        10.217            3.547    674.22  77634.20
         Mo        10.189            3.547    674.22  77634.20
         Mo        10.202            3.547    674.22  77634.20
         S          3.753            3.128    251.62  12327.25
         S          3.858            3.128    251.62  12327.25
         S          3.858            3.128    251.62  12327.25
         S          3.859            3.128    251.62  12327.25
         S          3.860            3.128    251.62  12327.25
         S          3.752            3.128    251.62  12327.25
         Mo        10.230            3.547    674.22  77634.20
         Mo        10.189            3.547    674.22  77634.20
         Mo        10.200            3.547    674.22  77634.20
         S          3.753            3.128    251.62  12327.25
         S          3.858            3.128    251.62  12327.25
         S          3.845            3.128    251.62  12327.25
         S          3.859            3.128    251.62  12327.25
         S          3.860            3.128    251.62  12327.25
         S          3.821            3.128    251.62  12327.25
         Pt         4.232            3.168    690.96  71852.02
         Pd         3.322            3.168    573.90  52583.08

         Molecular C6 ( Ry / a.u.^6 ) =   7937427.90


     number of k points=     4  Gaussian smearing, width (Ry)=  0.0100
                       cart. coord. in units 2pi/alat
        k(    1) = (   0.0000000   0.0000000   0.0000000), wk =   0.5000000
        k(    2) = (   0.0000000  -0.5773499   0.0000000), wk =   0.5000000
        k(    3) = (  -0.5000000  -0.2886755   0.0000000), wk =   0.5000000
        k(    4) = (  -0.5000000  -0.8660254   0.0000000), wk =   0.5000000

     Dense  grid:  5955087 G-vectors     FFT dimensions: ( 180, 180, 432)

     Smooth grid:  2572543 G-vectors     FFT dimensions: ( 135, 135, 320)

     Estimated max dynamical RAM per process >       3.07 GB

     Estimated total dynamical RAM >     110.53 GB

     Initial potential from superposition of free atoms

     starting charge    1297.9541, renormalised to    1298.0000

     negative rho (up, down):  9.142E-04 0.000E+00
     Starting wfcs are  891 randomized atomic wfcs
     Checking if some PAW data can be deallocated... 

     total cpu time spent up to now is       97.8 secs

     Self-consistent Calculation

     iteration #  1     ecut=    77.00 Ry     beta= 0.20
     Davidson diagonalization with overlap
     ethr =  1.00E-02,  avg # of iterations =  2.0

     Threshold (ethr) on eigenvalues was too large:
     Diagonalizing with lowered threshold

     Davidson diagonalization with overlap
     c_bands:  2 eigenvalues not converged
     ethr =  1.79E-04,  avg # of iterations = 13.8

     negative rho (up, down):  2.853E-04 0.000E+00

     total cpu time spent up to now is     1117.9 secs

     total energy              =  -26031.71778661 Ry
     estimated scf accuracy    <       5.12443827 Ry

     iteration #  2     ecut=    77.00 Ry     beta= 0.20
     Davidson diagonalization with overlap
     ethr =  3.95E-04,  avg # of iterations =  2.0

     negative rho (up, down):  4.066E-05 0.000E+00

     total cpu time spent up to now is     1335.7 secs

     total energy              =  -26030.68217428 Ry
     estimated scf accuracy    <       2.64080843 Ry

     iteration #  3     ecut=    77.00 Ry     beta= 0.20
     Davidson diagonalization with overlap
     c_bands:  1 eigenvalues not converged
     ethr =  2.03E-04,  avg # of iterations = 20.0

     negative rho (up, down):  3.917E-05 0.000E+00

     total cpu time spent up to now is     1636.0 secs

     total energy              =  -26031.05238798 Ry
     estimated scf accuracy    <       2.71228462 Ry

     iteration #  4     ecut=    77.00 Ry     beta= 0.20
     Davidson diagonalization with overlap
     ethr =  2.03E-04,  avg # of iterations = 18.2

     negative rho (up, down):  3.040E-05 0.000E+00

     total cpu time spent up to now is     1882.7 secs

     total energy              =  -26031.08072990 Ry
     estimated scf accuracy    <       0.64446834 Ry

     iteration #  5     ecut=    77.00 Ry     beta= 0.20
     Davidson diagonalization with overlap
     ethr =  4.97E-05,  avg # of iterations = 17.5

     negative rho (up, down):  4.180E-05 0.000E+00

     total cpu time spent up to now is     2502.4 secs

     total energy              =  -26031.67641025 Ry
     estimated scf accuracy    <       0.30499245 Ry

     iteration #  6     ecut=    77.00 Ry     beta= 0.20
     Davidson diagonalization with overlap
     c_bands:  3 eigenvalues not converged
     c_bands:  2 eigenvalues not converged
     ethr =  2.35E-05,  avg # of iterations = 17.8

     negative rho (up, down):  6.987E-05 0.000E+00

     total cpu time spent up to now is     2842.9 secs

     total energy              =  -26031.71421380 Ry
     estimated scf accuracy    <       0.18115408 Ry

     iteration #  7     ecut=    77.00 Ry     beta= 0.20
     Davidson diagonalization with overlap
     c_bands:  1 eigenvalues not converged
     c_bands:  1 eigenvalues not converged
     c_bands:  3 eigenvalues not converged
     ethr =  1.40E-05,  avg # of iterations = 27.2

     negative rho (up, down):  3.066E-04 0.000E+00

     total cpu time spent up to now is     3239.6 secs

     total energy              =  -26031.70247066 Ry
     estimated scf accuracy    <       0.11313681 Ry

     iteration #  8     ecut=    77.00 Ry     beta= 0.20
     Davidson diagonalization with overlap
     c_bands:  2 eigenvalues not converged
     ethr =  8.72E-06,  avg # of iterations = 22.0

     negative rho (up, down):  4.471E-04 0.000E+00

     total cpu time spent up to now is     3679.3 secs

     total energy              =  -26031.77547629 Ry
     estimated scf accuracy    <       0.07451630 Ry

     iteration #  9     ecut=    77.00 Ry     beta= 0.20
     Davidson diagonalization with overlap
     c_bands:  4 eigenvalues not converged
     ethr =  5.74E-06,  avg # of iterations =  9.2

     negative rho (up, down):  4.016E-04 0.000E+00

     total cpu time spent up to now is     3924.2 secs

     total energy              =  -26031.75907795 Ry
     estimated scf accuracy    <       0.05499804 Ry

     iteration # 10     ecut=    77.00 Ry     beta= 0.20
     Davidson diagonalization with overlap
     c_bands:  1 eigenvalues not converged
     c_bands:  3 eigenvalues not converged
     ethr =  4.24E-06,  avg # of iterations = 16.2

     negative rho (up, down):  4.182E-04 0.000E+00

     total cpu time spent up to now is     4245.5 secs

     total energy              =  -26031.77879316 Ry
     estimated scf accuracy    <       0.00537633 Ry

     iteration # 11     ecut=    77.00 Ry     beta= 0.20
     Davidson diagonalization with overlap
     c_bands:  5 eigenvalues not converged
     c_bands:  1 eigenvalues not converged
     c_bands:  5 eigenvalues not converged
     ethr =  4.14E-07,  avg # of iterations = 45.5

     negative rho (up, down):  4.345E-04 0.000E+00

     total cpu time spent up to now is     5548.8 secs

     total energy              =  -26031.79605627 Ry
     estimated scf accuracy    <       0.00816413 Ry

     iteration # 12     ecut=    77.00 Ry     beta= 0.20
     Davidson diagonalization with overlap
     c_bands:  2 eigenvalues not converged
     ethr =  4.14E-07,  avg # of iterations =  6.2

     negative rho (up, down):  4.947E-04 0.000E+00

     total cpu time spent up to now is     5771.9 secs

     total energy              =  -26031.79466431 Ry
     estimated scf accuracy    <       0.00650978 Ry

     iteration # 13     ecut=    77.00 Ry     beta= 0.20
     Davidson diagonalization with overlap
     ethr =  4.14E-07,  avg # of iterations =  1.5

     negative rho (up, down):  7.445E-04 0.000E+00

     total cpu time spent up to now is     5979.0 secs

     total energy              =  -26031.79234975 Ry
     estimated scf accuracy    <       0.00390520 Ry

     iteration # 14     ecut=    77.00 Ry     beta= 0.20
     Davidson diagonalization with overlap
     ethr =  3.01E-07,  avg # of iterations = 10.5

     negative rho (up, down):  7.612E-04 0.000E+00

     total cpu time spent up to now is     6358.1 secs

     total energy              =  -26031.79480084 Ry
     estimated scf accuracy    <       0.00085647 Ry

     iteration # 15     ecut=    77.00 Ry     beta= 0.20
     Davidson diagonalization with overlap
     ethr =  6.60E-08,  avg # of iterations = 10.5

     negative rho (up, down):  7.518E-04 0.000E+00

     total cpu time spent up to now is     6751.8 secs

     total energy              =  -26031.79524031 Ry
     estimated scf accuracy    <       0.00115224 Ry

     iteration # 16     ecut=    77.00 Ry     beta= 0.20
     Davidson diagonalization with overlap
     ethr =  6.60E-08,  avg # of iterations =  1.0

     negative rho (up, down):  8.732E-04 0.000E+00

     total cpu time spent up to now is     6949.3 secs

     total energy              =  -26031.79472674 Ry
     estimated scf accuracy    <       0.00093740 Ry

     iteration # 17     ecut=    77.00 Ry     beta= 0.20
     Davidson diagonalization with overlap
     ethr =  6.60E-08,  avg # of iterations =  7.2

     negative rho (up, down):  9.066E-04 0.000E+00

     total cpu time spent up to now is     7196.2 secs

     total energy              =  -26031.79481562 Ry
     estimated scf accuracy    <       0.00015751 Ry

     iteration # 18     ecut=    77.00 Ry     beta= 0.20
     Davidson diagonalization with overlap
     c_bands:  5 eigenvalues not converged
     ethr =  1.21E-08,  avg # of iterations = 17.8

     negative rho (up, down):  8.864E-04 0.000E+00

     total cpu time spent up to now is     7749.4 secs

     total energy              =  -26031.79507623 Ry
     estimated scf accuracy    <       0.00003385 Ry

     iteration # 19     ecut=    77.00 Ry     beta= 0.20
     Davidson diagonalization with overlap
     c_bands:  2 eigenvalues not converged
     ethr =  2.61E-09,  avg # of iterations = 18.8

     negative rho (up, down):  9.105E-04 0.000E+00

     total cpu time spent up to now is     8323.3 secs

     total energy              =  -26031.79510978 Ry
     estimated scf accuracy    <       0.00001661 Ry

     iteration # 20     ecut=    77.00 Ry     beta= 0.20
     Davidson diagonalization with overlap
     c_bands:  5 eigenvalues not converged
     ethr =  1.28E-09,  avg # of iterations = 11.5

     negative rho (up, down):  9.141E-04 0.000E+00

     total cpu time spent up to now is     8618.1 secs

     total energy              =  -26031.79511056 Ry
     estimated scf accuracy    <       0.00000599 Ry

     iteration # 21     ecut=    77.00 Ry     beta= 0.20
     Davidson diagonalization with overlap
     c_bands:  1 eigenvalues not converged
     c_bands:  1 eigenvalues not converged
     ethr =  4.61E-10,  avg # of iterations = 17.5

     negative rho (up, down):  9.204E-04 0.000E+00

     total cpu time spent up to now is     9205.3 secs

     total energy              =  -26031.79511351 Ry
     estimated scf accuracy    <       0.00000673 Ry

     iteration # 22     ecut=    77.00 Ry     beta= 0.20
     Davidson diagonalization with overlap
     ethr =  4.61E-10,  avg # of iterations =  7.0

     negative rho (up, down):  9.218E-04 0.000E+00

     total cpu time spent up to now is     9458.2 secs

     End of self-consistent calculation

          k = 0.0000 0.0000 0.0000 (321495 PWs)   bands (ev):

  -102.9876 -88.0383 -71.3097 -71.2973 -71.2879 -71.2755 -71.2679 -71.2612
   -71.2536 -66.6931 -66.6721 -66.6721 -66.6721 -66.6720 -66.6720 -66.6720
   -66.6509 -66.6509 -66.6509 -66.6509 -66.6509 -66.6508 -66.6508 -66.6508
   -66.6508 -66.6272 -66.6065 -66.6063 -66.6061 -66.6061 -66.6060 -66.6058
   -66.5854 -66.5852 -66.5852 -66.5850 -66.5849 -66.5849 -66.5848 -66.5847
   -66.5846 -66.5592 -66.5478 -66.5400 -66.5381 -66.5339 -66.5266 -66.5252
   -66.5187 -66.5164 -66.5103 -66.5024 -66.4963 -66.4923 -66.4876 -66.4805
   -66.4737 -57.2319 -57.2205 -57.1823 -53.8929 -53.8552 -53.7741 -41.0196
   -41.0196 -41.0196 -40.9526 -40.9525 -40.9524 -40.9448 -40.9448 -40.9448
   -40.9448 -40.9447 -40.9447 -40.8779 -40.8778 -40.8777 -40.8777 -40.8776
   -40.8776 -40.8776 -40.8765 -40.8708 -40.8533 -40.8192 -40.8192 -40.8192
   -40.8192 -40.8192 -40.8192 -40.8119 -40.8119 -40.8119 -40.8119 -40.8118
   -40.8118 -40.8063 -40.8041 -40.7991 -40.7950 -40.7879 -40.7844 -40.7844
   -40.7843 -40.7843 -40.7843 -40.7843 -40.7806 -40.7792 -40.7703 -40.7702
   -40.7702 -40.7702 -40.7702 -40.7702 -40.7701 -40.7701 -40.7701 -40.7525
   -40.7524 -40.7523 -40.7522 -40.7522 -40.7522 -40.7467 -40.7466 -40.7465
   -40.7465 -40.7463 -40.7462 -40.7427 -40.7177 -40.7176 -40.7175 -40.7175
   -40.7174 -40.7173 -40.7167 -40.7065 -40.7065 -40.7065 -40.7052 -40.7050
   -40.7050 -40.7049 -40.7049 -40.7048 -40.7047 -40.7046 -40.7045 -40.6896
   -40.6838 -40.6820 -40.6811 -40.6804 -40.6783 -40.6759 -40.6702 -40.6671
   -40.6650 -40.6597 -40.6597 -40.6597 -40.6597 -40.6597 -40.6597 -40.6517
   -40.6497 -40.6485 -40.6452 -40.6440 -40.6398 -40.6398 -40.6397 -40.6391
   -40.6365 -40.6359 -40.6336 -40.6295 -40.6279 -40.6252 -40.6226 -40.6172
   -40.6170 -40.6163 -40.6124 -40.6124 -40.5933 -40.5930 -40.5930 -40.5929
   -40.5929 -40.5928 -40.5621 -40.5600 -40.5573 -40.5457 -40.5457 -40.5129
   -40.5117 -40.5068 -40.5052 -40.5013 -40.4980 -40.4528 -40.4482 -20.1355
   -20.0629 -19.9265 -19.4470 -19.2865 -19.2711 -19.2596 -19.2588 -19.2580
   -19.2502 -19.2331 -19.2182 -19.1604 -19.1516 -19.1448 -19.1043 -19.0902
   -19.0861 -19.0501 -19.0347 -19.0194 -18.8832 -18.7402 -18.6539 -18.5532
   -18.5489 -18.4980 -18.4731 -18.4659 -18.4612 -18.4340 -18.4115 -18.3854
   -18.3441 -18.3363 -18.3085 -18.2762 -18.2610 -18.2206 -18.2116 -18.2037
   -18.1696 -18.1574 -18.1540 -18.1530 -18.1530 -18.1526 -18.1525 -18.1515
   -18.1480 -18.1125 -18.1125 -18.1125 -18.0847 -18.0800 -18.0747 -18.0720
   -18.0681 -18.0653 -18.0577 -18.0406 -18.0404 -18.0365 -18.0176 -17.9936
   -17.9858 -17.9792 -17.9750 -17.9732 -17.9573 -17.9540 -17.9525 -17.9423
   -17.9326 -17.9288 -17.9271 -17.9261 -17.9237 -17.8990 -17.8938 -17.8894
   -17.8737 -17.8691 -17.8601 -17.8583 -17.8542 -17.8513 -17.8297 -17.8261
   -17.8186 -17.7967 -17.7872 -17.7822 -17.7757 -17.7741 -17.7667 -12.0544
   -11.9601 -11.8296 -11.7844 -11.7667 -11.7642 -11.7525 -11.6850 -11.6809
   -11.6722 -11.6357 -11.3712 -11.3389 -11.3175 -11.2450 -11.2182 -11.2161
   -11.2133 -11.2032 -11.1963 -11.1877 -11.1455 -11.1411 -11.1402 -11.1383
   -11.1362 -11.1310 -11.1107 -11.0509 -11.0388 -11.0185 -11.0114 -11.0009
   -10.9930 -10.9797 -10.9727 -10.9516 -10.9376 -10.9321 -10.9304 -10.9261
   -10.9223 -10.8971 -10.8965 -10.8692 -10.8599 -10.8527 -10.8466 -10.8440
   -10.8436 -10.8416 -10.8404 -10.8374 -10.8180 -10.8149 -10.8146 -10.8108
   -10.7979 -10.7949 -10.7927 -10.7909 -10.7899 -10.7745 -10.7585 -10.7389
   -10.7360 -10.7189 -10.7019 -10.6949 -10.6645 -10.6462 -10.6352 -10.6178
   -10.6114 -10.6075 -10.4579 -10.3834 -10.0778 -10.0617 -10.0607 -10.0479
   -10.0258  -9.9130  -9.9107  -9.8780  -9.8286  -9.8236  -9.7964  -9.7927
    -9.7886  -9.7841  -9.7700  -9.7535  -9.7409  -9.7222  -9.7082  -9.7045
    -9.6992  -9.6916  -9.6697  -9.6563  -9.6427  -9.6417  -9.6333  -9.6311
    -9.6224  -9.6166  -9.6012  -9.5889  -9.5875  -9.5866  -9.5856  -9.5836
    -9.5827  -9.5796  -9.5633  -9.5487  -9.5355  -9.5335  -9.5244  -9.4777
    -9.4687  -9.4517  -9.4486  -9.4451  -9.4411  -9.4075  -9.3763  -9.3724
    -9.3499  -9.3479  -9.3382  -9.3235  -9.3139  -9.2942  -9.2706  -9.2582
    -9.2385  -9.2323  -9.2139  -9.2056  -9.2033  -9.2013  -9.1850  -9.1245
    -9.1139  -9.0901  -9.0707  -9.0401  -9.0338  -9.0313  -9.0312  -9.0310
    -9.0250  -9.0231  -8.9880  -8.9686  -8.9546  -8.9535  -8.9502  -8.9270
    -8.8986  -8.8861  -8.8700  -8.8603  -8.8275  -8.8231  -8.8146  -8.8130
    -8.8113  -8.8063  -8.8023  -8.7952  -8.7901  -8.7684  -8.7616  -8.7498
    -8.7406  -8.7356  -8.7295  -8.7214  -8.7073  -8.7031  -8.5996  -8.4834
    -8.4607  -8.4424  -8.4424  -8.3698  -8.3698  -8.3457  -8.3308  -8.3303
    -8.3302  -8.3302  -8.3302  -8.3301  -8.3158  -8.2911  -8.2854  -8.2746
    -8.2619  -8.2590  -8.2525  -8.2520  -8.2492  -8.2452  -8.2228  -8.1977
    -8.1287  -8.0830  -8.0146  -7.9517  -7.9454  -7.9050  -7.8846  -7.7331
    -7.7031  -7.6834  -7.6560  -7.6128  -7.5961  -7.5950  -7.5949  -7.5947
    -7.5946  -7.5937  -7.5749  -7.5605  -7.5491  -7.5488  -7.5483  -7.5481
    -7.5478  -7.5468  -7.5279  -7.5237  -7.5212  -7.5175  -7.5140  -7.5114
    -7.5086  -7.5009  -7.4885  -7.4808  -7.4779  -7.4761  -7.4746  -7.4723
    -7.4646  -7.4591  -7.4536  -7.4442  -7.4336  -7.4325  -7.4310  -7.4299
    -7.4283  -7.4166  -7.3939  -7.3805  -7.3135  -7.3135  -7.2970  -7.2827
    -7.2570  -7.2533  -7.2440  -7.2398  -7.2295  -7.2022  -7.1870  -7.1432
    -7.0590  -7.0242  -6.9891  -6.9621  -6.9376  -6.8963  -6.8884  -6.8768
    -6.8431  -6.8263  -6.8143  -6.8083  -6.8001  -6.7650  -6.7122  -6.6784
    -6.6755  -6.6562  -6.6506  -6.6399  -6.6262  -6.6245  -6.6229  -6.6080
    -6.5651  -6.5521  -6.5357  -6.5330  -6.5296  -6.5197  -6.5176  -6.5121
    -6.5086  -6.4812  -6.4744  -6.4649  -6.4536  -6.4497  -6.4384  -6.4332
    -6.4310  -6.4203  -6.3890  -6.3805  -6.3615  -6.3615  -6.3615  -6.3615
    -6.3614  -6.3614  -6.3533  -6.3202  -6.3019  -6.2904  -6.2858  -6.2846
    -6.2828  -6.2813  -6.2806  -6.2669  -6.2456  -6.2249  -6.1886  -6.1757
    -6.0928  -5.9571  -5.8113  -5.7011  -5.5030  -5.4675  -5.3779  -5.3321
    -5.1391  -4.1672  -3.9085  -3.8471  -3.8461  -3.8426  -3.8391  -3.8203
    -3.8174  -3.8130  -3.8120  -3.8107  -3.8084  -3.7880  -3.7263  -3.6186
    -3.6154  -3.6015  -3.5954  -3.5923  -3.5863  -3.5818  -3.5781  -3.5769
    -3.5729  -3.5020  -3.5019  -3.5019  -3.4875  -3.4845  -3.4837  -3.4836
    -3.4818  -3.4814  -3.4439  -3.4350  -3.4347  -3.4347  -3.4235  -3.4101
    -3.4038  -3.3898  -3.3877  -3.3844  -3.3794  -3.3784  -3.3747  -3.3678
    -3.3665  -3.3518  -3.3503  -3.3461  -3.3389  -3.3162  -3.3032  -3.2834
    -3.2779  -3.2726  -3.2681  -3.2464  -3.2448  -3.2382  -3.2198  -3.2016
    -3.0360  -3.0359  -3.0356  -3.0304  -3.0300  -3.0225  -2.9769  -2.9668
    -2.9643  -2.9633  -2.9632  -2.9632  -2.9631  -2.9628  -2.9617  -2.9518
    -2.9437  -2.9427  -2.9397  -2.9367  -2.9122  -2.9090  -2.9022  -2.8993
    -2.8967  -2.8938  -2.8903  -2.8893  -2.8785  -2.8773  -2.8768  -2.8587
    -2.8562  -2.8249  -2.8222  -2.8133  -2.8088  -2.8039  -2.7920  -2.7727
    -2.7721  -2.7523  -2.7511  -2.7494  -2.7478  -2.7384  -2.7364  -2.7042
    -2.7033  -2.6997  -2.6757  -2.6563  -2.6436  -2.6383  -2.6342  -2.6207
    -2.6113  -2.5531  -2.5433  -2.5351  -2.5275  -2.5044  -2.4893  -2.4770
    -2.4623  -2.4578  -2.4538

          k = 0.0000-0.5773 0.0000 (321564 PWs)   bands (ev):

  -102.9876 -88.0383 -71.3097 -71.2973 -71.2879 -71.2755 -71.2679 -71.2612
   -71.2536 -66.6870 -66.6869 -66.6764 -66.6764 -66.6615 -66.6615 -66.6615
   -66.6615 -66.6571 -66.6570 -66.6509 -66.6509 -66.6508 -66.6508 -66.6465
   -66.6465 -66.6212 -66.6209 -66.6106 -66.6104 -66.5957 -66.5957 -66.5956
   -66.5953 -66.5913 -66.5910 -66.5851 -66.5851 -66.5850 -66.5847 -66.5806
   -66.5805 -66.5558 -66.5536 -66.5400 -66.5349 -66.5328 -66.5286 -66.5249
   -66.5195 -66.5155 -66.5100 -66.5026 -66.4963 -66.4922 -66.4878 -66.4807
   -66.4736 -57.2319 -57.2205 -57.1823 -53.8929 -53.8552 -53.7741 -40.9882
   -40.9882 -40.9881 -40.9881 -40.9615 -40.9615 -40.9496 -40.9496 -40.9212
   -40.9212 -40.9210 -40.9209 -40.8992 -40.8992 -40.8991 -40.8991 -40.8946
   -40.8944 -40.8826 -40.8824 -40.8521 -40.8510 -40.8418 -40.8412 -40.8412
   -40.8323 -40.8322 -40.8321 -40.8321 -40.8312 -40.8312 -40.8281 -40.8241
   -40.8211 -40.8205 -40.8205 -40.8018 -40.7910 -40.7910 -40.7910 -40.7910
   -40.7824 -40.7823 -40.7808 -40.7759 -40.7757 -40.7702 -40.7702 -40.7702
   -40.7702 -40.7701 -40.7701 -40.7644 -40.7643 -40.7615 -40.7615 -40.7560
   -40.7551 -40.7550 -40.7481 -40.7414 -40.7395 -40.7395 -40.7394 -40.7394
   -40.7388 -40.7320 -40.7258 -40.7258 -40.7257 -40.7255 -40.7171 -40.7169
   -40.7108 -40.7072 -40.7050 -40.7049 -40.7049 -40.7049 -40.7049 -40.7049
   -40.7048 -40.7046 -40.7034 -40.7033 -40.6963 -40.6962 -40.6929 -40.6928
   -40.6869 -40.6804 -40.6762 -40.6737 -40.6737 -40.6728 -40.6728 -40.6726
   -40.6726 -40.6724 -40.6637 -40.6624 -40.6572 -40.6568 -40.6568 -40.6536
   -40.6412 -40.6404 -40.6383 -40.6383 -40.6381 -40.6381 -40.6369 -40.6343
   -40.6277 -40.6264 -40.6263 -40.6262 -40.6260 -40.6253 -40.6232 -40.6193
   -40.6146 -40.6071 -40.6068 -40.5961 -40.5948 -40.5915 -40.5904 -40.5902
   -40.5900 -40.5634 -40.5598 -40.5595 -40.5542 -40.5509 -40.5485 -40.5381
   -40.5321 -40.5293 -40.5149 -40.5027 -40.4823 -40.4793 -40.4591 -19.9371
   -19.8900 -19.8649 -19.7844 -19.7085 -19.6638 -19.4674 -19.4566 -19.4146
   -19.3708 -19.2802 -19.2560 -18.9842 -18.8265 -18.8016 -18.7512 -18.7462
   -18.7455 -18.7417 -18.7328 -18.7045 -18.6687 -18.6427 -18.6219 -18.6170
   -18.6044 -18.5715 -18.5578 -18.5547 -18.5430 -18.4998 -18.4974 -18.4762
   -18.4647 -18.4309 -18.4189 -18.4042 -18.3966 -18.3800 -18.3253 -18.3197
   -18.2716 -18.2531 -18.2387 -18.2312 -18.2218 -18.1872 -18.1719 -18.1571
   -18.1333 -18.1332 -18.1330 -18.1329 -18.1280 -18.1116 -18.1079 -18.0793
   -18.0731 -18.0624 -18.0583 -18.0551 -18.0506 -18.0428 -18.0335 -18.0091
   -18.0011 -17.9916 -17.9860 -17.9803 -17.9759 -17.9524 -17.9488 -17.9443
   -17.9367 -17.9309 -17.9207 -17.8894 -17.8854 -17.8741 -17.8696 -17.8696
   -17.8654 -17.8237 -17.8211 -17.8098 -17.8097 -17.8054 -17.7937 -17.7933
   -17.7863 -17.7672 -17.7548 -17.7492 -17.7452 -17.6939 -17.6843 -11.9378
   -11.7598 -11.6868 -11.6421 -11.6025 -11.4927 -11.4814 -11.4807 -11.4779
   -11.4720 -11.4537 -11.4492 -11.4235 -11.3996 -11.3889 -11.3796 -11.3699
   -11.3552 -11.3286 -11.3185 -11.3043 -11.2939 -11.2894 -11.2742 -11.2704
   -11.2624 -11.2624 -11.2167 -11.2165 -11.2014 -11.1674 -11.1635 -11.1579
   -11.1565 -11.1107 -11.0725 -11.0171 -11.0021 -10.9825 -10.9796 -10.9651
   -10.9477 -10.9243 -10.9199 -10.9138 -10.9006 -10.8881 -10.8848 -10.8736
   -10.8442 -10.8413 -10.8366 -10.8352 -10.8348 -10.8312 -10.8234 -10.8066
   -10.7980 -10.7914 -10.7774 -10.7692 -10.7658 -10.7581 -10.7388 -10.6122
   -10.6057 -10.5876 -10.5461 -10.4982 -10.4919 -10.3946 -10.3666 -10.2808
   -10.2497 -10.1996 -10.1556 -10.1333 -10.1276 -10.1154 -10.0976 -10.0528
   -10.0378 -10.0116 -10.0079  -9.9634  -9.9584  -9.9418  -9.9403  -9.9381
    -9.9296  -9.9147  -9.9093  -9.8999  -9.8974  -9.8874  -9.8607  -9.8154
    -9.7957  -9.7874  -9.7644  -9.7630  -9.7497  -9.7405  -9.7333  -9.7170
    -9.7150  -9.7054  -9.7014  -9.6781  -9.6632  -9.6569  -9.6418  -9.6285
    -9.6207  -9.6163  -9.6082  -9.5686  -9.5502  -9.5367  -9.5342  -9.5225
    -9.5161  -9.4768  -9.4751  -9.4663  -9.4345  -9.3785  -9.3313  -9.3185
    -9.3073  -9.2726  -9.2193  -9.2030  -9.1958  -9.1782  -9.1652  -9.1576
    -9.1452  -9.1322  -9.1300  -9.1157  -9.0954  -9.0829  -9.0569  -9.0475
    -9.0321  -9.0220  -9.0171  -9.0168  -9.0046  -8.9918  -8.9826  -8.9719
    -8.9609  -8.9535  -8.9489  -8.9377  -8.9375  -8.9333  -8.9230  -8.9062
    -8.8954  -8.8755  -8.8655  -8.8629  -8.8556  -8.8527  -8.8486  -8.8451
    -8.8443  -8.8349  -8.8272  -8.8233  -8.8130  -8.8064  -8.7834  -8.7716
    -8.7680  -8.7564  -8.7474  -8.7303  -8.7082  -8.6580  -8.5524  -8.5314
    -8.5173  -8.5147  -8.4383  -8.4346  -8.4293  -8.3613  -8.3536  -8.2736
    -8.1988  -8.1988  -8.1924  -8.1526  -8.1267  -8.1261  -8.1115  -8.0582
    -8.0211  -8.0123  -7.9766  -7.9401  -7.9366  -7.9160  -7.8728  -7.8668
    -7.8636  -7.8591  -7.8521  -7.8521  -7.8518  -7.8497  -7.8462  -7.8366
    -7.8095  -7.8064  -7.8058  -7.8047  -7.7990  -7.7827  -7.7815  -7.7692
    -7.7647  -7.7587  -7.7530  -7.7435  -7.7407  -7.7331  -7.7286  -7.7242
    -7.7194  -7.7124  -7.7007  -7.6911  -7.6894  -7.6751  -7.6669  -7.6668
    -7.6634  -7.6590  -7.6374  -7.6286  -7.6219  -7.6143  -7.6052  -7.5973
    -7.5867  -7.5840  -7.5650  -7.5564  -7.5210  -7.5159  -7.4970  -7.4675
    -7.4291  -7.3914  -7.3061  -7.2676  -7.2531  -7.2466  -7.2302  -7.2081
    -7.1982  -7.1598  -7.1393  -7.1309  -7.1217  -7.0741  -7.0578  -7.0307
    -7.0204  -7.0139  -7.0118  -6.9939  -6.9555  -6.9544  -6.9427  -6.9326
    -6.9082  -6.9014  -6.8699  -6.8580  -6.8369  -6.8218  -6.8031  -6.7752
    -6.7244  -6.7136  -6.6937  -6.6640  -6.6638  -6.6637  -6.6636  -6.6573
    -6.6237  -6.6176  -6.6058  -6.5959  -6.5943  -6.5933  -6.5790  -6.5555
    -6.5432  -6.5352  -6.4779  -6.4605  -6.4447  -6.4027  -6.3970  -6.3628
    -6.3331  -6.3320  -6.3318  -6.3305  -6.3127  -6.2720  -6.2677  -6.2550
    -6.2518  -6.2478  -6.2445  -6.2383  -6.2163  -6.2082  -6.2045  -6.1568
    -6.1347  -6.0031  -5.9836  -5.9835  -5.9210  -5.9140  -5.9010  -5.8940
    -5.8174  -5.7492  -5.6576  -5.6213  -5.5769  -5.5331  -5.4489  -5.3808
    -5.2989  -4.1939  -4.0410  -4.0268  -4.0179  -3.9934  -3.8991  -3.8988
    -3.8886  -3.8648  -3.8387  -3.8342  -3.8335  -3.7871  -3.7772  -3.7658
    -3.7556  -3.7306  -3.6909  -3.6348  -3.6091  -3.6028  -3.6011  -3.5976
    -3.5896  -3.5845  -3.5842  -3.5590  -3.5526  -3.5261  -3.5079  -3.5048
    -3.4975  -3.4866  -3.4802  -3.4768  -3.4707  -3.4673  -3.4651  -3.4238
    -3.4177  -3.4089  -3.3786  -3.3708  -3.3594  -3.3521  -3.3518  -3.3406
    -3.3235  -3.3196  -3.3183  -3.3108  -3.2907  -3.2792  -3.2758  -3.2755
    -3.2740  -3.2734  -3.2505  -3.2419  -3.2385  -3.2347  -3.2276  -3.2146
    -3.2079  -3.2052  -3.1991  -3.1966  -3.1877  -3.1593  -3.1365  -3.1229
    -3.1157  -3.1038  -3.0891  -3.0727  -3.0707  -3.0420  -3.0355  -3.0319
    -3.0294  -3.0126  -3.0119  -3.0118  -3.0113  -2.9815  -2.9718  -2.9643
    -2.9624  -2.9495  -2.9380  -2.9367  -2.9246  -2.9200  -2.9142  -2.9076
    -2.9007  -2.8940  -2.8864  -2.8780  -2.8697  -2.8597  -2.8464  -2.8360
    -2.8268  -2.8112  -2.8038  -2.7991  -2.7965  -2.7399  -2.7342  -2.7116
    -2.7054  -2.6678  -2.6500  -2.6496  -2.6431  -2.6315  -2.6305  -2.5708
    -2.5636  -2.5230  -2.5134  -2.5037  -2.4949  -2.4907  -2.4579  -2.3759
    -2.3648  -2.3491  -2.2992

          k =-0.5000-0.2887 0.0000 (321564 PWs)   bands (ev):

  -102.9876 -88.0383 -71.3097 -71.2973 -71.2879 -71.2755 -71.2679 -71.2612
   -71.2536 -66.6870 -66.6870 -66.6764 -66.6764 -66.6615 -66.6615 -66.6615
   -66.6615 -66.6571 -66.6571 -66.6509 -66.6509 -66.6508 -66.6508 -66.6465
   -66.6465 -66.6212 -66.6209 -66.6106 -66.6104 -66.5957 -66.5957 -66.5956
   -66.5953 -66.5913 -66.5911 -66.5852 -66.5850 -66.5849 -66.5847 -66.5806
   -66.5805 -66.5577 -66.5500 -66.5412 -66.5377 -66.5335 -66.5255 -66.5245
   -66.5192 -66.5156 -66.5111 -66.5022 -66.4964 -66.4926 -66.4875 -66.4806
   -66.4736 -57.2319 -57.2205 -57.1823 -53.8929 -53.8552 -53.7741 -40.9882
   -40.9882 -40.9881 -40.9881 -40.9615 -40.9615 -40.9496 -40.9496 -40.9214
   -40.9211 -40.9210 -40.9209 -40.8992 -40.8992 -40.8991 -40.8991 -40.8946
   -40.8944 -40.8826 -40.8825 -40.8616 -40.8462 -40.8412 -40.8412 -40.8370
   -40.8323 -40.8322 -40.8321 -40.8321 -40.8312 -40.8312 -40.8265 -40.8209
   -40.8205 -40.8205 -40.8167 -40.8031 -40.7910 -40.7910 -40.7910 -40.7910
   -40.7879 -40.7824 -40.7824 -40.7759 -40.7757 -40.7702 -40.7702 -40.7702
   -40.7702 -40.7701 -40.7701 -40.7644 -40.7643 -40.7615 -40.7615 -40.7551
   -40.7550 -40.7523 -40.7512 -40.7493 -40.7412 -40.7395 -40.7394 -40.7394
   -40.7394 -40.7280 -40.7258 -40.7258 -40.7257 -40.7255 -40.7171 -40.7169
   -40.7143 -40.7051 -40.7049 -40.7049 -40.7049 -40.7049 -40.7048 -40.7047
   -40.7047 -40.7034 -40.7033 -40.7015 -40.6963 -40.6962 -40.6929 -40.6929
   -40.6871 -40.6790 -40.6776 -40.6737 -40.6737 -40.6736 -40.6728 -40.6727
   -40.6726 -40.6725 -40.6636 -40.6585 -40.6568 -40.6568 -40.6552 -40.6496
   -40.6471 -40.6415 -40.6383 -40.6382 -40.6381 -40.6381 -40.6362 -40.6347
   -40.6290 -40.6263 -40.6263 -40.6262 -40.6260 -40.6240 -40.6221 -40.6182
   -40.6153 -40.6071 -40.6068 -40.6007 -40.5960 -40.5906 -40.5902 -40.5900
   -40.5816 -40.5614 -40.5597 -40.5595 -40.5545 -40.5524 -40.5495 -40.5419
   -40.5277 -40.5255 -40.5222 -40.5040 -40.4857 -40.4812 -40.4536 -19.9419
   -19.8892 -19.8659 -19.7783 -19.7084 -19.6561 -19.4682 -19.4579 -19.4151
   -19.3791 -19.2802 -19.2612 -18.9841 -18.8196 -18.8021 -18.7493 -18.7472
   -18.7454 -18.7415 -18.7325 -18.7042 -18.6654 -18.6459 -18.6221 -18.6179
   -18.5971 -18.5793 -18.5553 -18.5474 -18.5452 -18.4995 -18.4975 -18.4755
   -18.4580 -18.4315 -18.4149 -18.4057 -18.3999 -18.3713 -18.3372 -18.3072
   -18.2836 -18.2705 -18.2386 -18.2259 -18.2228 -18.1990 -18.1799 -18.1435
   -18.1332 -18.1331 -18.1330 -18.1329 -18.1262 -18.1176 -18.1070 -18.0931
   -18.0700 -18.0584 -18.0573 -18.0540 -18.0518 -18.0465 -18.0178 -18.0171
   -17.9997 -17.9938 -17.9845 -17.9774 -17.9761 -17.9537 -17.9460 -17.9423
   -17.9326 -17.9307 -17.9173 -17.8939 -17.8824 -17.8696 -17.8696 -17.8674
   -17.8651 -17.8264 -17.8191 -17.8100 -17.8098 -17.7949 -17.7935 -17.7901
   -17.7879 -17.7730 -17.7631 -17.7495 -17.7479 -17.6917 -17.6872 -11.9542
   -11.7810 -11.6833 -11.6387 -11.5862 -11.4808 -11.4805 -11.4777 -11.4773
   -11.4644 -11.4561 -11.4373 -11.4056 -11.3982 -11.3915 -11.3816 -11.3712
   -11.3435 -11.3243 -11.3135 -11.3043 -11.2970 -11.2884 -11.2798 -11.2624
   -11.2624 -11.2560 -11.2171 -11.2167 -11.2100 -11.1755 -11.1630 -11.1567
   -11.1566 -11.1194 -11.0901 -11.0079 -11.0028 -10.9880 -10.9772 -10.9720
   -10.9488 -10.9239 -10.9214 -10.9179 -10.9029 -10.8895 -10.8815 -10.8692
   -10.8521 -10.8409 -10.8367 -10.8359 -10.8351 -10.8330 -10.8292 -10.8130
   -10.8035 -10.7836 -10.7722 -10.7693 -10.7638 -10.7592 -10.6961 -10.6492
   -10.5955 -10.5890 -10.5781 -10.4992 -10.4931 -10.4011 -10.3696 -10.2983
   -10.2343 -10.1694 -10.1376 -10.1328 -10.1285 -10.1023 -10.0704 -10.0574
   -10.0401 -10.0282 -10.0059  -9.9817  -9.9473  -9.9465  -9.9421  -9.9343
    -9.9318  -9.9264  -9.9197  -9.9016  -9.8972  -9.8896  -9.8772  -9.8255
    -9.8009  -9.7906  -9.7865  -9.7625  -9.7525  -9.7411  -9.7246  -9.7174
    -9.7166  -9.7069  -9.7015  -9.6723  -9.6703  -9.6526  -9.6486  -9.6453
    -9.6222  -9.6162  -9.6067  -9.5898  -9.5493  -9.5368  -9.5352  -9.5243
    -9.5071  -9.4761  -9.4746  -9.4569  -9.4378  -9.3550  -9.3345  -9.2945
    -9.2786  -9.2641  -9.2156  -9.2040  -9.1967  -9.1728  -9.1510  -9.1426
    -9.1378  -9.1326  -9.1318  -9.1136  -9.0910  -9.0824  -9.0683  -9.0429
    -9.0420  -9.0286  -9.0236  -9.0122  -9.0035  -8.9914  -8.9734  -8.9695
    -8.9527  -8.9516  -8.9468  -8.9401  -8.9371  -8.9327  -8.9186  -8.9106
    -8.8985  -8.8804  -8.8756  -8.8637  -8.8632  -8.8587  -8.8491  -8.8452
    -8.8444  -8.8402  -8.8307  -8.8198  -8.8081  -8.7935  -8.7785  -8.7741
    -8.7681  -8.7544  -8.7452  -8.7282  -8.7143  -8.6354  -8.5508  -8.5384
    -8.5172  -8.5152  -8.4372  -8.4327  -8.4175  -8.3719  -8.3305  -8.2548
    -8.2098  -8.1988  -8.1988  -8.1841  -8.1271  -8.1261  -8.1171  -8.0859
    -8.0684  -7.9861  -7.9561  -7.9395  -7.9364  -7.9248  -7.8735  -7.8666
    -7.8635  -7.8589  -7.8536  -7.8521  -7.8521  -7.8510  -7.8499  -7.8332
    -7.8091  -7.8065  -7.8058  -7.8054  -7.7916  -7.7839  -7.7819  -7.7729
    -7.7650  -7.7639  -7.7571  -7.7501  -7.7359  -7.7341  -7.7283  -7.7237
    -7.7179  -7.7075  -7.7016  -7.6942  -7.6860  -7.6820  -7.6670  -7.6668
    -7.6625  -7.6583  -7.6520  -7.6360  -7.6280  -7.6109  -7.6005  -7.5980
    -7.5925  -7.5775  -7.5664  -7.5500  -7.5306  -7.5286  -7.4696  -7.4614
    -7.4435  -7.3779  -7.3295  -7.2785  -7.2603  -7.2438  -7.2371  -7.2247
    -7.1871  -7.1772  -7.1361  -7.1245  -7.1111  -7.0678  -7.0539  -7.0199
    -7.0139  -7.0126  -6.9894  -6.9683  -6.9662  -6.9504  -6.9483  -6.9401
    -6.9074  -6.8922  -6.8525  -6.8410  -6.8338  -6.8230  -6.8033  -6.7461
    -6.7334  -6.6989  -6.6650  -6.6638  -6.6638  -6.6637  -6.6608  -6.6478
    -6.6319  -6.6244  -6.6068  -6.5985  -6.5960  -6.5917  -6.5903  -6.5769
    -6.5513  -6.5312  -6.5123  -6.4702  -6.4407  -6.4357  -6.4107  -6.3328
    -6.3325  -6.3319  -6.3316  -6.3209  -6.2845  -6.2690  -6.2674  -6.2584
    -6.2509  -6.2495  -6.2474  -6.2383  -6.2242  -6.1967  -6.1944  -6.1566
    -6.1428  -6.0944  -5.9838  -5.9836  -5.9777  -5.9072  -5.9054  -5.8473
    -5.7780  -5.7619  -5.6554  -5.6518  -5.5393  -5.5173  -5.4540  -5.3565
    -5.3051  -4.1781  -4.0439  -4.0203  -4.0195  -3.9866  -3.8994  -3.8988
    -3.8983  -3.8653  -3.8368  -3.8340  -3.8317  -3.7788  -3.7700  -3.7651
    -3.7622  -3.7185  -3.6955  -3.6355  -3.6079  -3.6036  -3.5998  -3.5990
    -3.5847  -3.5845  -3.5826  -3.5607  -3.5445  -3.5201  -3.5112  -3.5057
    -3.5034  -3.4884  -3.4819  -3.4805  -3.4757  -3.4670  -3.4658  -3.4322
    -3.4247  -3.4114  -3.3903  -3.3715  -3.3590  -3.3542  -3.3519  -3.3518
    -3.3223  -3.3211  -3.3197  -3.3108  -3.2881  -3.2789  -3.2759  -3.2752
    -3.2749  -3.2716  -3.2550  -3.2469  -3.2359  -3.2289  -3.2282  -3.2107
    -3.2103  -3.2057  -3.2023  -3.1967  -3.1889  -3.1586  -3.1462  -3.1249
    -3.1152  -3.1078  -3.0888  -3.0728  -3.0702  -3.0369  -3.0330  -3.0300
    -3.0253  -3.0138  -3.0120  -3.0118  -3.0113  -2.9848  -2.9774  -2.9647
    -2.9621  -2.9506  -2.9471  -2.9374  -2.9269  -2.9174  -2.9159  -2.9135
    -2.8996  -2.8955  -2.8893  -2.8822  -2.8654  -2.8637  -2.8460  -2.8355
    -2.8138  -2.8015  -2.7982  -2.7957  -2.7890  -2.7411  -2.7299  -2.7094
    -2.6969  -2.6535  -2.6507  -2.6491  -2.6416  -2.6328  -2.6263  -2.5691
    -2.5633  -2.5169  -2.5105  -2.5025  -2.4882  -2.4867  -2.4508  -2.3617
    -2.3444  -2.3395  -2.2927

          k =-0.5000-0.8660 0.0000 (321564 PWs)   bands (ev):

  -102.9876 -88.0383 -71.3097 -71.2973 -71.2879 -71.2755 -71.2679 -71.2612
   -71.2536 -66.6870 -66.6869 -66.6764 -66.6764 -66.6615 -66.6615 -66.6615
   -66.6615 -66.6571 -66.6570 -66.6509 -66.6509 -66.6508 -66.6508 -66.6465
   -66.6465 -66.6211 -66.6210 -66.6106 -66.6104 -66.5957 -66.5957 -66.5956
   -66.5953 -66.5912 -66.5911 -66.5851 -66.5850 -66.5849 -66.5848 -66.5806
   -66.5805 -66.5564 -66.5528 -66.5394 -66.5359 -66.5330 -66.5296 -66.5236
   -66.5191 -66.5153 -66.5107 -66.5025 -66.4964 -66.4924 -66.4875 -66.4807
   -66.4736 -57.2319 -57.2205 -57.1823 -53.8929 -53.8552 -53.7741 -40.9882
   -40.9882 -40.9881 -40.9881 -40.9615 -40.9615 -40.9496 -40.9496 -40.9212
   -40.9211 -40.9211 -40.9210 -40.8992 -40.8992 -40.8991 -40.8991 -40.8945
   -40.8944 -40.8826 -40.8824 -40.8563 -40.8483 -40.8431 -40.8412 -40.8412
   -40.8323 -40.8322 -40.8321 -40.8321 -40.8312 -40.8312 -40.8256 -40.8238
   -40.8205 -40.8205 -40.8197 -40.7995 -40.7911 -40.7910 -40.7910 -40.7910
   -40.7833 -40.7824 -40.7823 -40.7758 -40.7757 -40.7702 -40.7702 -40.7702
   -40.7702 -40.7701 -40.7701 -40.7644 -40.7643 -40.7615 -40.7615 -40.7551
   -40.7550 -40.7524 -40.7497 -40.7445 -40.7405 -40.7395 -40.7395 -40.7394
   -40.7394 -40.7313 -40.7258 -40.7258 -40.7257 -40.7255 -40.7170 -40.7170
   -40.7137 -40.7049 -40.7049 -40.7049 -40.7049 -40.7049 -40.7049 -40.7048
   -40.7047 -40.7034 -40.7033 -40.7032 -40.6963 -40.6962 -40.6929 -40.6928
   -40.6857 -40.6803 -40.6776 -40.6762 -40.6737 -40.6737 -40.6728 -40.6727
   -40.6726 -40.6725 -40.6641 -40.6607 -40.6568 -40.6568 -40.6536 -40.6519
   -40.6456 -40.6408 -40.6383 -40.6382 -40.6381 -40.6381 -40.6374 -40.6323
   -40.6295 -40.6264 -40.6263 -40.6262 -40.6261 -40.6251 -40.6232 -40.6187
   -40.6149 -40.6070 -40.6068 -40.5969 -40.5963 -40.5913 -40.5902 -40.5900
   -40.5866 -40.5611 -40.5597 -40.5596 -40.5557 -40.5504 -40.5472 -40.5412
   -40.5297 -40.5292 -40.5177 -40.5010 -40.4847 -40.4798 -40.4574 -19.9335
   -19.8906 -19.8640 -19.7904 -19.7086 -19.6700 -19.4600 -19.4581 -19.3967
   -19.3788 -19.2754 -19.2607 -18.9979 -18.8348 -18.7957 -18.7525 -18.7459
   -18.7457 -18.7416 -18.7363 -18.7007 -18.6629 -18.6422 -18.6249 -18.6136
   -18.5992 -18.5715 -18.5569 -18.5537 -18.5466 -18.4984 -18.4979 -18.4687
   -18.4627 -18.4404 -18.4152 -18.4045 -18.3953 -18.3799 -18.3213 -18.3084
   -18.2953 -18.2544 -18.2442 -18.2267 -18.2244 -18.1901 -18.1728 -18.1470
   -18.1334 -18.1331 -18.1330 -18.1329 -18.1311 -18.1110 -18.1067 -18.0765
   -18.0732 -18.0621 -18.0570 -18.0559 -18.0495 -18.0424 -18.0363 -18.0072
   -18.0022 -17.9965 -17.9826 -17.9805 -17.9760 -17.9522 -17.9473 -17.9434
   -17.9380 -17.9311 -17.9214 -17.8885 -17.8840 -17.8747 -17.8696 -17.8696
   -17.8660 -17.8239 -17.8191 -17.8103 -17.8097 -17.8053 -17.7946 -17.7932
   -17.7877 -17.7686 -17.7546 -17.7494 -17.7440 -17.6933 -17.6847 -11.9221
   -11.7592 -11.6859 -11.6528 -11.6303 -11.4887 -11.4840 -11.4788 -11.4769
   -11.4661 -11.4556 -11.4528 -11.4362 -11.4020 -11.3838 -11.3793 -11.3712
   -11.3521 -11.3467 -11.3261 -11.3108 -11.2888 -11.2873 -11.2624 -11.2624
   -11.2560 -11.2484 -11.2167 -11.2165 -11.1951 -11.1628 -11.1620 -11.1583
   -11.1569 -11.1025 -11.0564 -11.0220 -11.0172 -10.9894 -10.9731 -10.9689
   -10.9491 -10.9249 -10.9227 -10.9113 -10.9034 -10.8884 -10.8758 -10.8644
   -10.8600 -10.8374 -10.8366 -10.8352 -10.8349 -10.8281 -10.8211 -10.8167
   -10.8079 -10.7932 -10.7720 -10.7682 -10.7676 -10.7593 -10.7063 -10.6282
   -10.5857 -10.5798 -10.5407 -10.5023 -10.4939 -10.4168 -10.3763 -10.3070
   -10.2754 -10.1755 -10.1458 -10.1302 -10.1231 -10.1033 -10.0914 -10.0476
   -10.0254 -10.0216 -10.0118  -9.9670  -9.9503  -9.9444  -9.9417  -9.9368
    -9.9304  -9.9124  -9.9061  -9.9047  -9.8981  -9.8829  -9.8760  -9.8193
    -9.8059  -9.7813  -9.7646  -9.7601  -9.7554  -9.7379  -9.7210  -9.7180
    -9.7135  -9.7046  -9.7023  -9.6757  -9.6620  -9.6580  -9.6459  -9.6319
    -9.6188  -9.6136  -9.6118  -9.5646  -9.5414  -9.5377  -9.5349  -9.5259
    -9.5146  -9.4801  -9.4768  -9.4741  -9.4471  -9.3859  -9.3490  -9.3289
    -9.3026  -9.2723  -9.2155  -9.2001  -9.1933  -9.1770  -9.1581  -9.1444
    -9.1424  -9.1379  -9.1311  -9.1153  -9.0936  -9.0860  -9.0512  -9.0479
    -9.0333  -9.0313  -9.0213  -9.0031  -8.9971  -8.9921  -8.9810  -8.9674
    -8.9588  -8.9507  -8.9408  -8.9374  -8.9352  -8.9328  -8.9294  -8.9029
    -8.8991  -8.8751  -8.8637  -8.8626  -8.8586  -8.8502  -8.8455  -8.8441
    -8.8431  -8.8374  -8.8291  -8.8199  -8.8146  -8.8005  -8.7953  -8.7736
    -8.7681  -8.7616  -8.7476  -8.7283  -8.7095  -8.6466  -8.5660  -8.5313
    -8.5173  -8.5156  -8.4391  -8.4316  -8.4262  -8.3896  -8.3202  -8.2892
    -8.1988  -8.1988  -8.1647  -8.1333  -8.1274  -8.1263  -8.1031  -8.0916
    -8.0691  -7.9955  -7.9627  -7.9383  -7.9363  -7.8978  -7.8701  -7.8668
    -7.8603  -7.8593  -7.8523  -7.8521  -7.8521  -7.8509  -7.8428  -7.8405
    -7.8110  -7.8061  -7.8056  -7.8033  -7.7988  -7.7833  -7.7817  -7.7714
    -7.7654  -7.7603  -7.7521  -7.7506  -7.7348  -7.7322  -7.7293  -7.7260
    -7.7199  -7.7090  -7.6997  -7.6987  -7.6893  -7.6730  -7.6669  -7.6668
    -7.6617  -7.6547  -7.6421  -7.6321  -7.6261  -7.6066  -7.6022  -7.5981
    -7.5972  -7.5864  -7.5538  -7.5505  -7.5321  -7.5176  -7.5147  -7.4635
    -7.4474  -7.3680  -7.3416  -7.2821  -7.2617  -7.2430  -7.2394  -7.2211
    -7.1975  -7.1405  -7.1317  -7.1198  -7.1085  -7.0791  -7.0554  -7.0201
    -7.0148  -7.0086  -7.0021  -6.9817  -6.9584  -6.9535  -6.9442  -6.9124
    -6.9060  -6.8916  -6.8846  -6.8574  -6.8414  -6.8336  -6.8069  -6.7599
    -6.7259  -6.6974  -6.6828  -6.6640  -6.6638  -6.6637  -6.6636  -6.6591
    -6.6357  -6.6221  -6.5995  -6.5958  -6.5948  -6.5911  -6.5868  -6.5588
    -6.5462  -6.5299  -6.5153  -6.4677  -6.4464  -6.4335  -6.4026  -6.3537
    -6.3329  -6.3323  -6.3317  -6.3303  -6.3004  -6.2678  -6.2629  -6.2567
    -6.2492  -6.2454  -6.2438  -6.2284  -6.2118  -6.2053  -6.1843  -6.1640
    -6.1354  -5.9837  -5.9836  -5.9750  -5.9482  -5.9142  -5.9043  -5.8961
    -5.8370  -5.7524  -5.6566  -5.6244  -5.5713  -5.5276  -5.4575  -5.3625
    -5.3038  -4.2000  -4.0376  -4.0261  -4.0220  -3.9944  -3.8991  -3.8991
    -3.8910  -3.8617  -3.8346  -3.8343  -3.8300  -3.7850  -3.7810  -3.7662
    -3.7577  -3.7294  -3.6846  -3.6293  -3.6072  -3.6020  -3.6000  -3.5979
    -3.5857  -3.5844  -3.5843  -3.5562  -3.5511  -3.5239  -3.5096  -3.5076
    -3.5020  -3.4845  -3.4788  -3.4753  -3.4734  -3.4685  -3.4669  -3.4237
    -3.4125  -3.4037  -3.3761  -3.3651  -3.3624  -3.3531  -3.3521  -3.3442
    -3.3238  -3.3204  -3.3146  -3.3122  -3.3083  -3.2825  -3.2757  -3.2752
    -3.2749  -3.2735  -3.2559  -3.2422  -3.2382  -3.2302  -3.2185  -3.2135
    -3.2101  -3.2040  -3.1978  -3.1894  -3.1857  -3.1750  -3.1407  -3.1242
    -3.1138  -3.1063  -3.0909  -3.0728  -3.0700  -3.0409  -3.0346  -3.0296
    -3.0266  -3.0129  -3.0125  -3.0120  -3.0115  -2.9830  -2.9734  -2.9653
    -2.9630  -2.9506  -2.9442  -2.9342  -2.9241  -2.9209  -2.9186  -2.9123
    -2.9024  -2.8942  -2.8872  -2.8752  -2.8721  -2.8631  -2.8385  -2.8328
    -2.8295  -2.8102  -2.8046  -2.8029  -2.7924  -2.7385  -2.7315  -2.7083
    -2.7046  -2.6596  -2.6521  -2.6496  -2.6435  -2.6332  -2.6268  -2.5706
    -2.5631  -2.5226  -2.5139  -2.5017  -2.4962  -2.4852  -2.4562  -2.3680
    -2.3528  -2.3165  -2.2824

     the Fermi energy is    -4.6770 ev

!    total energy              =  -26031.79511310 Ry
     total all-electron energy =   -512284.364741 Ry
     estimated scf accuracy    <       0.00000070 Ry
     smearing contrib. (-TS)   =      -0.00000003 Ry
     internal energy E=F+TS    =  -26031.79511307 Ry

     The total energy is F=E-TS. E is the sum of the following terms:
     one-electron contribution =  491812.79520537 Ry
     hartree contribution      = -246048.64610654 Ry
     xc contribution           =   -1534.61911331 Ry
     ewald contribution        = -254068.57261430 Ry
     DFT-D3 Dispersion         =      -4.02100533 Ry
     one-center paw contrib.   =  -16188.73147896 Ry

     convergence has been achieved in  22 iterations

     negative rho (up, down):  9.218E-04 0.000E+00

     Forces acting on atoms (cartesian axes, Ry/au):

     atom    1 type  1   force =    -0.00362054   -0.00138778   -0.00081768
     atom    2 type  1   force =     0.00000061   -0.00000222    0.00193203
     atom    3 type  1   force =    -0.00001741    0.00000545   -0.00002792
     atom    4 type  2   force =     0.00000046    0.00000493   -0.00352115
     atom    5 type  2   force =     0.00000928    0.00001041   -0.00022150
     atom    6 type  2   force =     0.00025106    0.00032252   -0.00043546
     atom    7 type  2   force =    -0.00000275    0.00000555    0.00169044
     atom    8 type  2   force =     0.00003120    0.00001337    0.00025610
     atom    9 type  2   force =    -0.00067184    0.00000850    0.00025023
     atom   10 type  1   force =    -0.00032255    0.00055163   -0.00005856
     atom   11 type  1   force =     0.00001385    0.00000208    0.00192263
     atom   12 type  1   force =    -0.00001522   -0.00003212   -0.00004521
     atom   13 type  2   force =     0.00000098    0.00000832   -0.00353487
     atom   14 type  2   force =    -0.00001625   -0.00000721   -0.00020716
     atom   15 type  2   force =    -0.00010211   -0.00027272   -0.00036613
     atom   16 type  2   force =    -0.00000591    0.00000166    0.00171282
     atom   17 type  2   force =    -0.00002776   -0.00001022    0.00022799
     atom   18 type  2   force =     0.00012178   -0.00070542    0.00033009
     atom   19 type  1   force =     0.00024858   -0.00060320    0.00028936
     atom   20 type  1   force =     0.00000953    0.00001601    0.00192197
     atom   21 type  1   force =    -0.00000448    0.00004684   -0.00004685
     atom   22 type  2   force =     0.00000415    0.00000713   -0.00353023
     atom   23 type  2   force =     0.00000168    0.00000334   -0.00023386
     atom   24 type  2   force =    -0.00007168    0.00015232   -0.00044295
     atom   25 type  2   force =     0.00000584    0.00000622    0.00170123
     atom   26 type  2   force =     0.00001131    0.00002571    0.00022400
     atom   27 type  2   force =    -0.00021532    0.00041384    0.00000389
     atom   28 type  1   force =    -0.00157219   -0.00122142   -0.00181482
     atom   29 type  1   force =     0.00000211    0.00000441    0.00192824
     atom   30 type  1   force =     0.00004542   -0.00001202   -0.00002878
     atom   31 type  2   force =     0.00000038    0.00000546   -0.00353713
     atom   32 type  2   force =     0.00000352    0.00001175   -0.00029079
     atom   33 type  2   force =     0.00022055   -0.00014141   -0.00027148
     atom   34 type  2   force =    -0.00000638   -0.00000409    0.00170858
     atom   35 type  2   force =     0.00000275   -0.00000077    0.00018485
     atom   36 type  2   force =     0.00000154   -0.00013089    0.00055519
     atom   37 type  1   force =     0.00116367    0.00033750   -0.01999988
     atom   38 type  1   force =    -0.00001467   -0.00000566    0.00192621
     atom   39 type  1   force =     0.00002725   -0.00000196   -0.00004771
     atom   40 type  2   force =     0.00000338    0.00001209   -0.00353119
     atom   41 type  2   force =    -0.00001050    0.00001045   -0.00020760
     atom   42 type  2   force =    -0.00087791    0.00008822    0.00196729
     atom   43 type  2   force =     0.00000034    0.00001100    0.00170144
     atom   44 type  2   force =    -0.00003125   -0.00000222    0.00024437
     atom   45 type  2   force =    -0.00633604   -0.00545236    0.01575480
     atom   46 type  1   force =    -0.00044700    0.00181334   -0.00501621
     atom   47 type  1   force =    -0.00000717    0.00000781    0.00192775
     atom   48 type  1   force =    -0.00003428   -0.00001283   -0.00000245
     atom   49 type  2   force =     0.00000575    0.00000981   -0.00353318
     atom   50 type  2   force =     0.00000845    0.00002026   -0.00022055
     atom   51 type  2   force =    -0.00126018    0.00005600   -0.00075578
     atom   52 type  2   force =     0.00001118    0.00001131    0.00169373
     atom   53 type  2   force =    -0.00000140   -0.00001345    0.00021551
     atom   54 type  2   force =     0.00097934    0.00265818   -0.00507537
     atom   55 type  1   force =    -0.00014243    0.00011099   -0.00000586
     atom   56 type  1   force =     0.00001219    0.00000592    0.00190901
     atom   57 type  1   force =     0.00000675    0.00003387   -0.00004788
     atom   58 type  2   force =     0.00000595    0.00000221   -0.00352936
     atom   59 type  2   force =     0.00003067   -0.00001181   -0.00024223
     atom   60 type  2   force =     0.00038527   -0.00011413   -0.00071979
     atom   61 type  2   force =     0.00000276    0.00000437    0.00170168
     atom   62 type  2   force =    -0.00002437    0.00001402    0.00019666
     atom   63 type  2   force =     0.00059463   -0.00015161    0.00031727
     atom   64 type  1   force =     0.00176392   -0.00175481   -0.00195962
     atom   65 type  1   force =     0.00000275   -0.00002615    0.00192796
     atom   66 type  1   force =    -0.00000774   -0.00000565   -0.00001347
     atom   67 type  2   force =     0.00000359   -0.00000154   -0.00353716
     atom   68 type  2   force =     0.00000606    0.00000651   -0.00022970
     atom   69 type  2   force =    -0.00013744   -0.00073839   -0.00128053
     atom   70 type  2   force =     0.00000113   -0.00000661    0.00170535
     atom   71 type  2   force =    -0.00000545   -0.00001663    0.00019989
     atom   72 type  2   force =    -0.00020255    0.00092103   -0.00045148
     atom   73 type  1   force =     0.00239659   -0.00073230   -0.00037014
     atom   74 type  1   force =    -0.00000545   -0.00000042    0.00193187
     atom   75 type  1   force =    -0.00000069    0.00002601   -0.00003190
     atom   76 type  2   force =    -0.00000591    0.00000098   -0.00352680
     atom   77 type  2   force =     0.00003716    0.00003612   -0.00018096
     atom   78 type  2   force =    -0.00013513    0.00009954    0.00208113
     atom   79 type  2   force =    -0.00000116    0.00000987    0.00168540
     atom   80 type  2   force =    -0.00005180   -0.00001499    0.00028933
     atom   81 type  2   force =     0.00785460   -0.00692194    0.01678681
     atom   82 type  1   force =     0.00028255    0.00344916    0.00211893
     atom   83 type  1   force =    -0.00000647    0.00001153    0.00192900
     atom   84 type  1   force =     0.00003883   -0.00004864   -0.00003424
     atom   85 type  2   force =    -0.00001039    0.00000729   -0.00353537
     atom   86 type  2   force =     0.00002019   -0.00000862   -0.00018821
     atom   87 type  2   force =    -0.00008299    0.00008253    0.00192749
     atom   88 type  2   force =    -0.00001073    0.00001015    0.00170046
     atom   89 type  2   force =     0.00003730    0.00000125    0.00020919
     atom   90 type  2   force =    -0.00278147    0.01282602    0.00438841
     atom   91 type  1   force =    -0.00012203   -0.00069258    0.00018797
     atom   92 type  1   force =    -0.00001557    0.00000442    0.00192376
     atom   93 type  1   force =    -0.00001073    0.00003324   -0.00002249
     atom   94 type  2   force =    -0.00000118    0.00000402   -0.00352818
     atom   95 type  2   force =    -0.00001485   -0.00000986   -0.00021924
     atom   96 type  2   force =    -0.00039324   -0.00028034    0.00009618
     atom   97 type  2   force =     0.00000160    0.00000360    0.00168937
     atom   98 type  2   force =     0.00000517   -0.00000265    0.00023171
     atom   99 type  2   force =    -0.00133981   -0.00078322    0.00157143
     atom  100 type  1   force =    -0.00053098    0.00021617   -0.00018915
     atom  101 type  1   force =    -0.00001129   -0.00002325    0.00192793
     atom  102 type  1   force =    -0.00002669   -0.00000730   -0.00001623
     atom  103 type  2   force =     0.00000427   -0.00000354   -0.00352502
     atom  104 type  2   force =    -0.00000254    0.00002762   -0.00021670
     atom  105 type  2   force =    -0.00028919   -0.00003204   -0.00041180
     atom  106 type  2   force =     0.00000631   -0.00000409    0.00168826
     atom  107 type  2   force =    -0.00000383    0.00002491    0.00022641
     atom  108 type  2   force =     0.00029241    0.00003244    0.00108815
     atom  109 type  1   force =    -0.00038215    0.00000664    0.00039000
     atom  110 type  1   force =     0.00002092    0.00000612    0.00193644
     atom  111 type  1   force =    -0.00000603    0.00003832    0.00008329
     atom  112 type  2   force =     0.00000237   -0.00000559   -0.00352325
     atom  113 type  2   force =    -0.00004519    0.00002725   -0.00019609
     atom  114 type  2   force =    -0.00010070    0.00036283   -0.00084081
     atom  115 type  2   force =     0.00000246    0.00000023    0.00171563
     atom  116 type  2   force =     0.00003829   -0.00001766    0.00023526
     atom  117 type  2   force =     0.00030362   -0.00001590    0.00065755
     atom  118 type  1   force =    -0.00001888    0.00013924    0.00026467
     atom  119 type  1   force =     0.00001049    0.00000364    0.00193004
     atom  120 type  1   force =     0.00001475   -0.00003215    0.00000506
     atom  121 type  2   force =     0.00000557   -0.00000059   -0.00352007
     atom  122 type  2   force =    -0.00001125   -0.00004355   -0.00019882
     atom  123 type  2   force =     0.00074208    0.00025366   -0.00160782
     atom  124 type  2   force =    -0.00000285    0.00000049    0.00171152
     atom  125 type  2   force =     0.00001214    0.00004871    0.00023173
     atom  126 type  2   force =    -0.00001350   -0.00032629   -0.00094988
     atom  127 type  1   force =    -0.00032338   -0.00029203    0.00040697
     atom  128 type  1   force =     0.00000075    0.00000949    0.00191808
     atom  129 type  1   force =     0.00001395    0.00001362   -0.00002025
     atom  130 type  2   force =    -0.00000871    0.00000955   -0.00352384
     atom  131 type  2   force =    -0.00001853   -0.00000278   -0.00023635
     atom  132 type  2   force =     0.00020745   -0.00057003   -0.00087382
     atom  133 type  2   force =    -0.00001376    0.00000669    0.00169194
     atom  134 type  2   force =    -0.00000537    0.00002520    0.00021519
     atom  135 type  2   force =    -0.00021667   -0.00026811    0.00024679
     atom  136 type  1   force =     0.00051925    0.00006495    0.00003495
     atom  137 type  1   force =     0.00001693   -0.00000292    0.00191890
     atom  138 type  1   force =    -0.00000556   -0.00000227   -0.00001678
     atom  139 type  2   force =    -0.00000423   -0.00000576   -0.00354455
     atom  140 type  2   force =    -0.00000571   -0.00000532   -0.00024630
     atom  141 type  2   force =     0.00003326   -0.00000857   -0.00045407
     atom  142 type  2   force =    -0.00001257   -0.00000781    0.00170284
     atom  143 type  2   force =     0.00000336   -0.00002143    0.00020808
     atom  144 type  2   force =    -0.00004863    0.00023752    0.00038981
     atom  145 type  3   force =     0.01209221   -0.01522541    0.01386963
     atom  146 type  4   force =    -0.00770785    0.01334386   -0.02561880

     Total force =     0.054087     Total SCF correction =     0.004131

     BFGS Geometry Optimization
     Energy error            =      0.0E+00 Ry
     Gradient error          =      2.6E-02 Ry/Bohr

     number of scf cycles    =   1
     number of bfgs steps    =   0

     energy             new  =  -26031.7951131025 Ry

     new trust radius        =       0.0298963579 bohr
[...]
     atom   70 type  2   force =     0.00000541    0.00000186    0.00149597
     atom   71 type  2   force =     0.00002084    0.00000011   -0.00003271
     atom   72 type  2   force =    -0.00004914   -0.00000108   -0.00063046
     atom   73 type  1   force =    -0.00011043    0.00004892   -0.00008882
     atom   74 type  1   force =     0.00000049    0.00000196    0.00189633
     atom   75 type  1   force =    -0.00000635    0.00001754   -0.00002149
     atom   76 type  2   force =     0.00000091    0.00000199   -0.00328035
     atom   77 type  2   force =    -0.00000877    0.00001674   -0.00001679
     atom   78 type  2   force =     0.00057479   -0.00032607    0.00003752
     atom   79 type  2   force =     0.00000106    0.00000536    0.00149710
     atom   80 type  2   force =    -0.00003934    0.00002371    0.00001667
     atom   81 type  2   force =     0.00079993   -0.00063699    0.00049725
     atom   82 type  1   force =     0.00030281    0.00030127   -0.00035540
     atom   83 type  1   force =     0.00000018    0.00000256    0.00189491
     atom   84 type  1   force =    -0.00001596   -0.00000110   -0.00001602
     atom   85 type  2   force =     0.00000084    0.00000240   -0.00328040
     atom   86 type  2   force =    -0.00002166    0.00002057   -0.00004197
     atom   87 type  2   force =     0.00004507    0.00042871   -0.00040514
     atom   88 type  2   force =     0.00000548    0.00000753    0.00150088
     atom   89 type  2   force =     0.00000109   -0.00000533   -0.00002384
     atom   90 type  2   force =     0.00083900    0.00095370   -0.00020991
     atom   91 type  1   force =    -0.00011465   -0.00001707    0.00024832
     atom   92 type  1   force =    -0.00000091    0.00000216    0.00189327
     atom   93 type  1   force =     0.00003298   -0.00000535    0.00002843
     atom   94 type  2   force =     0.00000094    0.00000249   -0.00327974
     atom   95 type  2   force =     0.00000658    0.00000763    0.00000920
     atom   96 type  2   force =     0.00025776   -0.00063000    0.00025134
     atom   97 type  2   force =     0.00000372    0.00000381    0.00149842
     atom   98 type  2   force =     0.00000742   -0.00004336    0.00002956
     atom   99 type  2   force =    -0.00028599   -0.00025068   -0.00003827
     atom  100 type  1   force =     0.00003269    0.00009751   -0.00014413
     atom  101 type  1   force =     0.00000089    0.00000089    0.00189677
     atom  102 type  1   force =    -0.00000007    0.00002941    0.00000480
     atom  103 type  2   force =     0.00000097    0.00000230   -0.00327985
     atom  104 type  2   force =    -0.00001267   -0.00001174    0.00002141
     atom  105 type  2   force =     0.00004589   -0.00023504    0.00000996
     atom  106 type  2   force =     0.00000308   -0.00000064    0.00149375
     atom  107 type  2   force =     0.00001369    0.00002200    0.00001125
     atom  108 type  2   force =    -0.00002051    0.00011594   -0.00021243
     atom  109 type  1   force =     0.00004259    0.00010068   -0.00030546
     atom  110 type  1   force =     0.00000093    0.00000285    0.00190203
     atom  111 type  1   force =    -0.00001325   -0.00001274    0.00000002
     atom  112 type  2   force =     0.00000166    0.00000248   -0.00327977
     atom  113 type  2   force =     0.00002660    0.00003069    0.00000256
     atom  114 type  2   force =    -0.00014364    0.00023550   -0.00015898
     atom  115 type  2   force =    -0.00000478    0.00000137    0.00151396
     atom  116 type  2   force =    -0.00000178   -0.00001304   -0.00000176
     atom  117 type  2   force =    -0.00016093    0.00031595   -0.00045443
     atom  118 type  1   force =     0.00017340    0.00012504    0.00027847
     atom  119 type  1   force =     0.00000154    0.00000332    0.00190203
     atom  120 type  1   force =    -0.00000741    0.00001797   -0.00002921
     atom  121 type  2   force =     0.00000175    0.00000270   -0.00328047
     atom  122 type  2   force =    -0.00000010   -0.00001293   -0.00001460
     atom  123 type  2   force =    -0.00003185    0.00068393    0.00054358
     atom  124 type  2   force =    -0.00000520   -0.00000206    0.00151315
     atom  125 type  2   force =     0.00002679    0.00000944   -0.00004489
     atom  126 type  2   force =    -0.00023709   -0.00005381   -0.00015989
     atom  127 type  1   force =    -0.00010079    0.00000274    0.00003998
     atom  128 type  1   force =     0.00000029    0.00000156    0.00189880
     atom  129 type  1   force =    -0.00000876   -0.00001812    0.00003068
     atom  130 type  2   force =     0.00000163    0.00000287   -0.00327980
     atom  131 type  2   force =    -0.00000380    0.00003078    0.00000024
     atom  132 type  2   force =    -0.00014547   -0.00053185    0.00037196
     atom  133 type  2   force =    -0.00000755   -0.00000451    0.00150505
     atom  134 type  2   force =    -0.00001361    0.00000074   -0.00000088
     atom  135 type  2   force =    -0.00007598   -0.00008961    0.00017119
     atom  136 type  1   force =    -0.00005933    0.00001571   -0.00001710
     atom  137 type  1   force =    -0.00000030    0.00000156    0.00190281
     atom  138 type  1   force =     0.00000429    0.00001411   -0.00001108
     atom  139 type  2   force =     0.00000147    0.00000278   -0.00327983
     atom  140 type  2   force =     0.00002874   -0.00001955    0.00003039
     atom  141 type  2   force =     0.00005950    0.00001297    0.00009601
     atom  142 type  2   force =    -0.00000888   -0.00000455    0.00150432
     atom  143 type  2   force =    -0.00000736    0.00002320   -0.00001130
     atom  144 type  2   force =     0.00000980    0.00026293    0.00009232
     atom  145 type  3   force =    -0.00085089   -0.00099249   -0.00059775
     atom  146 type  4   force =     0.00091722   -0.00063343   -0.00052308

     Total force =     0.003875     Total SCF correction =     0.000565
     SCF correction compared to forces is large: reduce conv_thr to get better values
     Energy error            =      2.5E-05 Ry
     Gradient error          =      9.9E-04 Ry/Bohr

     bfgs converged in  27 scf cycles and  26 bfgs steps
     (criteria: energy <  1.0E-04 Ry, force <  1.0E-03 Ry/Bohr)

     End of BFGS Geometry Optimization

     Final energy             =  -26031.8088522538 Ry

     File ./outdir/pwscf.bfgs deleted, as requested
Begin final coordinates

ATOMIC_POSITIONS (angstrom)
Mo               1.5557553942        2.7129194913        6.0940061704
Mo               1.5769197498        0.9104407117       -6.0872367793    0   0   0
Mo               0.0000147437        1.8208860631       -0.0006257218
S                0.0000044503        0.0000077495       -7.6506323570    0   0   0
S                1.5768066352        0.9109365546       -1.5665289164
S               -0.0015159058        1.8197055148        4.5039208911
S                0.0000053241        0.0000068460       -4.5222282367    0   0   0
S                1.5774154768        0.9105884362        1.5661869820
S               -0.0271222623        1.8005204248        7.6485950335
Mo              -0.0164222355        5.4647352069        6.0846418733
Mo               0.0000011799        3.6417399547       -6.0872367793    0   0   0
Mo              -1.5765879793        4.5518628893       -0.0010015235
S               -1.5769141197        2.7313069925       -7.6506323570    0   0   0
S                0.0002800135        3.6416021179       -1.5662604412
S               -1.5679543437        4.5473199425        4.4989222357
S               -1.5769132459        2.7313060890       -4.5222282367    0   0   0
S                0.0011051102        3.6420543989        1.5665077413
S               -1.5934913262        4.5490370271        7.6417768237
Mo              -1.5737662133        8.1939852648        6.0785973332
Mo              -1.5769173901        6.3730391977       -6.0872367793    0   0   0
Mo              -3.1539354782        7.2833419899       -0.0016849688
S               -3.1538326896        5.4626062355       -7.6506323570    0   0   0
S               -1.5768945135        6.3725790814       -1.5668399839
S               -3.1421203582        7.2885836540        4.4986250952
S               -3.1538318159        5.4626053320       -4.5222282367    0   0   0
S               -1.5768558130        6.3731401949        1.5653303275
S               -3.1533210852        7.2795474027        7.6325940333
Mo               3.1486555976       -0.0158566082        6.0820204723
Mo              -3.1538359601        9.1043384407       -6.0872367793    0   0   0
Mo              -4.7309568189       10.0150400135       -0.0017183914
S               -4.7307512596        8.1939054785       -7.6506323570    0   0   0
S               -3.1539944962        9.1044293201       -1.5671359816
S               -4.7268941794       10.0186993998        4.4986784439
S               -4.7307503859        8.1939045750       -4.5222282367    0   0   0
S               -3.1538863075        9.1044762972        1.5648561001
S               -4.7393540705       10.0024249069        7.6415852361
Mo               4.7400584551        2.7140595932        6.1234409235
Mo               4.7307503218        0.9104407117       -6.0872367793    0   0   0
Mo               3.1538925451        1.8210987250       -0.0007786964
S                3.1538350223        0.0000077495       -7.6506323570    0   0   0
S                4.7310579768        0.9109227133       -1.5661040983
S                3.1635857026        1.8260617230        4.5483917854
S                3.1538358961        0.0000068460       -4.5222282367    0   0   0
S                4.7299491086        0.9099104789        1.5668331612
S                3.0823239081        1.7692046998        7.6839239194
Mo               3.1510713756        5.4748614046        6.1318361419
Mo               3.1538317519        3.6417399547       -6.0872367793    0   0   0
Mo               1.5772905613        4.5521220575       -0.0007700863
S                1.5769164523        2.7313069925       -7.6506323570    0   0   0
S                3.1543338313        3.6419630853       -1.5659710111
S                1.5964863652        4.5593461718        4.5608083449
S                1.5769173261        2.7313060890       -4.5222282367    0   0   0
S                3.1534070006        3.6414806402        1.5675309798
S                1.4641898690        4.4931313408        7.7117109590
Mo               1.5713848815        8.2046990254        6.0973667676
Mo               1.5769131819        6.3730391977       -6.0872367793    0   0   0
Mo               0.0000714580        7.2832371100       -0.0012367449
S               -0.0000021176        5.4626062355       -7.6506323570    0   0   0
S                1.5771547847        6.3728639320       -1.5662590335
S                0.0078312954        7.2855292186        4.5176906852
S               -0.0000012439        5.4626053320       -4.5222282367    0   0   0
S                1.5764197649        6.3724750261        1.5671089184
S               -0.0068958780        7.2814637316        7.6529022831
Mo               6.3125848733       -0.0050148276        6.0934940274
Mo              -0.0000053881        9.1043384407       -6.0872367793    0   0   0
Mo              -1.5769588654       10.0148242962       -0.0014837446
S               -1.5769206876        8.1939054785       -7.6506323570    0   0   0
S                0.0003118541        9.1043865318       -1.5664259332
S               -1.5703241823       10.0167046352        4.5151156162
S               -1.5769198139        8.1939045750       -4.5222282367    0   0   0
S               -0.0009885545        9.1036847085        1.5660487730
S               -1.5808031818       10.0077958494        7.6523859879
Mo               7.8914552975        2.7291924293        6.0867332277
Mo               7.8845808939        0.9104407117       -6.0872367793    0   0   0
Mo               6.3072591703        1.8207847640        0.0005199439
S                6.3076655943        0.0000077495       -7.6506323570    0   0   0
S                7.8840769176        0.9101536473       -1.5650666833
S                6.2930557214        1.8242796280        4.5449621920
S                6.3076664681        0.0000068460       -4.5222282367    0   0   0
S                7.8839125312        0.9101623906        1.5677496263
S                6.3649933132        1.7824045553        7.7095633187
Mo               6.3532545025        5.4871102022        6.0623005468
Mo               6.3076623239        3.6417399547       -6.0872367793    0   0   0
Mo               4.7304597507        4.5519920049        0.0004652302
S                4.7307470244        2.7313069925       -7.6506323570    0   0   0
S                6.3075532676        3.6415428108       -1.5647710746
S                4.7154688882        4.5491238432        4.5763901101
S                4.7307478981        2.7313060890       -4.5222282367    0   0   0
S                6.3067203317        3.6417230882        1.5684013746
S                4.8788485374        4.5898590206        7.6778837318
Mo               4.7383117711        8.2033604012        6.0861709121
Mo               4.7307437539        6.3730391977       -6.0872367793    0   0   0
Mo               3.1535056586        7.2828844246        0.0000587937
S                3.1538284544        5.4626062355       -7.6506323570    0   0   0
S                4.7305610619        6.3726309865       -1.5652235657
S                3.1486666607        7.2645821087        4.5577472440
S                3.1538293281        5.4626053320       -4.5222282367    0   0   0
S                4.7302464378        6.3726052510        1.5682179909
S                3.1543018805        7.3975185511        7.7358820088
Mo               9.4604882458       -0.0016490064        6.0815492438
Mo               3.1538251839        9.1043384407       -6.0872367793    0   0   0
Mo               1.5765492048       10.0143185868        0.0002086685
S                1.5769098844        8.1939054785       -7.6506323570    0   0   0
S                3.1533561841        9.1038791717       -1.5653969286
S                1.5723065194       10.0125319377        4.5191753282
S                1.5769107581        8.1939045750       -4.5222282367    0   0   0
S                3.1532970168        9.1030732663        1.5676193482
S                1.5804400421       10.0222006552        7.6639404909
Mo              -1.5802994446        2.7275138163        6.0718156924
Mo              11.0384114659        0.9104407117       -6.0872367793    0   0   0
Mo               9.4612107301        1.8205030851       -0.0001926811
S                9.4614961663        0.0000077495       -7.6506323570    0   0   0
S               11.0379206922        0.9101016475       -1.5657299408
S                9.4552203339        1.8154630891        4.5117004121
S                9.4614970401        0.0000068460       -4.5222282367    0   0   0
S               11.0384222172        0.9103199337        1.5666020572
S                9.4703103206        1.8190596971        7.6505441528
Mo              -3.1456597273        5.4603508165        6.0584013096
Mo               9.4614928959        3.6417399547       -6.0872367793    0   0   0
Mo               7.8844163291        4.5517781206        0.0004429573
S                7.8845775964        2.7313069925       -7.6506323570    0   0   0
S                9.4610326360        3.6413558852       -1.5656593875
S                7.8977269449        4.5397563711        4.4919881397
S                7.8845784701        2.7313060890       -4.5222282367    0   0   0
S                9.4623695075        3.6413554947        1.5661601046
S                7.9132278891        4.5613533505        7.6365888044
Mo              -4.7252123378        8.1983121227        6.0620493305
Mo               7.8845743259        6.3730391977       -6.0872367793    0   0   0
Mo               6.3073193784        7.2833081608       -0.0000669487
S                6.3076590264        5.4626062355       -7.6506323570    0   0   0
S                7.8838600057        6.3722369939       -1.5657682731
S                6.3084778798        7.2995134951        4.4938600701
S                6.3076599001        5.4626053320       -4.5222282367    0   0   0
S                7.8850950728        6.3733798246        1.5665047216
S                6.3288867345        7.2973074758        7.6362984182
Mo              -0.0026709206       -0.0033752681        6.0679608868
Mo               6.3076557559        9.1043384407       -6.0872367793    0   0   0
Mo               4.7301999665       10.0144451885       -0.0002791443
S                4.7307404564        8.1939054785       -7.6506323570    0   0   0
S                6.3068037148        9.1040071458       -1.5662297545
S                4.7238613973       10.0104594926        4.5079462899
S                4.7307413301        8.1939045750       -4.5222282367    0   0   0
S                6.3079733703        9.1049397001        1.5655532550
S                4.7388285731       10.0244092649        7.6479010548
Pt               3.1941759940        5.3738092250        8.9494123326
Pd               4.6224336778        2.8357851045        9.1001029398
End final coordinates



     Writing all to output data dir ./outdir/pwscf.save/ :
     XML data file, charge density, pseudopotentials, collected wavefunctions
 
     init_run     :     95.23s CPU     97.33s WALL (       1 calls)
     electrons    : 110806.34s CPU 112505.93s WALL (      27 calls)
     update_pot   :     34.09s CPU     35.21s WALL (      26 calls)
     forces       :   1922.97s CPU   1965.01s WALL (      27 calls)
     force_dftd3  :     10.17s CPU     10.68s WALL (      27 calls)

     Called by init_run:
     wfcinit      :     77.10s CPU     78.09s WALL (       1 calls)
     potinit      :      1.08s CPU      1.17s WALL (       1 calls)
     hinit0       :      9.29s CPU      9.35s WALL (       1 calls)

     Called by electrons:
     c_bands      :  96413.57s CPU  97436.34s WALL (     337 calls)
     sum_band     :  12364.47s CPU  12716.66s WALL (     337 calls)
     v_of_rho     :     97.08s CPU    109.07s WALL (     341 calls)
     newd         :   1715.52s CPU   2034.93s WALL (     341 calls)
     PAW_pot      :    278.73s CPU    280.89s WALL (     367 calls)
     mix_rho      :     25.27s CPU     28.77s WALL (     337 calls)
     energy_dftd3 :      5.79s CPU      5.83s WALL (      27 calls)

     Called by c_bands:
     init_us_2    :    472.55s CPU    474.71s WALL (    2912 calls)
     init_us_2:cp :    472.53s CPU    474.69s WALL (    2912 calls)
     cegterg      :  94479.17s CPU  95493.21s WALL (    1361 calls)

     Called by *egterg:
     cdiaghg      :   4924.38s CPU   5147.13s WALL (   16356 calls)
     h_psi        :  49109.15s CPU  49438.94s WALL (   16560 calls)
     s_psi        :  10278.79s CPU  10324.70s WALL (   16560 calls)
     g_psi        :    109.57s CPU    110.07s WALL (   15195 calls)

     Called by h_psi:
     h_psi:calbec :  10158.25s CPU  10196.75s WALL (   16560 calls)
     vloc_psi     :  28401.20s CPU  28562.94s WALL (   16560 calls)
     add_vuspsi   :  10313.39s CPU  10363.28s WALL (   16560 calls)

     General routines
     calbec       :  14553.30s CPU  14608.17s WALL (   18444 calls)
     fft          :     86.46s CPU     97.98s WALL (    4725 calls)
     ffts         :      4.33s CPU      4.50s WALL (     678 calls)
     fftw         :  20898.54s CPU  21015.45s WALL ( 7448412 calls)
     interpolate  :      8.09s CPU      8.93s WALL (     341 calls)
 
     Parallel routines
 
     PWSCF        :   1d 7h31m CPU   1d 8h 2m WALL

 
   This run was terminated on:  19: 6: 5  10Mar2024            

=------------------------------------------------------------------------------=
   JOB DONE.
=------------------------------------------------------------------------------=
