
     Program PWSCF v.7.3 starts on  3Apr2024 at  5:49:45 

     This program is part of the open-source Quantum ESPRESSO suite
     for quantum simulation of materials; please cite
         "P. Giannozzi et al., J. Phys.:Condens. Matter 21 395502 (2009);
         "P. Giannozzi et al., J. Phys.:Condens. Matter 29 465901 (2017);
         "P. Giannozzi et al., J. Chem. Phys. 152 154105 (2020);
          URL http://www.quantum-espresso.org", 
     in publications or presentations arising from this work. More details at
     http://www.quantum-espresso.org/quote

     Parallel version (MPI & OpenMP), running on      36 processor cores
     Number of MPI processes:                36
     Threads/MPI process:                     1

     MPI processes distributed on     1 nodes
     558935 MiB available memory on the printing compute node when the environment starts
 
     Waiting for input...
     Reading input from standard input
Warning: card &CELL ignored
Warning: card / ignored

     Current dimensions of program PWSCF are:
     Max number of different atomic species (ntypx) = 10
     Max number of k-points (npk) =  40000
     Max angular momentum in pseudopotentials (lmaxx) =  4
     file Mo.pbe-spn-kjpaw_psl.1.0.0.UPF: wavefunction(s)  4S 4D renormalized
     file S.pbe-n-kjpaw_psl.1.0.0.UPF: wavefunction(s)  3S 3P renormalized
     file Pt.pbe-spfn-kjpaw_psl.1.0.0.UPF: wavefunction(s)  5P 4F renormalized
     file Pd.pbe-spn-kjpaw_psl.1.0.0.UPF: wavefunction(s)  4S 5S 4D renormalized
 
     R & G space division:  proc/nbgrp/npool/nimage =      36
     Subspace diagonalization in iterative solution of the eigenvalue problem:
     one sub-group per band group will be used
     scalapack distributed-memory algorithm (size of sub-group:  6*  6 procs)

 
     Parallelization info
     --------------------
     sticks:   dense  smooth     PW     G-vecs:    dense   smooth      PW
     Min         586     335     89               165416    71459    9765
     Max         587     337     90               165425    71461    9778
     Sum       21109   12085   3205              5955087  2572543  351657
 
     Using Slab Decomposition
 


     bravais-lattice index     =            0
     lattice parameter (alat)  =      23.8395  a.u.
     unit-cell volume          =   28182.8498 (a.u.)^3
     number of atoms/cell      =          147
     number of atomic types    =            4
     number of electrons       =      1316.00
     number of Kohn-Sham states=          790
     kinetic-energy cutoff     =      77.0000  Ry
     charge density cutoff     =     539.0000  Ry
     scf convergence threshold =      1.0E-06
     mixing beta               =       0.2000
     number of iterations used =            8  plain     mixing
     energy convergence thresh.=      1.0E-04
     force convergence thresh. =      1.0E-03
     Exchange-correlation= SLA  PW   PBX  PBC
                           (   1   4   3   4   0   0   0)
     nstep                     =         1000


     Effective Screening Medium Method
     =================================
     Boundary Conditions: Vacuum-Slab-Vacuum
     total charge in unit cell        =   0.0000
     grid points for fit at edges     =        4 
 

     celldm(1)=  23.839504  celldm(2)=   0.000000  celldm(3)=   0.000000
     celldm(4)=   0.000000  celldm(5)=   0.000000  celldm(6)=   0.000000

     crystal axes: (cart. coord. in units of alat)
               a(1) = (   1.000000   0.000000   0.000000 )  
               a(2) = (  -0.500001   0.866026   0.000000 )  
               a(3) = (   0.000000   0.000000   2.401941 )  

     reciprocal axes: (cart. coord. in units 2 pi/alat)
               b(1) = (  1.000000  0.577351  0.000000 )  
               b(2) = (  0.000000  1.154700  0.000000 )  
               b(3) = (  0.000000  0.000000  0.416330 )  


     PseudoPot. # 1 for Mo read from file:
     ./pseudo/Mo.pbe-spn-kjpaw_psl.1.0.0.UPF
     MD5 check sum: 317bf72632116215fd98f72de1686f13
     Pseudo is Projector augmented-wave + core cor, Zval = 14.0
     Generated using 'atomic' code by A. Dal Corso  v.7.2
     Shape of augmentation charge: PSQ
     Using radial grid of 1229 points,  6 beta functions with: 
                l(1) =   0
                l(2) =   0
                l(3) =   1
                l(4) =   1
                l(5) =   2
                l(6) =   2
     Q(r) pseudized with 0 coefficients 


     PseudoPot. # 2 for S  read from file:
     ./pseudo/S.pbe-n-kjpaw_psl.1.0.0.UPF
     MD5 check sum: 8b7b5302570d38d5e87fed6a1065abda
     Pseudo is Projector augmented-wave + core cor, Zval =  6.0
     Generated using 'atomic' code by A. Dal Corso  v.7.2
     Shape of augmentation charge: PSQ
     Using radial grid of 1151 points,  6 beta functions with: 
                l(1) =   0
                l(2) =   0
                l(3) =   1
                l(4) =   1
                l(5) =   2
                l(6) =   2
     Q(r) pseudized with 0 coefficients 


     PseudoPot. # 3 for Pt read from file:
     ./pseudo/Pt.pbe-spfn-kjpaw_psl.1.0.0.UPF
     MD5 check sum: 620096ebf4e6ebacc94de60fd67efcb5
     Pseudo is Projector augmented-wave + core cor, Zval = 32.0
     Generated using 'atomic' code by A. Dal Corso  v.7.2
     Shape of augmentation charge: PSQ
     Using radial grid of 1277 points,  8 beta functions with: 
                l(1) =   0
                l(2) =   0
                l(3) =   1
                l(4) =   1
                l(5) =   2
                l(6) =   2
                l(7) =   3
                l(8) =   3
     Q(r) pseudized with 0 coefficients 


     PseudoPot. # 4 for Pd read from file:
     ./pseudo/Pd.pbe-spn-kjpaw_psl.1.0.0.UPF
     MD5 check sum: a60571a671f2502b8a6a4569d20a6edb
     Pseudo is Projector augmented-wave + core cor, Zval = 18.0
     Generated using 'atomic' code by A. Dal Corso  v.7.2
     Shape of augmentation charge: PSQ
     Using radial grid of 1235 points,  6 beta functions with: 
                l(1) =   0
                l(2) =   0
                l(3) =   1
                l(4) =   1
                l(5) =   2
                l(6) =   2
     Q(r) pseudized with 0 coefficients 


     atomic species   valence    mass     pseudopotential
     Mo               14.00    95.95000     Mo( 1.00)
     S                 6.00    32.06000     S ( 1.00)
     Pt               32.00   195.08400     Pt( 1.00)
     Pd               18.00   106.42000     Pd( 1.00)

     No symmetry found



   Cartesian axes

     site n.     atom                  positions (alat units)
         1        Mo     tau(   1) = (   0.1246074   0.2157200   0.4826345  )
         2        Mo     tau(   2) = (   0.1250004   0.0721694  -0.4825273  )
         3        Mo     tau(   3) = (   0.0000068   0.1443549  -0.0000406  )
         4        S      tau(   4) = (   0.0000004   0.0000006  -0.6064556  )
         5        S      tau(   5) = (   0.1249873   0.0722031  -0.1241756  )
         6        S      tau(   6) = (   0.0000973   0.1450650   0.3573519  )
         7        S      tau(   7) = (   0.0000004   0.0000005  -0.3584711  )
         8        S      tau(   8) = (   0.1249847   0.0720950   0.1240801  )
         9        S      tau(   9) = (  -0.0005301   0.1434694   0.6062599  )
        10        Mo     tau(  10) = (  -0.0009156   0.4330317   0.4832560  )
        11        Mo     tau(  11) = (   0.0000001   0.2886759  -0.4825273  )
        12        Mo     tau(  12) = (  -0.1249829   0.3608507   0.0000027  )
        13        S      tau(  13) = (  -0.1249999   0.2165071  -0.6064556  )
        14        S      tau(  14) = (   0.0000128   0.2886930  -0.1241006  )
        15        S      tau(  15) = (  -0.1248837   0.3612581   0.3580377  )
        16        S      tau(  16) = (  -0.1249998   0.2165070  -0.3584711  )
        17        S      tau(  17) = (   0.0000764   0.2887257   0.1242499  )
        18        S      tau(  18) = (  -0.1253220   0.3603286   0.6073134  )
        19        Mo     tau(  19) = (  -0.1249684   0.6493789   0.4818062  )
        20        Mo     tau(  20) = (  -0.1250002   0.5051824  -0.4825273  )
        21        Mo     tau(  21) = (  -0.2500040   0.5773207  -0.0001409  )
        22        S      tau(  22) = (  -0.2500002   0.4330136  -0.6064556  )
        23        S      tau(  23) = (  -0.1249903   0.5051158  -0.1241917  )
        24        S      tau(  24) = (  -0.2499555   0.5769406   0.3578597  )
        25        S      tau(  25) = (  -0.2500001   0.4330135  -0.3584711  )
        26        S      tau(  26) = (  -0.1249930   0.5052458   0.1241101  )
        27        S      tau(  27) = (  -0.2497899   0.5778453   0.6063597  )
        28        Mo     tau(  28) = (   0.2497834  -0.0005160   0.4806710  )
        29        Mo     tau(  29) = (  -0.2500004   0.7216889  -0.4825273  )
        30        Mo     tau(  30) = (  -0.3750188   0.7938286  -0.0001549  )
        31        S      tau(  31) = (  -0.3750004   0.6495201  -0.6064556  )
        32        S      tau(  32) = (  -0.2500074   0.7216649  -0.1242513  )
        33        S      tau(  33) = (  -0.3752234   0.7935039   0.3566636  )
        34        S      tau(  34) = (  -0.3750004   0.6495200  -0.3584711  )
        35        S      tau(  35) = (  -0.2499996   0.7216607   0.1240200  )
        36        S      tau(  36) = (  -0.3746819   0.7948899   0.6057341  )
        37        Mo     tau(  37) = (   0.3750034   0.2123618   0.4807886  )
        38        Mo     tau(  38) = (   0.3750004   0.0721694  -0.4825273  )
        39        Mo     tau(  39) = (   0.2499981   0.1443415  -0.0000413  )
        40        S      tau(  40) = (   0.2500004   0.0000006  -0.6064556  )
        41        S      tau(  41) = (   0.3750280   0.0722231  -0.1241519  )
        42        S      tau(  42) = (   0.2489233   0.1437373   0.3564531  )
        43        S      tau(  43) = (   0.2500004   0.0000005  -0.3584711  )
        44        S      tau(  44) = (   0.3749877   0.0720947   0.1241383  )
        45        S      tau(  45) = (   0.2497122   0.1423104   0.6055821  )
        46        Mo     tau(  46) = (   0.2490774   0.4329018   0.4862977  )
        47        Mo     tau(  47) = (   0.2500001   0.2886759  -0.4825273  )
        48        Mo     tau(  48) = (   0.1250319   0.3608540  -0.0000126  )
        49        S      tau(  49) = (   0.1250001   0.2165071  -0.6064556  )
        50        S      tau(  50) = (   0.2500259   0.2886851  -0.1240979  )
        51        S      tau(  51) = (   0.1263042   0.3620125   0.3614359  )
        52        S      tau(  52) = (   0.1250002   0.2165070  -0.3584711  )
        53        S      tau(  53) = (   0.2500168   0.2886898   0.1242904  )
        54        S      tau(  54) = (   0.1173694   0.3566575   0.6132890  )
        55        Mo     tau(  55) = (   0.1240062   0.6506471   0.4823696  )
        56        Mo     tau(  56) = (   0.1249998   0.5051824  -0.4825273  )
        57        Mo     tau(  57) = (   0.0000191   0.5773226  -0.0001255  )
        58        S      tau(  58) = (  -0.0000002   0.4330136  -0.6064556  )
        59        S      tau(  59) = (   0.1250359   0.5051398  -0.1241676  )
        60        S      tau(  60) = (   0.0000697   0.5768181   0.3580317  )
        61        S      tau(  61) = (  -0.0000001   0.4330135  -0.3584711  )
        62        S      tau(  62) = (   0.1250059   0.5052001   0.1242069  )
        63        S      tau(  63) = (  -0.0003304   0.5778980   0.6066479  )
        64        Mo     tau(  64) = (   0.5003257  -0.0004925   0.4803774  )
        65        Mo     tau(  65) = (  -0.0000004   0.7216889  -0.4825273  )
        66        Mo     tau(  66) = (  -0.1249927   0.7938427  -0.0001655  )
        67        S      tau(  67) = (  -0.1250004   0.6495201  -0.6064556  )
        68        S      tau(  68) = (   0.0000418   0.7216760  -0.1242215  )
        69        S      tau(  69) = (  -0.1250504   0.7929751   0.3566577  )
        70        S      tau(  70) = (  -0.1250004   0.6495200  -0.3584711  )
        71        S      tau(  71) = (  -0.0000163   0.7216479   0.1240623  )
        72        S      tau(  72) = (  -0.1248984   0.7939509   0.6051552  )
        73        Mo     tau(  73) = (   0.6254010   0.2160480   0.4824065  )
        74        Mo     tau(  74) = (   0.6250004   0.0721694  -0.4825273  )
        75        Mo     tau(  75) = (   0.5000167   0.1443371   0.0000092  )
        76        S      tau(  76) = (   0.5000004   0.0000006  -0.6064556  )
        77        S      tau(  77) = (   0.6250207   0.0721868  -0.1241145  )
        78        S      tau(  78) = (   0.5010641   0.1438734   0.3562763  )
        79        S      tau(  79) = (   0.5000004   0.0000005  -0.3584711  )
        80        S      tau(  80) = (   0.6250414   0.0720927   0.1241409  )
        81        S      tau(  81) = (   0.5005473   0.1420509   0.6053992  )
        82        Mo     tau(  82) = (   0.5016373   0.4329758   0.4857863  )
        83        Mo     tau(  83) = (   0.5000001   0.2886759  -0.4825273  )
        84        Mo     tau(  84) = (   0.3750027   0.3608467   0.0000234  )
        85        S      tau(  85) = (   0.3750001   0.2165071  -0.6064556  )
        86        S      tau(  86) = (   0.5000046   0.2886693  -0.1240592  )
        87        S      tau(  87) = (   0.3745963   0.3620572   0.3631324  )
        88        S      tau(  88) = (   0.3750002   0.2165070  -0.3584711  )
        89        S      tau(  89) = (   0.4999634   0.2887051   0.1243131  )
        90        S      tau(  90) = (   0.3781068   0.3490112   0.6089630  )
        91        Mo     tau(  91) = (   0.3753335   0.6518408   0.4830502  )
        92        Mo     tau(  92) = (   0.3749998   0.5051824  -0.4825273  )
        93        Mo     tau(  93) = (   0.2500203   0.5772987  -0.0000555  )
        94        S      tau(  94) = (   0.2499998   0.4330136  -0.6064556  )
        95        S      tau(  95) = (   0.3750008   0.5051221  -0.1241383  )
        96        S      tau(  96) = (   0.2501878   0.5758780   0.3616377  )
        97        S      tau(  97) = (   0.2499999   0.4330135  -0.3584711  )
        98        S      tau(  98) = (   0.3750015   0.5051839   0.1242620  )
        99        S      tau(  99) = (   0.2495016   0.5878580   0.6113208  )
       100        Mo     tau( 100) = (   0.7500199   0.0003818   0.4811571  )
       101        Mo     tau( 101) = (   0.2499996   0.7216889  -0.4825273  )
       102        Mo     tau( 102) = (   0.1250316   0.7938162  -0.0000875  )
       103        S      tau( 103) = (   0.1249996   0.6495201  -0.6064556  )
       104        S      tau( 104) = (   0.2500359   0.7216507  -0.1241461  )
       105        S      tau( 105) = (   0.1254554   0.7934228   0.3566219  )
       106        S      tau( 106) = (   0.1249996   0.6495200  -0.3584711  )
       107        S      tau( 107) = (   0.2500086   0.7215741   0.1241838  )
       108        S      tau( 108) = (   0.1244907   0.7952297   0.6057917  )
       109        Mo     tau( 109) = (  -0.1249741   0.2166510   0.4819241  )
       110        Mo     tau( 110) = (   0.8750004   0.0721694  -0.4825273  )
       111        Mo     tau( 111) = (   0.7500133   0.1443436  -0.0000073  )
       112        S      tau( 112) = (   0.7500004   0.0000006  -0.6064556  )
       113        S      tau( 113) = (   0.8749956   0.0721731  -0.1241058  )
       114        S      tau( 114) = (   0.7500203   0.1449522   0.3574598  )
       115        S      tau( 115) = (   0.7500004   0.0000005  -0.3584711  )
       116        S      tau( 116) = (   0.8750238   0.0721604   0.1241841  )
       117        S      tau( 117) = (   0.7504201   0.1437382   0.6062629  )
       118        Mo     tau( 118) = (  -0.2493495   0.4328575   0.4828262  )
       119        Mo     tau( 119) = (   0.7500001   0.2886759  -0.4825273  )
       120        Mo     tau( 120) = (   0.6249856   0.3608477   0.0000279  )
       121        S      tau( 121) = (   0.6250001   0.2165071  -0.6064556  )
       122        S      tau( 122) = (   0.7499958   0.2886820  -0.1240679  )
       123        S      tau( 123) = (   0.6241512   0.3616755   0.3603414  )
       124        S      tau( 124) = (   0.6250002   0.2165070  -0.3584711  )
       125        S      tau( 125) = (   0.7499862   0.2887159   0.1242658  )
       126        S      tau( 126) = (   0.6305969   0.3581080   0.6112211  )
       127        Mo     tau( 127) = (  -0.3742668   0.6505223   0.4820597  )
       128        Mo     tau( 128) = (   0.6249998   0.5051824  -0.4825273  )
       129        Mo     tau( 129) = (   0.4999851   0.5773046  -0.0000631  )
       130        S      tau( 130) = (   0.4999998   0.4330136  -0.6064556  )
       131        S      tau( 131) = (   0.6249723   0.5051139  -0.1241565  )
       132        S      tau( 132) = (   0.4998783   0.5762956   0.3606843  )
       133        S      tau( 133) = (   0.4999999   0.4330135  -0.3584711  )
       134        S      tau( 134) = (   0.6250095   0.5052263   0.1241915  )
       135        S      tau( 135) = (   0.5006407   0.5846211   0.6091832  )
       136        Mo     tau( 136) = (   0.0000410   0.0004185   0.4809769  )
       137        Mo     tau( 137) = (   0.4999996   0.7216889  -0.4825273  )
       138        Mo     tau( 138) = (   0.3750036   0.7938273  -0.0000272  )
       139        S      tau( 139) = (   0.3749996   0.6495201  -0.6064556  )
       140        S      tau( 140) = (   0.4999499   0.7216482  -0.1241729  )
       141        S      tau( 141) = (   0.3750006   0.7941054   0.3569117  )
       142        S      tau( 142) = (   0.3749996   0.6495200  -0.3584711  )
       143        S      tau( 143) = (   0.5000314   0.7216102   0.1241515  )
       144        S      tau( 144) = (   0.3752329   0.7966920   0.6062052  )
       145        Pt     tau( 145) = (   0.2580795   0.4348292   0.7095693  )
       146        Pd     tau( 146) = (   0.4899479   0.4358638   0.7204770  )
       147        Pd     tau( 147) = (   0.3753372   0.6518264   0.7360097  )

     --------------------------------------------
     DFT-D3 Dispersion Correction (3-body terms):
     --------------------------------------------
       Reference C6 values for interpolation: 

         atom   Coordination number   C6
         S          0.000           268.01
         S          0.995           261.99
         S          1.990           251.62
         Mo         0.000          1691.79
         Mo         1.942          1004.01
         Mo        11.056           674.22
         Pd         0.000          1217.01
         Pd         1.863           573.90
         Pd         5.710           531.75
         Pt         0.000           782.29
         Pt         1.919           692.72
         Pt         6.667           673.75

       Values used:

         atom   Coordination number  R0_AB[au]  C6      C8
         Mo        10.200            3.547    674.22  77634.20
         Mo        10.189            3.547    674.22  77634.20
         Mo        10.200            3.547    674.22  77634.20
         S          3.753            3.128    251.62  12327.25
         S          3.858            3.128    251.62  12327.25
         S          3.855            3.128    251.62  12327.25
         S          3.858            3.128    251.62  12327.25
         S          3.864            3.128    251.62  12327.25
         S          3.815            3.128    251.62  12327.25
         Mo        10.207            3.547    674.22  77634.20
         Mo        10.189            3.547    674.22  77634.20
         Mo        10.201            3.547    674.22  77634.20
         S          3.753            3.128    251.62  12327.25
         S          3.859            3.128    251.62  12327.25
         S          3.853            3.128    251.62  12327.25
         S          3.858            3.128    251.62  12327.25
         S          3.855            3.128    251.62  12327.25
         S          3.817            3.128    251.62  12327.25
         Mo        10.231            3.547    674.22  77634.20
         Mo        10.189            3.547    674.22  77634.20
         Mo        10.201            3.547    674.22  77634.20
         S          3.753            3.128    251.62  12327.25
         S          3.858            3.128    251.62  12327.25
         S          3.865            3.128    251.62  12327.25
         S          3.859            3.128    251.62  12327.25
         S          3.860            3.128    251.62  12327.25
         S          3.762            3.128    251.62  12327.25
         Mo        10.259            3.547    674.22  77634.20
         Mo        10.189            3.547    674.22  77634.20
         Mo        10.200            3.547    674.22  77634.20
         S          3.753            3.128    251.62  12327.25
         S          3.857            3.128    251.62  12327.25
         S          3.856            3.128    251.62  12327.25
         S          3.859            3.128    251.62  12327.25
         S          3.864            3.128    251.62  12327.25
         S          3.811            3.128    251.62  12327.25
         Mo        10.158            3.547    674.22  77634.20
         Mo        10.189            3.547    674.22  77634.20
         Mo        10.200            3.547    674.22  77634.20
         S          3.753            3.128    251.62  12327.25
         S          3.858            3.128    251.62  12327.25
         S          3.842            3.128    251.62  12327.25
         S          3.859            3.128    251.62  12327.25
         S          3.863            3.128    251.62  12327.25
         S          3.812            3.128    251.62  12327.25
         Mo        10.854            3.547    674.22  77634.20
         Mo        10.189            3.547    674.22  77634.20
         Mo        10.202            3.547    674.22  77634.20
         S          3.753            3.128    251.62  12327.25
         S          3.859            3.128    251.62  12327.25
         S          3.851            3.128    251.62  12327.25
         S          3.858            3.128    251.62  12327.25
         S          3.851            3.128    251.62  12327.25
         S          4.635            3.128    251.62  12327.25
         Mo        10.201            3.547    674.22  77634.20
         Mo        10.189            3.547    674.22  77634.20
         Mo        10.201            3.547    674.22  77634.20
         S          3.753            3.128    251.62  12327.25
         S          3.859            3.128    251.62  12327.25
         S          3.864            3.128    251.62  12327.25
         S          3.859            3.128    251.62  12327.25
         S          3.853            3.128    251.62  12327.25
         S          3.758            3.128    251.62  12327.25
         Mo        10.259            3.547    674.22  77634.20
         Mo        10.189            3.547    674.22  77634.20
         Mo        10.200            3.547    674.22  77634.20
         S          3.753            3.128    251.62  12327.25
         S          3.858            3.128    251.62  12327.25
         S          3.858            3.128    251.62  12327.25
         S          3.859            3.128    251.62  12327.25
         S          3.863            3.128    251.62  12327.25
         S          3.783            3.128    251.62  12327.25
         Mo        10.209            3.547    674.22  77634.20
         Mo        10.189            3.547    674.22  77634.20
         Mo        10.200            3.547    674.22  77634.20
         S          3.753            3.128    251.62  12327.25
         S          3.859            3.128    251.62  12327.25
         S          3.839            3.128    251.62  12327.25
         S          3.859            3.128    251.62  12327.25
         S          3.863            3.128    251.62  12327.25
         S          3.835            3.128    251.62  12327.25
         Mo        10.715            3.547    674.22  77634.20
         Mo        10.189            3.547    674.22  77634.20
         Mo        10.202            3.547    674.22  77634.20
         S          3.753            3.128    251.62  12327.25
         S          3.859            3.128    251.62  12327.25
         S          3.874            3.128    251.62  12327.25
         S          3.858            3.128    251.62  12327.25
         S          3.851            3.128    251.62  12327.25
         S          5.642            3.128    251.62  12327.25
         Mo        10.531            3.547    674.22  77634.20
         Mo        10.189            3.547    674.22  77634.20
         Mo        10.203            3.547    674.22  77634.20
         S          3.753            3.128    251.62  12327.25
         S          3.859            3.128    251.62  12327.25
         S          3.861            3.128    251.62  12327.25
         S          3.859            3.128    251.62  12327.25
         S          3.849            3.128    251.62  12327.25
         S          5.612            3.128    251.62  12327.25
         Mo        10.248            3.547    674.22  77634.20
         Mo        10.189            3.547    674.22  77634.20
         Mo        10.200            3.547    674.22  77634.20
         S          3.753            3.128    251.62  12327.25
         S          3.858            3.128    251.62  12327.25
         S          3.852            3.128    251.62  12327.25
         S          3.859            3.128    251.62  12327.25
         S          3.858            3.128    251.62  12327.25
         S          3.828            3.128    251.62  12327.25
         Mo        10.231            3.547    674.22  77634.20
         Mo        10.189            3.547    674.22  77634.20
         Mo        10.200            3.547    674.22  77634.20
         S          3.753            3.128    251.62  12327.25
         S          3.858            3.128    251.62  12327.25
         S          3.857            3.128    251.62  12327.25
         S          3.858            3.128    251.62  12327.25
         S          3.861            3.128    251.62  12327.25
         S          3.803            3.128    251.62  12327.25
         Mo        10.222            3.547    674.22  77634.20
         Mo        10.189            3.547    674.22  77634.20
         Mo        10.201            3.547    674.22  77634.20
         S          3.753            3.128    251.62  12327.25
         S          3.859            3.128    251.62  12327.25
         S          3.849            3.128    251.62  12327.25
         S          3.858            3.128    251.62  12327.25
         S          3.855            3.128    251.62  12327.25
         S          4.617            3.128    251.62  12327.25
         Mo        10.213            3.547    674.22  77634.20
         Mo        10.189            3.547    674.22  77634.20
         Mo        10.202            3.547    674.22  77634.20
         S          3.753            3.128    251.62  12327.25
         S          3.858            3.128    251.62  12327.25
         S          3.863            3.128    251.62  12327.25
         S          3.858            3.128    251.62  12327.25
         S          3.855            3.128    251.62  12327.25
         S          5.595            3.128    251.62  12327.25
         Mo        10.254            3.547    674.22  77634.20
         Mo        10.189            3.547    674.22  77634.20
         Mo        10.201            3.547    674.22  77634.20
         S          3.753            3.128    251.62  12327.25
         S          3.858            3.128    251.62  12327.25
         S          3.845            3.128    251.62  12327.25
         S          3.859            3.128    251.62  12327.25
         S          3.859            3.128    251.62  12327.25
         S          4.741            3.128    251.62  12327.25
         Pt         4.723            3.168    673.75  70061.90
         Pd         4.368            3.168    531.75  48720.73
         Pd         3.762            3.168    559.89  51299.50

         Molecular C6 ( Ry / a.u.^6 ) =   8064274.75


     number of k points=     4  Gaussian smearing, width (Ry)=  0.0100
                       cart. coord. in units 2pi/alat
        k(    1) = (   0.0000000   0.0000000   0.0000000), wk =   0.5000000
        k(    2) = (   0.0000000  -0.5773499   0.0000000), wk =   0.5000000
        k(    3) = (  -0.5000000  -0.2886755   0.0000000), wk =   0.5000000
        k(    4) = (  -0.5000000  -0.8660254   0.0000000), wk =   0.5000000

     Dense  grid:  5955087 G-vectors     FFT dimensions: ( 180, 180, 432)

     Smooth grid:  2572543 G-vectors     FFT dimensions: ( 135, 135, 320)

     Estimated max dynamical RAM per process >       3.08 GB

     Estimated total dynamical RAM >     110.88 GB

     Initial potential from superposition of free atoms

     starting charge    1315.9537, renormalised to    1316.0000

     negative rho (up, down):  1.059E-03 0.000E+00
     Starting wfcs are  901 randomized atomic wfcs
     Checking if some PAW data can be deallocated... 

     total cpu time spent up to now is      101.0 secs

     Self-consistent Calculation

     iteration #  1     ecut=    77.00 Ry     beta= 0.20
     Davidson diagonalization with overlap
     ethr =  1.00E-02,  avg # of iterations =  2.0

     Threshold (ethr) on eigenvalues was too large:
     Diagonalizing with lowered threshold

     Davidson diagonalization with overlap
     ethr =  2.26E-04,  avg # of iterations = 16.0

     negative rho (up, down):  3.473E-04 0.000E+00

     total cpu time spent up to now is     1071.4 secs

     total energy              =  -26543.59092583 Ry
     estimated scf accuracy    <       4.81553502 Ry

     iteration #  2     ecut=    77.00 Ry     beta= 0.20
     Davidson diagonalization with overlap
     ethr =  3.66E-04,  avg # of iterations =  8.2

     negative rho (up, down):  7.784E-05 0.000E+00

     total cpu time spent up to now is     1313.2 secs

     total energy              =  -26542.98291467 Ry
     estimated scf accuracy    <       2.30147420 Ry

     iteration #  3     ecut=    77.00 Ry     beta= 0.20
     Davidson diagonalization with overlap
     ethr =  1.75E-04,  avg # of iterations = 10.8

     negative rho (up, down):  4.156E-05 0.000E+00

     total cpu time spent up to now is     1577.5 secs

     total energy              =  -26543.09954991 Ry
     estimated scf accuracy    <       0.88573491 Ry

     iteration #  4     ecut=    77.00 Ry     beta= 0.20
     Davidson diagonalization with overlap
     ethr =  6.73E-05,  avg # of iterations = 11.5

     negative rho (up, down):  3.654E-05 0.000E+00

     total cpu time spent up to now is     2018.8 secs

     total energy              =  -26543.45682532 Ry
     estimated scf accuracy    <       0.29566446 Ry

     iteration #  5     ecut=    77.00 Ry     beta= 0.20
     Davidson diagonalization with overlap
     c_bands:  4 eigenvalues not converged
     ethr =  2.25E-05,  avg # of iterations = 11.8

     negative rho (up, down):  6.474E-05 0.000E+00

     total cpu time spent up to now is     2493.3 secs

     total energy              =  -26543.71166771 Ry
     estimated scf accuracy    <       0.12634278 Ry

     iteration #  6     ecut=    77.00 Ry     beta= 0.20
     Davidson diagonalization with overlap
     c_bands:  1 eigenvalues not converged
     c_bands:  1 eigenvalues not converged
     c_bands:  3 eigenvalues not converged
     c_bands:  3 eigenvalues not converged
     ethr =  9.60E-06,  avg # of iterations = 50.0

     negative rho (up, down):  1.468E-04 0.000E+00

     total cpu time spent up to now is     3293.8 secs

     total energy              =  -26543.74609420 Ry
     estimated scf accuracy    <       0.09191926 Ry

     iteration #  7     ecut=    77.00 Ry     beta= 0.20
     Davidson diagonalization with overlap
     c_bands:  1 eigenvalues not converged
     ethr =  6.98E-06,  avg # of iterations =  9.2

     negative rho (up, down):  8.580E-04 0.000E+00

     total cpu time spent up to now is     3534.8 secs

     total energy              =  -26543.74892909 Ry
     estimated scf accuracy    <       0.04969277 Ry

     iteration #  8     ecut=    77.00 Ry     beta= 0.20
     Davidson diagonalization with overlap
     c_bands:  1 eigenvalues not converged
     c_bands:  2 eigenvalues not converged
     c_bands:  2 eigenvalues not converged
     ethr =  3.78E-06,  avg # of iterations = 20.0

     negative rho (up, down):  5.938E-04 0.000E+00

     total cpu time spent up to now is     4082.6 secs

     total energy              =  -26543.74960984 Ry
     estimated scf accuracy    <       0.10804589 Ry

     iteration #  9     ecut=    77.00 Ry     beta= 0.20
     Davidson diagonalization with overlap
     c_bands:  1 eigenvalues not converged
     c_bands:  1 eigenvalues not converged
     ethr =  3.78E-06,  avg # of iterations = 14.8

     negative rho (up, down):  4.976E-04 0.000E+00

     total cpu time spent up to now is     4370.0 secs

     total energy              =  -26543.75488339 Ry
     estimated scf accuracy    <       0.01012085 Ry

     iteration # 10     ecut=    77.00 Ry     beta= 0.20
     Davidson diagonalization with overlap
     c_bands:  3 eigenvalues not converged
     c_bands:  5 eigenvalues not converged
     c_bands:  4 eigenvalues not converged
     ethr =  7.69E-07,  avg # of iterations = 29.8

     negative rho (up, down):  5.611E-04 0.000E+00

     total cpu time spent up to now is     5311.7 secs

     total energy              =  -26543.77842913 Ry
     estimated scf accuracy    <       0.02389347 Ry

     iteration # 11     ecut=    77.00 Ry     beta= 0.20
     Davidson diagonalization with overlap
     c_bands:  2 eigenvalues not converged
     ethr =  7.69E-07,  avg # of iterations =  6.2

     negative rho (up, down):  7.610E-04 0.000E+00

     total cpu time spent up to now is     5543.4 secs

     total energy              =  -26543.77115528 Ry
     estimated scf accuracy    <       0.01548614 Ry

     iteration # 12     ecut=    77.00 Ry     beta= 0.20
     Davidson diagonalization with overlap
     ethr =  7.69E-07,  avg # of iterations =  5.5

     negative rho (up, down):  8.531E-04 0.000E+00

     total cpu time spent up to now is     5804.4 secs

     total energy              =  -26543.77161277 Ry
     estimated scf accuracy    <       0.00294563 Ry

     iteration # 13     ecut=    77.00 Ry     beta= 0.20
     Davidson diagonalization with overlap
     ethr =  2.24E-07,  avg # of iterations = 10.2

     negative rho (up, down):  8.644E-04 0.000E+00

     total cpu time spent up to now is     6303.6 secs

     total energy              =  -26543.77524539 Ry
     estimated scf accuracy    <       0.00043826 Ry

     iteration # 14     ecut=    77.00 Ry     beta= 0.20
     Davidson diagonalization with overlap
     c_bands:  2 eigenvalues not converged
     ethr =  3.33E-08,  avg # of iterations = 17.2

     negative rho (up, down):  8.650E-04 0.000E+00

     total cpu time spent up to now is     6970.5 secs

     total energy              =  -26543.77590795 Ry
     estimated scf accuracy    <       0.00090136 Ry

     iteration # 15     ecut=    77.00 Ry     beta= 0.20
     Davidson diagonalization with overlap
     c_bands:  2 eigenvalues not converged
     ethr =  3.33E-08,  avg # of iterations =  5.8

     negative rho (up, down):  8.868E-04 0.000E+00

     total cpu time spent up to now is     7191.6 secs

     total energy              =  -26543.77562875 Ry
     estimated scf accuracy    <       0.00080862 Ry

     iteration # 16     ecut=    77.00 Ry     beta= 0.20
     Davidson diagonalization with overlap
     c_bands:  1 eigenvalues not converged
     ethr =  3.33E-08,  avg # of iterations =  6.0

     negative rho (up, down):  9.561E-04 0.000E+00

     total cpu time spent up to now is     7413.5 secs

     total energy              =  -26543.77545570 Ry
     estimated scf accuracy    <       0.00034916 Ry

     iteration # 17     ecut=    77.00 Ry     beta= 0.20
     Davidson diagonalization with overlap
     ethr =  2.65E-08,  avg # of iterations =  8.0

     negative rho (up, down):  9.723E-04 0.000E+00

     total cpu time spent up to now is     7754.6 secs

     total energy              =  -26543.77561136 Ry
     estimated scf accuracy    <       0.00005928 Ry

     iteration # 18     ecut=    77.00 Ry     beta= 0.20
     Davidson diagonalization with overlap
     ethr =  4.50E-09,  avg # of iterations = 18.5

     negative rho (up, down):  9.622E-04 0.000E+00

     total cpu time spent up to now is     8328.3 secs

     total energy              =  -26543.77570217 Ry
     estimated scf accuracy    <       0.00005308 Ry

     iteration # 19     ecut=    77.00 Ry     beta= 0.20
     Davidson diagonalization with overlap
     ethr =  4.03E-09,  avg # of iterations = 11.2

     negative rho (up, down):  9.683E-04 0.000E+00

     total cpu time spent up to now is     8657.9 secs

     total energy              =  -26543.77567161 Ry
     estimated scf accuracy    <       0.00012063 Ry

     iteration # 20     ecut=    77.00 Ry     beta= 0.20
     Davidson diagonalization with overlap
     ethr =  4.03E-09,  avg # of iterations =  4.2

     negative rho (up, down):  9.685E-04 0.000E+00

     total cpu time spent up to now is     8891.6 secs

     total energy              =  -26543.77565632 Ry
     estimated scf accuracy    <       0.00003717 Ry

     iteration # 21     ecut=    77.00 Ry     beta= 0.20
     Davidson diagonalization with overlap
     ethr =  2.82E-09,  avg # of iterations =  7.2

     negative rho (up, down):  9.708E-04 0.000E+00

     total cpu time spent up to now is     9243.5 secs

     total energy              =  -26543.77567383 Ry
     estimated scf accuracy    <       0.00000181 Ry

     iteration # 22     ecut=    77.00 Ry     beta= 0.20
     Davidson diagonalization with overlap
     c_bands:  2 eigenvalues not converged
     c_bands:  5 eigenvalues not converged
     ethr =  1.37E-10,  avg # of iterations = 26.2

     negative rho (up, down):  9.717E-04 0.000E+00

     total cpu time spent up to now is    10739.5 secs

     total energy              =  -26543.77567801 Ry
     estimated scf accuracy    <       0.00001573 Ry

     iteration # 23     ecut=    77.00 Ry     beta= 0.20
     Davidson diagonalization with overlap
     c_bands:  1 eigenvalues not converged
     ethr =  1.37E-10,  avg # of iterations = 13.0

     negative rho (up, down):  9.762E-04 0.000E+00

     total cpu time spent up to now is    11213.2 secs

     End of self-consistent calculation

          k = 0.0000 0.0000 0.0000 (321495 PWs)   bands (ev):

  -102.9218 -88.7162 -88.2655 -71.2477 -71.2419 -71.2345 -71.2179 -71.2083
   -71.1937 -71.1829 -66.7006 -66.6795 -66.6795 -66.6795 -66.6795 -66.6795
   -66.6795 -66.6583 -66.6583 -66.6583 -66.6583 -66.6583 -66.6583 -66.6583
   -66.6583 -66.6582 -66.6346 -66.6139 -66.6137 -66.6136 -66.6134 -66.6133
   -66.6132 -66.5928 -66.5926 -66.5925 -66.5924 -66.5923 -66.5923 -66.5922
   -66.5921 -66.5918 -66.5624 -66.5494 -66.5442 -66.5430 -66.5336 -66.5303
   -66.5235 -66.5173 -66.5138 -66.5057 -66.5030 -66.5000 -66.4928 -66.4913
   -66.4825 -66.4706 -57.2049 -57.1223 -57.0899 -54.5806 -54.4936 -54.4497
   -54.0952 -54.0724 -54.0184 -41.0270 -41.0270 -41.0270 -40.9599 -40.9599
   -40.9597 -40.9522 -40.9522 -40.9521 -40.9521 -40.9521 -40.9521 -40.8853
   -40.8852 -40.8851 -40.8850 -40.8850 -40.8849 -40.8818 -40.8757 -40.8740
   -40.8608 -40.8266 -40.8266 -40.8266 -40.8266 -40.8266 -40.8266 -40.8193
   -40.8193 -40.8193 -40.8193 -40.8193 -40.8193 -40.8085 -40.8056 -40.8002
   -40.7953 -40.7923 -40.7917 -40.7917 -40.7917 -40.7917 -40.7917 -40.7917
   -40.7846 -40.7801 -40.7777 -40.7777 -40.7776 -40.7776 -40.7776 -40.7776
   -40.7776 -40.7776 -40.7776 -40.7599 -40.7597 -40.7597 -40.7596 -40.7595
   -40.7595 -40.7542 -40.7540 -40.7539 -40.7539 -40.7538 -40.7536 -40.7333
   -40.7251 -40.7249 -40.7248 -40.7248 -40.7248 -40.7247 -40.7139 -40.7139
   -40.7139 -40.7127 -40.7125 -40.7124 -40.7123 -40.7122 -40.7122 -40.7121
   -40.7120 -40.7118 -40.7091 -40.6962 -40.6919 -40.6900 -40.6880 -40.6830
   -40.6819 -40.6805 -40.6798 -40.6671 -40.6671 -40.6671 -40.6671 -40.6671
   -40.6671 -40.6642 -40.6619 -40.6574 -40.6569 -40.6528 -40.6504 -40.6481
   -40.6472 -40.6471 -40.6471 -40.6455 -40.6448 -40.6425 -40.6407 -40.6372
   -40.6338 -40.6288 -40.6276 -40.6229 -40.6198 -40.6198 -40.6179 -40.6125
   -40.6006 -40.6005 -40.6004 -40.6002 -40.6001 -40.6001 -40.5653 -40.5617
   -40.5565 -40.5531 -40.5531 -40.5127 -40.5103 -40.5098 -40.5020 -40.5013
   -40.4965 -40.4521 -40.4476 -20.1925 -20.1100 -19.9499 -19.5853 -19.4792
   -19.3368 -19.2683 -19.2673 -19.2665 -19.2588 -19.2577 -19.2519 -19.1801
   -19.1707 -19.1617 -19.1139 -19.1116 -19.1040 -19.0710 -19.0608 -19.0469
   -18.8975 -18.7590 -18.7398 -18.6739 -18.5856 -18.5349 -18.5059 -18.4982
   -18.4733 -18.4518 -18.4501 -18.4133 -18.3930 -18.3753 -18.3370 -18.3001
   -18.2950 -18.2477 -18.2286 -18.2218 -18.2051 -18.1741 -18.1658 -18.1605
   -18.1605 -18.1601 -18.1599 -18.1595 -18.1591 -18.1370 -18.1198 -18.1198
   -18.1198 -18.0876 -18.0858 -18.0786 -18.0779 -18.0745 -18.0735 -18.0482
   -18.0477 -18.0466 -18.0340 -18.0271 -17.9939 -17.9922 -17.9851 -17.9791
   -17.9657 -17.9630 -17.9626 -17.9519 -17.9511 -17.9370 -17.9366 -17.9357
   -17.9334 -17.9105 -17.9031 -17.9017 -17.8852 -17.8839 -17.8691 -17.8687
   -17.8681 -17.8622 -17.8432 -17.8339 -17.8326 -17.8079 -17.8036 -17.7921
   -17.7887 -17.7831 -17.7767 -12.1959 -12.0206 -11.9735 -11.9296 -11.7748
   -11.7736 -11.7734 -11.7114 -11.6899 -11.6891 -11.6809 -11.5407 -11.4567
   -11.4070 -11.3565 -11.2512 -11.2426 -11.2327 -11.2265 -11.2239 -11.2200
   -11.1907 -11.1750 -11.1523 -11.1498 -11.1464 -11.1433 -11.1412 -11.1358
   -11.1179 -11.0610 -11.0473 -11.0197 -11.0123 -11.0067 -11.0061 -10.9976
   -10.9885 -10.9823 -10.9451 -10.9393 -10.9378 -10.9131 -10.9088 -10.8955
   -10.8816 -10.8687 -10.8610 -10.8556 -10.8518 -10.8510 -10.8506 -10.8489
   -10.8440 -10.8376 -10.8229 -10.8224 -10.8209 -10.8071 -10.8058 -10.8033
   -10.8030 -10.8003 -10.7956 -10.7793 -10.7752 -10.7328 -10.7282 -10.7279
   -10.7122 -10.6625 -10.6599 -10.6474 -10.6314 -10.6186 -10.5451 -10.4519
   -10.3764 -10.1739 -10.0732 -10.0684 -10.0653 -10.0396  -9.9507  -9.9215
    -9.9138  -9.8994  -9.8185  -9.8110  -9.8063  -9.7997  -9.7939  -9.7912
    -9.7645  -9.7609  -9.7393  -9.7334  -9.7253  -9.7196  -9.7170  -9.7072
    -9.6693  -9.6599  -9.6502  -9.6476  -9.6431  -9.6396  -9.6358  -9.6319
    -9.6113  -9.6091  -9.5951  -9.5940  -9.5934  -9.5918  -9.5909  -9.5904
    -9.5622  -9.5526  -9.5421  -9.4891  -9.4870  -9.4636  -9.4622  -9.4605
    -9.4568  -9.4476  -9.4140  -9.3955  -9.3853  -9.3753  -9.3577  -9.3560
    -9.3516  -9.3388  -9.3194  -9.3135  -9.2663  -9.2569  -9.2456  -9.2370
    -9.2284  -9.2207  -9.2141  -9.1997  -9.1607  -9.1371  -9.0850  -9.0565
    -9.0523  -9.0438  -9.0403  -9.0393  -9.0389  -9.0384  -9.0315  -9.0148
    -8.9651  -8.9623  -8.9613  -8.9485  -8.9327  -8.9262  -8.9154  -8.8992
    -8.8556  -8.8321  -8.8267  -8.8258  -8.8187  -8.8153  -8.8139  -8.8064
    -8.7977  -8.7899  -8.7799  -8.7744  -8.7692  -8.7584  -8.7552  -8.7368
    -8.7361  -8.7244  -8.7026  -8.5741  -8.5690  -8.4498  -8.4498  -8.3951
    -8.3772  -8.3772  -8.3554  -8.3493  -8.3462  -8.3380  -8.3376  -8.3376
    -8.3373  -8.3367  -8.3362  -8.3310  -8.2965  -8.2848  -8.2665  -8.2631
    -8.2598  -8.2594  -8.2591  -8.2587  -8.2082  -8.2037  -8.1563  -7.9831
    -7.9732  -7.9588  -7.9225  -7.8959  -7.7671  -7.7284  -7.7247  -7.7105
    -7.6822  -7.6592  -7.6277  -7.6072  -7.6028  -7.6021  -7.6018  -7.6016
    -7.6015  -7.5996  -7.5764  -7.5564  -7.5559  -7.5558  -7.5556  -7.5551
    -7.5548  -7.5386  -7.5306  -7.5283  -7.5258  -7.5229  -7.5220  -7.5214
    -7.5169  -7.5062  -7.4860  -7.4825  -7.4806  -7.4786  -7.4734  -7.4710
    -7.4625  -7.4512  -7.4474  -7.4455  -7.4406  -7.4400  -7.4298  -7.4121
    -7.3785  -7.3381  -7.3210  -7.3209  -7.3117  -7.3083  -7.2898  -7.2689
    -7.2509  -7.2497  -7.2317  -7.2178  -7.2033  -7.1692  -7.1457  -7.0390
    -7.0267  -6.9831  -6.9666  -6.9479  -6.9152  -6.9058  -6.8913  -6.8513
    -6.8164  -6.8149  -6.8107  -6.7729  -6.7034  -6.6997  -6.6885  -6.6837
    -6.6750  -6.6618  -6.6526  -6.6387  -6.6352  -6.6254  -6.6081  -6.5779
    -6.5642  -6.5565  -6.5430  -6.5393  -6.5378  -6.5271  -6.5261  -6.5187
    -6.4904  -6.4859  -6.4845  -6.4662  -6.4592  -6.4506  -6.4478  -6.4403
    -6.4370  -6.4026  -6.3910  -6.3689  -6.3689  -6.3689  -6.3688  -6.3688
    -6.3688  -6.3613  -6.3467  -6.3118  -6.2948  -6.2936  -6.2922  -6.2907
    -6.2903  -6.2874  -6.2704  -6.2649  -6.2379  -6.2272  -6.2064  -6.1695
    -6.1519  -5.9393  -5.6856  -5.6084  -5.5712  -5.4614  -5.4083  -5.3168
    -5.2095  -5.1381  -4.1972  -3.9196  -3.8834  -3.8531  -3.8519  -3.8493
    -3.8314  -3.8277  -3.8253  -3.8224  -3.8179  -3.8159  -3.7954  -3.7366
    -3.7062  -3.6314  -3.6192  -3.6081  -3.6029  -3.5992  -3.5968  -3.5909
    -3.5864  -3.5830  -3.5095  -3.5095  -3.5093  -3.4935  -3.4927  -3.4907
    -3.4899  -3.4897  -3.4887  -3.4558  -3.4425  -3.4423  -3.4417  -3.4334
    -3.4295  -3.4121  -3.4070  -3.3998  -3.3957  -3.3837  -3.3816  -3.3780
    -3.3747  -3.3700  -3.3695  -3.3543  -3.3488  -3.3423  -3.3274  -3.3183
    -3.3067  -3.2924  -3.2812  -3.2647  -3.2509  -3.2439  -3.2224  -3.2052
    -3.1774  -3.0730  -3.0441  -3.0438  -3.0425  -3.0380  -3.0380  -2.9998
    -2.9785  -2.9740  -2.9714  -2.9708  -2.9707  -2.9706  -2.9705  -2.9701
    -2.9699  -2.9629  -2.9535  -2.9526  -2.9423  -2.9280  -2.9191  -2.9098
    -2.9088  -2.9066  -2.9028  -2.8976  -2.8965  -2.8906  -2.8883  -2.8847
    -2.8828  -2.8794  -2.8512  -2.8432  -2.8372  -2.8190  -2.8093  -2.7964
    -2.7835  -2.7793  -2.7611  -2.7587  -2.7585  -2.7578  -2.7562  -2.7528
    -2.7257  -2.7125  -2.7104  -2.6869  -2.6774  -2.6501  -2.6432  -2.6407
    -2.6165  -2.6078  -2.5740  -2.5613  -2.5488  -2.5444  -2.5368  -2.5326
    -2.5170  -2.4955  -2.4917  -2.4676  -2.4621  -2.4553

          k = 0.0000-0.5773 0.0000 (321564 PWs)   bands (ev):

  -102.9218 -88.7162 -88.2655 -71.2477 -71.2419 -71.2345 -71.2179 -71.2083
   -71.1937 -71.1829 -66.6944 -66.6944 -66.6838 -66.6838 -66.6689 -66.6689
   -66.6689 -66.6689 -66.6645 -66.6645 -66.6583 -66.6583 -66.6583 -66.6583
   -66.6539 -66.6539 -66.6286 -66.6283 -66.6179 -66.6179 -66.6032 -66.6031
   -66.6028 -66.6027 -66.5987 -66.5984 -66.5926 -66.5925 -66.5924 -66.5919
   -66.5880 -66.5879 -66.5610 -66.5526 -66.5444 -66.5409 -66.5344 -66.5301
   -66.5232 -66.5172 -66.5135 -66.5056 -66.5026 -66.5010 -66.4927 -66.4914
   -66.4824 -66.4706 -57.2049 -57.1223 -57.0899 -54.5806 -54.4936 -54.4497
   -54.0952 -54.0724 -54.0184 -40.9956 -40.9955 -40.9955 -40.9955 -40.9689
   -40.9689 -40.9570 -40.9570 -40.9286 -40.9285 -40.9284 -40.9281 -40.9065
   -40.9065 -40.9065 -40.9065 -40.9019 -40.9017 -40.8899 -40.8898 -40.8661
   -40.8498 -40.8487 -40.8486 -40.8396 -40.8395 -40.8395 -40.8395 -40.8390
   -40.8386 -40.8386 -40.8310 -40.8279 -40.8279 -40.8228 -40.8145 -40.8018
   -40.7985 -40.7985 -40.7985 -40.7985 -40.7898 -40.7898 -40.7848 -40.7833
   -40.7831 -40.7776 -40.7776 -40.7776 -40.7776 -40.7776 -40.7776 -40.7717
   -40.7717 -40.7690 -40.7690 -40.7625 -40.7625 -40.7536 -40.7526 -40.7469
   -40.7468 -40.7468 -40.7468 -40.7458 -40.7333 -40.7333 -40.7331 -40.7330
   -40.7329 -40.7245 -40.7244 -40.7226 -40.7206 -40.7125 -40.7124 -40.7123
   -40.7123 -40.7123 -40.7123 -40.7122 -40.7119 -40.7107 -40.7107 -40.7043
   -40.7036 -40.7036 -40.7003 -40.7003 -40.6964 -40.6838 -40.6811 -40.6811
   -40.6807 -40.6802 -40.6802 -40.6799 -40.6797 -40.6745 -40.6719 -40.6687
   -40.6642 -40.6642 -40.6632 -40.6580 -40.6541 -40.6517 -40.6456 -40.6455
   -40.6455 -40.6455 -40.6448 -40.6409 -40.6401 -40.6337 -40.6337 -40.6336
   -40.6334 -40.6334 -40.6267 -40.6245 -40.6188 -40.6145 -40.6140 -40.5998
   -40.5984 -40.5975 -40.5974 -40.5891 -40.5820 -40.5671 -40.5668 -40.5633
   -40.5539 -40.5516 -40.5473 -40.5432 -40.5264 -40.5247 -40.5220 -40.5012
   -40.4859 -40.4816 -40.4530 -20.0631 -19.9079 -19.8838 -19.8388 -19.7254
   -19.7029 -19.4891 -19.4800 -19.4384 -19.4260 -19.2962 -19.2867 -19.1983
   -18.9495 -18.8758 -18.7740 -18.7597 -18.7567 -18.7500 -18.7490 -18.7408
   -18.7161 -18.6632 -18.6349 -18.6298 -18.6210 -18.6088 -18.6016 -18.5655
   -18.5586 -18.5098 -18.5057 -18.4962 -18.4799 -18.4599 -18.4470 -18.4161
   -18.4126 -18.3904 -18.3572 -18.3408 -18.3341 -18.2886 -18.2632 -18.2385
   -18.2366 -18.2054 -18.2034 -18.1734 -18.1466 -18.1407 -18.1405 -18.1403
   -18.1402 -18.1380 -18.1158 -18.1101 -18.0869 -18.0737 -18.0663 -18.0638
   -18.0592 -18.0586 -18.0490 -18.0267 -18.0181 -18.0053 -17.9994 -17.9948
   -17.9847 -17.9633 -17.9589 -17.9555 -17.9474 -17.9420 -17.9318 -17.9037
   -17.8940 -17.8852 -17.8779 -17.8770 -17.8770 -17.8381 -17.8329 -17.8195
   -17.8174 -17.8164 -17.8034 -17.8008 -17.7999 -17.7860 -17.7800 -17.7575
   -17.7569 -17.7003 -17.6958 -12.1146 -11.9016 -11.8237 -11.7112 -11.7075
   -11.5904 -11.5303 -11.5153 -11.4871 -11.4852 -11.4845 -11.4820 -11.4661
   -11.4540 -11.4072 -11.4045 -11.3916 -11.3894 -11.3771 -11.3544 -11.3478
   -11.3243 -11.2983 -11.2957 -11.2869 -11.2698 -11.2698 -11.2504 -11.2255
   -11.2245 -11.2117 -11.1997 -11.1709 -11.1693 -11.1625 -11.1445 -11.0921
   -11.0556 -11.0321 -11.0145 -10.9998 -10.9865 -10.9684 -10.9325 -10.9276
   -10.9232 -10.9184 -10.9150 -10.8968 -10.8884 -10.8611 -10.8484 -10.8448
   -10.8430 -10.8428 -10.8426 -10.8377 -10.8275 -10.8141 -10.7894 -10.7793
   -10.7771 -10.7693 -10.7652 -10.7181 -10.6322 -10.6209 -10.6004 -10.5145
   -10.5033 -10.4686 -10.4234 -10.3767 -10.3387 -10.3044 -10.2645 -10.1724
   -10.1560 -10.1381 -10.1235 -10.1072 -10.1000 -10.0542 -10.0319 -10.0029
    -9.9947  -9.9700  -9.9562  -9.9516  -9.9462  -9.9421  -9.9336  -9.9219
    -9.9095  -9.9058  -9.8975  -9.8880  -9.8397  -9.8354  -9.8237  -9.7921
    -9.7667  -9.7616  -9.7459  -9.7369  -9.7281  -9.7220  -9.7173  -9.7115
    -9.6971  -9.6884  -9.6767  -9.6703  -9.6348  -9.6291  -9.6196  -9.6073
    -9.5596  -9.5579  -9.5542  -9.5448  -9.5425  -9.5009  -9.4932  -9.4855
    -9.4803  -9.4143  -9.3991  -9.3518  -9.3240  -9.2999  -9.2885  -9.2372
    -9.2202  -9.2133  -9.2011  -9.1606  -9.1595  -9.1546  -9.1479  -9.1385
    -9.1251  -9.1153  -9.1098  -9.0822  -9.0583  -9.0578  -9.0450  -9.0402
    -9.0282  -9.0163  -9.0111  -8.9914  -8.9822  -8.9735  -8.9617  -8.9576
    -8.9506  -8.9469  -8.9447  -8.9396  -8.9283  -8.8944  -8.8888  -8.8748
    -8.8722  -8.8686  -8.8642  -8.8593  -8.8524  -8.8516  -8.8471  -8.8386
    -8.8331  -8.8244  -8.8197  -8.8141  -8.7804  -8.7753  -8.7603  -8.7509
    -8.7301  -8.6694  -8.6206  -8.5867  -8.5249  -8.5248  -8.4988  -8.4651
    -8.4447  -8.4424  -8.4381  -8.3701  -8.3211  -8.2764  -8.2296  -8.2062
    -8.2062  -8.1881  -8.1363  -8.1352  -8.1334  -8.1046  -8.0978  -7.9889
    -7.9682  -7.9444  -7.9413  -7.9322  -7.8916  -7.8740  -7.8719  -7.8674
    -7.8646  -7.8606  -7.8601  -7.8595  -7.8595  -7.8460  -7.8391  -7.8151
    -7.8137  -7.8121  -7.8086  -7.7917  -7.7889  -7.7869  -7.7767  -7.7681
    -7.7589  -7.7550  -7.7507  -7.7365  -7.7360  -7.7310  -7.7255  -7.7199
    -7.7154  -7.7085  -7.6936  -7.6880  -7.6743  -7.6741  -7.6676  -7.6615
    -7.6501  -7.6404  -7.6173  -7.6150  -7.6098  -7.6057  -7.6002  -7.5800
    -7.5734  -7.5535  -7.5462  -7.4898  -7.4816  -7.4252  -7.4013  -7.3819
    -7.3130  -7.2866  -7.2703  -7.2591  -7.2388  -7.2312  -7.2083  -7.1954
    -7.1513  -7.1405  -7.1199  -7.0821  -7.0717  -7.0333  -7.0297  -7.0229
    -7.0212  -7.0065  -6.9757  -6.9696  -6.9504  -6.9337  -6.9154  -6.9130
    -6.8933  -6.8676  -6.8535  -6.8455  -6.8149  -6.8015  -6.7696  -6.7482
    -6.7228  -6.6992  -6.6842  -6.6716  -6.6711  -6.6711  -6.6710  -6.6669
    -6.6594  -6.6334  -6.6037  -6.6023  -6.6016  -6.6010  -6.5748  -6.5592
    -6.5448  -6.5077  -6.4803  -6.4584  -6.4394  -6.4290  -6.3773  -6.3403
    -6.3396  -6.3395  -6.3386  -6.3165  -6.2829  -6.2743  -6.2705  -6.2619
    -6.2584  -6.2561  -6.2513  -6.2420  -6.2173  -6.2153  -6.2049  -6.1561
    -6.1482  -6.0244  -5.9910  -5.9909  -5.9384  -5.9137  -5.9091  -5.8496
    -5.8194  -5.7474  -5.6372  -5.6339  -5.5416  -5.5017  -5.4158  -5.3648
    -5.3293  -5.2267  -4.2168  -4.0447  -4.0367  -4.0306  -3.9966  -3.9067
    -3.9066  -3.9057  -3.8789  -3.8419  -3.8417  -3.8362  -3.8195  -3.7934
    -3.7830  -3.7748  -3.7358  -3.7033  -3.6457  -3.6191  -3.6143  -3.6090
    -3.6058  -3.5921  -3.5917  -3.5908  -3.5835  -3.5697  -3.5335  -3.5216
    -3.5138  -3.5039  -3.4988  -3.4920  -3.4883  -3.4817  -3.4768  -3.4740
    -3.4381  -3.4168  -3.4004  -3.3983  -3.3740  -3.3696  -3.3603  -3.3593
    -3.3580  -3.3322  -3.3285  -3.3236  -3.3194  -3.3129  -3.2971  -3.2840
    -3.2831  -3.2825  -3.2822  -3.2691  -3.2554  -3.2460  -3.2367  -3.2262
    -3.2200  -3.2170  -3.2073  -3.2015  -3.1945  -3.1910  -3.1803  -3.1516
    -3.1415  -3.1297  -3.1187  -3.1067  -3.0803  -3.0766  -3.0557  -3.0498
    -3.0387  -3.0376  -3.0215  -3.0199  -3.0193  -3.0188  -2.9907  -2.9848
    -2.9744  -2.9700  -2.9665  -2.9579  -2.9407  -2.9378  -2.9328  -2.9262
    -2.9232  -2.9102  -2.9086  -2.9000  -2.8898  -2.8833  -2.8787  -2.8562
    -2.8414  -2.8230  -2.8146  -2.8128  -2.8064  -2.7831  -2.7630  -2.7395
    -2.7239  -2.7090  -2.6662  -2.6615  -2.6581  -2.6562  -2.6472  -2.6400
    -2.5809  -2.5718  -2.5370  -2.5230  -2.5151  -2.5070  -2.4984  -2.4640
    -2.4076  -2.3732  -2.3618  -2.3243  -2.3101  -2.3030

          k =-0.5000-0.2887 0.0000 (321564 PWs)   bands (ev):

  -102.9218 -88.7162 -88.2655 -71.2477 -71.2419 -71.2345 -71.2179 -71.2083
   -71.1937 -71.1829 -66.6944 -66.6944 -66.6838 -66.6838 -66.6689 -66.6689
   -66.6689 -66.6689 -66.6645 -66.6645 -66.6583 -66.6583 -66.6583 -66.6583
   -66.6539 -66.6539 -66.6285 -66.6283 -66.6180 -66.6178 -66.6032 -66.6029
   -66.6029 -66.6028 -66.5986 -66.5985 -66.5926 -66.5923 -66.5922 -66.5922
   -66.5880 -66.5879 -66.5601 -66.5547 -66.5438 -66.5402 -66.5323 -66.5309
   -66.5244 -66.5177 -66.5139 -66.5044 -66.5032 -66.5004 -66.4926 -66.4919
   -66.4825 -66.4706 -57.2049 -57.1223 -57.0899 -54.5806 -54.4936 -54.4497
   -54.0952 -54.0724 -54.0184 -40.9956 -40.9956 -40.9955 -40.9955 -40.9689
   -40.9689 -40.9570 -40.9570 -40.9287 -40.9284 -40.9283 -40.9283 -40.9065
   -40.9065 -40.9065 -40.9065 -40.9019 -40.9017 -40.8899 -40.8898 -40.8564
   -40.8505 -40.8487 -40.8486 -40.8397 -40.8396 -40.8396 -40.8395 -40.8394
   -40.8386 -40.8386 -40.8341 -40.8305 -40.8279 -40.8279 -40.8227 -40.8038
   -40.7985 -40.7985 -40.7985 -40.7985 -40.7898 -40.7898 -40.7833 -40.7831
   -40.7776 -40.7776 -40.7776 -40.7776 -40.7776 -40.7776 -40.7756 -40.7718
   -40.7716 -40.7690 -40.7690 -40.7625 -40.7624 -40.7583 -40.7469 -40.7468
   -40.7468 -40.7468 -40.7440 -40.7385 -40.7353 -40.7333 -40.7331 -40.7331
   -40.7330 -40.7246 -40.7245 -40.7244 -40.7171 -40.7125 -40.7123 -40.7123
   -40.7123 -40.7123 -40.7122 -40.7121 -40.7121 -40.7108 -40.7106 -40.7092
   -40.7037 -40.7036 -40.7003 -40.7003 -40.6963 -40.6811 -40.6811 -40.6803
   -40.6801 -40.6800 -40.6800 -40.6799 -40.6784 -40.6745 -40.6741 -40.6698
   -40.6652 -40.6642 -40.6642 -40.6625 -40.6527 -40.6485 -40.6456 -40.6456
   -40.6455 -40.6454 -40.6435 -40.6414 -40.6394 -40.6350 -40.6337 -40.6337
   -40.6336 -40.6334 -40.6254 -40.6242 -40.6201 -40.6143 -40.6142 -40.5991
   -40.5975 -40.5973 -40.5959 -40.5929 -40.5895 -40.5671 -40.5669 -40.5619
   -40.5567 -40.5527 -40.5475 -40.5366 -40.5306 -40.5282 -40.5135 -40.5041
   -40.4807 -40.4764 -40.4601 -20.0737 -19.8998 -19.8838 -19.8095 -19.7246
   -19.6892 -19.5843 -19.4707 -19.4508 -19.4127 -19.3018 -19.2833 -19.0808
   -18.9866 -18.9238 -18.7711 -18.7593 -18.7563 -18.7500 -18.7494 -18.7433
   -18.7037 -18.6655 -18.6379 -18.6305 -18.6246 -18.6076 -18.6002 -18.5682
   -18.5542 -18.5158 -18.5049 -18.4997 -18.4773 -18.4481 -18.4477 -18.4151
   -18.4123 -18.3910 -18.3616 -18.3368 -18.3245 -18.2797 -18.2735 -18.2446
   -18.2326 -18.2071 -18.2048 -18.1829 -18.1465 -18.1405 -18.1405 -18.1403
   -18.1401 -18.1317 -18.1202 -18.1103 -18.0900 -18.0754 -18.0646 -18.0643
   -18.0600 -18.0590 -18.0473 -18.0211 -18.0187 -18.0098 -18.0003 -17.9933
   -17.9818 -17.9640 -17.9601 -17.9564 -17.9468 -17.9387 -17.9315 -17.9039
   -17.8950 -17.8836 -17.8770 -17.8770 -17.8743 -17.8381 -17.8322 -17.8179
   -17.8172 -17.8168 -17.8017 -17.8010 -17.7962 -17.7924 -17.7823 -17.7574
   -17.7570 -17.7016 -17.6949 -12.1249 -11.8586 -11.8492 -11.7189 -11.6938
   -11.5981 -11.5396 -11.4931 -11.4882 -11.4854 -11.4845 -11.4702 -11.4642
   -11.4559 -11.4153 -11.4012 -11.3951 -11.3894 -11.3834 -11.3523 -11.3438
   -11.3248 -11.3089 -11.3029 -11.2901 -11.2705 -11.2698 -11.2693 -11.2330
   -11.2246 -11.2233 -11.1961 -11.1732 -11.1684 -11.1657 -11.1272 -11.1056
   -11.0396 -11.0306 -10.9986 -10.9932 -10.9825 -10.9586 -10.9408 -10.9310
   -10.9236 -10.9209 -10.9098 -10.9036 -10.8826 -10.8547 -10.8534 -10.8470
   -10.8434 -10.8429 -10.8424 -10.8345 -10.8325 -10.8098 -10.7979 -10.7797
   -10.7768 -10.7697 -10.7677 -10.6891 -10.6545 -10.6111 -10.5932 -10.5567
   -10.5071 -10.4982 -10.4110 -10.3802 -10.3100 -10.2906 -10.2565 -10.1684
   -10.1549 -10.1362 -10.1253 -10.1185 -10.0895 -10.0698 -10.0395 -10.0149
    -9.9810  -9.9691  -9.9568  -9.9499  -9.9429  -9.9377  -9.9286  -9.9236
    -9.9089  -9.8983  -9.8971  -9.8592  -9.8391  -9.8172  -9.8069  -9.8062
    -9.7741  -9.7607  -9.7594  -9.7428  -9.7254  -9.7233  -9.7152  -9.7132
    -9.6997  -9.6851  -9.6758  -9.6672  -9.6383  -9.6321  -9.6202  -9.5962
    -9.5785  -9.5674  -9.5538  -9.5445  -9.5407  -9.5114  -9.4867  -9.4855
    -9.4676  -9.4151  -9.4112  -9.3418  -9.3372  -9.3057  -9.2866  -9.2427
    -9.2292  -9.2092  -9.2047  -9.1794  -9.1614  -9.1589  -9.1423  -9.1351
    -9.1182  -9.1070  -9.1006  -9.0856  -9.0631  -9.0562  -9.0534  -9.0497
    -9.0240  -9.0183  -9.0060  -8.9970  -8.9840  -8.9705  -8.9660  -8.9629
    -8.9490  -8.9472  -8.9433  -8.9412  -8.9269  -8.8961  -8.8886  -8.8757
    -8.8721  -8.8682  -8.8624  -8.8573  -8.8545  -8.8525  -8.8515  -8.8420
    -8.8368  -8.8267  -8.8097  -8.8067  -8.7788  -8.7755  -8.7624  -8.7505
    -8.7204  -8.6922  -8.6235  -8.5890  -8.5250  -8.5249  -8.4903  -8.4546
    -8.4519  -8.4360  -8.4226  -8.3602  -8.3102  -8.2607  -8.2331  -8.2062
    -8.2062  -8.1674  -8.1353  -8.1338  -8.1333  -8.1123  -8.0955  -7.9993
    -7.9603  -7.9498  -7.9419  -7.9357  -7.8984  -7.8725  -7.8714  -7.8709
    -7.8626  -7.8605  -7.8595  -7.8594  -7.8588  -7.8462  -7.8248  -7.8154
    -7.8140  -7.8120  -7.8075  -7.7924  -7.7889  -7.7843  -7.7758  -7.7703
    -7.7633  -7.7573  -7.7512  -7.7443  -7.7361  -7.7344  -7.7298  -7.7273
    -7.7106  -7.7029  -7.6926  -7.6797  -7.6769  -7.6742  -7.6738  -7.6667
    -7.6453  -7.6353  -7.6295  -7.6137  -7.6087  -7.6000  -7.5992  -7.5852
    -7.5627  -7.5415  -7.5282  -7.4969  -7.4844  -7.4655  -7.3957  -7.3582
    -7.3349  -7.2991  -7.2693  -7.2588  -7.2519  -7.2437  -7.2158  -7.1886
    -7.1772  -7.1419  -7.1251  -7.0842  -7.0818  -7.0318  -7.0261  -7.0224
    -7.0124  -6.9972  -6.9860  -6.9809  -6.9547  -6.9464  -6.9159  -6.9089
    -6.9056  -6.8574  -6.8440  -6.8356  -6.8246  -6.7810  -6.7731  -6.7332
    -6.7189  -6.6852  -6.6715  -6.6712  -6.6711  -6.6710  -6.6649  -6.6586
    -6.6340  -6.6149  -6.6039  -6.6031  -6.6010  -6.6001  -6.5785  -6.5649
    -6.5222  -6.5053  -6.5017  -6.4690  -6.4541  -6.4369  -6.3500  -6.3401
    -6.3395  -6.3394  -6.3372  -6.3122  -6.2823  -6.2754  -6.2663  -6.2605
    -6.2575  -6.2522  -6.2514  -6.2483  -6.2259  -6.2173  -6.2064  -6.1537
    -6.1056  -6.0762  -5.9966  -5.9910  -5.9905  -5.9139  -5.9118  -5.8405
    -5.7917  -5.7472  -5.6380  -5.6125  -5.5568  -5.5159  -5.4043  -5.3514
    -5.3387  -5.2428  -4.2215  -4.0521  -4.0391  -4.0267  -3.9981  -3.9066
    -3.9066  -3.9030  -3.8719  -3.8555  -3.8421  -3.8413  -3.8252  -3.7939
    -3.7835  -3.7646  -3.7375  -3.7019  -3.6455  -3.6159  -3.6129  -3.6088
    -3.6085  -3.6029  -3.5920  -3.5917  -3.5876  -3.5700  -3.5369  -3.5166
    -3.5103  -3.5063  -3.4948  -3.4905  -3.4856  -3.4826  -3.4731  -3.4716
    -3.4350  -3.4226  -3.4030  -3.3817  -3.3763  -3.3630  -3.3598  -3.3594
    -3.3583  -3.3329  -3.3273  -3.3259  -3.3169  -3.3123  -3.2897  -3.2841
    -3.2833  -3.2822  -3.2818  -3.2598  -3.2558  -3.2454  -3.2384  -3.2364
    -3.2231  -3.2201  -3.2078  -3.2066  -3.1969  -3.1932  -3.1709  -3.1382
    -3.1346  -3.1310  -3.1205  -3.0951  -3.0793  -3.0776  -3.0583  -3.0506
    -3.0397  -3.0374  -3.0202  -3.0197  -3.0192  -3.0189  -2.9851  -2.9764
    -2.9707  -2.9695  -2.9611  -2.9549  -2.9473  -2.9361  -2.9280  -2.9241
    -2.9083  -2.9062  -2.9023  -2.8994  -2.8950  -2.8907  -2.8713  -2.8566
    -2.8357  -2.8321  -2.8216  -2.8127  -2.8073  -2.7960  -2.7548  -2.7470
    -2.7197  -2.7177  -2.6840  -2.6632  -2.6577  -2.6568  -2.6504  -2.6414
    -2.5799  -2.5725  -2.5495  -2.5356  -2.5158  -2.5109  -2.5027  -2.4787
    -2.4211  -2.3876  -2.3656  -2.3072  -2.3041  -2.2785

          k =-0.5000-0.8660 0.0000 (321564 PWs)   bands (ev):

  -102.9218 -88.7162 -88.2655 -71.2477 -71.2419 -71.2345 -71.2179 -71.2083
   -71.1937 -71.1829 -66.6944 -66.6944 -66.6838 -66.6838 -66.6689 -66.6689
   -66.6689 -66.6689 -66.6645 -66.6645 -66.6583 -66.6583 -66.6583 -66.6583
   -66.6539 -66.6539 -66.6285 -66.6284 -66.6180 -66.6178 -66.6031 -66.6030
   -66.6029 -66.6027 -66.5986 -66.5985 -66.5925 -66.5923 -66.5923 -66.5922
   -66.5880 -66.5879 -66.5608 -66.5533 -66.5443 -66.5405 -66.5337 -66.5305
   -66.5239 -66.5168 -66.5130 -66.5064 -66.5037 -66.4993 -66.4927 -66.4916
   -66.4825 -66.4705 -57.2049 -57.1223 -57.0899 -54.5806 -54.4936 -54.4497
   -54.0952 -54.0724 -54.0184 -40.9955 -40.9955 -40.9955 -40.9955 -40.9689
   -40.9689 -40.9570 -40.9570 -40.9286 -40.9285 -40.9284 -40.9282 -40.9065
   -40.9065 -40.9065 -40.9065 -40.9019 -40.9017 -40.8899 -40.8898 -40.8631
   -40.8487 -40.8487 -40.8477 -40.8401 -40.8396 -40.8395 -40.8395 -40.8394
   -40.8386 -40.8386 -40.8306 -40.8279 -40.8279 -40.8279 -40.8202 -40.8016
   -40.7985 -40.7985 -40.7985 -40.7985 -40.7898 -40.7898 -40.7833 -40.7831
   -40.7809 -40.7776 -40.7776 -40.7776 -40.7776 -40.7776 -40.7776 -40.7718
   -40.7716 -40.7690 -40.7690 -40.7625 -40.7625 -40.7547 -40.7479 -40.7468
   -40.7468 -40.7468 -40.7468 -40.7467 -40.7332 -40.7332 -40.7331 -40.7330
   -40.7307 -40.7245 -40.7244 -40.7234 -40.7205 -40.7125 -40.7123 -40.7123
   -40.7123 -40.7123 -40.7122 -40.7122 -40.7121 -40.7108 -40.7106 -40.7062
   -40.7037 -40.7036 -40.7003 -40.7003 -40.6953 -40.6840 -40.6811 -40.6811
   -40.6801 -40.6800 -40.6800 -40.6800 -40.6790 -40.6747 -40.6729 -40.6667
   -40.6646 -40.6642 -40.6642 -40.6612 -40.6531 -40.6486 -40.6471 -40.6456
   -40.6456 -40.6455 -40.6454 -40.6409 -40.6378 -40.6349 -40.6337 -40.6337
   -40.6336 -40.6334 -40.6265 -40.6250 -40.6195 -40.6143 -40.6143 -40.5978
   -40.5975 -40.5973 -40.5966 -40.5932 -40.5862 -40.5671 -40.5669 -40.5593
   -40.5561 -40.5534 -40.5463 -40.5431 -40.5275 -40.5248 -40.5189 -40.5012
   -40.4850 -40.4799 -40.4551 -20.0714 -19.9012 -19.8838 -19.8182 -19.7251
   -19.6957 -19.5505 -19.4744 -19.4490 -19.4218 -19.3005 -19.2870 -19.1199
   -18.9715 -18.8908 -18.7746 -18.7596 -18.7575 -18.7501 -18.7489 -18.7418
   -18.7233 -18.6574 -18.6378 -18.6291 -18.6209 -18.6077 -18.6016 -18.5664
   -18.5550 -18.5127 -18.5051 -18.4976 -18.4757 -18.4555 -18.4441 -18.4172
   -18.4132 -18.3901 -18.3569 -18.3466 -18.3302 -18.2880 -18.2681 -18.2414
   -18.2336 -18.2097 -18.2054 -18.1762 -18.1440 -18.1406 -18.1405 -18.1404
   -18.1400 -18.1375 -18.1195 -18.1095 -18.0888 -18.0738 -18.0656 -18.0640
   -18.0601 -18.0592 -18.0439 -18.0245 -18.0178 -18.0082 -18.0002 -17.9944
   -17.9817 -17.9633 -17.9596 -17.9561 -17.9464 -17.9391 -17.9312 -17.9033
   -17.8945 -17.8828 -17.8770 -17.8770 -17.8747 -17.8373 -17.8331 -17.8175
   -17.8172 -17.8153 -17.8032 -17.8010 -17.7981 -17.7926 -17.7830 -17.7572
   -17.7571 -17.7015 -17.6951 -12.1117 -11.9005 -11.8415 -11.7171 -11.7006
   -11.5742 -11.5387 -11.4932 -11.4884 -11.4848 -11.4845 -11.4777 -11.4664
   -11.4536 -11.4202 -11.3984 -11.3901 -11.3895 -11.3832 -11.3549 -11.3451
   -11.3249 -11.3060 -11.2987 -11.2909 -11.2698 -11.2698 -11.2545 -11.2364
   -11.2243 -11.2230 -11.1883 -11.1723 -11.1685 -11.1657 -11.1274 -11.0895
   -11.0536 -11.0427 -11.0198 -10.9889 -10.9834 -10.9581 -10.9360 -10.9296
   -10.9250 -10.9190 -10.9050 -10.8941 -10.8740 -10.8691 -10.8515 -10.8480
   -10.8431 -10.8430 -10.8425 -10.8385 -10.8313 -10.8083 -10.7872 -10.7796
   -10.7779 -10.7699 -10.7539 -10.7006 -10.6397 -10.6329 -10.6094 -10.5261
   -10.5081 -10.4999 -10.4226 -10.3806 -10.3316 -10.2795 -10.2411 -10.1811
   -10.1538 -10.1355 -10.1289 -10.1115 -10.0909 -10.0579 -10.0343 -10.0104
    -9.9870  -9.9738  -9.9577  -9.9515  -9.9441  -9.9401  -9.9309  -9.9240
    -9.9141  -9.9074  -9.8973  -9.8904  -9.8417  -9.8195  -9.8160  -9.7928
    -9.7723  -9.7629  -9.7554  -9.7382  -9.7276  -9.7236  -9.7137  -9.7125
    -9.6986  -9.6865  -9.6741  -9.6686  -9.6404  -9.6317  -9.6196  -9.6066
    -9.5710  -9.5633  -9.5602  -9.5460  -9.5418  -9.5074  -9.4924  -9.4845
    -9.4768  -9.4103  -9.4053  -9.3515  -9.3345  -9.2999  -9.2565  -9.2314
    -9.2219  -9.2127  -9.1979  -9.1694  -9.1633  -9.1551  -9.1474  -9.1338
    -9.1217  -9.1161  -9.0984  -9.0921  -9.0598  -9.0591  -9.0500  -9.0488
    -9.0295  -9.0204  -9.0069  -8.9881  -8.9785  -8.9710  -8.9638  -8.9597
    -8.9498  -8.9451  -8.9447  -8.9400  -8.9292  -8.8969  -8.8922  -8.8770
    -8.8719  -8.8692  -8.8656  -8.8601  -8.8524  -8.8519  -8.8456  -8.8414
    -8.8333  -8.8218  -8.8199  -8.8106  -8.7785  -8.7755  -8.7621  -8.7480
    -8.7267  -8.6716  -8.6197  -8.5850  -8.5249  -8.5248  -8.4746  -8.4660
    -8.4545  -8.4381  -8.4351  -8.3705  -8.3079  -8.2800  -8.2160  -8.2062
    -8.2062  -8.1778  -8.1355  -8.1345  -8.1334  -8.1119  -8.0997  -7.9944
    -7.9590  -7.9477  -7.9439  -7.9400  -7.8925  -7.8726  -7.8722  -7.8665
    -7.8636  -7.8595  -7.8595  -7.8592  -7.8588  -7.8483  -7.8238  -7.8206
    -7.8137  -7.8121  -7.8063  -7.8021  -7.7892  -7.7880  -7.7763  -7.7664
    -7.7637  -7.7556  -7.7522  -7.7403  -7.7369  -7.7338  -7.7305  -7.7222
    -7.7188  -7.7075  -7.6972  -7.6835  -7.6747  -7.6742  -7.6739  -7.6681
    -7.6446  -7.6355  -7.6245  -7.6149  -7.6088  -7.6004  -7.5934  -7.5859
    -7.5684  -7.5446  -7.5388  -7.4880  -7.4836  -7.4651  -7.3925  -7.3768
    -7.3133  -7.2875  -7.2815  -7.2526  -7.2489  -7.2393  -7.2245  -7.1819
    -7.1717  -7.1418  -7.1185  -7.0969  -7.0793  -7.0350  -7.0266  -7.0226
    -7.0171  -7.0043  -6.9877  -6.9702  -6.9502  -6.9388  -6.9162  -6.9096
    -6.8938  -6.8614  -6.8438  -6.8355  -6.8048  -6.8021  -6.7474  -6.7412
    -6.7214  -6.6963  -6.6728  -6.6711  -6.6711  -6.6711  -6.6693  -6.6597
    -6.6391  -6.6042  -6.6039  -6.6021  -6.6007  -6.5906  -6.5837  -6.5683
    -6.5386  -6.5183  -6.5048  -6.4636  -6.4451  -6.4391  -6.3699  -6.3398
    -6.3395  -6.3394  -6.3380  -6.2870  -6.2824  -6.2734  -6.2695  -6.2640
    -6.2610  -6.2538  -6.2497  -6.2447  -6.2323  -6.2208  -6.2081  -6.1626
    -6.0917  -6.0609  -5.9915  -5.9910  -5.9863  -5.9140  -5.9116  -5.8427
    -5.7949  -5.7618  -5.6419  -5.6178  -5.5482  -5.5167  -5.4054  -5.3588
    -5.3290  -5.2336  -4.2254  -4.0502  -4.0365  -4.0305  -3.9976  -3.9117
    -3.9066  -3.9066  -3.8715  -3.8465  -3.8417  -3.8404  -3.8227  -3.7899
    -3.7841  -3.7716  -3.7316  -3.7046  -3.6376  -3.6172  -3.6150  -3.6090
    -3.6062  -3.5934  -3.5917  -3.5915  -3.5899  -3.5651  -3.5318  -3.5155
    -3.5119  -3.5035  -3.5017  -3.4912  -3.4873  -3.4816  -3.4739  -3.4734
    -3.4324  -3.4120  -3.4045  -3.3855  -3.3719  -3.3706  -3.3668  -3.3595
    -3.3591  -3.3319  -3.3274  -3.3227  -3.3173  -3.3098  -3.2922  -3.2857
    -3.2833  -3.2823  -3.2816  -3.2704  -3.2572  -3.2445  -3.2386  -3.2346
    -3.2226  -3.2201  -3.2098  -3.2045  -3.1951  -3.1913  -3.1779  -3.1494
    -3.1437  -3.1276  -3.1087  -3.0979  -3.0795  -3.0773  -3.0600  -3.0494
    -3.0395  -3.0364  -3.0215  -3.0196  -3.0191  -3.0185  -2.9910  -2.9863
    -2.9722  -2.9701  -2.9653  -2.9527  -2.9425  -2.9352  -2.9315  -2.9263
    -2.9224  -2.9083  -2.9063  -2.8994  -2.8965  -2.8826  -2.8679  -2.8600
    -2.8423  -2.8352  -2.8155  -2.8111  -2.8087  -2.7910  -2.7567  -2.7420
    -2.7206  -2.7138  -2.6684  -2.6666  -2.6574  -2.6560  -2.6473  -2.6405
    -2.5766  -2.5740  -2.5436  -2.5300  -2.5146  -2.5045  -2.4958  -2.4877
    -2.4144  -2.3670  -2.3647  -2.3338  -2.3063  -2.2924

     the Fermi energy is    -4.6909 ev

!    total energy              =  -26543.77567820 Ry
     total all-electron energy =   -522376.371986 Ry
     estimated scf accuracy    <       0.00000054 Ry
     smearing contrib. (-TS)   =      -0.00000006 Ry
     internal energy E=F+TS    =  -26543.77567814 Ry

     The total energy is F=E-TS. E is the sum of the following terms:
     one-electron contribution =  511305.27689823 Ry
     hartree contribution      = -255798.37765755 Ry
     xc contribution           =   -1565.68711222 Ry
     ewald contribution        = -264036.98426434 Ry
     DFT-D3 Dispersion         =      -4.06051553 Ry
     one-center paw contrib.   =  -16443.94302674 Ry

     convergence has been achieved in  23 iterations

     negative rho (up, down):  9.762E-04 0.000E+00

     Forces acting on atoms (cartesian axes, Ry/au):

     atom    1 type  1   force =     0.00026710    0.00008373    0.00052671
     atom    2 type  1   force =     0.00000198   -0.00000019    0.00189600
     atom    3 type  1   force =     0.00003247   -0.00000477    0.00005124
     atom    4 type  2   force =    -0.00000047    0.00000063   -0.00341495
     atom    5 type  2   force =     0.00001908   -0.00000065   -0.00011986
     atom    6 type  2   force =     0.00020658   -0.00010975   -0.00025808
     atom    7 type  2   force =    -0.00000203   -0.00000054    0.00162706
     atom    8 type  2   force =    -0.00000200    0.00000052    0.00009145
     atom    9 type  2   force =     0.00007059    0.00018068    0.00108900
     atom   10 type  1   force =     0.00106524    0.00049818    0.00057539
     atom   11 type  1   force =    -0.00000383    0.00000048    0.00189250
     atom   12 type  1   force =    -0.00000666    0.00001638   -0.00000442
     atom   13 type  2   force =    -0.00000016   -0.00000034   -0.00341385
     atom   14 type  2   force =     0.00000687    0.00000514   -0.00012038
     atom   15 type  2   force =     0.00006297    0.00008639   -0.00017742
     atom   16 type  2   force =    -0.00000199    0.00000193    0.00163829
     atom   17 type  2   force =    -0.00001271   -0.00000249    0.00011321
     atom   18 type  2   force =    -0.00002719   -0.00002967    0.00039450
     atom   19 type  1   force =    -0.00000135   -0.00002682    0.00026615
     atom   20 type  1   force =     0.00000422   -0.00000549    0.00189710
     atom   21 type  1   force =     0.00003895    0.00001180   -0.00000043
     atom   22 type  2   force =    -0.00000043   -0.00000317   -0.00341798
     atom   23 type  2   force =     0.00001250    0.00000026   -0.00012998
     atom   24 type  2   force =     0.00007613    0.00001008   -0.00046430
     atom   25 type  2   force =    -0.00000308   -0.00000662    0.00162050
     atom   26 type  2   force =    -0.00000479   -0.00000458    0.00010458
     atom   27 type  2   force =    -0.00004414   -0.00017024    0.00062416
     atom   28 type  1   force =     0.00027221    0.00012644    0.00030414
     atom   29 type  1   force =    -0.00000214    0.00000414    0.00189838
     atom   30 type  1   force =     0.00000395    0.00000927    0.00007242
     atom   31 type  2   force =    -0.00000007    0.00000072   -0.00341638
     atom   32 type  2   force =     0.00000215    0.00000943   -0.00012488
     atom   33 type  2   force =     0.00044079    0.00041737   -0.00134332
     atom   34 type  2   force =    -0.00000846   -0.00000641    0.00162347
     atom   35 type  2   force =     0.00002058   -0.00000233    0.00013824
     atom   36 type  2   force =    -0.00055559   -0.00030767   -0.00069599
     atom   37 type  1   force =    -0.00011867   -0.00006497   -0.00124478
     atom   38 type  1   force =    -0.00000833   -0.00000915    0.00189214
     atom   39 type  1   force =    -0.00001713    0.00001565    0.00005508
     atom   40 type  2   force =    -0.00000079   -0.00000007   -0.00341532
     atom   41 type  2   force =    -0.00001675   -0.00000971   -0.00011280
     atom   42 type  2   force =    -0.00040092    0.00037854   -0.00041075
     atom   43 type  2   force =     0.00000226    0.00000579    0.00162280
     atom   44 type  2   force =    -0.00000136    0.00000619    0.00016150
     atom   45 type  2   force =    -0.00012353    0.00061297    0.00048833
     atom   46 type  1   force =    -0.00176539   -0.00209284   -0.00261981
     atom   47 type  1   force =    -0.00000308    0.00000035    0.00188802
     atom   48 type  1   force =     0.00001357   -0.00003256    0.00002754
     atom   49 type  2   force =    -0.00000295   -0.00000237   -0.00341585
     atom   50 type  2   force =    -0.00000452   -0.00001648   -0.00011174
     atom   51 type  2   force =     0.00059574   -0.00013361   -0.00002451
     atom   52 type  2   force =    -0.00000042    0.00000811    0.00162606
     atom   53 type  2   force =     0.00004023   -0.00000107    0.00017925
     atom   54 type  2   force =     0.00221588   -0.00033978    0.00299500
     atom   55 type  1   force =    -0.00216486   -0.00048691    0.00083172
     atom   56 type  1   force =    -0.00000285   -0.00000704    0.00188653
     atom   57 type  1   force =    -0.00003882   -0.00000017    0.00003806
     atom   58 type  2   force =    -0.00000173   -0.00000226   -0.00341377
     atom   59 type  2   force =    -0.00000690   -0.00001879   -0.00011521
     atom   60 type  2   force =     0.00006247    0.00022674   -0.00042299
     atom   61 type  2   force =     0.00000362   -0.00000521    0.00161332
     atom   62 type  2   force =     0.00001861    0.00000207    0.00014969
     atom   63 type  2   force =     0.00012184   -0.00010853    0.00039186
     atom   64 type  1   force =    -0.00024564    0.00002356    0.00044721
     atom   65 type  1   force =    -0.00000320    0.00000372    0.00189663
     atom   66 type  1   force =    -0.00000106   -0.00003690    0.00003417
     atom   67 type  2   force =    -0.00000099   -0.00000010   -0.00341579
     atom   68 type  2   force =    -0.00001164   -0.00001430   -0.00012334
     atom   69 type  2   force =     0.00014783    0.00014590   -0.00036026
     atom   70 type  2   force =     0.00000265   -0.00000626    0.00161567
     atom   71 type  2   force =    -0.00000507    0.00000379    0.00013225
     atom   72 type  2   force =    -0.00004716   -0.00013985   -0.00004557
     atom   73 type  1   force =    -0.00000664   -0.00006291    0.00056502
     atom   74 type  1   force =     0.00000588   -0.00000786    0.00189814
     atom   75 type  1   force =     0.00003085    0.00002160   -0.00003381
     atom   76 type  2   force =    -0.00000234   -0.00000208   -0.00341613
     atom   77 type  2   force =    -0.00000459    0.00000069   -0.00014207
     atom   78 type  2   force =     0.00026737   -0.00005615   -0.00058790
     atom   79 type  2   force =    -0.00000084    0.00000156    0.00162100
     atom   80 type  2   force =    -0.00001073    0.00001045    0.00008600
     atom   81 type  2   force =     0.00015666    0.00056925    0.00058712
     atom   82 type  1   force =     0.00176213   -0.00227581   -0.00078270
     atom   83 type  1   force =    -0.00000033    0.00000714    0.00188314
     atom   84 type  1   force =    -0.00000296   -0.00003857   -0.00000278
     atom   85 type  2   force =    -0.00000303   -0.00000131   -0.00341510
     atom   86 type  2   force =    -0.00000790    0.00000257   -0.00014109
     atom   87 type  2   force =     0.00044442   -0.00170230   -0.00118359
     atom   88 type  2   force =    -0.00000205    0.00000758    0.00162335
     atom   89 type  2   force =    -0.00001794   -0.00001372    0.00010958
     atom   90 type  2   force =    -0.00171004   -0.00532722   -0.00600298
     atom   91 type  1   force =    -0.00082743   -0.00200450   -0.02633954
     atom   92 type  1   force =     0.00000144   -0.00000561    0.00188218
     atom   93 type  1   force =     0.00002869    0.00001191   -0.00004773
     atom   94 type  2   force =    -0.00000166   -0.00000199   -0.00341603
     atom   95 type  2   force =     0.00001179   -0.00000733   -0.00013556
     atom   96 type  2   force =    -0.00054541   -0.00033689    0.00166074
     atom   97 type  2   force =    -0.00000146   -0.00000690    0.00161609
     atom   98 type  2   force =    -0.00000696   -0.00000898    0.00011668
     atom   99 type  2   force =    -0.01870087   -0.00741584   -0.00036346
     atom  100 type  1   force =    -0.00125870    0.00203696   -0.00091549
     atom  101 type  1   force =     0.00000269    0.00000583    0.00189436
     atom  102 type  1   force =     0.00000500    0.00004240    0.00001246
     atom  103 type  2   force =    -0.00000284   -0.00000082   -0.00341694
     atom  104 type  2   force =     0.00000441    0.00000933   -0.00012667
     atom  105 type  2   force =    -0.00060300    0.00023259   -0.00130153
     atom  106 type  2   force =     0.00000379   -0.00000459    0.00161752
     atom  107 type  2   force =    -0.00001620    0.00001400    0.00013198
     atom  108 type  2   force =     0.00049574   -0.00012108   -0.00093585
     atom  109 type  1   force =     0.00004324   -0.00062300   -0.00016010
     atom  110 type  1   force =    -0.00000860   -0.00000118    0.00190019
     atom  111 type  1   force =    -0.00005432    0.00000298   -0.00003024
     atom  112 type  2   force =    -0.00000211    0.00000034   -0.00341392
     atom  113 type  2   force =     0.00000216   -0.00001170   -0.00012415
     atom  114 type  2   force =    -0.00033152   -0.00009506   -0.00033673
     atom  115 type  2   force =    -0.00000277   -0.00000141    0.00162659
     atom  116 type  2   force =    -0.00000483   -0.00002185    0.00020250
     atom  117 type  2   force =    -0.00023141    0.00022476    0.00075733
     atom  118 type  1   force =    -0.00076113    0.00054813    0.00057516
     atom  119 type  1   force =     0.00000275   -0.00000450    0.00189056
     atom  120 type  1   force =    -0.00001701   -0.00004448   -0.00003861
     atom  121 type  2   force =     0.00000016   -0.00000116   -0.00341792
     atom  122 type  2   force =    -0.00001054    0.00000476   -0.00012876
     atom  123 type  2   force =    -0.00018826   -0.00019356   -0.00022955
     atom  124 type  2   force =    -0.00000025    0.00000411    0.00163304
     atom  125 type  2   force =    -0.00003453    0.00000981    0.00016360
     atom  126 type  2   force =    -0.00082157   -0.00065075    0.00224357
     atom  127 type  1   force =     0.00230472   -0.00002537   -0.00100114
     atom  128 type  1   force =    -0.00001039   -0.00000240    0.00188837
     atom  129 type  1   force =    -0.00001912    0.00001044   -0.00003519
     atom  130 type  2   force =    -0.00000259   -0.00000242   -0.00341499
     atom  131 type  2   force =    -0.00000654   -0.00000593   -0.00012768
     atom  132 type  2   force =     0.00021388   -0.00009205    0.00204607
     atom  133 type  2   force =    -0.00000499   -0.00000879    0.00161857
     atom  134 type  2   force =    -0.00000569   -0.00000464    0.00015796
     atom  135 type  2   force =     0.01834753   -0.00638051    0.00399034
     atom  136 type  1   force =     0.00143682    0.00196002   -0.00125179
     atom  137 type  1   force =    -0.00000145   -0.00000210    0.00189545
     atom  138 type  1   force =    -0.00000967   -0.00003530   -0.00003672
[...]
     atom   72 type  2   force =    -0.00001577   -0.00011911    0.00015836
     atom   73 type  1   force =    -0.00010451   -0.00000587   -0.00000947
     atom   74 type  1   force =     0.00000194    0.00000293    0.00190039
     atom   75 type  1   force =     0.00000578    0.00000311    0.00000412
     atom   76 type  2   force =     0.00000080    0.00000370   -0.00328009
     atom   77 type  2   force =    -0.00003722    0.00000110   -0.00002150
     atom   78 type  2   force =    -0.00026392   -0.00026484    0.00024723
     atom   79 type  2   force =     0.00000343    0.00000203    0.00149724
     atom   80 type  2   force =    -0.00000391   -0.00001092    0.00002472
     atom   81 type  2   force =    -0.00043788    0.00024562   -0.00002585
     atom   82 type  1   force =     0.00038009    0.00007391    0.00005338
     atom   83 type  1   force =     0.00000191    0.00000397    0.00189624
     atom   84 type  1   force =    -0.00001591   -0.00002414    0.00000518
     atom   85 type  2   force =     0.00000109    0.00000365   -0.00327872
     atom   86 type  2   force =    -0.00002523   -0.00001039   -0.00001198
     atom   87 type  2   force =    -0.00013317    0.00004760    0.00056487
     atom   88 type  2   force =    -0.00000141    0.00000631    0.00149682
     atom   89 type  2   force =    -0.00000924    0.00000355    0.00004382
     atom   90 type  2   force =     0.00039501   -0.00014133   -0.00094249
     atom   91 type  1   force =    -0.00016472    0.00000402   -0.00076839
     atom   92 type  1   force =     0.00000057    0.00000430    0.00189557
     atom   93 type  1   force =    -0.00000932    0.00001620   -0.00000954
     atom   94 type  2   force =     0.00000100    0.00000375   -0.00327965
     atom   95 type  2   force =    -0.00000790   -0.00002428    0.00000821
     atom   96 type  2   force =     0.00006165    0.00041358    0.00026517
     atom   97 type  2   force =    -0.00000193    0.00000071    0.00148793
     atom   98 type  2   force =     0.00000288   -0.00002372    0.00001286
     atom   99 type  2   force =     0.00033531   -0.00035834    0.00018340
     atom  100 type  1   force =    -0.00013574    0.00007138   -0.00012024
     atom  101 type  1   force =     0.00000357    0.00000436    0.00189615
     atom  102 type  1   force =    -0.00000057    0.00000873   -0.00000963
     atom  103 type  2   force =     0.00000086    0.00000388   -0.00327893
     atom  104 type  2   force =    -0.00003938   -0.00000149   -0.00003454
     atom  105 type  2   force =     0.00014325    0.00026521   -0.00037748
     atom  106 type  2   force =     0.00000722   -0.00000018    0.00150494
     atom  107 type  2   force =     0.00000878    0.00003560    0.00001679
     atom  108 type  2   force =    -0.00001667    0.00035727    0.00036916
     atom  109 type  1   force =    -0.00001961   -0.00020944    0.00021475
     atom  110 type  1   force =     0.00000175    0.00000155    0.00189391
     atom  111 type  1   force =    -0.00002551   -0.00000251   -0.00000135
     atom  112 type  2   force =     0.00000062    0.00000374   -0.00328030
     atom  113 type  2   force =    -0.00001191    0.00004415   -0.00001188
     atom  114 type  2   force =     0.00017180   -0.00005822    0.00000259
     atom  115 type  2   force =     0.00001111    0.00000238    0.00149323
     atom  116 type  2   force =     0.00000728    0.00001087   -0.00000508
     atom  117 type  2   force =    -0.00035718    0.00002826    0.00021294
     atom  118 type  1   force =    -0.00010559   -0.00003693   -0.00026757
     atom  119 type  1   force =     0.00000069    0.00000321    0.00189579
     atom  120 type  1   force =    -0.00001015    0.00000157    0.00000767
     atom  121 type  2   force =     0.00000081    0.00000362   -0.00328008
     atom  122 type  2   force =     0.00000818    0.00001018   -0.00000114
     atom  123 type  2   force =    -0.00014675   -0.00012228   -0.00018071
     atom  124 type  2   force =     0.00000745    0.00000489    0.00149063
     atom  125 type  2   force =     0.00002164    0.00000580    0.00000491
     atom  126 type  2   force =    -0.00005039   -0.00000021    0.00006634
     atom  127 type  1   force =     0.00013839    0.00012714   -0.00001246
     atom  128 type  1   force =     0.00000043    0.00000245    0.00189516
     atom  129 type  1   force =     0.00000367    0.00001945   -0.00001303
     atom  130 type  2   force =     0.00000096    0.00000361   -0.00327965
     atom  131 type  2   force =     0.00001230    0.00000389   -0.00001319
     atom  132 type  2   force =    -0.00031966    0.00013941    0.00022036
     atom  133 type  2   force =     0.00000193    0.00000434    0.00147939
     atom  134 type  2   force =     0.00004045    0.00002088    0.00000393
     atom  135 type  2   force =    -0.00030420    0.00017732   -0.00011255
     atom  136 type  1   force =     0.00029284    0.00010754   -0.00039124
     atom  137 type  1   force =    -0.00000064    0.00000459    0.00189386
     atom  138 type  1   force =    -0.00001378    0.00000090   -0.00006132
     atom  139 type  2   force =     0.00000083    0.00000357   -0.00327986
     atom  140 type  2   force =     0.00001830    0.00000177   -0.00003836
     atom  141 type  2   force =     0.00002838   -0.00028467   -0.00048698
     atom  142 type  2   force =     0.00000378    0.00000639    0.00148142
     atom  143 type  2   force =    -0.00002340    0.00004388    0.00000997
     atom  144 type  2   force =     0.00027269    0.00034642   -0.00015985
     atom  145 type  3   force =    -0.00045809    0.00003909   -0.00008146
     atom  146 type  4   force =     0.00004568    0.00006222    0.00001129
     atom  147 type  4   force =     0.00007842   -0.00005039   -0.00072465

     Total force =     0.002928     Total SCF correction =     0.000988
     SCF correction compared to forces is large: reduce conv_thr to get better values
     Energy error            =      2.0E-05 Ry
     Gradient error          =      9.4E-04 Ry/Bohr

     bfgs converged in  30 scf cycles and  29 bfgs steps
     (criteria: energy <  1.0E-04 Ry, force <  1.0E-03 Ry/Bohr)

     End of BFGS Geometry Optimization

     Final energy             =  -26543.7852496535 Ry

     File ./outdir/pwscf.bfgs deleted, as requested
Begin final coordinates

ATOMIC_POSITIONS (angstrom)
Mo               1.5699055418        2.7256533312        6.0871920116
Mo               1.5769197498        0.9104407117       -6.0872367793    0   0   0
Mo               0.0003103070        1.8205201225       -0.0002211248
S                0.0000044503        0.0000077495       -7.6506323570    0   0   0
S                1.5767823535        0.9103647322       -1.5664628941
S               -0.0011116223        1.8234406856        4.5145383640
S                0.0000053241        0.0000068460       -4.5222282367    0   0   0
S                1.5775160400        0.9098496359        1.5649725492
S               -0.0037894202        1.8242429369        7.6580741875
Mo              -0.0098562578        5.4632319196        6.0848866191
Mo               0.0000011799        3.6417399547       -6.0872367793    0   0   0
Mo              -1.5765111373        4.5515571330       -0.0005814198
S               -1.5769141197        2.7313069925       -7.6506323570    0   0   0
S                0.0006430238        3.6412478543       -1.5655629400
S               -1.5765014929        4.5530204403        4.5122016770
S               -1.5769132459        2.7313060890       -4.5222282367    0   0   0
S                0.0010760719        3.6418019311        1.5674107402
S               -1.5761835424        4.5534177833        7.6569366977
Mo              -1.5799703831        8.1957188978        6.0524227877
Mo              -1.5769173901        6.3730391977       -6.0872367793    0   0   0
Mo              -3.1539769667        7.2829034913       -0.0017360138
S               -3.1538326896        5.4626062355       -7.6506323570    0   0   0
S               -1.5764245487        6.3721997258       -1.5665320259
S               -3.1540288246        7.2740304327        4.4934006309
S               -3.1538318159        5.4626053320       -4.5222282367    0   0   0
S               -1.5770382517        6.3727649744        1.5645940212
S               -3.1357246752        7.2958953009        7.6365110701
Mo               3.1501886914        0.0020802651        6.0555304371
Mo              -3.1538359601        9.1043384407       -6.0872367793    0   0   0
Mo              -4.7307749564       10.0142446421       -0.0014369273
S               -4.7307512596        8.1939054785       -7.6506323570    0   0   0
S               -3.1535853648        9.1040570896       -1.5669158324
S               -4.7419338176       10.0251642657        4.4960821998
S               -4.7307503859        8.1939045750       -4.5222282367    0   0   0
S               -3.1537803233        9.1038069106        1.5651120322
S               -4.7154612363       10.0270449508        7.6382370880
Mo               4.7308891479        2.6854700797        6.0609189443
Mo               4.7307503218        0.9104407117       -6.0872367793    0   0   0
Mo               3.1541431994        1.8210027049       -0.0013401693
S                3.1538350223        0.0000077495       -7.6506323570    0   0   0
S                4.7309394406        0.9103534966       -1.5669909389
S                3.1372842155        1.8224082391        4.4911985454
S                3.1538358961        0.0000068460       -4.5222282367    0   0   0
S                4.7314332105        0.9107525600        1.5650198741
S                3.1514376348        1.8002579437        7.6358522002
Mo               3.1336478711        5.4511106180        6.1217304438
Mo               3.1538317519        3.6417399547       -6.0872367793    0   0   0
Mo               1.5776000367        4.5520823556       -0.0002363291
S                1.5769164523        2.7313069925       -7.6506323570    0   0   0
S                3.1537616651        3.6417662651       -1.5665020942
S                1.5905780143        4.5609566713        4.5461730258
S                1.5769173261        2.7313060890       -4.5222282367    0   0   0
S                3.1553199905        3.6422077220        1.5666167128
S                1.4896979205        4.5043644903        7.7337414744
Mo               1.5352045432        8.2181660817        6.0573782615
Mo               1.5769131819        6.3730391977       -6.0872367793    0   0   0
Mo               0.0006051503        7.2829424482       -0.0011037333
S               -0.0000021176        5.4626062355       -7.6506323570    0   0   0
S                1.5772666573        6.3724036064       -1.5662524123
S               -0.0094140257        7.2727177697        4.4884862061
S               -0.0000012439        5.4626053320       -4.5222282367    0   0   0
S                1.5782869783        6.3731769686        1.5670451625
S               -0.0219832774        7.2968166869        7.6317419190
Mo               6.3082386417        0.0028814746        6.0482479769
Mo              -0.0000053881        9.1043384407       -6.0872367793    0   0   0
Mo              -1.5765993657       10.0146236448       -0.0016099876
S               -1.5769206876        8.1939054785       -7.6506323570    0   0   0
S                0.0004369441        9.1038788657       -1.5666608852
S               -1.5818646853       10.0176848929        4.4830974370
S               -1.5769198139        8.1939045750       -4.5222282367    0   0   0
S                0.0004731484        9.1042300053        1.5652954465
S               -1.5764911555       10.0178491219        7.6167752399
Mo               7.8919150010        2.7268416033        6.0835430974
Mo               7.8845808939        0.9104407117       -6.0872367793    0   0   0
Mo               6.3082115082        1.8211217257       -0.0020151769
S                6.3076655943        0.0000077495       -7.6506323570    0   0   0
S                7.8856453135        0.9102746549       -1.5669851378
S                6.3222560245        1.8255070118        4.4867880861
S                6.3076664681        0.0000068460       -4.5222282367    0   0   0
S                7.8849443478        0.9104155720        1.5643226074
S                6.3125430723        1.7960888602        7.6325726669
Mo               6.3345870577        5.4503564910        6.1264748230
Mo               6.3076623239        3.6417399547       -6.0872367793    0   0   0
Mo               4.7311184335        4.5524960825       -0.0018172402
S                4.7307470244        2.7313069925       -7.6506323570    0   0   0
S                6.3081834877        3.6419064853       -1.5672080122
S                4.7307505538        4.5657544677        4.5705829675
S                4.7307478981        2.7313060890       -4.5222282367    0   0   0
S                6.3073832545        3.6423263216        1.5657265556
S                4.7580914339        4.4127921231        7.6800969260
Mo               4.7327135322        8.2249701761        6.1272810062
Mo               4.7307437539        6.3730391977       -6.0872367793    0   0   0
Mo               3.1545321770        7.2828893685       -0.0013236975
S                3.1538284544        5.4626062355       -7.6506323570    0   0   0
S                4.7308613447        6.3729549422       -1.5675575662
S                3.1656425668        7.2757966140        4.5704276410
S                3.1538293281        5.4626053320       -4.5222282367    0   0   0
S                4.7311513566        6.3726982049        1.5662578122
S                3.0452032102        7.3778112518        7.6769487081
Mo               9.4590111748        0.0096746440        6.0839696062
Mo               3.1538251839        9.1043384407       -6.0872367793    0   0   0
Mo               1.5777016308       10.0143834846       -0.0014996105
S                1.5769098844        8.1939054785       -7.6506323570    0   0   0
S                3.1546996756        9.1040064918       -1.5664460644
S                1.5846149501       10.0273529673        4.4869015791
S                1.5769107581        8.1939045750       -4.5222282367    0   0   0
S                3.1542846372        9.1029037022        1.5665484639
S                1.5550687851       10.0295639319        7.6305456584
Mo              -1.5763043069        2.7344734117        6.0824175403
Mo              11.0384114659        0.9104407117       -6.0872367793    0   0   0
Mo               9.4621576228        1.8206444467       -0.0008944030
S                9.4614961663        0.0000077495       -7.6506323570    0   0   0
S               11.0391196943        0.9098214773       -1.5657408627
S                9.4645830237        1.8240486988        4.5127240415
S                9.4614970401        0.0000068460       -4.5222282367    0   0   0
S               11.0386387555        0.9093499866        1.5672292259
S                9.4637450369        1.8230209507        7.6544866516
Mo              -3.1439138419        5.4625725263        6.0851252626
Mo               9.4614928959        3.6417399547       -6.0872367793    0   0   0
Mo               7.8846941388        4.5521250053       -0.0012744405
S                7.8845775964        2.7313069925       -7.6506323570    0   0   0
S                9.4621098854        3.6414103361       -1.5662411503
S                7.8774836816        4.5601801926        4.5404074305
S                7.8845784701        2.7313060890       -4.5222282367    0   0   0
S                9.4609462380        3.6418224899        1.5667135744
S                7.9647826050        4.5102394272        7.7133836371
Mo              -4.7005460475        8.2136481833        6.0662807092
Mo               7.8845743259        6.3730391977       -6.0872367793    0   0   0
Mo               6.3074983763        7.2828831883       -0.0017278358
S                6.3076590264        5.4626062355       -7.6506323570    0   0   0
S                7.8846555329        6.3726046138       -1.5670960746
S                6.2959596633        7.2775277731        4.5699844616
S                6.3076599001        5.4626053320       -4.5222282367    0   0   0
S                7.8837086193        6.3729814967        1.5660800486
S                6.4049499424        7.3408859006        7.6833879381
Mo               0.0002082621        0.0110653076        6.0876337831
Mo               6.3076557559        9.1043384407       -6.0872367793    0   0   0
Mo               4.7311752370       10.0140156130       -0.0003316777
S                4.7307404564        8.1939054785       -7.6506323570    0   0   0
S                6.3075611869        9.1041408369       -1.5665814090
S                4.7314778510       10.0066827693        4.5417364122
S                4.7307413301        8.1939045750       -4.5222282367    0   0   0
S                6.3080170882        9.1026403962        1.5665774372
S                4.7299778166       10.1040479547        7.7157572324
Pt               3.2634776631        5.5246761414        8.9815361161
Pd               6.2157572191        5.4954093680        9.0960954765
Pd               4.7100369034        8.0941188783        9.1005143146
End final coordinates



     Writing all to output data dir ./outdir/pwscf.save/ :
     XML data file, charge density, pseudopotentials, collected wavefunctions
 
     init_run     :     98.34s CPU    100.54s WALL (       1 calls)
     electrons    : 132560.00s CPU 134468.86s WALL (      30 calls)
     update_pot   :     38.46s CPU     39.64s WALL (      29 calls)
     forces       :   2185.27s CPU   2232.37s WALL (      30 calls)
     force_dftd3  :     11.59s CPU     12.09s WALL (      30 calls)

     Called by init_run:
     wfcinit      :     80.21s CPU     81.22s WALL (       1 calls)
     potinit      :      1.10s CPU      1.18s WALL (       1 calls)
     hinit0       :      9.28s CPU      9.33s WALL (       1 calls)

     Called by electrons:
     c_bands      : 116068.41s CPU 117219.77s WALL (     381 calls)
     sum_band     :  14190.30s CPU  14579.47s WALL (     381 calls)
     v_of_rho     :    110.99s CPU    124.13s WALL (     383 calls)
     newd         :   1947.08s CPU   2309.32s WALL (     383 calls)
     PAW_pot      :    311.69s CPU    314.16s WALL (     412 calls)
     mix_rho      :     29.23s CPU     33.17s WALL (     381 calls)
     energy_dftd3 :      6.50s CPU      6.52s WALL (      30 calls)

     Called by c_bands:
     init_us_2    :    540.31s CPU    542.63s WALL (    3288 calls)
     init_us_2:cp :    540.29s CPU    542.61s WALL (    3288 calls)
     cegterg      : 113770.27s CPU 114912.37s WALL (    1538 calls)

     Called by *egterg:
     cdiaghg      :   5996.05s CPU   6229.42s WALL (   18929 calls)
     h_psi        :  58483.30s CPU  58853.55s WALL (   19161 calls)
     s_psi        :  12693.41s CPU  12747.97s WALL (   19161 calls)
     g_psi        :    130.62s CPU    131.22s WALL (   17619 calls)

     Called by h_psi:
     h_psi:calbec :  12190.33s CPU  12232.25s WALL (   19161 calls)
     vloc_psi     :  33246.65s CPU  33427.25s WALL (   19161 calls)
     add_vuspsi   :  12766.14s CPU  12823.81s WALL (   19161 calls)

     General routines
     calbec       :  17275.40s CPU  17332.48s WALL (   21281 calls)
     fft          :     98.33s CPU    110.59s WALL (    5306 calls)
     ffts         :      5.03s CPU      5.20s WALL (     764 calls)
     fftw         :  24787.26s CPU  24921.97s WALL ( 8719864 calls)
     interpolate  :      9.06s CPU      9.95s WALL (     383 calls)
 
     Parallel routines
 
     PWSCF        :   1d13h40m CPU   1d14h14m WALL

 
   This run was terminated on:  20: 4:13   4Apr2024            

=------------------------------------------------------------------------------=
   JOB DONE.
=------------------------------------------------------------------------------=
