
     Program PWSCF v.7.3 starts on 12Mar2024 at 13: 7:23 

     This program is part of the open-source Quantum ESPRESSO suite
     for quantum simulation of materials; please cite
         "P. Giannozzi et al., J. Phys.:Condens. Matter 21 395502 (2009);
         "P. Giannozzi et al., J. Phys.:Condens. Matter 29 465901 (2017);
         "P. Giannozzi et al., J. Chem. Phys. 152 154105 (2020);
          URL http://www.quantum-espresso.org", 
     in publications or presentations arising from this work. More details at
     http://www.quantum-espresso.org/quote

     Parallel version (MPI & OpenMP), running on      36 processor cores
     Number of MPI processes:                36
     Threads/MPI process:                     1

     MPI processes distributed on     1 nodes
     561048 MiB available memory on the printing compute node when the environment starts
 
     Waiting for input...
     Reading input from standard input
Warning: card &CELL ignored
Warning: card / ignored

     Current dimensions of program PWSCF are:
     Max number of different atomic species (ntypx) = 10
     Max number of k-points (npk) =  40000
     Max angular momentum in pseudopotentials (lmaxx) =  4
     file Mo.pbe-spn-kjpaw_psl.1.0.0.UPF: wavefunction(s)  4S 4D renormalized
     file S.pbe-n-kjpaw_psl.1.0.0.UPF: wavefunction(s)  3S 3P renormalized
     file Pt.pbe-spfn-kjpaw_psl.1.0.0.UPF: wavefunction(s)  5P 4F renormalized
     file Pd.pbe-spn-kjpaw_psl.1.0.0.UPF: wavefunction(s)  4S 5S 4D renormalized
 
     R & G space division:  proc/nbgrp/npool/nimage =      36
     Subspace diagonalization in iterative solution of the eigenvalue problem:
     one sub-group per band group will be used
     scalapack distributed-memory algorithm (size of sub-group:  6*  6 procs)

 
     Parallelization info
     --------------------
     sticks:   dense  smooth     PW     G-vecs:    dense   smooth      PW
     Min         585     334     89               198743    85850   11735
     Max         586     335     90               198750    85861   11748
     Sum       21073   12049   3205              7154885  3090769  422587
 
     Using Slab Decomposition
 


     bravais-lattice index     =            0
     lattice parameter (alat)  =      23.8199  a.u.
     unit-cell volume          =   33861.0370 (a.u.)^3
     number of atoms/cell      =          194
     number of atomic types    =            4
     number of electrons       =      1714.00
     number of Kohn-Sham states=         1028
     kinetic-energy cutoff     =      77.0000  Ry
     charge density cutoff     =     539.0000  Ry
     scf convergence threshold =      1.0E-06
     mixing beta               =       0.2000
     number of iterations used =            8  plain     mixing
     energy convergence thresh.=      1.0E-04
     force convergence thresh. =      1.0E-03
     Exchange-correlation= SLA  PW   PBX  PBC
                           (   1   4   3   4   0   0   0)
     nstep                     =         1000


     Effective Screening Medium Method
     =================================
     Boundary Conditions: Vacuum-Slab-Vacuum
     total charge in unit cell        =   0.0000
     grid points for fit at edges     =        4 
 

     celldm(1)=  23.819920  celldm(2)=   0.000000  celldm(3)=   0.000000
     celldm(4)=   0.000000  celldm(5)=   0.000000  celldm(6)=   0.000000

     crystal axes: (cart. coord. in units of alat)
               a(1) = (   1.000000   0.000000   0.000000 )  
               a(2) = (  -0.499999   0.866026   0.000000 )  
               a(3) = (   0.000000   0.000000   2.893000 )  

     reciprocal axes: (cart. coord. in units 2 pi/alat)
               b(1) = (  1.000000  0.577349  0.000000 )  
               b(2) = (  0.000000  1.154700  0.000000 )  
               b(3) = (  0.000000  0.000000  0.345662 )  


     PseudoPot. # 1 for Mo read from file:
     ./pseudo/Mo.pbe-spn-kjpaw_psl.1.0.0.UPF
     MD5 check sum: 317bf72632116215fd98f72de1686f13
     Pseudo is Projector augmented-wave + core cor, Zval = 14.0
     Generated using 'atomic' code by A. Dal Corso  v.7.2
     Shape of augmentation charge: PSQ
     Using radial grid of 1229 points,  6 beta functions with: 
                l(1) =   0
                l(2) =   0
                l(3) =   1
                l(4) =   1
                l(5) =   2
                l(6) =   2
     Q(r) pseudized with 0 coefficients 


     PseudoPot. # 2 for S  read from file:
     ./pseudo/S.pbe-n-kjpaw_psl.1.0.0.UPF
     MD5 check sum: 8b7b5302570d38d5e87fed6a1065abda
     Pseudo is Projector augmented-wave + core cor, Zval =  6.0
     Generated using 'atomic' code by A. Dal Corso  v.7.2
     Shape of augmentation charge: PSQ
     Using radial grid of 1151 points,  6 beta functions with: 
                l(1) =   0
                l(2) =   0
                l(3) =   1
                l(4) =   1
                l(5) =   2
                l(6) =   2
     Q(r) pseudized with 0 coefficients 


     PseudoPot. # 3 for Pt read from file:
     ./pseudo/Pt.pbe-spfn-kjpaw_psl.1.0.0.UPF
     MD5 check sum: 620096ebf4e6ebacc94de60fd67efcb5
     Pseudo is Projector augmented-wave + core cor, Zval = 32.0
     Generated using 'atomic' code by A. Dal Corso  v.7.2
     Shape of augmentation charge: PSQ
     Using radial grid of 1277 points,  8 beta functions with: 
                l(1) =   0
                l(2) =   0
                l(3) =   1
                l(4) =   1
                l(5) =   2
                l(6) =   2
                l(7) =   3
                l(8) =   3
     Q(r) pseudized with 0 coefficients 


     PseudoPot. # 4 for Pd read from file:
     ./pseudo/Pd.pbe-spn-kjpaw_psl.1.0.0.UPF
     MD5 check sum: a60571a671f2502b8a6a4569d20a6edb
     Pseudo is Projector augmented-wave + core cor, Zval = 18.0
     Generated using 'atomic' code by A. Dal Corso  v.7.2
     Shape of augmentation charge: PSQ
     Using radial grid of 1235 points,  6 beta functions with: 
                l(1) =   0
                l(2) =   0
                l(3) =   1
                l(4) =   1
                l(5) =   2
                l(6) =   2
     Q(r) pseudized with 0 coefficients 


     atomic species   valence    mass     pseudopotential
     Mo               14.00    95.95000     Mo( 1.00)
     S                 6.00    32.06000     S ( 1.00)
     Pt               32.00   195.08400     Pt( 1.00)
     Pd               18.00   106.42000     Pd( 1.00)

     No symmetry found



   Cartesian axes

     site n.     atom                  positions (alat units)
         1        Mo     tau(   1) = (   0.0000010   0.1443372  -0.7272732  )
         2        Mo     tau(   2) = (   0.1249995   0.0721706  -0.2424038  )
         3        S      tau(   3) = (   0.0000015   0.1443386  -0.3667807  )
         4        S      tau(   4) = (   0.1250010   0.0721682  -0.6030489  )
         5        S      tau(   5) = (   0.1250010   0.0721683  -0.8514963  )
         6        S      tau(   6) = (   0.0000015   0.1443389  -0.1180260  )
         7        Mo     tau(   7) = (   0.0000014   0.1443616   0.2424356  )
         8        Mo     tau(   8) = (   0.1250042   0.0720311   0.7263989  )
         9        S      tau(   9) = (   0.0000639   0.1447004   0.6020022  )
        10        S      tau(  10) = (   0.1250030   0.0721650   0.3667578  )
        11        S      tau(  11) = (   0.1250031   0.0721991   0.1180453  )
        12        S      tau(  12) = (  -0.0005532   0.1426765   0.8513101  )
        13        Mo     tau(  13) = (  -0.1249989   0.3608437  -0.7272732  )
        14        Mo     tau(  14) = (   0.0000030   0.2886752  -0.2424042  )
        15        S      tau(  15) = (  -0.1249977   0.3608450  -0.3667802  )
        16        S      tau(  16) = (   0.0000012   0.2886747  -0.6030489  )
        17        S      tau(  17) = (   0.0000012   0.2886748  -0.8514963  )
        18        S      tau(  18) = (  -0.1249977   0.3608454  -0.1180274  )
        19        Mo     tau(  19) = (  -0.1249758   0.3608563   0.2424461  )
        20        Mo     tau(  20) = (  -0.0009250   0.2875651   0.7279418  )
        21        S      tau(  21) = (  -0.1248723   0.3609173   0.6030853  )
        22        S      tau(  22) = (   0.0000474   0.2887247   0.3668317  )
        23        S      tau(  23) = (   0.0000000   0.2886879   0.1180554  )
        24        S      tau(  24) = (  -0.1255989   0.3604976   0.8519229  )
        25        Mo     tau(  25) = (  -0.2499987   0.5773502  -0.7272732  )
        26        Mo     tau(  26) = (  -0.1249977   0.5051839  -0.2424055  )
        27        S      tau(  27) = (  -0.2499981   0.5773518  -0.3667809  )
        28        S      tau(  28) = (  -0.1249986   0.5051812  -0.6030489  )
        29        S      tau(  29) = (  -0.1249986   0.5051813  -0.8514963  )
        30        S      tau(  30) = (  -0.2499979   0.5773512  -0.1180266  )
        31        Mo     tau(  31) = (  -0.2499765   0.5773372   0.2424355  )
        32        Mo     tau(  32) = (  -0.1264232   0.5049348   0.7279418  )
        33        S      tau(  33) = (  -0.2496528   0.5772237   0.6020023  )
        34        S      tau(  34) = (  -0.1249318   0.5051954   0.3668318  )
        35        S      tau(  35) = (  -0.1249873   0.5051727   0.1180553  )
        36        S      tau(  36) = (  -0.2517142   0.5777014   0.8513102  )
        37        Mo     tau(  37) = (  -0.3749985   0.7938567  -0.7272732  )
        38        Mo     tau(  38) = (  -0.2500001   0.7216874  -0.2424031  )
        39        S      tau(  39) = (  -0.3749980   0.7938584  -0.3667800  )
        40        S      tau(  40) = (  -0.2499984   0.7216877  -0.6030489  )
        41        S      tau(  41) = (  -0.2499984   0.7216878  -0.8514963  )
        42        S      tau(  42) = (  -0.3749982   0.7938585  -0.1180264  )
        43        Mo     tau(  43) = (  -0.3749961   0.7938572   0.2423820  )
        44        Mo     tau(  44) = (  -0.2501160   0.7217599   0.7263989  )
        45        S      tau(  45) = (  -0.3749948   0.7938592   0.6019084  )
        46        S      tau(  46) = (  -0.2499995   0.7216903   0.3667578  )
        47        S      tau(  47) = (  -0.2499699   0.7216732   0.1180452  )
        48        S      tau(  48) = (  -0.3749951   0.7938590   0.8508262  )
        49        Mo     tau(  49) = (   0.2500010   0.1443372  -0.7272732  )
        50        Mo     tau(  50) = (   0.3750034   0.0721723  -0.2424032  )
        51        S      tau(  51) = (   0.2500017   0.1443391  -0.3667788  )
        52        S      tau(  52) = (   0.3750010   0.0721682  -0.6030489  )
        53        S      tau(  53) = (   0.3750010   0.0721683  -0.8514963  )
        54        S      tau(  54) = (   0.2500016   0.1443391  -0.1180271  )
        55        Mo     tau(  55) = (   0.2500050   0.1443618   0.2424356  )
        56        Mo     tau(  56) = (   0.3749291   0.0721273   0.7261578  )
        57        S      tau(  57) = (   0.2499446   0.1447002   0.6020022  )
        58        S      tau(  58) = (   0.3750312   0.0721852   0.3667808  )
        59        S      tau(  59) = (   0.3749943   0.0721639   0.1180502  )
        60        S      tau(  60) = (   0.2505615   0.1426764   0.8513103  )
        61        Mo     tau(  61) = (   0.1250012   0.3608437  -0.7272732  )
        62        Mo     tau(  62) = (   0.2500029   0.2886782  -0.2424031  )
        63        S      tau(  63) = (   0.1250024   0.3608455  -0.3667794  )
        64        S      tau(  64) = (   0.2500012   0.2886747  -0.6030489  )
        65        S      tau(  65) = (   0.2500012   0.2886748  -0.8514963  )
        66        S      tau(  66) = (   0.1250021   0.3608455  -0.1180270  )
        67        Mo     tau(  67) = (   0.1250036   0.3608788   0.2424134  )
        68        Mo     tau(  68) = (   0.2509342   0.2875650   0.7279417  )
        69        S      tau(  69) = (   0.1250047   0.3631022   0.6070003  )
        70        S      tau(  70) = (   0.2499595   0.2887248   0.3668321  )
        71        S      tau(  71) = (   0.2500069   0.2886879   0.1180551  )
        72        S      tau(  72) = (   0.1250048   0.3485809   0.8580653  )
        73        Mo     tau(  73) = (   0.0000014   0.5773502  -0.7272732  )
        74        Mo     tau(  74) = (   0.1250045   0.5051840  -0.2424036  )
        75        S      tau(  75) = (   0.0000030   0.5773520  -0.3667799  )
        76        S      tau(  76) = (   0.1250014   0.5051812  -0.6030489  )
        77        S      tau(  77) = (   0.1250014   0.5051813  -0.8514963  )
        78        S      tau(  78) = (   0.0000026   0.5773517  -0.1180274  )
        79        Mo     tau(  79) = (   0.0000336   0.5773337   0.2424134  )
        80        Mo     tau(  80) = (   0.1250049   0.5051837   0.7323431  )
        81        S      tau(  81) = (   0.0019589   0.5762246   0.6070004  )
        82        S      tau(  82) = (   0.1250038   0.5051820   0.3668453  )
        83        S      tau(  83) = (   0.1250038   0.5051819   0.1180162  )
        84        S      tau(  84) = (  -0.0106172   0.5834855   0.8580649  )
        85        Mo     tau(  85) = (  -0.1249984   0.7938567  -0.7272732  )
        86        Mo     tau(  86) = (   0.0000069   0.7216896  -0.2424039  )
        87        S      tau(  87) = (  -0.1249975   0.7938582  -0.3667782  )
        88        S      tau(  88) = (   0.0000016   0.7216877  -0.6030489  )
        89        S      tau(  89) = (   0.0000016   0.7216878  -0.8514963  )
        90        S      tau(  90) = (  -0.1249973   0.7938582  -0.1180279  )
        91        Mo     tau(  91) = (  -0.1249742   0.7938470   0.2424356  )
        92        Mo     tau(  92) = (  -0.0004933   0.7230516   0.7279416  )
        93        S      tau(  93) = (  -0.1247124   0.7936270   0.6020023  )
        94        S      tau(  94) = (   0.0000246   0.7216257   0.3668322  )
        95        S      tau(  95) = (   0.0000165   0.7216852   0.1180552  )
        96        S      tau(  96) = (  -0.1261568   0.7951731   0.8513104  )
        97        Mo     tau(  97) = (   0.5000010   0.1443372  -0.7272732  )
        98        Mo     tau(  98) = (   0.6250001   0.0721662  -0.2424040  )
        99        S      tau(  99) = (   0.5000017   0.1443386  -0.3667801  )
       100        S      tau( 100) = (   0.6250010   0.0721682  -0.6030489  )
       101        S      tau( 101) = (   0.6250010   0.0721683  -0.8514963  )
       102        S      tau( 102) = (   0.5000020   0.1443388  -0.1180261  )
       103        Mo     tau( 103) = (   0.5000076   0.1443402   0.2423934  )
       104        Mo     tau( 104) = (   0.6250040   0.0723531   0.7270557  )
       105        S      tau( 105) = (   0.5002419   0.1444767   0.6022126  )
       106        S      tau( 106) = (   0.6250031   0.0721699   0.3667634  )
       107        S      tau( 107) = (   0.6250031   0.0721381   0.1180360  )
       108        S      tau( 108) = (   0.4998195   0.1442328   0.8511552  )
       109        Mo     tau( 109) = (   0.3750012   0.3608437  -0.7272732  )
       110        Mo     tau( 110) = (   0.4999991   0.2886761  -0.2424038  )
       111        S      tau( 111) = (   0.3750012   0.3608452  -0.3667804  )
       112        S      tau( 112) = (   0.5000012   0.2886747  -0.6030489  )
       113        S      tau( 113) = (   0.5000012   0.2886748  -0.8514963  )
       114        S      tau( 114) = (   0.3750014   0.3608455  -0.1180261  )
       115        Mo     tau( 115) = (   0.3749823   0.3608562   0.2424462  )
       116        Mo     tau( 116) = (   0.5001624   0.2885857   0.7270558  )
       117        S      tau( 117) = (   0.3748813   0.3609171   0.6030850  )
       118        S      tau( 118) = (   0.5000041   0.2886750   0.3667632  )
       119        S      tau( 119) = (   0.4999767   0.2886908   0.1180361  )
       120        S      tau( 120) = (   0.3756080   0.3604978   0.8519227  )
       121        Mo     tau( 121) = (   0.2500014   0.5773502  -0.7272732  )
       122        Mo     tau( 122) = (   0.3749983   0.5051825  -0.2424043  )
       123        S      tau( 123) = (   0.2500017   0.5773519  -0.3667810  )
       124        S      tau( 124) = (   0.3750014   0.5051812  -0.6030489  )
       125        S      tau( 125) = (   0.3750014   0.5051813  -0.8514963  )
       126        S      tau( 126) = (   0.2500018   0.5773519  -0.1180256  )
       127        Mo     tau( 127) = (   0.2499737   0.5773335   0.2424135  )
       128        Mo     tau( 128) = (   0.3764328   0.5049349   0.7279416  )
       129        S      tau( 129) = (   0.2480514   0.5762247   0.6070002  )
       130        S      tau( 130) = (   0.3749389   0.5051953   0.3668317  )
       131        S      tau( 131) = (   0.3749944   0.5051727   0.1180554  )
       132        S      tau( 132) = (   0.2606253   0.5834843   0.8580650  )
       133        Mo     tau( 133) = (   0.1250016   0.7938567  -0.7272732  )
       134        Mo     tau( 134) = (   0.2499995   0.7216883  -0.2424036  )
       135        S      tau( 135) = (   0.1250024   0.7938578  -0.3667813  )
       136        S      tau( 136) = (   0.2500016   0.7216877  -0.6030489  )
       137        S      tau( 137) = (   0.2500016   0.7216878  -0.8514963  )
       138        S      tau( 138) = (   0.1250024   0.7938579  -0.1180253  )
       139        Mo     tau( 139) = (   0.1250038   0.7938330   0.2424463  )
       140        Mo     tau( 140) = (   0.2505035   0.7230514   0.7279415  )
       141        S      tau( 141) = (   0.1250048   0.7937168   0.6030849  )
       142        S      tau( 142) = (   0.2499835   0.7216255   0.3668318  )
       143        S      tau( 143) = (   0.2499914   0.7216850   0.1180556  )
       144        S      tau( 144) = (   0.1250053   0.7945558   0.8519227  )
       145        Mo     tau( 145) = (   0.7500010   0.1443372  -0.7272732  )
       146        Mo     tau( 146) = (   0.8750038   0.0721696  -0.2424038  )
       147        S      tau( 147) = (   0.7500016   0.1443382  -0.3667789  )
       148        S      tau( 148) = (   0.8750010   0.0721682  -0.6030489  )
       149        S      tau( 149) = (   0.8750010   0.0721683  -0.8514963  )
       150        S      tau( 150) = (   0.7500016   0.1443384  -0.1180279  )
       151        Mo     tau( 151) = (   0.7499988   0.1443404   0.2423934  )
       152        Mo     tau( 152) = (   0.8750792   0.0721276   0.7261574  )
       153        S      tau( 153) = (   0.7497661   0.1444769   0.6022124  )
       154        S      tau( 154) = (   0.8749753   0.0721851   0.3667807  )
       155        S      tau( 155) = (   0.8750121   0.0721637   0.1180502  )
       156        S      tau( 156) = (   0.7501887   0.1442327   0.8511550  )
       157        Mo     tau( 157) = (   0.6250012   0.3608437  -0.7272732  )
       158        Mo     tau( 158) = (   0.7500028   0.2886769  -0.2424041  )
       159        S      tau( 159) = (   0.6250015   0.3608451  -0.3667792  )
       160        S      tau( 160) = (   0.7500012   0.2886747  -0.6030489  )
       161        S      tau( 161) = (   0.7500012   0.2886748  -0.8514963  )
       162        S      tau( 162) = (   0.6250016   0.3608454  -0.1180280  )
       163        Mo     tau( 163) = (   0.6250035   0.3608392   0.2423934  )
       164        Mo     tau( 164) = (   0.7498463   0.2885859   0.7270559  )
       165        S      tau( 165) = (   0.6250044   0.3605709   0.6022125  )
       166        S      tau( 166) = (   0.7500026   0.2886750   0.3667635  )
       167        S      tau( 167) = (   0.7500299   0.2886908   0.1180357  )
       168        S      tau( 168) = (   0.6250043   0.3610591   0.8511551  )
       169        Mo     tau( 169) = (   0.5000014   0.5773502  -0.7272732  )
       170        Mo     tau( 170) = (   0.6250029   0.5051841  -0.2424047  )
       171        S      tau( 171) = (   0.5000014   0.5773518  -0.3667794  )
       172        S      tau( 172) = (   0.6250014   0.5051812  -0.6030489  )
       173        S      tau( 173) = (   0.6250014   0.5051813  -0.8514963  )
       174        S      tau( 174) = (   0.5000016   0.5773516  -0.1180277  )
       175        Mo     tau( 175) = (   0.4999838   0.5773372   0.2424356  )
       176        Mo     tau( 176) = (   0.6250048   0.5052701   0.7261575  )
       177        S      tau( 177) = (   0.4996630   0.5772238   0.6020019  )
       178        S      tau( 178) = (   0.6250037   0.5051496   0.3667806  )
       179        S      tau( 179) = (   0.6250036   0.5051921   0.1180503  )
       180        S      tau( 180) = (   0.5017240   0.5777016   0.8513099  )
       181        Mo     tau( 181) = (   0.3750016   0.7938567  -0.7272732  )
       182        Mo     tau( 182) = (   0.5000025   0.7216901  -0.2424039  )
       183        S      tau( 183) = (   0.3750019   0.7938578  -0.3667793  )
       184        S      tau( 184) = (   0.5000016   0.7216877  -0.6030489  )
       185        S      tau( 185) = (   0.5000016   0.7216878  -0.8514963  )
       186        S      tau( 186) = (   0.3750020   0.7938579  -0.1180272  )
       187        Mo     tau( 187) = (   0.3749825   0.7938468   0.2424356  )
       188        Mo     tau( 188) = (   0.5001261   0.7217601   0.7263985  )
       189        S      tau( 189) = (   0.3747228   0.7936274   0.6020018  )
       190        S      tau( 190) = (   0.5000073   0.7216903   0.3667579  )
       191        S      tau( 191) = (   0.4999777   0.7216732   0.1180450  )
       192        S      tau( 192) = (   0.3761670   0.7951734   0.8513099  )
       193        Pt     tau( 193) = (   0.1250041   0.5051825   0.9498857  )
       194        Pd     tau( 194) = (  -0.1264582   0.5049600   0.9782658  )

     --------------------------------------------
     DFT-D3 Dispersion Correction (3-body terms):
     --------------------------------------------
       Reference C6 values for interpolation: 

         atom   Coordination number   C6
         S          0.000           268.01
         S          0.995           261.99
         S          1.990           251.62
         Mo         0.000          1691.79
         Mo         1.942          1004.01
         Mo        11.056           674.22
         Pd         0.000          1217.01
         Pd         1.863           573.90
         Pd         5.710           531.75
         Pt         0.000           782.29
         Pt         1.919           692.72
         Pt         6.667           673.75

       Values used:

         atom   Coordination number  R0_AB[au]  C6      C8
         Mo        10.208            3.547    674.22  77634.20
         Mo        10.221            3.547    674.22  77634.20
         S          3.858            3.128    251.62  12327.25
         S          3.859            3.128    251.62  12327.25
         S          3.758            3.128    251.62  12327.25
         S          3.859            3.128    251.62  12327.25
         Mo        10.220            3.547    674.22  77634.20
         Mo        10.236            3.547    674.22  77634.20
         S          3.844            3.128    251.62  12327.25
         S          3.861            3.128    251.62  12327.25
         S          3.859            3.128    251.62  12327.25
         S          3.829            3.128    251.62  12327.25
         Mo        10.208            3.547    674.22  77634.20
         Mo        10.221            3.547    674.22  77634.20
         S          3.858            3.128    251.62  12327.25
         S          3.859            3.128    251.62  12327.25
         S          3.758            3.128    251.62  12327.25
         S          3.859            3.128    251.62  12327.25
         Mo        10.221            3.547    674.22  77634.20
         Mo        10.199            3.547    674.22  77634.20
         S          3.858            3.128    251.62  12327.25
         S          3.855            3.128    251.62  12327.25
         S          3.859            3.128    251.62  12327.25
         S          4.683            3.128    251.62  12327.25
         Mo        10.208            3.547    674.21  77634.20
         Mo        10.221            3.547    674.22  77634.20
         S          3.858            3.128    251.62  12327.25
         S          3.859            3.128    251.62  12327.25
         S          3.758            3.128    251.62  12327.25
         S          3.859            3.128    251.62  12327.25
         Mo        10.220            3.547    674.22  77634.20
         Mo        10.614            3.547    674.22  77634.20
         S          3.845            3.128    251.62  12327.25
         S          3.855            3.128    251.62  12327.25
         S          3.859            3.128    251.62  12327.25
         S          4.749            3.128    251.62  12327.25
         Mo        10.208            3.547    674.22  77634.20
         Mo        10.221            3.547    674.22  77634.20
         S          3.858            3.128    251.62  12327.25
         S          3.859            3.128    251.62  12327.25
         S          3.758            3.128    251.62  12327.25
         S          3.859            3.128    251.62  12327.25
         Mo        10.219            3.547    674.22  77634.20
         Mo        10.243            3.547    674.22  77634.20
         S          3.852            3.128    251.62  12327.25
         S          3.861            3.128    251.62  12327.25
         S          3.859            3.128    251.62  12327.25
         S          3.792            3.128    251.62  12327.25
         Mo        10.208            3.547    674.22  77634.20
         Mo        10.221            3.547    674.22  77634.20
         S          3.858            3.128    251.62  12327.25
         S          3.859            3.128    251.62  12327.25
         S          3.758            3.128    251.62  12327.25
         S          3.859            3.128    251.62  12327.25
         Mo        10.220            3.547    674.22  77634.20
         Mo        10.250            3.547    674.22  77634.20
         S          3.844            3.128    251.62  12327.25
         S          3.860            3.128    251.62  12327.25
         S          3.859            3.128    251.62  12327.25
         S          3.828            3.128    251.62  12327.25
         Mo        10.208            3.547    674.22  77634.20
         Mo        10.221            3.547    674.22  77634.20
         S          3.858            3.128    251.62  12327.25
         S          3.859            3.128    251.62  12327.25
         S          3.758            3.128    251.62  12327.25
         S          3.859            3.128    251.62  12327.25
         Mo        10.222            3.547    674.22  77634.20
         Mo        10.192            3.547    674.22  77634.20
         S          3.865            3.128    251.62  12327.25
         S          3.855            3.128    251.62  12327.25
         S          3.859            3.128    251.62  12327.25
         S          4.667            3.128    251.62  12327.25
         Mo        10.208            3.547    674.22  77634.20
         Mo        10.221            3.547    674.22  77634.20
         S          3.858            3.128    251.62  12327.25
         S          3.859            3.128    251.62  12327.25
         S          3.758            3.128    251.62  12327.25
         S          3.859            3.128    251.62  12327.25
         Mo        10.222            3.547    674.22  77634.20
         Mo        10.916            3.547    674.21  77634.20
         S          3.866            3.128    251.62  12327.25
         S          3.851            3.128    251.62  12327.25
         S          3.859            3.128    251.62  12327.25
         S          5.623            3.128    251.62  12327.25
         Mo        10.208            3.547    674.22  77634.20
         Mo        10.221            3.547    674.22  77634.20
         S          3.858            3.128    251.62  12327.25
         S          3.859            3.128    251.62  12327.25
         S          3.758            3.128    251.62  12327.25
         S          3.859            3.128    251.62  12327.25
         Mo        10.220            3.547    674.22  77634.20
         Mo        10.199            3.547    674.22  77634.20
         S          3.844            3.128    251.62  12327.25
         S          3.855            3.128    251.62  12327.25
         S          3.859            3.128    251.62  12327.25
         S          3.836            3.128    251.62  12327.25
         Mo        10.208            3.547    674.22  77634.20
         Mo        10.221            3.547    674.22  77634.20
         S          3.858            3.128    251.62  12327.25
         S          3.859            3.128    251.62  12327.25
         S          3.758            3.128    251.62  12327.25
         S          3.859            3.128    251.62  12327.25
         Mo        10.220            3.547    674.22  77634.20
         Mo        10.236            3.547    674.22  77634.20
         S          3.860            3.128    251.62  12327.25
         S          3.860            3.128    251.62  12327.25
         S          3.859            3.128    251.62  12327.25
         S          3.768            3.128    251.62  12327.25
         Mo        10.208            3.547    674.22  77634.20
         Mo        10.221            3.547    674.22  77634.20
         S          3.858            3.128    251.62  12327.25
         S          3.859            3.128    251.62  12327.25
         S          3.758            3.128    251.62  12327.25
         S          3.859            3.128    251.62  12327.25
         Mo        10.221            3.547    674.22  77634.20
         Mo        10.236            3.547    674.22  77634.20
         S          3.857            3.128    251.62  12327.25
         S          3.860            3.128    251.62  12327.25
         S          3.859            3.128    251.62  12327.25
         S          3.758            3.128    251.62  12327.25
         Mo        10.208            3.547    674.21  77634.20
         Mo        10.221            3.547    674.22  77634.20
         S          3.858            3.128    251.62  12327.25
         S          3.859            3.128    251.62  12327.25
         S          3.758            3.128    251.62  12327.25
         S          3.859            3.128    251.62  12327.25
         Mo        10.222            3.547    674.22  77634.20
         Mo        10.192            3.547    674.22  77634.20
         S          3.865            3.128    251.62  12327.25
         S          3.855            3.128    251.62  12327.25
         S          3.859            3.128    251.62  12327.25
         S          4.660            3.128    251.62  12327.25
         Mo        10.208            3.547    674.22  77634.20
         Mo        10.221            3.547    674.22  77634.20
         S          3.858            3.128    251.62  12327.25
         S          3.859            3.128    251.62  12327.25
         S          3.758            3.128    251.62  12327.25
         S          3.859            3.128    251.62  12327.25
         Mo        10.221            3.547    674.22  77634.20
         Mo        10.192            3.547    674.22  77634.20
         S          3.857            3.128    251.62  12327.25
         S          3.855            3.128    251.62  12327.25
         S          3.859            3.128    251.62  12327.25
         S          3.758            3.128    251.62  12327.25
         Mo        10.208            3.547    674.22  77634.20
         Mo        10.221            3.547    674.22  77634.20
         S          3.858            3.128    251.62  12327.25
         S          3.859            3.128    251.62  12327.25
         S          3.758            3.128    251.62  12327.25
         S          3.859            3.128    251.62  12327.25
         Mo        10.220            3.547    674.22  77634.20
         Mo        10.250            3.547    674.22  77634.20
         S          3.860            3.128    251.62  12327.25
         S          3.860            3.128    251.62  12327.25
         S          3.859            3.128    251.62  12327.25
         S          3.769            3.128    251.62  12327.25
         Mo        10.208            3.547    674.22  77634.20
         Mo        10.220            3.547    674.22  77634.20
         S          3.858            3.128    251.62  12327.25
         S          3.859            3.128    251.62  12327.25
         S          3.758            3.128    251.62  12327.25
         S          3.859            3.128    251.62  12327.25
         Mo        10.220            3.547    674.22  77634.20
         Mo        10.243            3.547    674.22  77634.20
         S          3.860            3.128    251.62  12327.25
         S          3.860            3.128    251.62  12327.25
         S          3.859            3.128    251.62  12327.25
         S          3.777            3.128    251.62  12327.25
         Mo        10.208            3.547    674.22  77634.20
         Mo        10.221            3.547    674.22  77634.20
         S          3.858            3.128    251.62  12327.25
         S          3.859            3.128    251.62  12327.25
         S          3.758            3.128    251.62  12327.25
         S          3.859            3.128    251.62  12327.25
         Mo        10.220            3.547    674.22  77634.20
         Mo        10.257            3.547    674.22  77634.20
         S          3.844            3.128    251.62  12327.25
         S          3.860            3.128    251.62  12327.25
         S          3.859            3.128    251.62  12327.25
         S          3.829            3.128    251.62  12327.25
         Mo        10.208            3.547    674.22  77634.20
         Mo        10.221            3.547    674.22  77634.20
         S          3.858            3.128    251.62  12327.25
         S          3.859            3.128    251.62  12327.25
         S          3.758            3.128    251.62  12327.25
         S          3.859            3.128    251.62  12327.25
         Mo        10.220            3.547    674.22  77634.20
         Mo        10.236            3.547    674.22  77634.20
         S          3.844            3.128    251.62  12327.25
         S          3.861            3.128    251.62  12327.25
         S          3.859            3.128    251.62  12327.25
         S          3.828            3.128    251.62  12327.25
         Pt         4.242            3.168    690.23  71775.82
         Pd         3.533            3.168    573.89  52581.44

         Molecular C6 ( Ry / a.u.^6 ) =  13985720.36


     number of k points=     4  Gaussian smearing, width (Ry)=  0.0100
                       cart. coord. in units 2pi/alat
        k(    1) = (   0.0000000   0.0000000   0.0000000), wk =   0.5000000
        k(    2) = (   0.0000000  -0.5773499   0.0000000), wk =   0.5000000
        k(    3) = (  -0.5000000  -0.2886744   0.0000000), wk =   0.5000000
        k(    4) = (  -0.5000000  -0.8660242   0.0000000), wk =   0.5000000

     Dense  grid:  7154885 G-vectors     FFT dimensions: ( 180, 180, 512)

     Smooth grid:  3090769 G-vectors     FFT dimensions: ( 135, 135, 400)

     Estimated max dynamical RAM per process >       4.31 GB

     Estimated total dynamical RAM >     155.10 GB

     Initial potential from superposition of free atoms

     starting charge    1713.9389, renormalised to    1714.0000

     negative rho (up, down):  9.036E-04 0.000E+00
     Starting wfcs are 1179 randomized atomic wfcs
     Checking if some PAW data can be deallocated... 

     total cpu time spent up to now is      182.2 secs

     Self-consistent Calculation

     iteration #  1     ecut=    77.00 Ry     beta= 0.20
     Davidson diagonalization with overlap
     ethr =  1.00E-02,  avg # of iterations =  2.0

     Threshold (ethr) on eigenvalues was too large:
     Diagonalizing with lowered threshold

     Davidson diagonalization with overlap
     ethr =  1.62E-04,  avg # of iterations = 16.0

     negative rho (up, down):  2.461E-04 0.000E+00

     total cpu time spent up to now is     2258.2 secs

     total energy              =  -33980.25582692 Ry
     estimated scf accuracy    <       6.60325382 Ry

     iteration #  2     ecut=    77.00 Ry     beta= 0.20
     Davidson diagonalization with overlap
     ethr =  3.85E-04,  avg # of iterations =  2.0

     negative rho (up, down):  2.609E-05 0.000E+00

     total cpu time spent up to now is     2668.6 secs

     total energy              =  -33978.88641479 Ry
     estimated scf accuracy    <       3.44694732 Ry

     iteration #  3     ecut=    77.00 Ry     beta= 0.20
     Davidson diagonalization with overlap
     c_bands:  1 eigenvalues not converged
     c_bands:  1 eigenvalues not converged
     c_bands:  1 eigenvalues not converged
     ethr =  2.01E-04,  avg # of iterations = 20.0

     negative rho (up, down):  2.145E-05 0.000E+00

     total cpu time spent up to now is     3224.9 secs

     total energy              =  -33979.27902184 Ry
     estimated scf accuracy    <       1.91181643 Ry

     iteration #  4     ecut=    77.00 Ry     beta= 0.20
     Davidson diagonalization with overlap
     ethr =  1.12E-04,  avg # of iterations =  8.5

     negative rho (up, down):  1.584E-05 0.000E+00

     total cpu time spent up to now is     3716.6 secs

     total energy              =  -33979.57934568 Ry
     estimated scf accuracy    <       0.47445974 Ry

     iteration #  5     ecut=    77.00 Ry     beta= 0.20
     Davidson diagonalization with overlap
     c_bands:  1 eigenvalues not converged
     c_bands:  1 eigenvalues not converged
     ethr =  2.77E-05,  avg # of iterations = 20.2

     negative rho (up, down):  2.606E-05 0.000E+00

     total cpu time spent up to now is     5508.8 secs

     total energy              =  -33980.23874991 Ry
     estimated scf accuracy    <       0.49033117 Ry

     iteration #  6     ecut=    77.00 Ry     beta= 0.20
     Davidson diagonalization with overlap
     ethr =  2.77E-05,  avg # of iterations =  1.2

     negative rho (up, down):  5.887E-05 0.000E+00

     total cpu time spent up to now is     5890.5 secs

     total energy              =  -33980.18168053 Ry
     estimated scf accuracy    <       0.29231634 Ry

     iteration #  7     ecut=    77.00 Ry     beta= 0.20
     Davidson diagonalization with overlap
     ethr =  1.71E-05,  avg # of iterations =  8.0

     negative rho (up, down):  4.500E-04 0.000E+00

     total cpu time spent up to now is     6326.3 secs

     total energy              =  -33980.16412208 Ry
     estimated scf accuracy    <       0.13262072 Ry

     iteration #  8     ecut=    77.00 Ry     beta= 0.20
     Davidson diagonalization with overlap
     c_bands:  3 eigenvalues not converged
     c_bands:  3 eigenvalues not converged
     c_bands:  3 eigenvalues not converged
     c_bands:  3 eigenvalues not converged
     ethr =  7.74E-06,  avg # of iterations = 20.0

     negative rho (up, down):  3.301E-04 0.000E+00

     total cpu time spent up to now is     7513.4 secs

     total energy              =  -33980.22342086 Ry
     estimated scf accuracy    <       0.72554797 Ry

     iteration #  9     ecut=    77.00 Ry     beta= 0.20
     Davidson diagonalization with overlap
     ethr =  7.74E-06,  avg # of iterations = 17.0

     negative rho (up, down):  2.431E-04 0.000E+00

     total cpu time spent up to now is     8015.7 secs

     total energy              =  -33980.21385857 Ry
     estimated scf accuracy    <       0.11341670 Ry

     iteration # 10     ecut=    77.00 Ry     beta= 0.20
     Davidson diagonalization with overlap
     ethr =  6.62E-06,  avg # of iterations =  6.2

     negative rho (up, down):  2.759E-04 0.000E+00

     total cpu time spent up to now is     8551.2 secs

     total energy              =  -33980.24139702 Ry
     estimated scf accuracy    <       0.00839266 Ry

     iteration # 11     ecut=    77.00 Ry     beta= 0.20
     Davidson diagonalization with overlap
     c_bands:  1 eigenvalues not converged
     c_bands:  7 eigenvalues not converged
     c_bands: 12 eigenvalues not converged
     c_bands:  5 eigenvalues not converged
     ethr =  4.90E-07,  avg # of iterations =100.0

     negative rho (up, down):  3.412E-04 0.000E+00

     total cpu time spent up to now is    13123.9 secs

     total energy              =  -33980.28863566 Ry
     estimated scf accuracy    <       0.05509727 Ry

     iteration # 12     ecut=    77.00 Ry     beta= 0.20
     Davidson diagonalization with overlap
     c_bands:  2 eigenvalues not converged
     c_bands:  2 eigenvalues not converged
     ethr =  4.90E-07,  avg # of iterations = 20.2

     negative rho (up, down):  5.272E-04 0.000E+00

     total cpu time spent up to now is    13793.1 secs

     total energy              =  -33980.27563031 Ry
     estimated scf accuracy    <       0.02304383 Ry

     iteration # 13     ecut=    77.00 Ry     beta= 0.20
     Davidson diagonalization with overlap
     ethr =  4.90E-07,  avg # of iterations = 12.8

     negative rho (up, down):  8.749E-04 0.000E+00

     total cpu time spent up to now is    14776.7 secs

     total energy              =  -33980.29730992 Ry
     estimated scf accuracy    <       0.00417797 Ry

     iteration # 14     ecut=    77.00 Ry     beta= 0.20
     Davidson diagonalization with overlap
     c_bands:  2 eigenvalues not converged
     c_bands:  1 eigenvalues not converged
     ethr =  2.44E-07,  avg # of iterations = 19.8

     negative rho (up, down):  7.825E-04 0.000E+00

     total cpu time spent up to now is    16304.1 secs

     total energy              =  -33980.28924340 Ry
     estimated scf accuracy    <       0.06754651 Ry

     iteration # 15     ecut=    77.00 Ry     beta= 0.20
     Davidson diagonalization with overlap
     ethr =  2.44E-07,  avg # of iterations =  6.2

     negative rho (up, down):  8.617E-04 0.000E+00

     total cpu time spent up to now is    16977.6 secs

     total energy              =  -33980.28466239 Ry
     estimated scf accuracy    <       0.02605785 Ry

     iteration # 16     ecut=    77.00 Ry     beta= 0.20
     Davidson diagonalization with overlap
     ethr =  2.44E-07,  avg # of iterations = 12.0

     negative rho (up, down):  8.236E-04 0.000E+00

     total cpu time spent up to now is    17756.8 secs

     total energy              =  -33980.28471623 Ry
     estimated scf accuracy    <       0.00756281 Ry

     iteration # 17     ecut=    77.00 Ry     beta= 0.20
     Davidson diagonalization with overlap
     ethr =  2.44E-07,  avg # of iterations =  7.0

     negative rho (up, down):  8.193E-04 0.000E+00

     total cpu time spent up to now is    18245.2 secs

     total energy              =  -33980.28401884 Ry
     estimated scf accuracy    <       0.00270973 Ry

     iteration # 18     ecut=    77.00 Ry     beta= 0.20
     Davidson diagonalization with overlap
     ethr =  1.58E-07,  avg # of iterations = 15.2

     negative rho (up, down):  8.502E-04 0.000E+00

     total cpu time spent up to now is    19106.6 secs

     total energy              =  -33980.28747352 Ry
     estimated scf accuracy    <       0.00186203 Ry

     iteration # 19     ecut=    77.00 Ry     beta= 0.20
     Davidson diagonalization with overlap
     ethr =  1.09E-07,  avg # of iterations =  1.5

     negative rho (up, down):  8.601E-04 0.000E+00

     total cpu time spent up to now is    19496.1 secs

     total energy              =  -33980.28729863 Ry
     estimated scf accuracy    <       0.00083373 Ry

     iteration # 20     ecut=    77.00 Ry     beta= 0.20
     Davidson diagonalization with overlap
     ethr =  4.86E-08,  avg # of iterations =  5.5

     negative rho (up, down):  8.703E-04 0.000E+00

     total cpu time spent up to now is    19956.4 secs

     total energy              =  -33980.28724201 Ry
     estimated scf accuracy    <       0.00038135 Ry

     iteration # 21     ecut=    77.00 Ry     beta= 0.20
     Davidson diagonalization with overlap
     ethr =  2.22E-08,  avg # of iterations = 12.8

     negative rho (up, down):  8.715E-04 0.000E+00

     total cpu time spent up to now is    20663.9 secs

     total energy              =  -33980.28753392 Ry
     estimated scf accuracy    <       0.00002187 Ry

     iteration # 22     ecut=    77.00 Ry     beta= 0.20
     Davidson diagonalization with overlap
     c_bands:  1 eigenvalues not converged
     ethr =  1.28E-09,  avg # of iterations = 21.8

     negative rho (up, down):  8.656E-04 0.000E+00

     total cpu time spent up to now is    22465.9 secs

     total energy              =  -33980.28762339 Ry
     estimated scf accuracy    <       0.00001339 Ry

     iteration # 23     ecut=    77.00 Ry     beta= 0.20
     Davidson diagonalization with overlap
     c_bands:  3 eigenvalues not converged
     ethr =  7.81E-10,  avg # of iterations = 13.5

     negative rho (up, down):  8.666E-04 0.000E+00

     total cpu time spent up to now is    23340.3 secs

     total energy              =  -33980.28762758 Ry
     estimated scf accuracy    <       0.00007480 Ry

     iteration # 24     ecut=    77.00 Ry     beta= 0.20
     Davidson diagonalization with overlap
     ethr =  7.81E-10,  avg # of iterations =  1.2

     negative rho (up, down):  8.706E-04 0.000E+00

     total cpu time spent up to now is    23720.0 secs

     total energy              =  -33980.28761831 Ry
     estimated scf accuracy    <       0.00006402 Ry

     iteration # 25     ecut=    77.00 Ry     beta= 0.20
     Davidson diagonalization with overlap
     ethr =  7.81E-10,  avg # of iterations =  1.0

     negative rho (up, down):  8.798E-04 0.000E+00

     total cpu time spent up to now is    24090.6 secs

     total energy              =  -33980.28759475 Ry
     estimated scf accuracy    <       0.00004342 Ry

     iteration # 26     ecut=    77.00 Ry     beta= 0.20
     Davidson diagonalization with overlap
     ethr =  7.81E-10,  avg # of iterations = 14.5

     negative rho (up, down):  8.857E-04 0.000E+00

     total cpu time spent up to now is    24784.3 secs

     total energy              =  -33980.28759847 Ry
     estimated scf accuracy    <       0.00000267 Ry

     iteration # 27     ecut=    77.00 Ry     beta= 0.20
     Davidson diagonalization with overlap
     ethr =  1.56E-10,  avg # of iterations = 18.8

     negative rho (up, down):  8.849E-04 0.000E+00

     total cpu time spent up to now is    26181.5 secs

     total energy              =  -33980.28759865 Ry
     estimated scf accuracy    <       0.00001984 Ry

     iteration # 28     ecut=    77.00 Ry     beta= 0.20
     Davidson diagonalization with overlap
     ethr =  1.56E-10,  avg # of iterations = 14.2

     negative rho (up, down):  9.014E-04 0.000E+00

     total cpu time spent up to now is    27072.8 secs

     End of self-consistent calculation

          k = 0.0000 0.0000 0.0000 (386245 PWs)   bands (ev):

  -103.0493 -88.3618 -71.3706 -71.3583 -71.3486 -71.3363 -71.3289 -71.3225
   -71.3148 -66.6228 -66.6228 -66.6218 -66.6215 -66.6100 -66.6028 -66.6017
   -66.6016 -66.6016 -66.6015 -66.6015 -66.6015 -66.6015 -66.6015 -66.6015
   -66.6015 -66.6014 -66.6013 -66.6006 -66.6002 -66.6002 -66.6002 -66.6002
   -66.6002 -66.6002 -66.5955 -66.5879 -66.5873 -66.5804 -66.5803 -66.5802
   -66.5802 -66.5801 -66.5801 -66.5801 -66.5801 -66.5801 -66.5801 -66.5801
   -66.5801 -66.5801 -66.5801 -66.5801 -66.5800 -66.5800 -66.5799 -66.5798
   -66.5788 -66.5788 -66.5788 -66.5788 -66.5788 -66.5788 -66.5788 -66.5787
   -66.5787 -66.5773 -66.5712 -66.5644 -66.5577 -66.5543 -66.5499 -66.5429
   -66.5363 -57.2950 -57.2818 -57.2450 -54.2237 -54.1713 -54.0968 -40.9503
   -40.9502 -40.9502 -40.9502 -40.9501 -40.9501 -40.9495 -40.9495 -40.9495
   -40.9420 -40.9406 -40.9348 -40.8750 -40.8749 -40.8749 -40.8749 -40.8748
   -40.8748 -40.8748 -40.8748 -40.8748 -40.8748 -40.8748 -40.8747 -40.8741
   -40.8741 -40.8741 -40.8741 -40.8741 -40.8741 -40.8698 -40.8677 -40.8626
   -40.8586 -40.8440 -40.8424 -40.8032 -40.7824 -40.7823 -40.7817 -40.7790
   -40.7520 -40.7487 -40.7486 -40.7485 -40.7485 -40.7485 -40.7485 -40.7485
   -40.7485 -40.7485 -40.7485 -40.7485 -40.7484 -40.7477 -40.7477 -40.7477
   -40.7477 -40.7477 -40.7477 -40.7465 -40.7451 -40.7438 -40.7430 -40.7409
   -40.7409 -40.7408 -40.7408 -40.7407 -40.7407 -40.7406 -40.7406 -40.7406
   -40.7406 -40.7406 -40.7406 -40.7405 -40.7400 -40.7400 -40.7400 -40.7400
   -40.7400 -40.7400 -40.7396 -40.7335 -40.7294 -40.7273 -40.7140 -40.7137
   -40.7136 -40.7135 -40.7135 -40.7135 -40.7135 -40.7135 -40.7135 -40.7135
   -40.7135 -40.7134 -40.7134 -40.7126 -40.7126 -40.7126 -40.7126 -40.7126
   -40.7126 -40.7126 -40.7113 -40.7074 -40.7069 -40.7010 -40.6990 -40.6989
   -40.6988 -40.6988 -40.6988 -40.6987 -40.6987 -40.6987 -40.6987 -40.6987
   -40.6987 -40.6987 -40.6987 -40.6986 -40.6986 -40.6986 -40.6986 -40.6986
   -40.6986 -40.6984 -40.6980 -40.6980 -40.6980 -40.6980 -40.6980 -40.6980
   -40.6980 -40.6979 -40.6979 -40.6979 -40.6918 -40.6915 -40.6868 -40.6848
   -40.6801 -40.6793 -40.6783 -40.6352 -40.6352 -40.6351 -40.6351 -40.6351
   -40.6351 -40.6342 -40.6342 -40.6342 -40.6240 -40.6217 -40.6187 -40.5882
   -40.5882 -40.5881 -40.5880 -40.5880 -40.5880 -40.5880 -40.5880 -40.5880
   -40.5880 -40.5879 -40.5878 -40.5870 -40.5870 -40.5870 -40.5870 -40.5870
   -40.5870 -40.5742 -40.5730 -40.5676 -40.5668 -40.5621 -40.5594 -40.5404
   -40.5404 -40.5404 -40.5404 -40.5394 -40.5394 -40.5137 -40.5084 -20.1712
   -20.0944 -19.9926 -19.8868 -19.5470 -19.3439 -19.3123 -19.2547 -19.2498
   -19.2467 -19.2360 -19.2312 -19.2291 -19.2044 -19.1939 -19.1851 -19.1493
   -19.1407 -19.1386 -19.1210 -19.1111 -19.1002 -19.0445 -19.0393 -19.0384
   -19.0325 -19.0287 -19.0237 -18.9099 -18.8043 -18.7312 -18.6342 -18.5948
   -18.5583 -18.5067 -18.4949 -18.4776 -18.4692 -18.4471 -18.4341 -18.4185
   -18.4023 -18.3944 -18.3629 -18.3356 -18.3242 -18.2852 -18.2846 -18.2754
   -18.2512 -18.2416 -18.2370 -18.1907 -18.1839 -18.1816 -18.1732 -18.1723
   -18.1710 -18.1429 -18.1258 -18.1213 -18.1203 -18.1185 -18.1176 -18.1168
   -18.1038 -18.0922 -18.0884 -18.0846 -18.0810 -18.0805 -18.0754 -18.0751
   -18.0737 -18.0652 -18.0505 -18.0498 -18.0486 -18.0469 -18.0437 -18.0334
   -18.0284 -18.0278 -18.0148 -18.0095 -18.0041 -18.0036 -17.9994 -17.9974
   -17.9873 -17.9845 -17.9843 -17.9556 -17.9466 -17.9424 -17.9320 -17.9204
   -17.9186 -17.9169 -17.9158 -17.9137 -17.8947 -17.8926 -17.8889 -17.8778
   -17.8742 -17.8701 -17.8680 -17.8654 -17.8620 -17.8571 -17.8560 -17.8551
   -17.8396 -17.8393 -17.8386 -17.8278 -17.8266 -17.8240 -17.8223 -17.8206
   -17.8184 -17.7955 -17.7955 -17.7944 -17.7940 -17.7932 -17.7924 -12.1497
   -12.0156 -11.9286 -11.8748 -11.8071 -11.7986 -11.7836 -11.7720 -11.6826
   -11.6714 -11.6641 -11.5622 -11.5594 -11.5524 -11.5169 -11.4264 -11.3819
   -11.3369 -11.2928 -11.2410 -11.2385 -11.2362 -11.2332 -11.2307 -11.2174
   -11.1559 -11.1457 -11.1332 -11.1319 -11.1299 -11.1250 -11.1183 -11.1144
   -11.0919 -11.0737 -11.0702 -11.0666 -11.0614 -11.0596 -11.0553 -11.0534
   -11.0479 -11.0399 -11.0298 -11.0217 -11.0100 -10.9788 -10.9719 -10.9557
   -10.9504 -10.9445 -10.9335 -10.9138 -10.9047 -10.8967 -10.8929 -10.8896
   -10.8747 -10.8690 -10.8595 -10.8496 -10.8482 -10.8455 -10.8398 -10.8345
   -10.8332 -10.8283 -10.8278 -10.8269 -10.8192 -10.8094 -10.8080 -10.8047
   -10.8037 -10.8024 -10.8002 -10.7806 -10.7801 -10.7757 -10.7742 -10.7701
   -10.7690 -10.7646 -10.7545 -10.7522 -10.7365 -10.7364 -10.7348 -10.7342
   -10.7321 -10.7307 -10.6684 -10.6630 -10.6566 -10.6172 -10.5991 -10.5944
   -10.5838 -10.5787 -10.5767 -10.5409 -10.4789 -10.2684 -10.1883 -10.1703
   -10.1275 -10.0909  -9.9737  -9.9625  -9.9072  -9.8904  -9.8485  -9.8218
    -9.8109  -9.8037  -9.8012  -9.7945  -9.7782  -9.7732  -9.7704  -9.7695
    -9.7663  -9.7618  -9.7598  -9.7550  -9.7510  -9.7480  -9.7447  -9.7398
    -9.7366  -9.7246  -9.7073  -9.6964  -9.6694  -9.6443  -9.6305  -9.6293
    -9.6277  -9.6250  -9.6183  -9.6176  -9.6171  -9.6163  -9.6155  -9.6139
    -9.6121  -9.6089  -9.6000  -9.5756  -9.5536  -9.5402  -9.5401  -9.5399
    -9.5395  -9.5394  -9.5390  -9.5366  -9.5291  -9.5175  -9.5171  -9.5034
    -9.4994  -9.4782  -9.4713  -9.4520  -9.4458  -9.4077  -9.3653  -9.3644
    -9.3630  -9.3569  -9.3458  -9.3384  -9.3322  -9.3309  -9.3224  -9.3123
    -9.3040  -9.2935  -9.2659  -9.2463  -9.2385  -9.2331  -9.2205  -9.2142
    -9.2076  -9.1857  -9.1833  -9.1806  -9.1791  -9.1764  -9.1756  -9.1557
    -9.1346  -9.1320  -9.1223  -9.1028  -9.0989  -9.0661  -9.0463  -9.0102
    -8.9815  -8.9808  -8.9778  -8.9648  -8.9574  -8.9513  -8.9483  -8.9464
    -8.9380  -8.9280  -8.9158  -8.9153  -8.9137  -8.9097  -8.9033  -8.8951
    -8.8837  -8.8799  -8.8645  -8.8199  -8.8198  -8.8195  -8.8194  -8.8191
    -8.8186  -8.7637  -8.7506  -8.7494  -8.7435  -8.7406  -8.7254  -8.7078
    -8.6725  -8.6660  -8.6651  -8.6614  -8.6565  -8.6417  -8.5974  -8.5944
    -8.5910  -8.5898  -8.5888  -8.5851  -8.5511  -8.5323  -8.4507  -8.3922
    -8.3648  -8.3648  -8.3618  -8.3600  -8.3596  -8.3536  -8.3534  -8.3467
    -8.3419  -8.2990  -8.2822  -8.2745  -8.2742  -8.2741  -8.2738  -8.2718
    -8.2664  -8.2489  -8.2477  -8.2474  -8.2468  -8.2444  -8.2411  -8.2212
    -8.2195  -8.2193  -8.2189  -8.2180  -8.2171  -8.1975  -8.1537  -8.0987
    -8.0096  -7.9365  -7.8612  -7.8568  -7.8548  -7.7974  -7.7740  -7.7658
    -7.7465  -7.7089  -7.6950  -7.6862  -7.6476  -7.6442  -7.6413  -7.6350
    -7.6245  -7.6200  -7.6178  -7.6125  -7.5990  -7.5932  -7.5821  -7.5635
    -7.5572  -7.5462  -7.5385  -7.5380  -7.5330  -7.5323  -7.5322  -7.5317
    -7.5281  -7.5203  -7.5072  -7.5069  -7.5053  -7.5049  -7.5032  -7.4972
    -7.4888  -7.4833  -7.4810  -7.4804  -7.4803  -7.4796  -7.4779  -7.4715
    -7.4610  -7.4492  -7.4303  -7.4269  -7.4180  -7.4129  -7.4103  -7.4054
    -7.4051  -7.3983  -7.3617  -7.3508  -7.3487  -7.3305  -7.3233  -7.3145
    -7.3091  -7.3031  -7.2961  -7.2929  -7.2896  -7.2860  -7.2851  -7.2807
    -7.2497  -7.2488  -7.2482  -7.2304  -7.2302  -7.2121  -7.2120  -7.1777
    -7.1441  -7.1423  -7.1057  -7.0948  -7.0801  -7.0671  -7.0461  -6.9804
    -6.9505  -6.9041  -6.8810  -6.8640  -6.8557  -6.8435  -6.8288  -6.7882
    -6.7778  -6.7770  -6.7680  -6.7361  -6.7119  -6.6974  -6.6960  -6.6904
    -6.6698  -6.6338  -6.6264  -6.6232  -6.6208  -6.6197  -6.6088  -6.6075
    -6.5757  -6.5703  -6.5673  -6.5613  -6.5499  -6.5403  -6.5316  -6.5212
    -6.5147  -6.5129  -6.5116  -6.5085  -6.5069  -6.5047  -6.5034  -6.5020
    -6.4959  -6.4958  -6.4956  -6.4955  -6.4952  -6.4948  -6.4841  -6.4707
    -6.4515  -6.4418  -6.4340  -6.4109  -6.4081  -6.4079  -6.4028  -6.3797
    -6.3636  -6.3424  -6.3362  -6.3316  -6.3305  -6.3280  -6.3257  -6.3199
    -6.3102  -6.2967  -6.2922  -6.2873  -6.2859  -6.2833  -6.2771  -6.2631
    -6.2546  -6.2514  -6.2506  -6.2497  -6.2481  -6.2431  -6.2321  -6.1757
    -6.0457  -5.9198  -5.8064  -5.6369  -5.5898  -5.4664  -5.4582  -5.3105
    -5.1494  -4.2204  -3.9398  -3.8505  -3.8495  -3.8452  -3.8421  -3.8289
    -3.8260  -3.8241  -3.8234  -3.8208  -3.8188  -3.8007  -3.7699  -3.7014
    -3.6983  -3.6855  -3.6833  -3.6812  -3.6770  -3.6734  -3.6730  -3.6723
    -3.6692  -3.5770  -3.5486  -3.5156  -3.5087  -3.5048  -3.4989  -3.4899
    -3.4812  -3.4769  -3.4726  -3.4707  -3.4699  -3.4667  -3.4633  -3.4550
    -3.4506  -3.4470  -3.4448  -3.4408  -3.4403  -3.4402  -3.4339  -3.4259
    -3.4255  -3.4240  -3.4152  -3.4108  -3.4095  -3.4084  -3.4054  -3.4048
    -3.3992  -3.3984  -3.3971  -3.3912  -3.3866  -3.3564  -3.3503  -3.3494
    -3.3471  -3.3430  -3.3412  -3.3393  -3.3379  -3.3325  -3.3303  -3.3141
    -3.3057  -3.2894  -3.2849  -3.2821  -3.2806  -3.2788  -3.2686  -3.2548
    -3.2358  -3.2208  -3.2028  -3.2002  -3.1918  -3.0829  -3.0798  -3.0718
    -3.0592  -3.0569  -3.0559  -3.0489  -3.0435  -3.0409  -3.0357  -3.0096
    -3.0004  -2.9939  -2.9741  -2.9719  -2.9706  -2.9692  -2.9688  -2.9650
    -2.9622  -2.9613  -2.9606  -2.9605  -2.9519  -2.9515  -2.9486  -2.9438
    -2.9364  -2.9327  -2.9315  -2.9289  -2.9270  -2.9258  -2.9239  -2.9228
    -2.9226  -2.9176  -2.9145  -2.8899  -2.8860  -2.8821  -2.8680  -2.8633
    -2.8588  -2.8550  -2.8511  -2.8412  -2.8030  -2.8023  -2.8014  -2.8006
    -2.7999  -2.7997  -2.7993  -2.7988  -2.7982  -2.7831  -2.7819  -2.7729
    -2.7555  -2.7436  -2.7340  -2.7301  -2.7251  -2.7146  -2.7131  -2.6693
    -2.6634  -2.6386  -2.6374  -2.6273  -2.6188  -2.6186  -2.6139  -2.6116
    -2.6101  -2.5856  -2.5638  -2.5523  -2.5392  -2.5363  -2.5343  -2.4244
    -2.4153  -2.4104  -2.4046  -2.4034

          k = 0.0000-0.5773 0.0000 (386352 PWs)   bands (ev):

  -103.0493 -88.3618 -71.3706 -71.3583 -71.3486 -71.3363 -71.3289 -71.3225
   -71.3148 -66.6204 -66.6166 -66.6166 -66.6165 -66.6165 -66.6153 -66.6152
   -66.6121 -66.6060 -66.6059 -66.6059 -66.6059 -66.6046 -66.6046 -66.6038
   -66.5999 -66.5956 -66.5910 -66.5909 -66.5908 -66.5908 -66.5908 -66.5908
   -66.5907 -66.5907 -66.5895 -66.5895 -66.5895 -66.5895 -66.5879 -66.5864
   -66.5864 -66.5864 -66.5863 -66.5855 -66.5851 -66.5850 -66.5806 -66.5803
   -66.5802 -66.5801 -66.5801 -66.5801 -66.5801 -66.5801 -66.5799 -66.5788
   -66.5788 -66.5787 -66.5787 -66.5766 -66.5757 -66.5756 -66.5756 -66.5756
   -66.5743 -66.5743 -66.5721 -66.5642 -66.5578 -66.5547 -66.5498 -66.5430
   -66.5362 -57.2950 -57.2819 -57.2450 -54.2237 -54.1713 -54.0968 -40.9260
   -40.9187 -40.9186 -40.9186 -40.9186 -40.9185 -40.9185 -40.9185 -40.9184
   -40.9179 -40.9179 -40.9178 -40.9178 -40.9098 -40.9011 -40.8918 -40.8917
   -40.8917 -40.8917 -40.8910 -40.8910 -40.8907 -40.8844 -40.8797 -40.8797
   -40.8797 -40.8797 -40.8795 -40.8790 -40.8790 -40.8666 -40.8514 -40.8290
   -40.8290 -40.8290 -40.8290 -40.8290 -40.8290 -40.8290 -40.8290 -40.8282
   -40.8282 -40.8282 -40.8282 -40.8153 -40.8145 -40.8125 -40.8021 -40.7905
   -40.7772 -40.7703 -40.7702 -40.7702 -40.7701 -40.7695 -40.7695 -40.7642
   -40.7608 -40.7607 -40.7607 -40.7607 -40.7598 -40.7598 -40.7504 -40.7494
   -40.7494 -40.7493 -40.7493 -40.7487 -40.7486 -40.7416 -40.7403 -40.7358
   -40.7265 -40.7206 -40.7199 -40.7198 -40.7197 -40.7197 -40.7197 -40.7197
   -40.7196 -40.7196 -40.7195 -40.7190 -40.7190 -40.7190 -40.7190 -40.7116
   -40.7111 -40.7110 -40.7110 -40.7109 -40.7103 -40.7102 -40.7094 -40.7036
   -40.7006 -40.6993 -40.6992 -40.6992 -40.6992 -40.6988 -40.6988 -40.6988
   -40.6987 -40.6987 -40.6986 -40.6986 -40.6984 -40.6983 -40.6983 -40.6979
   -40.6979 -40.6979 -40.6979 -40.6972 -40.6927 -40.6900 -40.6900 -40.6900
   -40.6900 -40.6892 -40.6892 -40.6862 -40.6842 -40.6804 -40.6783 -40.6685
   -40.6683 -40.6683 -40.6683 -40.6683 -40.6683 -40.6683 -40.6682 -40.6674
   -40.6673 -40.6673 -40.6673 -40.6630 -40.6576 -40.6528 -40.6431 -40.6336
   -40.6336 -40.6335 -40.6335 -40.6335 -40.6335 -40.6335 -40.6335 -40.6326
   -40.6326 -40.6326 -40.6326 -40.6230 -40.6215 -40.6214 -40.6214 -40.6213
   -40.6204 -40.6204 -40.6160 -40.6140 -40.6110 -40.6033 -40.6022 -40.6021
   -40.6021 -40.6020 -40.6011 -40.6011 -40.5886 -40.5867 -40.5851 -40.5851
   -40.5851 -40.5851 -40.5842 -40.5841 -40.5841 -40.5653 -40.5544 -40.5544
   -40.5544 -40.5544 -40.5534 -40.5534 -40.5466 -40.5425 -40.5136 -20.0238
   -19.8858 -19.8651 -19.8255 -19.7659 -19.7344 -19.6566 -19.6446 -19.5172
   -19.4714 -19.4269 -19.4161 -19.3348 -19.3238 -19.2310 -19.2251 -19.0679
   -18.8741 -18.8531 -18.7710 -18.7617 -18.7394 -18.7226 -18.7191 -18.7179
   -18.7074 -18.6936 -18.6597 -18.6519 -18.6435 -18.6378 -18.6227 -18.5836
   -18.5791 -18.5692 -18.5517 -18.5459 -18.5445 -18.5437 -18.5189 -18.4936
   -18.4835 -18.4803 -18.4748 -18.4653 -18.4342 -18.4102 -18.4087 -18.3991
   -18.3955 -18.3726 -18.3552 -18.3310 -18.3201 -18.3164 -18.3098 -18.2592
   -18.2440 -18.2332 -18.2296 -18.2109 -18.1924 -18.1726 -18.1614 -18.1475
   -18.1221 -18.1134 -18.1082 -18.0994 -18.0994 -18.0968 -18.0951 -18.0730
   -18.0717 -18.0712 -18.0682 -18.0648 -18.0621 -18.0585 -18.0467 -18.0444
   -18.0387 -18.0308 -18.0299 -18.0099 -18.0057 -18.0003 -17.9980 -17.9976
   -17.9939 -17.9892 -17.9869 -17.9838 -17.9740 -17.9514 -17.9390 -17.9342
   -17.9307 -17.9202 -17.9180 -17.8918 -17.8877 -17.8748 -17.8733 -17.8542
   -17.8469 -17.8386 -17.8380 -17.8351 -17.8299 -17.8175 -17.8165 -17.8157
   -17.8155 -17.8146 -17.8143 -17.8020 -17.8014 -17.7822 -17.7813 -17.7582
   -17.7571 -17.7391 -17.7373 -17.7246 -17.7234 -17.7169 -17.7167 -12.0592
   -11.8691 -11.7201 -11.7081 -11.6664 -11.5697 -11.5200 -11.5141 -11.5037
   -11.4984 -11.4878 -11.4782 -11.4719 -11.4552 -11.4413 -11.4291 -11.3999
   -11.3915 -11.3826 -11.3565 -11.3499 -11.3377 -11.3255 -11.3194 -11.3066
   -11.2877 -11.2785 -11.2743 -11.2621 -11.2568 -11.2560 -11.2525 -11.2470
   -11.2113 -11.2038 -11.1978 -11.1902 -11.1842 -11.1687 -11.1664 -11.1654
   -11.1553 -11.1475 -11.1436 -11.1409 -11.1192 -11.1152 -11.0815 -11.0681
   -11.0670 -11.0460 -11.0304 -10.9910 -10.9728 -10.9608 -10.9376 -10.9314
   -10.9215 -10.9018 -10.8956 -10.8833 -10.8700 -10.8390 -10.8343 -10.8301
   -10.8278 -10.8263 -10.8131 -10.8100 -10.8094 -10.8080 -10.8075 -10.7970
   -10.7952 -10.7942 -10.7908 -10.7885 -10.7884 -10.7829 -10.7808 -10.7786
   -10.7670 -10.7433 -10.7411 -10.7404 -10.7389 -10.7277 -10.6663 -10.5429
   -10.5404 -10.5329 -10.5271 -10.4938 -10.4690 -10.4095 -10.3767 -10.3104
   -10.2628 -10.2433 -10.1980 -10.1670 -10.1493 -10.1407 -10.1186 -10.1122
   -10.1061 -10.0945 -10.0835 -10.0576 -10.0494 -10.0376 -10.0363 -10.0260
   -10.0223 -10.0146 -10.0103 -10.0030  -9.9744  -9.9433  -9.9347  -9.9184
    -9.9164  -9.9130  -9.9014  -9.8953  -9.8906  -9.8759  -9.8674  -9.8455
    -9.8233  -9.8131  -9.8030  -9.7931  -9.7754  -9.7702  -9.7625  -9.7448
    -9.7230  -9.7206  -9.7053  -9.6944  -9.6727  -9.6596  -9.6552  -9.6255
    -9.6225  -9.6134  -9.6026  -9.5776  -9.5594  -9.5493  -9.5477  -9.5424
    -9.5370  -9.5317  -9.5174  -9.4896  -9.4869  -9.4829  -9.4754  -9.4718
    -9.4604  -9.4566  -9.4545  -9.4385  -9.4309  -9.4255  -9.4240  -9.3753
    -9.3642  -9.3340  -9.3191  -9.2987  -9.2895  -9.2569  -9.2164  -9.2134
    -9.2085  -9.2031  -9.1907  -9.1788  -9.1678  -9.1533  -9.1483  -9.1308
    -9.1267  -9.1134  -9.1000  -9.0911  -9.0618  -9.0605  -9.0548  -9.0370
    -9.0316  -9.0311  -9.0221  -9.0014  -9.0004  -8.9823  -8.9575  -8.9540
    -8.9491  -8.9453  -8.9362  -8.9212  -8.9154  -8.8984  -8.8890  -8.8878
    -8.8857  -8.8820  -8.8801  -8.8777  -8.8743  -8.8711  -8.8664  -8.8647
    -8.8559  -8.8493  -8.8415  -8.8403  -8.8375  -8.8369  -8.8237  -8.8212
    -8.8034  -8.7911  -8.7885  -8.7876  -8.7817  -8.7797  -8.7793  -8.7611
    -8.7552  -8.7377  -8.7311  -8.7289  -8.7261  -8.7235  -8.7125  -8.7005
    -8.6555  -8.6508  -8.6312  -8.6164  -8.5804  -8.5021  -8.4999  -8.4755
    -8.4484  -8.4366  -8.4341  -8.3662  -8.3508  -8.3219  -8.3148  -8.3040
    -8.2671  -8.2294  -8.1312  -8.1249  -8.1240  -8.1159  -8.1145  -8.1046
    -8.1040  -8.0969  -8.0634  -8.0492  -8.0274  -8.0132  -7.9697  -7.9649
    -7.9323  -7.8891  -7.8796  -7.8414  -7.8390  -7.8336  -7.8269  -7.8195
    -7.8161  -7.8100  -7.8045  -7.8015  -7.7987  -7.7967  -7.7901  -7.7884
    -7.7860  -7.7833  -7.7801  -7.7785  -7.7777  -7.7670  -7.7667  -7.7646
    -7.7634  -7.7622  -7.7594  -7.7570  -7.7557  -7.7534  -7.7423  -7.7375
    -7.7355  -7.7337  -7.7254  -7.7230  -7.7153  -7.7132  -7.6948  -7.6932
    -7.6927  -7.6922  -7.6701  -7.6637  -7.6633  -7.6619  -7.6617  -7.6493
    -7.6436  -7.6251  -7.6096  -7.6057  -7.6041  -7.6021  -7.5945  -7.5934
    -7.5903  -7.5832  -7.5806  -7.5621  -7.5615  -7.5603  -7.5542  -7.5480
    -7.5400  -7.5370  -7.4627  -7.4558  -7.4551  -7.4471  -7.4458  -7.4273
    -7.4048  -7.3544  -7.2843  -7.2619  -7.1897  -7.1699  -7.1653  -7.1640
    -7.1563  -7.1498  -7.1196  -7.1135  -7.1045  -7.1011  -7.0910  -7.0764
    -7.0459  -7.0419  -7.0242  -7.0218  -7.0181  -7.0090  -6.9747  -6.9729
    -6.9530  -6.9426  -6.9296  -6.9160  -6.9125  -6.8921  -6.8796  -6.8717
    -6.8666  -6.8569  -6.8518  -6.8399  -6.8327  -6.7837  -6.7809  -6.7548
    -6.7420  -6.7384  -6.7034  -6.6798  -6.6769  -6.6512  -6.6397  -6.6364
    -6.6166  -6.6097  -6.6033  -6.6020  -6.6015  -6.6002  -6.5890  -6.5850
    -6.5843  -6.5838  -6.5797  -6.5762  -6.5761  -6.5760  -6.5750  -6.5618
    -6.5216  -6.5026  -6.4831  -6.4456  -6.4148  -6.3895  -6.3482  -6.3276
    -6.3211  -6.3203  -6.3129  -6.3063  -6.3003  -6.2874  -6.2750  -6.2742
    -6.2703  -6.2700  -6.2689  -6.2604  -6.2534  -6.2463  -6.2240  -6.2200
    -6.2159  -6.2046  -6.2007  -6.1937  -6.1928  -6.1656  -6.0586  -5.9887
    -5.9860  -5.9431  -5.9264  -5.9111  -5.8670  -5.8609  -5.8421  -5.8325
    -5.7550  -5.7469  -5.6524  -5.6331  -5.5926  -5.5788  -5.5413  -5.4512
    -5.3943  -4.2371  -4.1075  -4.0839  -4.0832  -4.0537  -3.9728  -3.9273
    -3.9193  -3.9090  -3.9048  -3.8555  -3.8396  -3.8370  -3.8278  -3.8211
    -3.8128  -3.8054  -3.7981  -3.7942  -3.7892  -3.7508  -3.7132  -3.6887
    -3.6729  -3.6371  -3.6160  -3.6033  -3.5995  -3.5952  -3.5949  -3.5659
    -3.5498  -3.5477  -3.5409  -3.5281  -3.5174  -3.5120  -3.5103  -3.5088
    -3.4869  -3.4834  -3.4789  -3.4742  -3.4701  -3.4686  -3.4624  -3.4562
    -3.4440  -3.4435  -3.4374  -3.4258  -3.4190  -3.4148  -3.4110  -3.3949
    -3.3586  -3.3526  -3.3455  -3.3426  -3.3398  -3.3360  -3.3355  -3.3337
    -3.3195  -3.3038  -3.2881  -3.2836  -3.2825  -3.2776  -3.2762  -3.2730
    -3.2718  -3.2659  -3.2486  -3.2427  -3.2401  -3.2355  -3.2307  -3.2271
    -3.2240  -3.2086  -3.2071  -3.2037  -3.1992  -3.1843  -3.1816  -3.1783
    -3.1716  -3.1694  -3.1590  -3.1574  -3.1572  -3.1533  -3.1337  -3.1204
    -3.0896  -3.0812  -3.0717  -3.0709  -3.0632  -3.0574  -3.0541  -3.0286
    -3.0223  -3.0189  -3.0174  -3.0163  -3.0148  -3.0107  -3.0095  -3.0038
    -3.0003  -2.9994  -2.9971  -2.9854  -2.9842  -2.9811  -2.9790  -2.9735
    -2.9690  -2.9626  -2.9606  -2.9592  -2.9529  -2.9427  -2.9421  -2.9382
    -2.9369  -2.9309  -2.9252  -2.9198  -2.9070  -2.8981  -2.8935  -2.8807
    -2.8773  -2.8725  -2.8710  -2.8587  -2.8382  -2.7964  -2.7938  -2.7824
    -2.7810  -2.7416  -2.7230  -2.7142  -2.7040  -2.6164  -2.6059  -2.5889
    -2.5756  -2.5705  -2.5558  -2.5516  -2.5403  -2.5319  -2.5240  -2.5216
    -2.5208  -2.5173  -2.5007  -2.4383  -2.4048  -2.3992  -2.3917  -2.3855
    -2.3808  -2.3682  -2.3620  -2.3398

          k =-0.5000-0.2887 0.0000 (386352 PWs)   bands (ev):

  -103.0493 -88.3618 -71.3706 -71.3583 -71.3486 -71.3363 -71.3289 -71.3225
   -71.3148 -66.6187 -66.6167 -66.6166 -66.6166 -66.6165 -66.6156 -66.6153
   -66.6152 -66.6060 -66.6059 -66.6059 -66.6059 -66.6046 -66.6046 -66.6027
   -66.5971 -66.5948 -66.5909 -66.5908 -66.5908 -66.5908 -66.5908 -66.5908
   -66.5908 -66.5908 -66.5903 -66.5895 -66.5895 -66.5895 -66.5895 -66.5867
   -66.5865 -66.5864 -66.5864 -66.5863 -66.5851 -66.5850 -66.5807 -66.5803
   -66.5801 -66.5801 -66.5801 -66.5801 -66.5801 -66.5801 -66.5800 -66.5788
   -66.5788 -66.5788 -66.5787 -66.5764 -66.5757 -66.5757 -66.5756 -66.5756
   -66.5743 -66.5743 -66.5708 -66.5647 -66.5576 -66.5542 -66.5501 -66.5431
   -66.5361 -57.2950 -57.2819 -57.2450 -54.2237 -54.1713 -54.0968 -40.9186
   -40.9186 -40.9186 -40.9185 -40.9185 -40.9185 -40.9185 -40.9185 -40.9179
   -40.9179 -40.9179 -40.9178 -40.9155 -40.9152 -40.9054 -40.8925 -40.8918
   -40.8917 -40.8917 -40.8917 -40.8910 -40.8910 -40.8885 -40.8845 -40.8797
   -40.8797 -40.8797 -40.8797 -40.8790 -40.8790 -40.8654 -40.8438 -40.8290
   -40.8290 -40.8290 -40.8290 -40.8290 -40.8290 -40.8290 -40.8290 -40.8282
   -40.8282 -40.8282 -40.8282 -40.8195 -40.8102 -40.8041 -40.7995 -40.7947
   -40.7736 -40.7703 -40.7702 -40.7702 -40.7701 -40.7700 -40.7695 -40.7695
   -40.7608 -40.7607 -40.7607 -40.7607 -40.7598 -40.7598 -40.7500 -40.7494
   -40.7494 -40.7493 -40.7493 -40.7487 -40.7486 -40.7429 -40.7390 -40.7351
   -40.7272 -40.7244 -40.7206 -40.7198 -40.7197 -40.7197 -40.7197 -40.7197
   -40.7197 -40.7197 -40.7197 -40.7190 -40.7190 -40.7190 -40.7190 -40.7158
   -40.7111 -40.7110 -40.7110 -40.7109 -40.7103 -40.7102 -40.7053 -40.7030
   -40.6993 -40.6992 -40.6992 -40.6992 -40.6988 -40.6988 -40.6987 -40.6987
   -40.6987 -40.6986 -40.6986 -40.6986 -40.6986 -40.6983 -40.6983 -40.6980
   -40.6979 -40.6979 -40.6979 -40.6971 -40.6924 -40.6900 -40.6900 -40.6900
   -40.6900 -40.6892 -40.6892 -40.6873 -40.6852 -40.6817 -40.6776 -40.6685
   -40.6684 -40.6683 -40.6683 -40.6683 -40.6683 -40.6682 -40.6681 -40.6674
   -40.6673 -40.6673 -40.6673 -40.6583 -40.6567 -40.6535 -40.6523 -40.6336
   -40.6336 -40.6335 -40.6335 -40.6335 -40.6335 -40.6335 -40.6335 -40.6326
   -40.6326 -40.6326 -40.6326 -40.6251 -40.6214 -40.6214 -40.6214 -40.6214
   -40.6204 -40.6204 -40.6161 -40.6122 -40.6101 -40.6023 -40.6021 -40.6021
   -40.6019 -40.6011 -40.6011 -40.5993 -40.5936 -40.5909 -40.5851 -40.5851
   -40.5851 -40.5851 -40.5841 -40.5841 -40.5760 -40.5640 -40.5545 -40.5544
   -40.5544 -40.5544 -40.5534 -40.5534 -40.5424 -40.5399 -40.5202 -20.0180
   -19.8889 -19.8651 -19.8315 -19.7662 -19.7394 -19.6569 -19.6463 -19.5161
   -19.4621 -19.4269 -19.4108 -19.3349 -19.3203 -19.2309 -19.2239 -19.0688
   -18.8884 -18.8501 -18.7852 -18.7526 -18.7389 -18.7226 -18.7190 -18.7178
   -18.7103 -18.6862 -18.6584 -18.6532 -18.6496 -18.6300 -18.6217 -18.6001
   -18.5760 -18.5712 -18.5532 -18.5507 -18.5442 -18.5295 -18.5226 -18.5090
   -18.4797 -18.4767 -18.4717 -18.4654 -18.4389 -18.4108 -18.4043 -18.4039
   -18.3824 -18.3790 -18.3488 -18.3315 -18.3196 -18.3141 -18.2802 -18.2571
   -18.2517 -18.2432 -18.2291 -18.1978 -18.1948 -18.1822 -18.1626 -18.1333
   -18.1213 -18.1139 -18.1102 -18.1006 -18.0990 -18.0962 -18.0950 -18.0864
   -18.0714 -18.0702 -18.0668 -18.0642 -18.0620 -18.0538 -18.0479 -18.0460
   -18.0398 -18.0379 -18.0293 -18.0082 -18.0063 -18.0027 -17.9991 -17.9962
   -17.9948 -17.9923 -17.9870 -17.9842 -17.9755 -17.9463 -17.9436 -17.9349
   -17.9319 -17.9270 -17.9179 -17.8904 -17.8890 -17.8815 -17.8726 -17.8504
   -17.8469 -17.8419 -17.8360 -17.8331 -17.8224 -17.8171 -17.8163 -17.8162
   -17.8154 -17.8143 -17.8122 -17.8023 -17.8006 -17.7831 -17.7803 -17.7588
   -17.7564 -17.7398 -17.7365 -17.7249 -17.7228 -17.7169 -17.7167 -12.0361
   -11.8552 -11.7284 -11.7067 -11.6853 -11.5909 -11.5421 -11.5139 -11.5063
   -11.4967 -11.4945 -11.4835 -11.4691 -11.4659 -11.4435 -11.4267 -11.4096
   -11.3887 -11.3795 -11.3612 -11.3484 -11.3357 -11.3307 -11.3175 -11.3080
   -11.2810 -11.2756 -11.2694 -11.2596 -11.2577 -11.2551 -11.2526 -11.2463
   -11.2110 -11.2034 -11.2007 -11.1915 -11.1819 -11.1675 -11.1667 -11.1650
   -11.1554 -11.1447 -11.1438 -11.1349 -11.1204 -11.1054 -11.0773 -11.0661
   -11.0590 -11.0506 -11.0304 -10.9975 -10.9640 -10.9538 -10.9332 -10.9248
   -10.9183 -10.9002 -10.8954 -10.8878 -10.8757 -10.8587 -10.8344 -10.8323
   -10.8284 -10.8183 -10.8115 -10.8096 -10.8091 -10.8079 -10.8064 -10.8042
   -10.7951 -10.7932 -10.7915 -10.7897 -10.7888 -10.7821 -10.7816 -10.7787
   -10.7768 -10.7418 -10.7412 -10.7404 -10.7401 -10.6894 -10.6591 -10.5414
   -10.5368 -10.5279 -10.5251 -10.4880 -10.4658 -10.3963 -10.3761 -10.3232
   -10.2843 -10.2570 -10.2448 -10.1614 -10.1523 -10.1296 -10.1287 -10.1117
   -10.1019 -10.0880 -10.0799 -10.0538 -10.0446 -10.0348 -10.0305 -10.0261
   -10.0249 -10.0133 -10.0075  -9.9891  -9.9702  -9.9439  -9.9294  -9.9217
    -9.9126  -9.9043  -9.8969  -9.8898  -9.8792  -9.8707  -9.8556  -9.8511
    -9.8252  -9.8148  -9.7982  -9.7802  -9.7771  -9.7639  -9.7613  -9.7376
    -9.7316  -9.7175  -9.6925  -9.6858  -9.6760  -9.6537  -9.6503  -9.6185
    -9.6160  -9.6125  -9.5958  -9.5918  -9.5666  -9.5656  -9.5458  -9.5425
    -9.5379  -9.5312  -9.5172  -9.4908  -9.4885  -9.4862  -9.4709  -9.4681
    -9.4636  -9.4588  -9.4555  -9.4523  -9.4353  -9.4320  -9.4210  -9.3949
    -9.3701  -9.3594  -9.3442  -9.3015  -9.2775  -9.2545  -9.2368  -9.2158
    -9.2130  -9.2065  -9.1989  -9.1934  -9.1617  -9.1558  -9.1439  -9.1356
    -9.1222  -9.1106  -9.0993  -9.0887  -9.0878  -9.0606  -9.0474  -9.0403
    -9.0313  -9.0297  -9.0223  -8.9992  -8.9845  -8.9753  -8.9727  -8.9534
    -8.9469  -8.9444  -8.9364  -8.9236  -8.9131  -8.8924  -8.8882  -8.8875
    -8.8866  -8.8831  -8.8752  -8.8708  -8.8681  -8.8664  -8.8636  -8.8591
    -8.8547  -8.8533  -8.8498  -8.8419  -8.8374  -8.8369  -8.8323  -8.8213
    -8.8043  -8.7906  -8.7881  -8.7873  -8.7855  -8.7810  -8.7792  -8.7609
    -8.7577  -8.7498  -8.7311  -8.7298  -8.7266  -8.7241  -8.7131  -8.6988
    -8.6553  -8.6464  -8.6396  -8.6065  -8.5939  -8.5040  -8.5007  -8.4804
    -8.4468  -8.4436  -8.4347  -8.3776  -8.3570  -8.3461  -8.2924  -8.2739
    -8.2589  -8.1808  -8.1252  -8.1250  -8.1171  -8.1165  -8.1082  -8.1058
    -8.1037  -8.0967  -8.0732  -8.0528  -8.0371  -7.9952  -7.9682  -7.9631
    -7.9245  -7.8867  -7.8741  -7.8464  -7.8385  -7.8346  -7.8312  -7.8237
    -7.8145  -7.8104  -7.8071  -7.8024  -7.8000  -7.7958  -7.7926  -7.7912
    -7.7875  -7.7843  -7.7815  -7.7787  -7.7760  -7.7705  -7.7669  -7.7656
    -7.7628  -7.7616  -7.7615  -7.7561  -7.7553  -7.7548  -7.7457  -7.7357
    -7.7312  -7.7260  -7.7253  -7.7191  -7.7181  -7.6945  -7.6937  -7.6933
    -7.6927  -7.6650  -7.6644  -7.6639  -7.6619  -7.6568  -7.6540  -7.6449
    -7.6354  -7.6298  -7.6152  -7.6058  -7.6051  -7.5990  -7.5967  -7.5950
    -7.5892  -7.5825  -7.5805  -7.5757  -7.5612  -7.5610  -7.5574  -7.5492
    -7.5435  -7.5387  -7.4715  -7.4567  -7.4547  -7.4525  -7.4477  -7.4332
    -7.3893  -7.3251  -7.2990  -7.2416  -7.2082  -7.1758  -7.1663  -7.1655
    -7.1601  -7.1585  -7.1239  -7.1144  -7.1090  -7.1076  -7.0978  -7.0754
    -7.0521  -7.0408  -7.0292  -7.0259  -7.0185  -6.9968  -6.9923  -6.9748
    -6.9738  -6.9594  -6.9341  -6.9172  -6.9110  -6.8941  -6.8830  -6.8741
    -6.8630  -6.8564  -6.8530  -6.8486  -6.8283  -6.8117  -6.7713  -6.7653
    -6.7504  -6.7458  -6.7068  -6.6760  -6.6625  -6.6515  -6.6355  -6.6230
    -6.6178  -6.6043  -6.6028  -6.6018  -6.6014  -6.5875  -6.5857  -6.5848
    -6.5841  -6.5828  -6.5768  -6.5762  -6.5760  -6.5760  -6.5628  -6.5158
    -6.5135  -6.5037  -6.4742  -6.4493  -6.4364  -6.4074  -6.3957  -6.3234
    -6.3216  -6.3176  -6.3142  -6.3050  -6.2989  -6.2748  -6.2745  -6.2718
    -6.2704  -6.2693  -6.2676  -6.2544  -6.2493  -6.2458  -6.2339  -6.2225
    -6.2100  -6.2021  -6.2008  -6.1921  -6.1878  -6.0843  -6.0176  -5.9968
    -5.9771  -5.9738  -5.9321  -5.9097  -5.8960  -5.8523  -5.8472  -5.8372
    -5.7552  -5.7245  -5.6796  -5.6423  -5.5953  -5.5935  -5.5456  -5.4638
    -5.3920  -4.2531  -4.1033  -4.0904  -4.0818  -4.0589  -3.9643  -3.9304
    -3.9194  -3.9161  -3.9065  -3.8594  -3.8391  -3.8377  -3.8248  -3.8210
    -3.8084  -3.8048  -3.7994  -3.7947  -3.7935  -3.7514  -3.7159  -3.6871
    -3.6818  -3.6468  -3.6126  -3.5995  -3.5964  -3.5960  -3.5919  -3.5637
    -3.5494  -3.5477  -3.5335  -3.5244  -3.5186  -3.5149  -3.5087  -3.5033
    -3.4912  -3.4813  -3.4753  -3.4732  -3.4701  -3.4677  -3.4655  -3.4559
    -3.4431  -3.4406  -3.4334  -3.4204  -3.4158  -3.4132  -3.3988  -3.3892
    -3.3589  -3.3514  -3.3480  -3.3418  -3.3393  -3.3376  -3.3359  -3.3316
    -3.3081  -3.3029  -3.2880  -3.2875  -3.2822  -3.2784  -3.2764  -3.2730
    -3.2712  -3.2671  -3.2530  -3.2427  -3.2395  -3.2333  -3.2299  -3.2277
    -3.2242  -3.2089  -3.2068  -3.2041  -3.1917  -3.1881  -3.1821  -3.1791
    -3.1696  -3.1657  -3.1621  -3.1575  -3.1573  -3.1542  -3.1337  -3.1114
    -3.0878  -3.0851  -3.0704  -3.0664  -3.0627  -3.0604  -3.0537  -3.0235
    -3.0215  -3.0191  -3.0181  -3.0166  -3.0150  -3.0097  -3.0084  -3.0066
    -3.0017  -3.0001  -2.9959  -2.9868  -2.9823  -2.9793  -2.9745  -2.9718
    -2.9698  -2.9637  -2.9596  -2.9557  -2.9523  -2.9430  -2.9422  -2.9378
    -2.9363  -2.9291  -2.9250  -2.9202  -2.9079  -2.9003  -2.8963  -2.8847
    -2.8788  -2.8754  -2.8705  -2.8613  -2.8449  -2.7976  -2.7922  -2.7842
    -2.7821  -2.7474  -2.7231  -2.7098  -2.7081  -2.6222  -2.6052  -2.5894
    -2.5788  -2.5694  -2.5597  -2.5535  -2.5391  -2.5324  -2.5305  -2.5224
    -2.5216  -2.5190  -2.5012  -2.4262  -2.4158  -2.4012  -2.3951  -2.3890
    -2.3813  -2.3746  -2.3529  -2.3415

          k =-0.5000-0.8660 0.0000 (386352 PWs)   bands (ev):

  -103.0493 -88.3618 -71.3706 -71.3583 -71.3486 -71.3363 -71.3289 -71.3225
   -71.3148 -66.6193 -66.6166 -66.6166 -66.6165 -66.6165 -66.6153 -66.6153
   -66.6149 -66.6060 -66.6059 -66.6059 -66.6059 -66.6046 -66.6046 -66.6022
   -66.5981 -66.5948 -66.5915 -66.5910 -66.5908 -66.5908 -66.5908 -66.5908
   -66.5908 -66.5908 -66.5908 -66.5895 -66.5895 -66.5895 -66.5895 -66.5864
   -66.5864 -66.5863 -66.5863 -66.5852 -66.5850 -66.5850 -66.5803 -66.5802
   -66.5801 -66.5801 -66.5801 -66.5801 -66.5801 -66.5801 -66.5800 -66.5788
   -66.5788 -66.5788 -66.5788 -66.5763 -66.5757 -66.5756 -66.5756 -66.5756
   -66.5743 -66.5743 -66.5716 -66.5645 -66.5577 -66.5544 -66.5499 -66.5431
   -66.5361 -57.2950 -57.2819 -57.2450 -54.2237 -54.1713 -54.0968 -40.9206
   -40.9188 -40.9186 -40.9186 -40.9185 -40.9185 -40.9185 -40.9185 -40.9184
   -40.9179 -40.9179 -40.9179 -40.9179 -40.9121 -40.9069 -40.8918 -40.8917
   -40.8917 -40.8917 -40.8910 -40.8910 -40.8893 -40.8877 -40.8831 -40.8797
   -40.8797 -40.8797 -40.8797 -40.8790 -40.8790 -40.8628 -40.8465 -40.8290
   -40.8290 -40.8290 -40.8290 -40.8290 -40.8290 -40.8290 -40.8290 -40.8282
   -40.8282 -40.8282 -40.8282 -40.8156 -40.8125 -40.8075 -40.8017 -40.7937
   -40.7769 -40.7703 -40.7702 -40.7702 -40.7701 -40.7695 -40.7695 -40.7654
   -40.7608 -40.7607 -40.7607 -40.7607 -40.7598 -40.7598 -40.7494 -40.7494
   -40.7493 -40.7493 -40.7488 -40.7487 -40.7486 -40.7430 -40.7405 -40.7390
   -40.7267 -40.7227 -40.7198 -40.7198 -40.7197 -40.7197 -40.7197 -40.7197
   -40.7197 -40.7197 -40.7190 -40.7190 -40.7190 -40.7190 -40.7170 -40.7147
   -40.7111 -40.7110 -40.7110 -40.7109 -40.7103 -40.7103 -40.7083 -40.7026
   -40.7009 -40.6993 -40.6992 -40.6992 -40.6992 -40.6989 -40.6987 -40.6987
   -40.6987 -40.6986 -40.6986 -40.6986 -40.6986 -40.6983 -40.6983 -40.6979
   -40.6979 -40.6979 -40.6979 -40.6965 -40.6926 -40.6900 -40.6900 -40.6900
   -40.6900 -40.6892 -40.6892 -40.6873 -40.6853 -40.6810 -40.6781 -40.6684
   -40.6683 -40.6683 -40.6683 -40.6683 -40.6683 -40.6682 -40.6682 -40.6673
   -40.6673 -40.6673 -40.6673 -40.6588 -40.6582 -40.6532 -40.6485 -40.6336
   -40.6336 -40.6335 -40.6335 -40.6335 -40.6335 -40.6335 -40.6335 -40.6326
   -40.6326 -40.6326 -40.6326 -40.6227 -40.6215 -40.6214 -40.6214 -40.6213
   -40.6204 -40.6204 -40.6174 -40.6119 -40.6087 -40.6026 -40.6022 -40.6021
   -40.6020 -40.6020 -40.6011 -40.6011 -40.5910 -40.5904 -40.5851 -40.5851
   -40.5851 -40.5851 -40.5841 -40.5841 -40.5793 -40.5621 -40.5545 -40.5544
   -40.5544 -40.5543 -40.5534 -40.5534 -40.5458 -40.5405 -40.5178 -20.0138
   -19.8923 -19.8650 -19.8367 -19.7662 -19.7431 -19.6569 -19.6475 -19.4884
   -19.4708 -19.4237 -19.4156 -19.3326 -19.3232 -19.2306 -19.2248 -19.0821
   -18.8905 -18.8583 -18.7757 -18.7469 -18.7398 -18.7224 -18.7188 -18.7182
   -18.7055 -18.6868 -18.6601 -18.6511 -18.6469 -18.6321 -18.6225 -18.5916
   -18.5829 -18.5696 -18.5536 -18.5496 -18.5451 -18.5312 -18.5158 -18.5090
   -18.4844 -18.4776 -18.4713 -18.4672 -18.4383 -18.4102 -18.4074 -18.4008
   -18.3802 -18.3682 -18.3642 -18.3331 -18.3220 -18.3182 -18.2890 -18.2544
   -18.2468 -18.2390 -18.2314 -18.1977 -18.1910 -18.1781 -18.1633 -18.1334
   -18.1196 -18.1151 -18.1090 -18.1020 -18.0993 -18.0958 -18.0950 -18.0868
   -18.0726 -18.0711 -18.0673 -18.0635 -18.0624 -18.0542 -18.0483 -18.0437
   -18.0404 -18.0382 -18.0295 -18.0075 -18.0063 -18.0020 -17.9988 -17.9976
   -17.9936 -17.9925 -17.9880 -17.9842 -17.9756 -17.9455 -17.9420 -17.9344
   -17.9323 -17.9278 -17.9189 -17.8902 -17.8875 -17.8818 -17.8737 -17.8509
   -17.8462 -17.8428 -17.8379 -17.8330 -17.8216 -17.8169 -17.8167 -17.8162
   -17.8152 -17.8144 -17.8121 -17.8022 -17.8003 -17.7828 -17.7803 -17.7586
[...]
     atom  170 type  1   force =    -0.00001682   -0.00001466    0.00000535
     atom  171 type  2   force =    -0.00000535    0.00000181    0.00000486
     atom  172 type  2   force =    -0.00000163    0.00000200    0.00161531
     atom  173 type  2   force =    -0.00000177    0.00000147   -0.00235922
     atom  174 type  2   force =    -0.00000335    0.00000065   -0.00000887
     atom  175 type  1   force =     0.00000024    0.00000547    0.00000934
     atom  176 type  1   force =     0.00001250    0.00004784    0.00028547
     atom  177 type  2   force =    -0.00018057   -0.00003914    0.00023797
     atom  178 type  2   force =     0.00000123    0.00000918    0.00001354
     atom  179 type  2   force =    -0.00000017    0.00000065    0.00002324
     atom  180 type  2   force =    -0.00012094    0.00001027    0.00032711
     atom  181 type  1   force =     0.00000025    0.00000071    0.00068824
     atom  182 type  1   force =    -0.00001162   -0.00000890   -0.00000127
     atom  183 type  2   force =    -0.00000336   -0.00000008    0.00000521
     atom  184 type  2   force =    -0.00000157    0.00000193    0.00161532
     atom  185 type  2   force =    -0.00000175    0.00000143   -0.00235920
     atom  186 type  2   force =    -0.00000237   -0.00000045   -0.00000338
     atom  187 type  1   force =     0.00000500   -0.00000361    0.00000760
     atom  188 type  1   force =     0.00000108   -0.00004424    0.00021269
     atom  189 type  2   force =     0.00013801   -0.00012086    0.00006095
     atom  190 type  2   force =     0.00000229   -0.00000248    0.00002054
     atom  191 type  2   force =    -0.00000408    0.00000314    0.00002054
     atom  192 type  2   force =    -0.00018865   -0.00005314    0.00007694
     atom  193 type  3   force =    -0.00006748    0.00010161    0.00003314
     atom  194 type  4   force =    -0.00018311   -0.00025593   -0.00017142

     Total force =     0.002896     Total SCF correction =     0.000379
     SCF correction compared to forces is large: reduce conv_thr to get better values
     Energy error            =      1.4E-05 Ry
     Gradient error          =      9.7E-04 Ry/Bohr

     bfgs converged in  29 scf cycles and  26 bfgs steps
     (criteria: energy <  1.0E-04 Ry, force <  1.0E-03 Ry/Bohr)

     End of BFGS Geometry Optimization

     Final energy             =  -33980.2984837545 Ry

     File ./outdir/pwscf.bfgs deleted, as requested
Begin final coordinates

ATOMIC_POSITIONS (angstrom)
Mo               0.0000119917        1.8193638619       -9.1672481230    0   0   0
Mo               1.5756136568        0.9097075315       -3.0554901653    0   0   0
S                0.0000188998        1.8193822938       -4.6232556019    0   0   0
S                1.5756321638        0.9096773839       -7.6014065489    0   0   0
S                1.5756326175        0.9096785128      -10.7330757790    0   0   0
S                0.0000189190        1.8193860094       -1.4877129945    0   0   0
Mo               0.0000429652        1.8196007350        3.0565291394
Mo               1.5757291563        0.9054994020        9.1556182696
S                0.0001972214        1.8179690389        7.5867019504
S                1.5757804403        0.9096146256        4.6236511609
S                1.5755453607        0.9098302864        1.4884860287
S               -0.0020191270        1.7855861950       10.7333577830
Mo              -1.5756053507        4.5484193819       -9.1672481230    0   0   0
Mo               0.0000378379        3.6387394919       -3.0554952701    0   0   0
S               -1.5755913433        4.5484363582       -4.6232494962    0   0   0
S                0.0000148214        3.6387329039       -7.6014065489    0   0   0
S                0.0000152751        3.6387340328      -10.7330757790    0   0   0
S               -1.5755906502        4.5484413613       -1.4877305502    0   0   0
Mo              -1.5753558797        4.5486951088        3.0567263882
Mo              -0.0027742835        3.6113275054        9.1793623106
S               -1.5734264184        4.5603892122        7.6310036992
S                0.0002121440        3.6392609552        4.6249213130
S                0.0000061803        3.6388839479        1.4888054631
S               -1.5842695299        4.4590989454       10.7678063705
Mo              -3.1512226931        7.2774749019       -9.1672481230    0   0   0
Mo              -1.5755910988        6.3678216792       -3.0555115988    0   0   0
S               -3.1512162438        7.2774954350       -4.6232578178    0   0   0
S               -1.5756025210        6.3677884239       -7.6014065489    0   0   0
S               -1.5756020673        6.3677895528      -10.7330757790    0   0   0
S               -3.1512127704        7.2774877076       -1.4877200710    0   0   0
Mo              -3.1509381245        7.2772158682        3.0562033359
Mo              -1.5969911269        6.3681895170        9.2092632573
S               -3.1401919548        7.2673093530        7.6246274111
S               -1.5752388415        6.3679862830        4.6249077722
S               -1.5753864118        6.3676622335        1.4885745507
S               -3.2225407507        7.3105957881       10.7911835286
Mo              -4.7268400355       10.0065304219       -9.1672481230    0   0   0
Mo              -3.1512405618        9.0968403586       -3.0554816746    0   0   0
S               -4.7268341792       10.0065523623       -4.6232463762    0   0   0
S               -3.1512198634        9.0968439439       -7.6014065489    0   0   0
S               -3.1512194097        9.0968450728      -10.7330757790    0   0   0
S               -4.7268370797       10.0065537885       -1.4877176751    0   0   0
Mo              -4.7267846577       10.0064052230        3.0560258040
Mo              -3.1561100293        9.1025207876        9.1692231137
S               -4.7262808773       10.0002906133        7.5910814261
S               -3.1512791150        9.0962688843        4.6237237612
S               -3.1509949433        9.0967175219        1.4884680539
S               -4.7321666563       10.0133407254       10.7318979353
Mo               3.1512517547        1.8193638619       -9.1672481230    0   0   0
Mo               4.7269020221        0.9097289540       -3.0554823951    0   0   0
S                3.1512612351        1.8193882564       -4.6232320683    0   0   0
S                4.7268719268        0.9096773839       -7.6014065489    0   0   0
S                4.7268723805        0.9096785128      -10.7330757790    0   0   0
S                3.1512592485        1.8193890201       -1.4877261251    0   0   0
Mo               3.1512177578        1.8196710711        3.0561939793
Mo               4.7224563437        0.9151524182        9.1486719579
S                3.1471817233        1.8249925849        7.5841906814
S                4.7272040045        0.9101878847        4.6234273625
S                4.7267222622        0.9095536613        1.4883544534
S                3.1565997027        1.8023161459       10.7299909345
Mo               1.5756344123        4.5484193819       -9.1672481230    0   0   0
Mo               3.1512756394        3.6387769522       -3.0554814834    0   0   0
S                1.5756504879        4.5484423799       -4.6232390542    0   0   0
S                3.1512545844        3.6387329039       -7.6014065489    0   0   0
S                3.1512550381        3.6387340328      -10.7330757790    0   0   0
S                1.5756466253        4.5484431864       -1.4877251801    0   0   0
Mo               1.5754885699        4.5488173793        3.0565506011
Mo               3.1640868721        3.6251567000        9.1726478022
S                1.5752691219        4.5684315507        7.6459252114
S                3.1509423792        3.6393013744        4.6242558756
S                3.1510458179        3.6390200419        1.4885292899
S                1.5820441667        4.4183195149       10.7999578499
Mo               0.0000170699        7.2774749019       -9.1672481230    0   0   0
Mo               1.5756764447        6.3678236689       -3.0554877708    0   0   0
S                0.0000381981        7.2774979204       -4.6232454413    0   0   0
S                1.5756372420        6.3677884239       -7.6014065489    0   0   0
S                1.5756376957        6.3677895528      -10.7330757790    0   0   0
S                0.0000328088        7.2774946042       -1.4877307940    0   0   0
Mo               0.0001384160        7.2772693325        3.0564683998
Mo               1.5865185969        6.3703107305        9.2200541036
S                0.0060750542        7.2635628143        7.6621101784
S                1.5755674554        6.3679904253        4.6249725451
S                1.5753797393        6.3676984643        1.4883347188
S               -0.0437951401        7.4274944793       10.7633669897
Mo              -1.5756002725       10.0065304219       -9.1672481230    0   0   0
Mo               0.0000873425        9.0968676911       -3.0554912329    0   0   0
S               -1.5755883952       10.0065504530       -4.6232240150    0   0   0
S                0.0000198996        9.0968439439       -7.6014065489    0   0   0
S                0.0000203533        9.0968450728      -10.7330757790    0   0   0
S               -1.5755859047       10.0065492576       -1.4877362381    0   0   0
Mo              -1.5754884662       10.0064124464        3.0565195716
Mo              -0.0003460579        9.1508333225        9.1503567683
S               -1.5893675476       10.0140281741        7.5775046933
S                0.0002074258        9.0963249934        4.6246081586
S                0.0000523837        9.0967434996        1.4887255974
S               -1.5840533328       10.0338443389       10.7246839752
Mo               6.3024915177        1.8193638619       -9.1672481230    0   0   0
Mo               7.8781001445        0.9096521684       -3.0554919963    0   0   0
S                6.3025008696        1.8193826232       -4.6232480596    0   0   0
S                7.8781116898        0.9096773839       -7.6014065489    0   0   0
S                7.8781121435        0.9096785128      -10.7330757790    0   0   0
S                6.3025042007        1.8193849068       -1.4877147524    0   0   0
Mo               6.3025445183        1.8196120994        3.0555760328
Mo               7.8814615775        0.9150828948        9.1527278441
S                6.3034264293        1.8267798705        7.5851171526
S                7.8778811899        0.9099934971        4.6233309806
S                7.8783452088        0.9095207804        1.4882841332
S                6.3013280964        1.8182522692       10.7224340614
Mo               4.7268741753        4.5484193819       -9.1672481230    0   0   0
Mo               6.3024679138        3.6387501714       -3.0554895197    0   0   0
S                4.7268748770        4.5484386753       -4.6232519432    0   0   0
S                6.3024943474        3.6387329039       -7.6014065489    0   0   0
S                6.3024948011        3.6387340328      -10.7330757790    0   0   0
S                4.7268770533        4.5484432419       -1.4877137856    0   0   0
Mo               4.7267150243        4.5486148506        3.0563061414
Mo               6.3026769388        3.6391768676        9.1632544980
S                4.7263019790        4.5538426018        7.6002428817
S                6.3024054033        3.6388522118        4.6236285572
S                6.3025450139        3.6391525975        1.4882802297
S                4.7331630018        4.5415064991       10.7387506241
Mo               3.1512568329        7.2774749019       -9.1672481230    0   0   0
Mo               4.7268384135        6.3678043337       -3.0554959052    0   0   0
S                3.1512606125        7.2774972547       -4.6232589675    0   0   0
S                4.7268770050        6.3677884239       -7.6014065489    0   0   0
S                4.7268774587        6.3677895528      -10.7330757790    0   0   0
S                3.1512629079        7.2774963749       -1.4877081835    0   0   0
Mo               3.1509289888        7.2771732876        3.0559687315
Mo               4.7382568327        6.3672512634        9.1814054193
S                3.1343985698        7.2631758965        7.6434556561
S                4.7262088039        6.3678662304        4.6242828875
S                4.7268861807        6.3677637533        1.4884095985
S                3.2460732626        7.3278561963       10.8234171166
Mo               1.5756394905       10.0065304219       -9.1672481230    0   0   0
Mo               3.1512330605        9.0968514907       -3.0554878870    0   0   0
S                1.5756499830       10.0065443759       -4.6232632674    0   0   0
S                3.1512596626        9.0968439439       -7.6014065489    0   0   0
S                3.1512601163        9.0968450728      -10.7330757790    0   0   0
S                1.5756503041       10.0065459699       -1.4877044377    0   0   0
Mo               1.5756794701       10.0063418679        3.0564354837
Mo               3.1569280202        9.1058352239        9.1766916305
S                1.5918845250       10.0141361449        7.5821547223
S                3.1512178078        9.0959313591        4.6238718081
S                3.1511520232        9.0967508589        1.4883825976
S                1.5794739489       10.0305615719       10.7281650665
Mo               9.4537312807        1.8193638619       -9.1672481230    0   0   0
Mo              11.0293863460        0.9096952246       -3.0554894007    0   0   0
S                9.4537395970        1.8193770750       -4.6232328036    0   0   0
S               11.0293514528        0.9096773839       -7.6014065489    0   0   0
S               11.0293519066        0.9096785128      -10.7330757790    0   0   0
S                9.4537393632        1.8193794783       -1.4877366147    0   0   0
Mo               9.4538054955        1.8195511012        3.0561737211
Mo              11.0291258697        0.9051294575        9.1543738338
S                9.4554804202        1.8217273288        7.5838693959
S               11.0292158868        0.9095836924        4.6237802043
S               11.0294865230        0.9097326279        1.4885701965
S                9.4506760896        1.8077212483       10.7286902008
Mo               7.8781139383        4.5484193819       -9.1672481230    0   0   0
Mo               9.4537539161        3.6387607911       -3.0554933032    0   0   0
S                7.8781175448        4.5484378232       -4.6232366318    0   0   0
S                9.4537341104        3.6387329039       -7.6014065489    0   0   0
S                9.4537345641        3.6387340328      -10.7330757790    0   0   0
S                7.8781194018        4.5484411585       -1.4877377057    0   0   0
Mo               7.8782601475        4.5485381923        3.0564055735
Mo               9.4442638386        3.6257815781        9.1653020863
S                7.8768862621        4.5516640479        7.5949875329
S                9.4540477130        3.6390128311        4.6242667364
S                9.4540209465        3.6390038273        1.4886530443
S                7.8755152687        4.5433219091       10.7329784252
Mo               6.3024965959        7.2774749019       -9.1672481230    0   0   0
Mo               7.8781361655        6.3678242352       -3.0555014130    0   0   0
S                6.3024973331        7.2774953556       -4.6232392528    0   0   0
S                7.8781167680        6.3677884239       -7.6014065489    0   0   0
S                7.8781172217        6.3677895528      -10.7330757790    0   0   0
S                6.3024989866        7.2774929744       -1.4877349119    0   0   0
Mo               6.3024051795        7.2773062094        3.0564690777
Mo               7.8695524717        6.3693588970        9.1721128592
S                6.2996360630        7.2723015347        7.5972970019
S                7.8784299222        6.3678406277        4.6242895437
S                7.8781295755        6.3677650978        1.4885871844
S                6.3077522458        7.2844916363       10.7439632431
Mo               4.7268792535       10.0065304219       -9.1672481230    0   0   0
Mo               6.3025111524        9.0968738021       -3.0554915260    0   0   0
S                4.7268840634       10.0065452125       -4.6232380477    0   0   0
S                6.3024994256        9.0968439439       -7.6014065489    0   0   0
S                6.3024998793        9.0968450728      -10.7330757790    0   0   0
S                4.7268847312       10.0065459141       -1.4877283294    0   0   0
Mo               4.7267760467       10.0063289061        3.0562072399
Mo               6.3025081301        9.0955338308        9.1626394143
S                4.7240150351        9.9984134300        7.5919536148
S                6.3024944833        9.0967284855        4.6237003012
S                6.3024533872        9.0966387829        1.4884364873
S                4.7361770730       10.0172139110       10.7343878330
Pt               1.4667985115        6.3481453351       12.0380002157
Pd              -1.4520484322        6.3366169742       12.1767721614
End final coordinates



     Writing all to output data dir ./outdir/pwscf.save/ :
     XML data file, charge density, pseudopotentials, collected wavefunctions
 
     init_run     :    178.46s CPU    181.72s WALL (       1 calls)
     electrons    : 216458.33s CPU 219108.99s WALL (      29 calls)
     update_pot   :     47.64s CPU     49.11s WALL (      28 calls)
     forces       :   3807.29s CPU   3873.54s WALL (      29 calls)
     force_dftd3  :     19.54s CPU     20.36s WALL (      29 calls)

     Called by init_run:
     wfcinit      :    154.52s CPU    156.30s WALL (       1 calls)
     potinit      :      1.30s CPU      1.40s WALL (       1 calls)
     hinit0       :     12.93s CPU     13.01s WALL (       1 calls)

     Called by electrons:
     c_bands      : 191131.27s CPU 192886.95s WALL (     353 calls)
     sum_band     :  22653.18s CPU  23112.74s WALL (     353 calls)
     v_of_rho     :    128.03s CPU    143.85s WALL (     356 calls)
     newd         :   2262.02s CPU   2690.92s WALL (     356 calls)
     PAW_pot      :    339.61s CPU    342.92s WALL (     384 calls)
     mix_rho      :     33.05s CPU     38.64s WALL (     353 calls)
     energy_dftd3 :     11.22s CPU     11.27s WALL (      29 calls)

     Called by c_bands:
     init_us_2    :    772.09s CPU    775.64s WALL (    3056 calls)
     init_us_2:cp :    772.06s CPU    775.62s WALL (    3056 calls)
     cegterg      : 187770.87s CPU 189505.55s WALL (    1431 calls)

     Called by *egterg:
     cdiaghg      :  10764.10s CPU  11133.05s WALL (   17327 calls)
     h_psi        :  94992.73s CPU  95563.82s WALL (   17547 calls)
     s_psi        :  22256.33s CPU  22391.08s WALL (   17547 calls)
     g_psi        :    169.43s CPU    170.23s WALL (   16112 calls)

     Called by h_psi:
     h_psi:calbec :  21789.67s CPU  21860.75s WALL (   17547 calls)
     vloc_psi     :  50444.54s CPU  50677.70s WALL (   17547 calls)
     add_vuspsi   :  22371.83s CPU  22508.17s WALL (   17547 calls)

     General routines
     calbec       :  31559.45s CPU  31660.22s WALL (   19535 calls)
     fft          :    102.28s CPU    116.35s WALL (    4943 calls)
     ffts         :      6.36s CPU      6.82s WALL (     709 calls)
     fftw         :  38296.55s CPU  38471.93s WALL (10019630 calls)
     interpolate  :     11.19s CPU     12.27s WALL (     356 calls)
 
     Parallel routines
 
     PWSCF        :   2d13h34m CPU   2d14h21m WALL

 
   This run was terminated on:   3:29: 2  15Mar2024            

=------------------------------------------------------------------------------=
   JOB DONE.
=------------------------------------------------------------------------------=
