
     Program PWSCF v.7.2 starts on  9Dec2023 at 12:35:20 

     This program is part of the open-source Quantum ESPRESSO suite
     for quantum simulation of materials; please cite
         "P. Giannozzi et al., J. Phys.:Condens. Matter 21 395502 (2009);
         "P. Giannozzi et al., J. Phys.:Condens. Matter 29 465901 (2017);
         "P. Giannozzi et al., J. Chem. Phys. 152 154105 (2020);
          URL http://www.quantum-espresso.org", 
     in publications or presentations arising from this work. More details at
     http://www.quantum-espresso.org/quote

     Parallel version (MPI), running on    36 processors

     MPI processes distributed on     1 nodes
     769192 MiB available memory on the printing compute node when the environment starts
 
     Waiting for input...
     Reading input from standard input
Warning: card &CELL ignored
Warning: card / ignored

     Current dimensions of program PWSCF are:
     Max number of different atomic species (ntypx) = 10
     Max number of k-points (npk) =  40000
     Max angular momentum in pseudopotentials (lmaxx) =  4
     file Mo.pbe-spn-kjpaw_psl.1.0.0.UPF: wavefunction(s)  4S 4D renormalized
     file S.pbe-n-kjpaw_psl.1.0.0.UPF: wavefunction(s)  3S 3P renormalized
     file Pd.pbe-spn-kjpaw_psl.1.0.0.UPF: wavefunction(s)  4S 5S 4D renormalized
 
     R & G space division:  proc/nbgrp/npool/nimage =      36
     Subspace diagonalization in iterative solution of the eigenvalue problem:
     one sub-group per band group will be used
     custom distributed-memory algorithm (size of sub-group:  6*  6 procs)

 
     Parallelization info
     --------------------
     sticks:   dense  smooth     PW     G-vecs:    dense   smooth      PW
     Min         586     335     89               165416    71459    9765
     Max         587     337     90               165425    71461    9778
     Sum       21109   12085   3205              5955087  2572543  351657
 
     Using Slab Decomposition
 


     bravais-lattice index     =            0
     lattice parameter (alat)  =      23.8395  a.u.
     unit-cell volume          =   28182.8498 (a.u.)^3
     number of atoms/cell      =          148
     number of atomic types    =            3
     number of electrons       =      1320.00
     number of Kohn-Sham states=          792
     kinetic-energy cutoff     =      77.0000  Ry
     charge density cutoff     =     539.0000  Ry
     scf convergence threshold =      1.0E-06
     mixing beta               =       0.2000
     number of iterations used =            8  plain     mixing
     energy convergence thresh.=      1.0E-04
     force convergence thresh. =      1.0E-03
     Exchange-correlation= SLA  PW   PBX  PBC
                           (   1   4   3   4   0   0   0)
     nstep                     =         1000


     Effective Screening Medium Method
     =================================
     Boundary Conditions: Vacuum-Slab-Vacuum
     total charge in unit cell        =   0.0000
     grid points for fit at edges     =        4 
 

     celldm(1)=  23.839504  celldm(2)=   0.000000  celldm(3)=   0.000000
     celldm(4)=   0.000000  celldm(5)=   0.000000  celldm(6)=   0.000000

     crystal axes: (cart. coord. in units of alat)
               a(1) = (   1.000000   0.000000   0.000000 )  
               a(2) = (  -0.500001   0.866026   0.000000 )  
               a(3) = (   0.000000   0.000000   2.401941 )  

     reciprocal axes: (cart. coord. in units 2 pi/alat)
               b(1) = (  1.000000  0.577351  0.000000 )  
               b(2) = (  0.000000  1.154700  0.000000 )  
               b(3) = (  0.000000  0.000000  0.416330 )  


     PseudoPot. # 1 for Mo read from file:
     ./pseudo/Mo.pbe-spn-kjpaw_psl.1.0.0.UPF
     MD5 check sum: 317bf72632116215fd98f72de1686f13
     Pseudo is Projector augmented-wave + core cor, Zval = 14.0
     Generated using 'atomic' code by A. Dal Corso  v.7.2
     Shape of augmentation charge: PSQ
     Using radial grid of 1229 points,  6 beta functions with: 
                l(1) =   0
                l(2) =   0
                l(3) =   1
                l(4) =   1
                l(5) =   2
                l(6) =   2
     Q(r) pseudized with 0 coefficients 


     PseudoPot. # 2 for S  read from file:
     ./pseudo/S.pbe-n-kjpaw_psl.1.0.0.UPF
     MD5 check sum: 8b7b5302570d38d5e87fed6a1065abda
     Pseudo is Projector augmented-wave + core cor, Zval =  6.0
     Generated using 'atomic' code by A. Dal Corso  v.7.2
     Shape of augmentation charge: PSQ
     Using radial grid of 1151 points,  6 beta functions with: 
                l(1) =   0
                l(2) =   0
                l(3) =   1
                l(4) =   1
                l(5) =   2
                l(6) =   2
     Q(r) pseudized with 0 coefficients 


     PseudoPot. # 3 for Pd read from file:
     ./pseudo/Pd.pbe-spn-kjpaw_psl.1.0.0.UPF
     MD5 check sum: a60571a671f2502b8a6a4569d20a6edb
     Pseudo is Projector augmented-wave + core cor, Zval = 18.0
     Generated using 'atomic' code by A. Dal Corso  v.7.2
     Shape of augmentation charge: PSQ
     Using radial grid of 1235 points,  6 beta functions with: 
                l(1) =   0
                l(2) =   0
                l(3) =   1
                l(4) =   1
                l(5) =   2
                l(6) =   2
     Q(r) pseudized with 0 coefficients 


     atomic species   valence    mass     pseudopotential
        Mo            14.00    95.95000     Mo( 1.00)
        S              6.00    32.06000     S ( 1.00)
        Pd            18.00   106.42000     Pd( 1.00)

     No symmetry found



   Cartesian axes

     site n.     atom                  positions (alat units)
         1           Mo  tau(   1) = (   0.1249457   0.2134123   0.4819544  )
         2           Mo  tau(   2) = (   0.1250004   0.0721694  -0.4825273  )
         3           Mo  tau(   3) = (   0.0000033   0.1443330  -0.0001251  )
         4           S   tau(   4) = (   0.0000004   0.0000006  -0.6064556  )
         5           S   tau(   5) = (   0.1249914   0.0721855  -0.1242347  )
         6           S   tau(   6) = (  -0.0004758   0.1436738   0.3584209  )
         7           S   tau(   7) = (   0.0000004   0.0000005  -0.3584711  )
         8           S   tau(   8) = (   0.1249894   0.0721188   0.1240993  )
         9           S   tau(   9) = (  -0.0038222   0.1412314   0.6089205  )
        10           Mo  tau(  10) = (  -0.0025417   0.4343465   0.4820674  )
        11           Mo  tau(  11) = (   0.0000001   0.2886759  -0.4825273  )
        12           Mo  tau(  12) = (  -0.1249939   0.3608224  -0.0001227  )
        13           S   tau(  13) = (  -0.1249999   0.2165071  -0.6064556  )
        14           S   tau(  14) = (   0.0000252   0.2886771  -0.1241869  )
        15           S   tau(  15) = (  -0.1258144   0.3607062   0.3584395  )
        16           S   tau(  16) = (  -0.1249998   0.2165070  -0.3584711  )
        17           S   tau(  17) = (  -0.0000184   0.2886537   0.1241791  )
        18           S   tau(  18) = (  -0.1297187   0.3589169   0.6088290  )
        19           Mo  tau(  19) = (  -0.1254732   0.6503373   0.4817788  )
        20           Mo  tau(  20) = (  -0.1250002   0.5051824  -0.4825273  )
        21           Mo  tau(  21) = (  -0.2500004   0.5773216  -0.0001903  )
        22           S   tau(  22) = (  -0.2500002   0.4330136  -0.6064556  )
        23           S   tau(  23) = (  -0.1249698   0.5051430  -0.1242236  )
        24           S   tau(  24) = (  -0.2502762   0.5773192   0.3574700  )
        25           S   tau(  25) = (  -0.2500001   0.4330135  -0.3584711  )
        26           S   tau(  26) = (  -0.1250257   0.5051685   0.1241113  )
        27           S   tau(  27) = (  -0.2502311   0.5772924   0.6059387  )
        28           Mo  tau(  28) = (   0.2505411  -0.0008123   0.4817679  )
        29           Mo  tau(  29) = (  -0.2500004   0.7216889  -0.4825273  )
        30           Mo  tau(  30) = (  -0.3750089   0.7938393  -0.0001982  )
        31           S   tau(  31) = (  -0.3750004   0.6495201  -0.6064556  )
        32           S   tau(  32) = (  -0.2500112   0.7216608  -0.1242943  )
        33           S   tau(  33) = (  -0.3750564   0.7934661   0.3574332  )
        34           S   tau(  34) = (  -0.3750004   0.6495200  -0.3584711  )
        35           S   tau(  35) = (  -0.2500136   0.7216627   0.1240030  )
        36           S   tau(  36) = (  -0.3750619   0.7935895   0.6058394  )
        37           Mo  tau(  37) = (   0.3759002   0.2158309   0.4824179  )
        38           Mo  tau(  38) = (   0.3750004   0.0721694  -0.4825273  )
        39           Mo  tau(  39) = (   0.2499772   0.1443335  -0.0001238  )
        40           S   tau(  40) = (   0.2500004   0.0000006  -0.6064556  )
        41           S   tau(  41) = (   0.3749431   0.0721751  -0.1242724  )
        42           S   tau(  42) = (   0.2503611   0.1436581   0.3584182  )
        43           S   tau(  43) = (   0.2500004   0.0000005  -0.3584711  )
        44           S   tau(  44) = (   0.3749976   0.0721392   0.1240210  )
        45           S   tau(  45) = (   0.2537192   0.1412308   0.6089164  )
        46           Mo  tau(  46) = (   0.2524299   0.4343451   0.4820748  )
        47           Mo  tau(  47) = (   0.2500001   0.2886759  -0.4825273  )
        48           Mo  tau(  48) = (   0.1249900   0.3608263  -0.0000541  )
        49           S   tau(  49) = (   0.1250001   0.2165071  -0.6064556  )
        50           S   tau(  50) = (   0.2499552   0.2886772  -0.1241874  )
        51           S   tau(  51) = (   0.1249475   0.3607318   0.3607067  )
        52           S   tau(  52) = (   0.1250002   0.2165070  -0.3584711  )
        53           S   tau(  53) = (   0.2499975   0.2886546   0.1241799  )
        54           S   tau(  54) = (   0.1249386   0.3605111   0.6013385  )
        55           Mo  tau(  55) = (   0.1249421   0.6507104   0.4824835  )
        56           Mo  tau(  56) = (   0.1249998   0.5051824  -0.4825273  )
        57           Mo  tau(  57) = (   0.0000005   0.5773147  -0.0001121  )
        58           S   tau(  58) = (  -0.0000002   0.4330136  -0.6064556  )
        59           S   tau(  59) = (   0.1249898   0.5051260  -0.1241753  )
        60           S   tau(  60) = (  -0.0003332   0.5780034   0.3585012  )
        61           S   tau(  61) = (  -0.0000001   0.4330135  -0.3584711  )
        62           S   tau(  62) = (   0.1249897   0.5051640   0.1241981  )
        63           S   tau(  63) = (  -0.0008534   0.5823551   0.6088451  )
        64           Mo  tau(  64) = (   0.4999484  -0.0001090   0.4815964  )
        65           Mo  tau(  65) = (  -0.0000004   0.7216889  -0.4825273  )
        66           Mo  tau(  66) = (  -0.1250165   0.7938379  -0.0002116  )
        67           S   tau(  67) = (  -0.1250004   0.6495201  -0.6064556  )
        68           S   tau(  68) = (  -0.0000221   0.7216165  -0.1242706  )
        69           S   tau(  69) = (  -0.1250143   0.7937851   0.3571256  )
        70           S   tau(  70) = (  -0.1250004   0.6495200  -0.3584711  )
        71           S   tau(  71) = (  -0.0000042   0.7216983   0.1240168  )
        72           S   tau(  72) = (  -0.1248607   0.7939603   0.6065283  )
        73           Mo  tau(  73) = (   0.6249437   0.2162971   0.4815584  )
        74           Mo  tau(  74) = (   0.6250004   0.0721694  -0.4825273  )
        75           Mo  tau(  75) = (   0.4999860   0.1443114  -0.0002150  )
        76           S   tau(  76) = (   0.5000004   0.0000006  -0.6064556  )
        77           S   tau(  77) = (   0.6249893   0.0721589  -0.1243230  )
        78           S   tau(  78) = (   0.4999708   0.1441467   0.3573967  )
        79           S   tau(  79) = (   0.5000004   0.0000005  -0.3584711  )
        80           S   tau(  80) = (   0.6249907   0.0721373   0.1239916  )
        81           S   tau(  81) = (   0.5008622   0.1436573   0.6062896  )
        82           Mo  tau(  82) = (   0.5009437   0.4327079   0.4817897  )
        83           Mo  tau(  83) = (   0.5000001   0.2886759  -0.4825273  )
        84           Mo  tau(  84) = (   0.3749738   0.3608224  -0.0001230  )
        85           S   tau(  85) = (   0.3750001   0.2165071  -0.6064556  )
        86           S   tau(  86) = (   0.4999509   0.2886678  -0.1242686  )
        87           S   tau(  87) = (   0.3757123   0.3607111   0.3584390  )
        88           S   tau(  88) = (   0.3750002   0.2165070  -0.3584711  )
        89           S   tau(  89) = (   0.5000012   0.2886340   0.1240235  )
        90           S   tau(  90) = (   0.3796077   0.3589117   0.6088271  )
        91           Mo  tau(  91) = (   0.3753566   0.6503389   0.4817655  )
        92           Mo  tau(  92) = (   0.3749998   0.5051824  -0.4825273  )
        93           Mo  tau(  93) = (   0.2499792   0.5773151  -0.0001136  )
        94           S   tau(  94) = (   0.2499998   0.4330136  -0.6064556  )
        95           S   tau(  95) = (   0.3749514   0.5051432  -0.1242240  )
        96           S   tau(  96) = (   0.2502126   0.5780012   0.3584990  )
        97           S   tau(  97) = (   0.2499999   0.4330135  -0.3584711  )
        98           S   tau(  98) = (   0.3750041   0.5051691   0.1241097  )
        99           S   tau(  99) = (   0.2507435   0.5823579   0.6088411  )
       100           Mo  tau( 100) = (   0.7499376  -0.0001078   0.4816046  )
       101           Mo  tau( 101) = (   0.2499996   0.7216889  -0.4825273  )
       102           Mo  tau( 102) = (   0.1249896   0.7938384  -0.0002335  )
       103           S   tau( 103) = (   0.1249996   0.6495201  -0.6064556  )
       104           S   tau( 104) = (   0.2500024   0.7216175  -0.1242713  )
       105           S   tau( 105) = (   0.1249462   0.7938814   0.3574010  )
       106           S   tau( 106) = (   0.1249996   0.6495200  -0.3584711  )
       107           S   tau( 107) = (   0.2499834   0.7216984   0.1240155  )
       108           S   tau( 108) = (   0.1249388   0.7950164   0.6064605  )
       109           Mo  tau( 109) = (  -0.1260124   0.2158329   0.4824313  )
       110           Mo  tau( 110) = (   0.8750004   0.0721694  -0.4825273  )
       111           Mo  tau( 111) = (   0.7499938   0.1443115  -0.0002182  )
       112           S   tau( 112) = (   0.7500004   0.0000006  -0.6064556  )
       113           S   tau( 113) = (   0.8750385   0.0721751  -0.1242742  )
       114           S   tau( 114) = (   0.7499201   0.1441460   0.3574097  )
       115           S   tau( 115) = (   0.7500004   0.0000005  -0.3584711  )
       116           S   tau( 116) = (   0.8749809   0.0721405   0.1240190  )
       117           S   tau( 117) = (   0.7490172   0.1436580   0.6063018  )
       118           Mo  tau( 118) = (  -0.2510493   0.4327100   0.4817906  )
       119           Mo  tau( 119) = (   0.7500001   0.2886759  -0.4825273  )
       120           Mo  tau( 120) = (   0.6249900   0.3608155  -0.0002076  )
       121           S   tau( 121) = (   0.6250001   0.2165071  -0.6064556  )
       122           S   tau( 122) = (   0.7500299   0.2886693  -0.1242694  )
       123           S   tau( 123) = (   0.6249512   0.3605494   0.3571227  )
       124           S   tau( 124) = (   0.6250002   0.2165070  -0.3584711  )
       125           S   tau( 125) = (   0.7499776   0.2886326   0.1240225  )
       126           S   tau( 126) = (   0.6249490   0.3602425   0.6065616  )
       127           Mo  tau( 127) = (  -0.3750604   0.6493704   0.4817387  )
       128           Mo  tau( 128) = (   0.6249998   0.5051824  -0.4825273  )
       129           Mo  tau( 129) = (   0.4999814   0.5773223  -0.0001904  )
       130           S   tau( 130) = (   0.4999998   0.4330136  -0.6064556  )
       131           S   tau( 131) = (   0.6249908   0.5051599  -0.1242877  )
       132           S   tau( 132) = (   0.5001636   0.5773150   0.3574635  )
       133           S   tau( 133) = (   0.4999999   0.4330135  -0.3584711  )
       134           S   tau( 134) = (   0.6249901   0.5051550   0.1240047  )
       135           S   tau( 135) = (   0.5001043   0.5772926   0.6059306  )
       136           Mo  tau( 136) = (  -0.0006525  -0.0008050   0.4817630  )
       137           Mo  tau( 137) = (   0.4999996   0.7216889  -0.4825273  )
       138           Mo  tau( 138) = (   0.3749967   0.7938386  -0.0002128  )
       139           S   tau( 139) = (   0.3749996   0.6495201  -0.6064556  )
       140           S   tau( 140) = (   0.4999943   0.7216620  -0.1242941  )
       141           S   tau( 141) = (   0.3748966   0.7937974   0.3571229  )
       142           S   tau( 142) = (   0.3749996   0.6495200  -0.3584711  )
       143           S   tau( 143) = (   0.4999943   0.7216644   0.1240023  )
       144           S   tau( 144) = (   0.3747530   0.7939575   0.6065211  )
       145           Pd  tau( 145) = (   0.2402863   0.4278218   0.7224594  )
       146           Pd  tau( 146) = (   0.0095608   0.4278243   0.7224518  )
       147           Pd  tau( 147) = (   0.1249502   0.2282625   0.7234614  )
       148           Pd  tau( 148) = (   0.1249274   0.3605140   0.8417013  )

     --------------------------------------------
     DFT-D3 Dispersion Correction (3-body terms):
     --------------------------------------------
       Reference C6 values for interpolation: 

         atom   Coordination number   C6
         S          0.000           268.01
         S          0.995           261.99
         S          1.990           251.62
         Mo         0.000          1691.79
         Mo         1.942          1004.01
         Mo        11.056           674.22
         Pd         0.000          1217.01
         Pd         1.863           573.90
         Pd         5.710           531.75

       Values used:

         atom   Coordination number  R0_AB[au]  C6      C8
         Mo        10.611            3.547    674.22  77634.20
         Mo        10.189            3.547    674.22  77634.20
         Mo        10.202            3.547    674.22  77634.20
         S          3.753            3.128    251.62  12327.25
         S          3.859            3.128    251.62  12327.25
         S          3.843            3.128    251.62  12327.25
         S          3.859            3.128    251.62  12327.25
         S          3.858            3.128    251.62  12327.25
         S          4.641            3.128    251.62  12327.25
         Mo        10.624            3.547    674.22  77634.20
         Mo        10.189            3.547    674.22  77634.20
         Mo        10.201            3.547    674.22  77634.20
         S          3.753            3.128    251.62  12327.25
         S          3.860            3.128    251.62  12327.25
         S          3.843            3.128    251.62  12327.25
         S          3.859            3.128    251.62  12327.25
         S          3.853            3.128    251.62  12327.25
         S          4.645            3.128    251.62  12327.25
         Mo        10.232            3.547    674.22  77634.20
         Mo        10.189            3.547    674.22  77634.20
         Mo        10.201            3.547    674.22  77634.20
         S          3.753            3.128    251.62  12327.25
         S          3.859            3.128    251.62  12327.25
         S          3.866            3.128    251.62  12327.25
         S          3.859            3.128    251.62  12327.25
         S          3.858            3.128    251.62  12327.25
         S          3.765            3.128    251.62  12327.25
         Mo        10.235            3.547    674.22  77634.20
         Mo        10.189            3.547    674.22  77634.20
         Mo        10.201            3.547    674.22  77634.20
         S          3.753            3.128    251.62  12327.25
         S          3.859            3.128    251.62  12327.25
         S          3.866            3.128    251.62  12327.25
         S          3.859            3.128    251.62  12327.25
         S          3.861            3.128    251.62  12327.25
         S          3.767            3.128    251.62  12327.25
         Mo        10.195            3.547    674.22  77634.20
         Mo        10.189            3.547    674.22  77634.20
         Mo        10.202            3.547    674.22  77634.20
         S          3.753            3.128    251.62  12327.25
         S          3.859            3.128    251.62  12327.25
         S          3.843            3.128    251.62  12327.25
         S          3.859            3.128    251.62  12327.25
         S          3.861            3.128    251.62  12327.25
         S          4.641            3.128    251.62  12327.25
         Mo        10.624            3.547    674.22  77634.20
         Mo        10.189            3.547    674.22  77634.20
         Mo        10.202            3.547    674.22  77634.20
         S          3.753            3.128    251.62  12327.25
         S          3.860            3.128    251.62  12327.25
         S          3.878            3.128    251.62  12327.25
         S          3.859            3.128    251.62  12327.25
         S          3.853            3.128    251.62  12327.25
         S          6.839            3.128    251.62  12327.25
         Mo        10.192            3.547    674.22  77634.20
         Mo        10.189            3.547    674.22  77634.20
         Mo        10.201            3.547    674.22  77634.20
         S          3.753            3.128    251.62  12327.25
         S          3.860            3.128    251.62  12327.25
         S          3.843            3.128    251.62  12327.25
         S          3.859            3.128    251.62  12327.25
         S          3.853            3.128    251.62  12327.25
         S          4.646            3.128    251.62  12327.25
         Mo        10.245            3.547    674.22  77634.20
         Mo        10.189            3.547    674.22  77634.20
         Mo        10.201            3.547    674.22  77634.20
         S          3.753            3.128    251.62  12327.25
         S          3.859            3.128    251.62  12327.25
         S          3.865            3.128    251.62  12327.25
         S          3.859            3.128    251.62  12327.25
         S          3.861            3.128    251.62  12327.25
         S          3.799            3.128    251.62  12327.25
         Mo        10.243            3.547    674.22  77634.20
         Mo        10.189            3.547    674.22  77634.20
         Mo        10.201            3.547    674.22  77634.20
         S          3.753            3.128    251.62  12327.25
         S          3.858            3.128    251.62  12327.25
         S          3.864            3.128    251.62  12327.25
         S          3.859            3.128    251.62  12327.25
         S          3.862            3.128    251.62  12327.25
         S          3.804            3.128    251.62  12327.25
         Mo        10.233            3.547    674.22  77634.20
         Mo        10.189            3.547    674.22  77634.20
         Mo        10.201            3.547    674.22  77634.20
         S          3.753            3.128    251.62  12327.25
         S          3.859            3.128    251.62  12327.25
         S          3.843            3.128    251.62  12327.25
         S          3.859            3.128    251.62  12327.25
         S          3.861            3.128    251.62  12327.25
         S          4.644            3.128    251.62  12327.25
         Mo        10.232            3.547    674.22  77634.20
         Mo        10.189            3.547    674.22  77634.20
         Mo        10.201            3.547    674.22  77634.20
         S          3.753            3.128    251.62  12327.25
         S          3.859            3.128    251.62  12327.25
         S          3.843            3.128    251.62  12327.25
         S          3.859            3.128    251.62  12327.25
         S          3.858            3.128    251.62  12327.25
         S          4.646            3.128    251.62  12327.25
         Mo        10.245            3.547    674.22  77634.20
         Mo        10.189            3.547    674.22  77634.20
         Mo        10.201            3.547    674.22  77634.20
         S          3.753            3.128    251.62  12327.25
         S          3.859            3.128    251.62  12327.25
         S          3.864            3.128    251.62  12327.25
         S          3.859            3.128    251.62  12327.25
         S          3.861            3.128    251.62  12327.25
         S          3.803            3.128    251.62  12327.25
         Mo        10.195            3.547    674.22  77634.20
         Mo        10.189            3.547    674.22  77634.20
         Mo        10.201            3.547    674.22  77634.20
         S          3.753            3.128    251.62  12327.25
         S          3.859            3.128    251.62  12327.25
         S          3.864            3.128    251.62  12327.25
         S          3.859            3.128    251.62  12327.25
         S          3.861            3.128    251.62  12327.25
         S          3.804            3.128    251.62  12327.25
         Mo        10.233            3.547    674.22  77634.20
         Mo        10.189            3.547    674.22  77634.20
         Mo        10.201            3.547    674.22  77634.20
         S          3.753            3.128    251.62  12327.25
         S          3.859            3.128    251.62  12327.25
         S          3.864            3.128    251.62  12327.25
         S          3.859            3.128    251.62  12327.25
         S          3.861            3.128    251.62  12327.25
         S          3.799            3.128    251.62  12327.25
         Mo        10.218            3.547    674.22  77634.20
         Mo        10.189            3.547    674.22  77634.20
         Mo        10.201            3.547    674.22  77634.20
         S          3.753            3.128    251.62  12327.25
         S          3.859            3.128    251.62  12327.25
         S          3.866            3.128    251.62  12327.25
         S          3.859            3.128    251.62  12327.25
         S          3.861            3.128    251.62  12327.25
         S          3.765            3.128    251.62  12327.25
         Mo        10.235            3.547    674.22  77634.20
         Mo        10.189            3.547    674.22  77634.20
         Mo        10.201            3.547    674.22  77634.20
         S          3.753            3.128    251.62  12327.25
         S          3.859            3.128    251.62  12327.25
         S          3.864            3.128    251.62  12327.25
         S          3.859            3.128    251.62  12327.25
         S          3.861            3.128    251.62  12327.25
         S          3.799            3.128    251.62  12327.25
         Pd         5.399            3.168    531.75  48720.73
         Pd         5.399            3.168    531.75  48720.73
         Pd         5.374            3.168    531.75  48720.73
         Pd         3.230            3.168    573.90  52583.08

         Molecular C6 ( Ry / a.u.^6 ) =   8180394.16


     number of k points=     4  Gaussian smearing, width (Ry)=  0.0100
                       cart. coord. in units 2pi/alat
        k(    1) = (   0.0000000   0.0000000   0.0000000), wk =   0.5000000
        k(    2) = (   0.0000000  -0.5773499   0.0000000), wk =   0.5000000
        k(    3) = (  -0.5000000  -0.2886755   0.0000000), wk =   0.5000000
        k(    4) = (  -0.5000000  -0.8660254   0.0000000), wk =   0.5000000

     Dense  grid:  5955087 G-vectors     FFT dimensions: ( 180, 180, 432)

     Smooth grid:  2572543 G-vectors     FFT dimensions: ( 135, 135, 320)

     Estimated max dynamical RAM per process >       2.15 GB

     Estimated total dynamical RAM >      77.56 GB

     Initial potential from superposition of free atoms

     starting charge    1319.9531, renormalised to    1320.0000

     negative rho (up, down):  1.240E-03 0.000E+00
     Starting wfcs are  904 randomized atomic wfcs
     Checking if some PAW data can be deallocated... 

     total cpu time spent up to now is      107.2 secs

     Self-consistent Calculation

     iteration #  1     ecut=    77.00 Ry     beta= 0.20
     Davidson diagonalization with overlap
     ethr =  1.00E-02,  avg # of iterations =  2.0

     Threshold (ethr) on eigenvalues was too large:
     Diagonalizing with lowered threshold

     Davidson diagonalization with overlap
     ethr =  3.22E-04,  avg # of iterations = 16.5

     negative rho (up, down):  4.198E-04 0.000E+00

     total cpu time spent up to now is     1035.2 secs

     total energy              =  -25892.22327364 Ry
     estimated scf accuracy    <       5.34860447 Ry

     iteration #  2     ecut=    77.00 Ry     beta= 0.20
     Davidson diagonalization with overlap
     ethr =  4.05E-04,  avg # of iterations =  9.0

     negative rho (up, down):  3.707E-04 0.000E+00

     total cpu time spent up to now is     1290.6 secs

     total energy              =  -25889.49526534 Ry
     estimated scf accuracy    <      28.10213144 Ry

     iteration #  3     ecut=    77.00 Ry     beta= 0.20
     Davidson diagonalization with overlap
     ethr =  4.05E-04,  avg # of iterations =  9.8

     negative rho (up, down):  3.691E-04 0.000E+00

     total cpu time spent up to now is     1550.6 secs

     total energy              =  -25887.97337818 Ry
     estimated scf accuracy    <     259.54163282 Ry

     iteration #  4     ecut=    77.00 Ry     beta= 0.20
     Davidson diagonalization with overlap
     ethr =  4.05E-04,  avg # of iterations =  1.0

     negative rho (up, down):  9.884E-05 0.000E+00

     total cpu time spent up to now is     1762.4 secs

     total energy              =  -25892.26104690 Ry
     estimated scf accuracy    <       3.53606675 Ry

     iteration #  5     ecut=    77.00 Ry     beta= 0.20
     Davidson diagonalization with overlap
     ethr =  2.68E-04,  avg # of iterations =  9.2

     negative rho (up, down):  4.262E-05 0.000E+00

     total cpu time spent up to now is     2004.4 secs

     total energy              =  -25892.09462965 Ry
     estimated scf accuracy    <       1.33928598 Ry

     iteration #  6     ecut=    77.00 Ry     beta= 0.20
     Davidson diagonalization with overlap
     ethr =  1.01E-04,  avg # of iterations = 15.5

     negative rho (up, down):  6.023E-05 0.000E+00

     total cpu time spent up to now is     2404.3 secs

     total energy              =  -25892.51872839 Ry
     estimated scf accuracy    <       0.72319897 Ry

     iteration #  7     ecut=    77.00 Ry     beta= 0.20
     Davidson diagonalization with overlap
     ethr =  5.48E-05,  avg # of iterations = 11.5

     negative rho (up, down):  5.647E-05 0.000E+00

     total cpu time spent up to now is     2689.7 secs

     total energy              =  -25892.60872857 Ry
     estimated scf accuracy    <       0.21649511 Ry

     iteration #  8     ecut=    77.00 Ry     beta= 0.20
     Davidson diagonalization with overlap
     c_bands:  3 eigenvalues not converged
     c_bands:  4 eigenvalues not converged
     c_bands:  1 eigenvalues not converged
     ethr =  1.64E-05,  avg # of iterations = 30.5

     negative rho (up, down):  7.375E-05 0.000E+00

     total cpu time spent up to now is     3572.0 secs

     total energy              =  -25892.87613700 Ry
     estimated scf accuracy    <       0.13320606 Ry

     iteration #  9     ecut=    77.00 Ry     beta= 0.20
     Davidson diagonalization with overlap
     c_bands:  1 eigenvalues not converged
     c_bands:  3 eigenvalues not converged
     c_bands:  5 eigenvalues not converged
     ethr =  1.01E-05,  avg # of iterations = 23.0

     negative rho (up, down):  1.199E-04 0.000E+00

     total cpu time spent up to now is     3922.8 secs

     total energy              =  -25892.87246066 Ry
     estimated scf accuracy    <       0.11611211 Ry

     iteration # 10     ecut=    77.00 Ry     beta= 0.20
     Davidson diagonalization with overlap
     c_bands:  2 eigenvalues not converged
     c_bands:  3 eigenvalues not converged
     ethr =  8.80E-06,  avg # of iterations = 16.0

     negative rho (up, down):  1.162E-03 0.000E+00

     total cpu time spent up to now is     4245.5 secs

     total energy              =  -25892.83911082 Ry
     estimated scf accuracy    <       0.09104132 Ry

     iteration # 11     ecut=    77.00 Ry     beta= 0.20
     Davidson diagonalization with overlap
     c_bands:  1 eigenvalues not converged
     c_bands:  2 eigenvalues not converged
     c_bands:  3 eigenvalues not converged
     ethr =  6.90E-06,  avg # of iterations = 21.0

     negative rho (up, down):  6.062E-04 0.000E+00

     total cpu time spent up to now is     4880.9 secs

     total energy              =  -25892.86513873 Ry
     estimated scf accuracy    <       0.41532257 Ry

     iteration # 12     ecut=    77.00 Ry     beta= 0.20
     Davidson diagonalization with overlap
     c_bands:  1 eigenvalues not converged
     ethr =  6.90E-06,  avg # of iterations = 15.0

     negative rho (up, down):  4.134E-04 0.000E+00

     total cpu time spent up to now is     5157.7 secs

     total energy              =  -25892.86229787 Ry
     estimated scf accuracy    <       0.05936131 Ry

     iteration # 13     ecut=    77.00 Ry     beta= 0.20
     Davidson diagonalization with overlap
     c_bands:  1 eigenvalues not converged
     c_bands:  2 eigenvalues not converged
     ethr =  4.50E-06,  avg # of iterations = 17.5

     negative rho (up, down):  7.247E-04 0.000E+00

     total cpu time spent up to now is     5609.9 secs

     total energy              =  -25892.89205569 Ry
     estimated scf accuracy    <       0.01875205 Ry

     iteration # 14     ecut=    77.00 Ry     beta= 0.20
     Davidson diagonalization with overlap
     c_bands:  1 eigenvalues not converged
     c_bands:  2 eigenvalues not converged
     ethr =  1.42E-06,  avg # of iterations = 39.8

     negative rho (up, down):  7.681E-04 0.000E+00

     total cpu time spent up to now is     6290.8 secs

     total energy              =  -25892.89655489 Ry
     estimated scf accuracy    <       0.00372554 Ry

     iteration # 15     ecut=    77.00 Ry     beta= 0.20
     Davidson diagonalization with overlap
     ethr =  2.82E-07,  avg # of iterations = 14.0

     negative rho (up, down):  8.648E-04 0.000E+00

     total cpu time spent up to now is     6783.6 secs

     total energy              =  -25892.89924164 Ry
     estimated scf accuracy    <       0.00203120 Ry

     iteration # 16     ecut=    77.00 Ry     beta= 0.20
     Davidson diagonalization with overlap
     ethr =  1.54E-07,  avg # of iterations = 10.8

     negative rho (up, down):  9.799E-04 0.000E+00

     total cpu time spent up to now is     7084.9 secs

     total energy              =  -25892.89940194 Ry
     estimated scf accuracy    <       0.00051614 Ry

     iteration # 17     ecut=    77.00 Ry     beta= 0.20
     Davidson diagonalization with overlap
     c_bands:  2 eigenvalues not converged
     c_bands:  1 eigenvalues not converged
     ethr =  3.91E-08,  avg # of iterations = 19.2

     negative rho (up, down):  1.010E-03 0.000E+00

     total cpu time spent up to now is     7767.7 secs

     total energy              =  -25892.90021469 Ry
     estimated scf accuracy    <       0.00018464 Ry

     iteration # 18     ecut=    77.00 Ry     beta= 0.20
     Davidson diagonalization with overlap
     c_bands:  1 eigenvalues not converged
     ethr =  1.40E-08,  avg # of iterations = 14.2

     negative rho (up, down):  1.017E-03 0.000E+00

     total cpu time spent up to now is     8165.8 secs

     total energy              =  -25892.90027968 Ry
     estimated scf accuracy    <       0.00005909 Ry

     iteration # 19     ecut=    77.00 Ry     beta= 0.20
     Davidson diagonalization with overlap
     ethr =  4.48E-09,  avg # of iterations = 16.2

     negative rho (up, down):  1.045E-03 0.000E+00

     total cpu time spent up to now is     8728.3 secs

     total energy              =  -25892.90033381 Ry
     estimated scf accuracy    <       0.00002345 Ry

     iteration # 20     ecut=    77.00 Ry     beta= 0.20
     Davidson diagonalization with overlap
     c_bands:  3 eigenvalues not converged
     c_bands:  4 eigenvalues not converged
     ethr =  1.78E-09,  avg # of iterations = 17.8

     negative rho (up, down):  1.056E-03 0.000E+00

     total cpu time spent up to now is     9144.0 secs

     total energy              =  -25892.90034017 Ry
     estimated scf accuracy    <       0.00001046 Ry

     iteration # 21     ecut=    77.00 Ry     beta= 0.20
     Davidson diagonalization with overlap
     c_bands:  2 eigenvalues not converged
     ethr =  7.92E-10,  avg # of iterations = 16.2

     negative rho (up, down):  1.063E-03 0.000E+00

     total cpu time spent up to now is     9618.4 secs

     total energy              =  -25892.90034384 Ry
     estimated scf accuracy    <       0.00000413 Ry

     iteration # 22     ecut=    77.00 Ry     beta= 0.20
     Davidson diagonalization with overlap
     ethr =  3.13E-10,  avg # of iterations = 11.2

     negative rho (up, down):  1.072E-03 0.000E+00

     total cpu time spent up to now is    10022.0 secs

     total energy              =  -25892.90034231 Ry
     estimated scf accuracy    <       0.00000136 Ry

     iteration # 23     ecut=    77.00 Ry     beta= 0.20
     Davidson diagonalization with overlap
     ethr =  1.03E-10,  avg # of iterations = 16.8

     negative rho (up, down):  1.077E-03 0.000E+00

     total cpu time spent up to now is    10540.0 secs

     End of self-consistent calculation

          k = 0.0000 0.0000 0.0000 (321495 PWs)   bands (ev):

   -88.9773 -88.9613 -88.9562 -87.8952 -66.6639 -66.6429 -66.6429 -66.6428
   -66.6428 -66.6428 -66.6427 -66.6217 -66.6217 -66.6217 -66.6216 -66.6216
   -66.6216 -66.6216 -66.6215 -66.6215 -66.5984 -66.5776 -66.5776 -66.5776
   -66.5772 -66.5771 -66.5770 -66.5567 -66.5566 -66.5564 -66.5564 -66.5561
   -66.5561 -66.5558 -66.5557 -66.5557 -66.5259 -66.5147 -66.5064 -66.5047
   -66.5040 -66.5038 -66.5026 -66.4835 -66.4829 -66.4795 -66.4765 -66.4761
   -66.4732 -66.4664 -66.4658 -66.4639 -55.0809 -54.9761 -54.9541 -54.8505
   -54.8251 -54.8178 -54.5563 -54.5561 -54.5270 -53.6273 -53.6169 -53.6137
   -40.9903 -40.9903 -40.9903 -40.9238 -40.9237 -40.9237 -40.9155 -40.9155
   -40.9155 -40.9155 -40.9154 -40.9154 -40.8491 -40.8491 -40.8489 -40.8489
   -40.8489 -40.8488 -40.8464 -40.8415 -40.8414 -40.8241 -40.7899 -40.7899
   -40.7899 -40.7899 -40.7899 -40.7899 -40.7827 -40.7827 -40.7827 -40.7826
   -40.7826 -40.7826 -40.7736 -40.7721 -40.7718 -40.7631 -40.7629 -40.7627
   -40.7591 -40.7551 -40.7551 -40.7551 -40.7551 -40.7550 -40.7550 -40.7411
   -40.7410 -40.7410 -40.7410 -40.7409 -40.7409 -40.7409 -40.7409 -40.7408
   -40.7238 -40.7236 -40.7236 -40.7235 -40.7235 -40.7233 -40.7181 -40.7180
   -40.7180 -40.7175 -40.7175 -40.7175 -40.7162 -40.6889 -40.6889 -40.6888
   -40.6888 -40.6885 -40.6885 -40.6848 -40.6829 -40.6773 -40.6773 -40.6773
   -40.6767 -40.6765 -40.6763 -40.6763 -40.6761 -40.6761 -40.6759 -40.6757
   -40.6757 -40.6756 -40.6525 -40.6507 -40.6506 -40.6459 -40.6456 -40.6437
   -40.6435 -40.6398 -40.6341 -40.6305 -40.6305 -40.6305 -40.6304 -40.6304
   -40.6304 -40.6277 -40.6274 -40.6162 -40.6139 -40.6118 -40.6116 -40.6111
   -40.6110 -40.6110 -40.6103 -40.6102 -40.6067 -40.6044 -40.6042 -40.6026
   -40.5990 -40.5986 -40.5983 -40.5832 -40.5831 -40.5644 -40.5643 -40.5643
   -40.5642 -40.5642 -40.5641 -40.5283 -40.5280 -40.5277 -40.5170 -40.5170
   -40.4871 -40.4867 -40.4812 -40.4811 -40.4794 -40.4685 -40.4330 -40.4329
   -20.3607 -20.0883 -19.9369 -19.7416 -19.2419 -19.2418 -19.2317 -19.2317
   -19.2293 -19.2242 -19.1837 -19.1835 -19.1370 -19.1368 -19.1162 -19.0831
   -19.0534 -19.0533 -19.0250 -19.0248 -18.9910 -18.8585 -18.7690 -18.6813
   -18.4958 -18.4804 -18.4802 -18.4568 -18.4566 -18.4331 -18.4180 -18.3464
   -18.3464 -18.3305 -18.3303 -18.2892 -18.2751 -18.2397 -18.1868 -18.1864
   -18.1835 -18.1833 -18.1714 -18.1398 -18.1238 -18.1238 -18.1235 -18.1235
   -18.1234 -18.1234 -18.0835 -18.0834 -18.0833 -18.0601 -18.0593 -18.0464
   -18.0462 -18.0415 -18.0394 -18.0353 -18.0351 -18.0126 -18.0081 -18.0081
   -17.9749 -17.9743 -17.9478 -17.9478 -17.9437 -17.9333 -17.9282 -17.9268
   -17.9268 -17.9033 -17.9031 -17.9013 -17.8965 -17.8964 -17.8755 -17.8684
   -17.8683 -17.8615 -17.8422 -17.8308 -17.8306 -17.8302 -17.8302 -17.8035
   -17.8013 -17.8010 -17.7840 -17.7632 -17.7551 -17.7551 -17.7425 -17.7422
   -12.3843 -12.1360 -12.1354 -11.8985 -11.7556 -11.7382 -11.7382 -11.7257
   -11.6557 -11.6557 -11.6458 -11.4861 -11.3626 -11.3626 -11.2303 -11.2297
   -11.1922 -11.1921 -11.1908 -11.1674 -11.1588 -11.1580 -11.1157 -11.1137
   -11.1114 -11.1088 -11.1087 -11.0968 -11.0966 -11.0301 -11.0057 -10.9758
   -10.9757 -10.9636 -10.9636 -10.9545 -10.9332 -10.9294 -10.9291 -10.9038
   -10.9036 -10.8987 -10.8725 -10.8560 -10.8557 -10.8492 -10.8211 -10.8211
   -10.8157 -10.8138 -10.8138 -10.8132 -10.8043 -10.8041 -10.7904 -10.7859
   -10.7859 -10.7759 -10.7680 -10.7677 -10.7676 -10.7602 -10.7597 -10.7430
   -10.7424 -10.7371 -10.7155 -10.6863 -10.6860 -10.6521 -10.6183 -10.6183
   -10.6121 -10.5887 -10.5884 -10.5345 -10.2682 -10.2630 -10.0404 -10.0401
   -10.0332 -10.0137 -10.0129  -9.9857  -9.9048  -9.8924  -9.8581  -9.8579
    -9.7772  -9.7668  -9.7665  -9.7571  -9.7481  -9.7480  -9.7232  -9.6851
    -9.6848  -9.6804  -9.6801  -9.6711  -9.6415  -9.6413  -9.6333  -9.6080
    -9.6051  -9.6037  -9.6002  -9.5994  -9.5994  -9.5770  -9.5755  -9.5596
    -9.5596  -9.5570  -9.5569  -9.5559  -9.5546  -9.5258  -9.5256  -9.5035
    -9.4663  -9.4490  -9.4308  -9.4305  -9.4195  -9.4194  -9.3888  -9.3885
    -9.3445  -9.3424  -9.3327  -9.3309  -9.3257  -9.3045  -9.3021  -9.2935
    -9.2514  -9.2514  -9.2286  -9.2285  -9.1918  -9.1850  -9.1846  -9.1785
    -9.1588  -9.1571  -9.1138  -9.1005  -9.0987  -9.0235  -9.0114  -9.0107
    -9.0034  -9.0019  -9.0019  -9.0004  -8.9921  -8.9530  -8.9528  -8.9260
    -8.9259  -8.9193  -8.8893  -8.8672  -8.8661  -8.8494  -8.8347  -8.8301
    -8.7942  -8.7929  -8.7880  -8.7814  -8.7782  -8.7773  -8.7685  -8.7673
    -8.7545  -8.7535  -8.7310  -8.7304  -8.7216  -8.7048  -8.7047  -8.6871
    -8.6790  -8.6753  -8.5736  -8.5561  -8.4129  -8.4129  -8.4124  -8.3435
    -8.3429  -8.3395  -8.3384  -8.3022  -8.3019  -8.3009  -8.3009  -8.3009
    -8.3007  -8.3007  -8.2894  -8.2406  -8.2404  -8.2323  -8.2282  -8.2278
    -8.2218  -8.2204  -8.2202  -8.1797  -8.1519  -8.1452  -7.9586  -7.9580
    -7.9402  -7.9026  -7.9011  -7.8802  -7.8380  -7.8168  -7.8143  -7.6857
    -7.6518  -7.6505  -7.5691  -7.5656  -7.5654  -7.5653  -7.5653  -7.5652
    -7.5652  -7.5200  -7.5200  -7.5193  -7.5193  -7.5190  -7.5189  -7.5115
    -7.5110  -7.5021  -7.4931  -7.4912  -7.4911  -7.4844  -7.4843  -7.4777
    -7.4621  -7.4534  -7.4531  -7.4465  -7.4465  -7.4461  -7.4375  -7.4230
    -7.4225  -7.4171  -7.4073  -7.4071  -7.4030  -7.3920  -7.3910  -7.3892
    -7.3790  -7.3771  -7.2884  -7.2878  -7.2841  -7.2840  -7.2578  -7.2548
    -7.2175  -7.2174  -7.2056  -7.2053  -7.1640  -7.1428  -7.0787  -7.0717
    -7.0090  -6.9674  -6.9668  -6.9543  -6.8981  -6.8958  -6.8472  -6.8238
    -6.8093  -6.8076  -6.7789  -6.7658  -6.7645  -6.6582  -6.6574  -6.6506
    -6.6481  -6.6468  -6.6088  -6.6083  -6.6051  -6.5934  -6.5688  -6.5680
    -6.5540  -6.5381  -6.5380  -6.5093  -6.5090  -6.4963  -6.4835  -6.4826
    -6.4814  -6.4766  -6.4559  -6.4552  -6.4387  -6.4383  -6.4090  -6.4042
    -6.4037  -6.3911  -6.3891  -6.3559  -6.3548  -6.3443  -6.3321  -6.3321
    -6.3321  -6.3321  -6.3321  -6.3321  -6.2836  -6.2695  -6.2580  -6.2579
    -6.2557  -6.2557  -6.2545  -6.2466  -6.2223  -6.2210  -6.1772  -6.1762
    -6.1756  -5.9875  -5.7695  -5.7566  -5.5039  -5.4436  -5.1895  -5.1370
    -5.1298  -5.0317  -4.7998  -4.7984  -4.2745  -3.8530  -3.8516  -3.8185
    -3.8181  -3.8169  -3.8002  -3.7934  -3.7929  -3.7877  -3.7829  -3.7828
    -3.7701  -3.6736  -3.6722  -3.5895  -3.5811  -3.5807  -3.5756  -3.5742
    -3.5736  -3.5521  -3.5518  -3.5443  -3.4779  -3.4726  -3.4725  -3.4725
    -3.4634  -3.4556  -3.4555  -3.4546  -3.4542  -3.4542  -3.4099  -3.4063
    -3.4063  -3.4018  -3.3929  -3.3923  -3.3676  -3.3607  -3.3605  -3.3536
    -3.3534  -3.3445  -3.3416  -3.3398  -3.3396  -3.3210  -3.3208  -3.2985
    -3.2902  -3.2901  -3.2884  -3.2416  -3.2413  -3.2327  -3.2326  -3.2136
    -3.2095  -3.1850  -3.1802  -3.1801  -3.0073  -3.0070  -3.0068  -3.0017
    -3.0017  -2.9487  -2.9479  -2.9354  -2.9352  -2.9346  -2.9343  -2.9341
    -2.9336  -2.9333  -2.9328  -2.9194  -2.9126  -2.9125  -2.9036  -2.9032
    -2.9023  -2.8775  -2.8772  -2.8725  -2.8664  -2.8663  -2.8654  -2.8644
    -2.8613  -2.8608  -2.8433  -2.8430  -2.8381  -2.8087  -2.8015  -2.8013
    -2.7736  -2.7618  -2.7603  -2.7514  -2.7513  -2.7233  -2.7226  -2.7199
    -2.7183  -2.7173  -2.7166  -2.6845  -2.6839  -2.6530  -2.6460  -2.6456
    -2.6230  -2.6223  -2.5986  -2.5980  -2.5879  -2.5178  -2.5164  -2.5091
    -2.5085  -2.5053  -2.4665  -2.4581  -2.4575  -2.4367  -2.4357  -2.4153

          k = 0.0000-0.5773 0.0000 (321564 PWs)   bands (ev):

   -88.9773 -88.9613 -88.9562 -87.8952 -66.6578 -66.6577 -66.6472 -66.6472
   -66.6322 -66.6322 -66.6322 -66.6322 -66.6279 -66.6278 -66.6217 -66.6216
   -66.6216 -66.6216 -66.6172 -66.6172 -66.5925 -66.5921 -66.5817 -66.5817
   -66.5668 -66.5668 -66.5667 -66.5667 -66.5626 -66.5622 -66.5565 -66.5564
   -66.5561 -66.5557 -66.5518 -66.5517 -66.5224 -66.5195 -66.5089 -66.5082
   -66.5017 -66.5012 -66.4990 -66.4838 -66.4822 -66.4817 -66.4759 -66.4751
   -66.4733 -66.4685 -66.4663 -66.4622 -55.0809 -54.9761 -54.9541 -54.8505
   -54.8251 -54.8178 -54.5563 -54.5561 -54.5270 -53.6273 -53.6169 -53.6137
   -40.9589 -40.9589 -40.9588 -40.9588 -40.9322 -40.9322 -40.9203 -40.9203
   -40.8926 -40.8925 -40.8923 -40.8920 -40.8699 -40.8699 -40.8699 -40.8699
   -40.8659 -40.8655 -40.8538 -40.8538 -40.8186 -40.8141 -40.8120 -40.8119
   -40.8089 -40.8060 -40.8034 -40.8034 -40.8034 -40.8034 -40.8019 -40.8019
   -40.7929 -40.7913 -40.7913 -40.7801 -40.7710 -40.7690 -40.7618 -40.7618
   -40.7618 -40.7618 -40.7532 -40.7531 -40.7473 -40.7468 -40.7410 -40.7409
   -40.7409 -40.7409 -40.7409 -40.7409 -40.7356 -40.7356 -40.7323 -40.7323
   -40.7264 -40.7263 -40.7253 -40.7220 -40.7206 -40.7182 -40.7135 -40.7102
   -40.7102 -40.7102 -40.7101 -40.6970 -40.6970 -40.6969 -40.6969 -40.6896
   -40.6885 -40.6881 -40.6855 -40.6764 -40.6763 -40.6760 -40.6757 -40.6757
   -40.6757 -40.6757 -40.6756 -40.6746 -40.6746 -40.6720 -40.6675 -40.6675
   -40.6636 -40.6636 -40.6603 -40.6592 -40.6492 -40.6482 -40.6444 -40.6444
   -40.6441 -40.6440 -40.6438 -40.6437 -40.6384 -40.6275 -40.6275 -40.6261
   -40.6228 -40.6218 -40.6153 -40.6152 -40.6094 -40.6094 -40.6094 -40.6094
   -40.6057 -40.6048 -40.6018 -40.6001 -40.5976 -40.5971 -40.5971 -40.5970
   -40.5945 -40.5887 -40.5783 -40.5781 -40.5685 -40.5630 -40.5613 -40.5613
   -40.5593 -40.5568 -40.5325 -40.5315 -40.5311 -40.5307 -40.5252 -40.5232
   -40.5161 -40.5081 -40.4984 -40.4913 -40.4802 -40.4716 -40.4487 -40.4444
   -20.3329 -19.8618 -19.8530 -19.7569 -19.7043 -19.6343 -19.5159 -19.4306
   -19.4178 -19.3515 -19.2785 -19.2303 -19.1046 -18.7638 -18.7514 -18.7218
   -18.7208 -18.7171 -18.7142 -18.6693 -18.6656 -18.6642 -18.6132 -18.5894
   -18.5870 -18.5743 -18.5658 -18.5423 -18.5346 -18.5265 -18.4766 -18.4685
   -18.4558 -18.4308 -18.4111 -18.3980 -18.3948 -18.3750 -18.3581 -18.3038
   -18.2893 -18.2512 -18.2365 -18.2216 -18.2185 -18.2030 -18.1730 -18.1361
   -18.1288 -18.1228 -18.1078 -18.1041 -18.1040 -18.1040 -18.1037 -18.0806
   -18.0653 -18.0585 -18.0356 -18.0348 -18.0289 -18.0239 -18.0198 -18.0141
   -18.0005 -17.9844 -17.9722 -17.9705 -17.9594 -17.9450 -17.9259 -17.9232
   -17.9232 -17.9130 -17.9000 -17.8925 -17.8672 -17.8636 -17.8492 -17.8403
   -17.8403 -17.8362 -17.8003 -17.8002 -17.7819 -17.7814 -17.7804 -17.7659
   -17.7653 -17.7596 -17.7517 -17.7439 -17.7215 -17.7211 -17.6683 -17.6648
   -12.3707 -12.0773 -12.0397 -11.6579 -11.6463 -11.5311 -11.4556 -11.4527
   -11.4492 -11.4476 -11.4300 -11.4239 -11.4091 -11.3860 -11.3592 -11.3557
   -11.3491 -11.3450 -11.3283 -11.2948 -11.2915 -11.2842 -11.2634 -11.2537
   -11.2332 -11.2331 -11.2331 -11.2125 -11.1896 -11.1887 -11.1812 -11.1360
   -11.1335 -11.1296 -11.1246 -11.0523 -11.0484 -10.9903 -10.9777 -10.9456
   -10.9446 -10.9364 -10.9127 -10.9122 -10.8894 -10.8851 -10.8750 -10.8693
   -10.8298 -10.8222 -10.8192 -10.8113 -10.8073 -10.8068 -10.8064 -10.8029
   -10.7880 -10.7868 -10.7845 -10.7510 -10.7466 -10.7376 -10.7304 -10.7146
   -10.6910 -10.5763 -10.5583 -10.5115 -10.4703 -10.4501 -10.4079 -10.3639
   -10.3224 -10.2546 -10.2364 -10.1906 -10.1170 -10.1152 -10.0962 -10.0915
   -10.0822 -10.0721 -10.0290  -9.9988  -9.9885  -9.9605  -9.9354  -9.9174
    -9.9142  -9.9089  -9.9069  -9.8963  -9.8782  -9.8715  -9.8702  -9.8603
    -9.8491  -9.8348  -9.7868  -9.7804  -9.7705  -9.7336  -9.7327  -9.7108
    -9.7018  -9.6921  -9.6878  -9.6805  -9.6765  -9.6704  -9.6553  -9.6328
    -9.6270  -9.6021  -9.5994  -9.5880  -9.5683  -9.5653  -9.5275  -9.5170
    -9.5102  -9.5055  -9.4588  -9.4534  -9.4483  -9.4473  -9.4194  -9.3595
    -9.3341  -9.3213  -9.2599  -9.2259  -9.2157  -9.1873  -9.1854  -9.1731
    -9.1517  -9.1372  -9.1186  -9.1141  -9.1044  -9.0904  -9.0848  -9.0754
    -9.0650  -9.0291  -9.0261  -9.0151  -9.0080  -8.9973  -8.9929  -8.9733
    -8.9588  -8.9565  -8.9441  -8.9278  -8.9271  -8.9183  -8.9136  -8.9120
    -8.9077  -8.9028  -8.8696  -8.8648  -8.8540  -8.8434  -8.8347  -8.8324
    -8.8310  -8.8284  -8.8231  -8.8159  -8.8153  -8.8141  -8.8051  -8.7777
    -8.7752  -8.7483  -8.7449  -8.7394  -8.7270  -8.7182  -8.7126  -8.7034
    -8.6642  -8.6033  -8.5448  -8.4884  -8.4884  -8.4866  -8.4659  -8.4239
    -8.4103  -8.4015  -8.3899  -8.2898  -8.2887  -8.1845  -8.1783  -8.1694
    -8.1693  -8.1194  -8.1024  -8.0985  -8.0934  -8.0619  -8.0462  -7.9979
    -7.9574  -7.9185  -7.9059  -7.9008  -7.8431  -7.8411  -7.8339  -7.8337
    -7.8248  -7.8236  -7.8227  -7.8226  -7.8223  -7.8153  -7.7780  -7.7765
    -7.7764  -7.7757  -7.7629  -7.7542  -7.7537  -7.7381  -7.7377  -7.7318
    -7.7201  -7.7173  -7.7035  -7.7032  -7.6993  -7.6916  -7.6888  -7.6712
    -7.6664  -7.6588  -7.6562  -7.6376  -7.6375  -7.6375  -7.6331  -7.6312
    -7.6125  -7.6074  -7.6015  -7.5968  -7.5709  -7.5666  -7.5567  -7.5527
    -7.5028  -7.4933  -7.4808  -7.4672  -7.4549  -7.4520  -7.4323  -7.3593
    -7.3571  -7.2826  -7.2701  -7.2151  -7.2078  -7.2009  -7.1942  -7.1545
    -7.1147  -7.0990  -7.0968  -7.0709  -7.0396  -7.0283  -6.9963  -6.9893
    -6.9859  -6.9768  -6.9681  -6.9578  -6.9293  -6.9162  -6.9062  -6.9036
    -6.8773  -6.8587  -6.8506  -6.8314  -6.8148  -6.8058  -6.7325  -6.7310
    -6.6842  -6.6814  -6.6648  -6.6384  -6.6348  -6.6345  -6.6344  -6.6332
    -6.6319  -6.6061  -6.5991  -6.5719  -6.5704  -6.5672  -6.5623  -6.5475
    -6.5398  -6.5375  -6.4908  -6.4639  -6.4560  -6.4266  -6.3975  -6.3378
    -6.3053  -6.3033  -6.3028  -6.3018  -6.2797  -6.2594  -6.2391  -6.2365
    -6.2254  -6.2219  -6.2155  -6.2141  -6.1937  -6.1913  -6.1721  -6.1514
    -6.1119  -6.0683  -5.9543  -5.9543  -5.9036  -5.8843  -5.8747  -5.8560
    -5.8094  -5.7282  -5.7076  -5.6728  -5.5500  -5.5126  -5.4743  -5.1180
    -5.1000  -5.0577  -4.7903  -4.7857  -4.2548  -4.0128  -4.0055  -3.9957
    -3.9749  -3.8698  -3.8698  -3.8653  -3.8490  -3.8077  -3.8073  -3.8022
    -3.8015  -3.7601  -3.7565  -3.7431  -3.7034  -3.6738  -3.6308  -3.5833
    -3.5755  -3.5735  -3.5704  -3.5605  -3.5579  -3.5551  -3.5543  -3.5308
    -3.5037  -3.4801  -3.4725  -3.4709  -3.4619  -3.4610  -3.4587  -3.4496
    -3.4419  -3.4351  -3.4287  -3.4092  -3.3686  -3.3501  -3.3420  -3.3382
    -3.3253  -3.3231  -3.3229  -3.2966  -3.2929  -3.2907  -3.2883  -3.2797
    -3.2547  -3.2474  -3.2465  -3.2461  -3.2460  -3.2281  -3.2191  -3.2157
    -3.2058  -3.2046  -3.1850  -3.1818  -3.1731  -3.1730  -3.1678  -3.1640
    -3.1357  -3.1322  -3.1141  -3.1082  -3.1030  -3.0883  -3.0784  -3.0439
    -3.0427  -3.0128  -3.0041  -3.0025  -3.0015  -2.9843  -2.9833  -2.9830
    -2.9827  -2.9669  -2.9530  -2.9348  -2.9339  -2.9273  -2.9182  -2.9141
    -2.9018  -2.8983  -2.8868  -2.8865  -2.8711  -2.8669  -2.8559  -2.8535
    -2.8441  -2.8331  -2.8309  -2.8142  -2.8008  -2.7839  -2.7751  -2.7720
    -2.7597  -2.7067  -2.6991  -2.6774  -2.6620  -2.6303  -2.6261  -2.6210
    -2.6151  -2.6107  -2.6087  -2.5536  -2.5408  -2.4914  -2.4860  -2.4753
    -2.4736  -2.4661  -2.4544  -2.3475  -2.3407  -2.2683  -2.2622  -2.2477

          k =-0.5000-0.2887 0.0000 (321564 PWs)   bands (ev):

   -88.9773 -88.9613 -88.9562 -87.8952 -66.6578 -66.6577 -66.6472 -66.6472
   -66.6322 -66.6322 -66.6322 -66.6322 -66.6279 -66.6278 -66.6217 -66.6216
   -66.6216 -66.6215 -66.6172 -66.6172 -66.5924 -66.5921 -66.5817 -66.5817
   -66.5668 -66.5668 -66.5667 -66.5667 -66.5625 -66.5622 -66.5564 -66.5563
   -66.5561 -66.5558 -66.5518 -66.5517 -66.5226 -66.5192 -66.5099 -66.5074
   -66.5020 -66.5005 -66.4993 -66.4835 -66.4826 -66.4817 -66.4763 -66.4747
   -66.4733 -66.4681 -66.4667 -66.4621 -55.0809 -54.9761 -54.9541 -54.8505
   -54.8251 -54.8178 -54.5563 -54.5561 -54.5270 -53.6273 -53.6169 -53.6137
   -40.9589 -40.9589 -40.9588 -40.9588 -40.9323 -40.9322 -40.9203 -40.9203
   -40.8926 -40.8925 -40.8923 -40.8920 -40.8699 -40.8699 -40.8699 -40.8699
   -40.8659 -40.8656 -40.8538 -40.8538 -40.8185 -40.8141 -40.8120 -40.8119
   -40.8084 -40.8063 -40.8035 -40.8034 -40.8034 -40.8034 -40.8019 -40.8019
   -40.7930 -40.7913 -40.7912 -40.7801 -40.7712 -40.7691 -40.7618 -40.7618
   -40.7618 -40.7618 -40.7532 -40.7531 -40.7472 -40.7469 -40.7410 -40.7409
   -40.7409 -40.7409 -40.7409 -40.7408 -40.7356 -40.7356 -40.7323 -40.7323
   -40.7264 -40.7263 -40.7254 -40.7222 -40.7205 -40.7181 -40.7135 -40.7102
   -40.7102 -40.7101 -40.7101 -40.6970 -40.6970 -40.6969 -40.6969 -40.6906
   -40.6885 -40.6881 -40.6840 -40.6763 -40.6763 -40.6761 -40.6757 -40.6757
   -40.6757 -40.6756 -40.6756 -40.6746 -40.6746 -40.6727 -40.6675 -40.6675
   -40.6636 -40.6635 -40.6602 -40.6593 -40.6488 -40.6480 -40.6445 -40.6444
   -40.6440 -40.6440 -40.6439 -40.6437 -40.6385 -40.6275 -40.6275 -40.6263
   -40.6229 -40.6218 -40.6152 -40.6149 -40.6095 -40.6094 -40.6094 -40.6094
   -40.6055 -40.6050 -40.6020 -40.6001 -40.5976 -40.5972 -40.5971 -40.5970
   -40.5944 -40.5885 -40.5783 -40.5781 -40.5690 -40.5633 -40.5614 -40.5613
   -40.5588 -40.5570 -40.5325 -40.5311 -40.5310 -40.5307 -40.5253 -40.5231
   -40.5162 -40.5081 -40.4983 -40.4915 -40.4803 -40.4716 -40.4487 -40.4442
   -20.3329 -19.8618 -19.8530 -19.7571 -19.7043 -19.6344 -19.5155 -19.4306
   -19.4178 -19.3515 -19.2786 -19.2302 -19.1049 -18.7641 -18.7512 -18.7220
   -18.7207 -18.7171 -18.7143 -18.6701 -18.6649 -18.6640 -18.6132 -18.5893
   -18.5871 -18.5741 -18.5660 -18.5423 -18.5345 -18.5264 -18.4764 -18.4685
   -18.4556 -18.4308 -18.4112 -18.3979 -18.3947 -18.3749 -18.3582 -18.3035
   -18.2894 -18.2513 -18.2365 -18.2216 -18.2184 -18.2031 -18.1730 -18.1361
   -18.1291 -18.1226 -18.1078 -18.1041 -18.1040 -18.1040 -18.1038 -18.0806
   -18.0653 -18.0589 -18.0356 -18.0348 -18.0290 -18.0240 -18.0198 -18.0140
   -18.0005 -17.9844 -17.9723 -17.9705 -17.9593 -17.9453 -17.9260 -17.9232
   -17.9231 -17.9129 -17.9001 -17.8929 -17.8671 -17.8634 -17.8492 -17.8402
   -17.8402 -17.8363 -17.8002 -17.7999 -17.7819 -17.7814 -17.7801 -17.7658
   -17.7652 -17.7597 -17.7520 -17.7435 -17.7214 -17.7211 -17.6686 -17.6650
   -12.3707 -12.0778 -12.0389 -11.6579 -11.6464 -11.5322 -11.4556 -11.4527
   -11.4492 -11.4476 -11.4301 -11.4240 -11.4091 -11.3864 -11.3590 -11.3556
   -11.3489 -11.3451 -11.3281 -11.2949 -11.2915 -11.2842 -11.2632 -11.2533
   -11.2331 -11.2331 -11.2329 -11.2129 -11.1895 -11.1887 -11.1810 -11.1360
   -11.1334 -11.1296 -11.1247 -11.0520 -11.0478 -10.9905 -10.9780 -10.9461
   -10.9448 -10.9366 -10.9125 -10.9121 -10.8894 -10.8849 -10.8750 -10.8687
   -10.8296 -10.8218 -10.8192 -10.8115 -10.8074 -10.8069 -10.8064 -10.8030
   -10.7879 -10.7875 -10.7843 -10.7510 -10.7466 -10.7377 -10.7305 -10.7138
   -10.6903 -10.5754 -10.5586 -10.5118 -10.4703 -10.4502 -10.4099 -10.3641
   -10.3223 -10.2553 -10.2337 -10.1952 -10.1165 -10.1128 -10.0954 -10.0916
   -10.0815 -10.0724 -10.0288  -9.9988  -9.9881  -9.9611  -9.9355  -9.9176
    -9.9142  -9.9089  -9.9069  -9.8963  -9.8782  -9.8712  -9.8710  -9.8601
    -9.8493  -9.8343  -9.7873  -9.7801  -9.7710  -9.7335  -9.7327  -9.7104
    -9.7017  -9.6923  -9.6878  -9.6805  -9.6769  -9.6702  -9.6554  -9.6328
    -9.6264  -9.6026  -9.5993  -9.5884  -9.5688  -9.5645  -9.5282  -9.5171
    -9.5099  -9.5055  -9.4593  -9.4530  -9.4478  -9.4473  -9.4175  -9.3589
    -9.3354  -9.3215  -9.2599  -9.2272  -9.2186  -9.1866  -9.1853  -9.1721
    -9.1542  -9.1376  -9.1204  -9.1142  -9.1038  -9.0902  -9.0855  -9.0749
    -9.0657  -9.0265  -9.0256  -9.0142  -9.0069  -8.9970  -8.9917  -8.9741
    -8.9580  -8.9566  -8.9441  -8.9280  -8.9270  -8.9182  -8.9136  -8.9114
    -8.9076  -8.9030  -8.8700  -8.8649  -8.8540  -8.8434  -8.8345  -8.8326
    -8.8320  -8.8272  -8.8233  -8.8159  -8.8154  -8.8135  -8.8047  -8.7784
    -8.7752  -8.7479  -8.7451  -8.7394  -8.7272  -8.7199  -8.7153  -8.7021
    -8.6590  -8.5988  -8.5464  -8.4900  -8.4883  -8.4844  -8.4766  -8.4215
    -8.4104  -8.4014  -8.3892  -8.2904  -8.2804  -8.1888  -8.1810  -8.1694
    -8.1693  -8.1197  -8.1022  -8.0985  -8.0930  -8.0645  -8.0477  -7.9971
    -7.9578  -7.9174  -7.9057  -7.8998  -7.8432  -7.8413  -7.8342  -7.8336
    -7.8243  -7.8234  -7.8227  -7.8226  -7.8220  -7.8149  -7.7779  -7.7765
    -7.7764  -7.7757  -7.7633  -7.7542  -7.7537  -7.7386  -7.7376  -7.7315
    -7.7204  -7.7173  -7.7036  -7.7032  -7.6994  -7.6921  -7.6886  -7.6713
    -7.6661  -7.6574  -7.6559  -7.6378  -7.6376  -7.6375  -7.6337  -7.6298
    -7.6120  -7.6066  -7.6009  -7.5959  -7.5707  -7.5666  -7.5567  -7.5519
    -7.5032  -7.4924  -7.4809  -7.4694  -7.4545  -7.4494  -7.4303  -7.3616
    -7.3580  -7.2840  -7.2716  -7.2153  -7.2077  -7.2011  -7.1946  -7.1595
    -7.1142  -7.0990  -7.0920  -7.0728  -7.0385  -7.0287  -6.9966  -6.9890
    -6.9861  -6.9770  -6.9684  -6.9576  -6.9299  -6.9163  -6.9063  -6.9060
    -6.8774  -6.8599  -6.8431  -6.8308  -6.8142  -6.8054  -6.7351  -6.7321
    -6.6865  -6.6824  -6.6610  -6.6378  -6.6346  -6.6345  -6.6344  -6.6331
    -6.6311  -6.6085  -6.6014  -6.5727  -6.5705  -6.5672  -6.5626  -6.5488
    -6.5403  -6.5370  -6.4905  -6.4633  -6.4544  -6.4263  -6.3970  -6.3404
    -6.3051  -6.3033  -6.3027  -6.3018  -6.2770  -6.2566  -6.2391  -6.2365
    -6.2254  -6.2217  -6.2150  -6.2137  -6.1933  -6.1912  -6.1715  -6.1522
    -6.1117  -6.0685  -5.9543  -5.9543  -5.9016  -5.8845  -5.8742  -5.8568
    -5.8068  -5.7293  -5.7158  -5.6698  -5.5500  -5.5112  -5.4764  -5.1136
    -5.1044  -5.0573  -4.7907  -4.7869  -4.2538  -4.0131  -4.0049  -3.9957
    -3.9749  -3.8698  -3.8698  -3.8658  -3.8486  -3.8077  -3.8071  -3.8025
    -3.8003  -3.7605  -3.7568  -3.7428  -3.7031  -3.6733  -3.6316  -3.5834
    -3.5755  -3.5733  -3.5704  -3.5605  -3.5580  -3.5552  -3.5544  -3.5311
    -3.5024  -3.4804  -3.4724  -3.4708  -3.4617  -3.4613  -3.4582  -3.4494
    -3.4420  -3.4352  -3.4304  -3.4094  -3.3683  -3.3497  -3.3425  -3.3373
    -3.3255  -3.3232  -3.3229  -3.2972  -3.2927  -3.2905  -3.2881  -3.2807
    -3.2549  -3.2471  -3.2463  -3.2458  -3.2457  -3.2281  -3.2196  -3.2165
    -3.2061  -3.2057  -3.1856  -3.1817  -3.1735  -3.1728  -3.1678  -3.1643
    -3.1357  -3.1315  -3.1158  -3.1080  -3.1031  -3.0888  -3.0770  -3.0439
    -3.0426  -3.0126  -3.0041  -3.0029  -3.0020  -2.9843  -2.9832  -2.9831
    -2.9827  -2.9672  -2.9527  -2.9349  -2.9341  -2.9271  -2.9183  -2.9146
    -2.9014  -2.8985  -2.8868  -2.8866  -2.8709  -2.8662  -2.8558  -2.8535
    -2.8438  -2.8328  -2.8313  -2.8131  -2.8000  -2.7836  -2.7766  -2.7743
    -2.7597  -2.7064  -2.6993  -2.6778  -2.6624  -2.6311  -2.6259  -2.6213
    -2.6152  -2.6108  -2.6089  -2.5538  -2.5411  -2.4923  -2.4863  -2.4762
    -2.4739  -2.4661  -2.4555  -2.3457  -2.3422  -2.2810  -2.2683  -2.2599

          k =-0.5000-0.8660 0.0000 (321564 PWs)   bands (ev):

   -88.9773 -88.9613 -88.9562 -87.8952 -66.6577 -66.6577 -66.6472 -66.6472
   -66.6322 -66.6322 -66.6322 -66.6322 -66.6278 -66.6278 -66.6216 -66.6216
   -66.6216 -66.6216 -66.6172 -66.6172 -66.5924 -66.5921 -66.5817 -66.5817
   -66.5669 -66.5668 -66.5667 -66.5667 -66.5625 -66.5622 -66.5564 -66.5562
   -66.5562 -66.5558 -66.5518 -66.5517 -66.5226 -66.5192 -66.5099 -66.5074
   -66.5020 -66.5005 -66.4993 -66.4834 -66.4827 -66.4816 -66.4763 -66.4746
   -66.4733 -66.4681 -66.4668 -66.4621 -55.0809 -54.9761 -54.9541 -54.8505
   -54.8251 -54.8178 -54.5563 -54.5561 -54.5270 -53.6273 -53.6169 -53.6137
   -40.9589 -40.9589 -40.9589 -40.9588 -40.9322 -40.9322 -40.9203 -40.9203
   -40.8926 -40.8925 -40.8923 -40.8920 -40.8699 -40.8699 -40.8699 -40.8699
   -40.8659 -40.8656 -40.8538 -40.8538 -40.8186 -40.8141 -40.8120 -40.8120
   -40.8084 -40.8063 -40.8034 -40.8034 -40.8034 -40.8034 -40.8019 -40.8019
   -40.7930 -40.7913 -40.7913 -40.7801 -40.7712 -40.7691 -40.7618 -40.7618
   -40.7618 -40.7618 -40.7532 -40.7531 -40.7472 -40.7469 -40.7410 -40.7409
   -40.7409 -40.7409 -40.7409 -40.7409 -40.7356 -40.7356 -40.7323 -40.7323
   -40.7264 -40.7263 -40.7254 -40.7222 -40.7205 -40.7180 -40.7135 -40.7102
   -40.7102 -40.7102 -40.7101 -40.6970 -40.6970 -40.6969 -40.6969 -40.6907
   -40.6885 -40.6881 -40.6840 -40.6763 -40.6762 -40.6761 -40.6757 -40.6757
   -40.6757 -40.6757 -40.6757 -40.6746 -40.6746 -40.6727 -40.6675 -40.6675
   -40.6636 -40.6636 -40.6602 -40.6593 -40.6488 -40.6480 -40.6444 -40.6444
   -40.6440 -40.6440 -40.6439 -40.6437 -40.6385 -40.6275 -40.6275 -40.6263
   -40.6229 -40.6218 -40.6152 -40.6149 -40.6095 -40.6094 -40.6094 -40.6094
   -40.6055 -40.6050 -40.6020 -40.6001 -40.5975 -40.5972 -40.5971 -40.5970
   -40.5944 -40.5885 -40.5783 -40.5781 -40.5690 -40.5633 -40.5614 -40.5613
   -40.5588 -40.5570 -40.5325 -40.5311 -40.5310 -40.5307 -40.5253 -40.5231
   -40.5162 -40.5081 -40.4983 -40.4916 -40.4803 -40.4716 -40.4487 -40.4442
   -20.3329 -19.8618 -19.8530 -19.7571 -19.7043 -19.6344 -19.5154 -19.4306
   -19.4178 -19.3515 -19.2786 -19.2302 -19.1050 -18.7641 -18.7512 -18.7220
   -18.7207 -18.7171 -18.7143 -18.6701 -18.6649 -18.6640 -18.6132 -18.5892
   -18.5871 -18.5741 -18.5660 -18.5423 -18.5345 -18.5264 -18.4764 -18.4685
   -18.4556 -18.4308 -18.4112 -18.3979 -18.3947 -18.3749 -18.3582 -18.3034
   -18.2894 -18.2513 -18.2365 -18.2216 -18.2184 -18.2031 -18.1730 -18.1361
   -18.1291 -18.1226 -18.1079 -18.1041 -18.1040 -18.1040 -18.1038 -18.0806
   -18.0653 -18.0589 -18.0355 -18.0348 -18.0289 -18.0240 -18.0198 -18.0140
   -18.0005 -17.9844 -17.9723 -17.9705 -17.9594 -17.9452 -17.9259 -17.9232
   -17.9231 -17.9129 -17.9001 -17.8929 -17.8671 -17.8635 -17.8491 -17.8403
   -17.8403 -17.8362 -17.8002 -17.8000 -17.7819 -17.7814 -17.7801 -17.7658
   -17.7652 -17.7598 -17.7520 -17.7435 -17.7215 -17.7211 -17.6685 -17.6648
   -12.3707 -12.0778 -12.0389 -11.6579 -11.6464 -11.5323 -11.4556 -11.4527
   -11.4493 -11.4476 -11.4301 -11.4240 -11.4091 -11.3864 -11.3590 -11.3556
   -11.3489 -11.3451 -11.3281 -11.2949 -11.2915 -11.2842 -11.2632 -11.2533
   -11.2331 -11.2331 -11.2329 -11.2130 -11.1896 -11.1887 -11.1809 -11.1360
   -11.1334 -11.1296 -11.1247 -11.0520 -11.0478 -10.9905 -10.9780 -10.9461
   -10.9448 -10.9365 -10.9125 -10.9121 -10.8894 -10.8849 -10.8750 -10.8687
   -10.8295 -10.8218 -10.8192 -10.8115 -10.8074 -10.8069 -10.8064 -10.8030
   -10.7879 -10.7876 -10.7842 -10.7510 -10.7466 -10.7377 -10.7305 -10.7138
   -10.6903 -10.5754 -10.5587 -10.5118 -10.4703 -10.4502 -10.4099 -10.3641
   -10.3223 -10.2553 -10.2337 -10.1954 -10.1164 -10.1127 -10.0954 -10.0916
   -10.0815 -10.0725 -10.0288  -9.9988  -9.9881  -9.9611  -9.9354  -9.9176
    -9.9141  -9.9089  -9.9069  -9.8963  -9.8783  -9.8713  -9.8710  -9.8601
    -9.8493  -9.8343  -9.7872  -9.7800  -9.7709  -9.7335  -9.7327  -9.7105
    -9.7018  -9.6923  -9.6878  -9.6805  -9.6769  -9.6701  -9.6554  -9.6328
    -9.6265  -9.6025  -9.5993  -9.5882  -9.5688  -9.5644  -9.5282  -9.5171
    -9.5099  -9.5055  -9.4593  -9.4530  -9.4478  -9.4473  -9.4174  -9.3590
    -9.3354  -9.3215  -9.2598  -9.2272  -9.2187  -9.1866  -9.1853  -9.1721
    -9.1543  -9.1377  -9.1204  -9.1142  -9.1038  -9.0902  -9.0855  -9.0749
    -9.0657  -9.0266  -9.0256  -9.0142  -9.0069  -8.9970  -8.9917  -8.9741
    -8.9580  -8.9566  -8.9441  -8.9280  -8.9270  -8.9182  -8.9136  -8.9115
    -8.9076  -8.9030  -8.8699  -8.8648  -8.8540  -8.8434  -8.8345  -8.8325
    -8.8320  -8.8272  -8.8232  -8.8159  -8.8154  -8.8135  -8.8046  -8.7784
    -8.7753  -8.7479  -8.7451  -8.7394  -8.7273  -8.7199  -8.7153  -8.7021
    -8.6589  -8.5987  -8.5464  -8.4900  -8.4883  -8.4844  -8.4766  -8.4215
    -8.4103  -8.4014  -8.3892  -8.2904  -8.2804  -8.1887  -8.1811  -8.1694
    -8.1693  -8.1198  -8.1022  -8.0984  -8.0929  -8.0646  -8.0477  -7.9970
    -7.9578  -7.9173  -7.9058  -7.8998  -7.8431  -7.8412  -7.8342  -7.8336
    -7.8244  -7.8234  -7.8227  -7.8226  -7.8222  -7.8151  -7.7779  -7.7765
    -7.7764  -7.7757  -7.7633  -7.7543  -7.7537  -7.7386  -7.7375  -7.7314
    -7.7204  -7.7173  -7.7036  -7.7032  -7.6994  -7.6922  -7.6886  -7.6713
    -7.6661  -7.6573  -7.6559  -7.6378  -7.6376  -7.6375  -7.6337  -7.6298
    -7.6120  -7.6065  -7.6008  -7.5959  -7.5708  -7.5666  -7.5568  -7.5519
    -7.5033  -7.4926  -7.4810  -7.4695  -7.4546  -7.4495  -7.4303  -7.3614
    -7.3580  -7.2838  -7.2716  -7.2152  -7.2076  -7.2010  -7.1946  -7.1596
    -7.1142  -7.0991  -7.0919  -7.0729  -7.0384  -7.0287  -6.9966  -6.9890
    -6.9860  -6.9770  -6.9684  -6.9576  -6.9299  -6.9163  -6.9064  -6.9060
    -6.8774  -6.8599  -6.8431  -6.8308  -6.8142  -6.8054  -6.7351  -6.7320
    -6.6865  -6.6824  -6.6610  -6.6378  -6.6346  -6.6345  -6.6344  -6.6331
    -6.6310  -6.6084  -6.6015  -6.5727  -6.5705  -6.5672  -6.5626  -6.5488
    -6.5403  -6.5370  -6.4905  -6.4633  -6.4544  -6.4263  -6.3970  -6.3404
    -6.3051  -6.3033  -6.3028  -6.3018  -6.2771  -6.2566  -6.2391  -6.2365
    -6.2254  -6.2218  -6.2150  -6.2138  -6.1934  -6.1913  -6.1717  -6.1522
    -6.1117  -6.0685  -5.9543  -5.9543  -5.9016  -5.8845  -5.8742  -5.8567
    -5.8068  -5.7292  -5.7158  -5.6698  -5.5499  -5.5111  -5.4764  -5.1134
    -5.1046  -5.0573  -4.7908  -4.7868  -4.2538  -4.0131  -4.0050  -3.9958
    -3.9749  -3.8698  -3.8698  -3.8657  -3.8486  -3.8078  -3.8072  -3.8025
    -3.8003  -3.7605  -3.7568  -3.7430  -3.7032  -3.6733  -3.6316  -3.5834
    -3.5754  -3.5732  -3.5705  -3.5606  -3.5579  -3.5553  -3.5543  -3.5310
    -3.5024  -3.4806  -3.4727  -3.4709  -3.4617  -3.4616  -3.4582  -3.4492
    -3.4420  -3.4353  -3.4304  -3.4094  -3.3685  -3.3500  -3.3425  -3.3375
    -3.3257  -3.3232  -3.3231  -3.2971  -3.2928  -3.2905  -3.2882  -3.2807
    -3.2550  -3.2472  -3.2464  -3.2460  -3.2459  -3.2281  -3.2196  -3.2165
    -3.2061  -3.2057  -3.1856  -3.1818  -3.1735  -3.1730  -3.1678  -3.1642
    -3.1361  -3.1319  -3.1158  -3.1080  -3.1031  -3.0885  -3.0769  -3.0438
    -3.0426  -3.0131  -3.0039  -3.0029  -3.0019  -2.9844  -2.9832  -2.9830
    -2.9827  -2.9674  -2.9528  -2.9350  -2.9342  -2.9268  -2.9183  -2.9143
    -2.9013  -2.8983  -2.8868  -2.8866  -2.8709  -2.8662  -2.8560  -2.8535
    -2.8438  -2.8328  -2.8313  -2.8138  -2.8001  -2.7844  -2.7779  -2.7729
    -2.7596  -2.7071  -2.6998  -2.6792  -2.6628  -2.6309  -2.6260  -2.6209
    -2.6152  -2.6109  -2.6088  -2.5538  -2.5410  -2.4922  -2.4864  -2.4758
    -2.4738  -2.4660  -2.4556  -2.3443  -2.3393  -2.2725  -2.2682  -2.2591

     the Fermi energy is    -4.5147 ev

!    total energy              =  -25892.90034061 Ry
     total all-electron energy =   -505732.857197 Ry
     estimated scf accuracy    <       0.00000069 Ry
     smearing contrib. (-TS)   =      -0.00035383 Ry
     internal energy E=F+TS    =  -25892.89998677 Ry

     The total energy is F=E-TS. E is the sum of the following terms:
     one-electron contribution =  519757.55011033 Ry
     hartree contribution      = -259989.66961039 Ry
     xc contribution           =   -1552.19592118 Ry
     ewald contribution        = -267741.02978521 Ry
     DFT-D3 Dispersion         =      -4.08431096 Ry
     one-center paw contrib.   =  -16363.47046937 Ry

     convergence has been achieved in  23 iterations

     negative rho (up, down):  1.077E-03 0.000E+00

     Forces acting on atoms (cartesian axes, Ry/au):

     atom    1 type  1   force =     0.00001495   -0.00392438    0.01038085
     atom    2 type  1   force =     0.00000342   -0.00000235    0.00190085
     atom    3 type  1   force =     0.00001427   -0.00000348   -0.00001919
     atom    4 type  2   force =     0.00000036   -0.00000076   -0.00325303
     atom    5 type  2   force =     0.00000296   -0.00001382    0.00001332
     atom    6 type  2   force =    -0.00085383   -0.00016665   -0.00140504
     atom    7 type  2   force =     0.00000441    0.00000000    0.00146857
     atom    8 type  2   force =     0.00000352    0.00000692    0.00003355
     atom    9 type  2   force =    -0.00188048   -0.00304290   -0.00303559
     atom   10 type  1   force =    -0.00404795    0.00260622    0.01000207
     atom   11 type  1   force =    -0.00000743   -0.00000198    0.00189546
     atom   12 type  1   force =     0.00000692    0.00000636    0.00000178
     atom   13 type  2   force =    -0.00000004   -0.00000151   -0.00324924
     atom   14 type  2   force =    -0.00001576   -0.00000869    0.00003888
     atom   15 type  2   force =     0.00005752   -0.00066868   -0.00095731
     atom   16 type  2   force =     0.00000686    0.00000038    0.00147070
     atom   17 type  2   force =     0.00001820   -0.00002541    0.00000474
     atom   18 type  2   force =    -0.00331147   -0.00012836   -0.00248704
     atom   19 type  1   force =     0.00052700   -0.00107061   -0.00039608
     atom   20 type  1   force =     0.00000067   -0.00000377    0.00189710
     atom   21 type  1   force =    -0.00004739    0.00001258   -0.00002630
     atom   22 type  2   force =     0.00000089   -0.00000015   -0.00325296
     atom   23 type  2   force =    -0.00002839    0.00000009   -0.00001328
     atom   24 type  2   force =    -0.00001534   -0.00001299   -0.00032409
     atom   25 type  2   force =     0.00000245    0.00000121    0.00147367
     atom   26 type  2   force =    -0.00002745    0.00000895    0.00000739
     atom   27 type  2   force =     0.00000180    0.00000496    0.00045026
     atom   28 type  1   force =    -0.00079184    0.00093510   -0.00035459
     atom   29 type  1   force =    -0.00000874    0.00000210    0.00189465
     atom   30 type  1   force =    -0.00000667   -0.00001669   -0.00001865
     atom   31 type  2   force =    -0.00000178    0.00000007   -0.00325149
     atom   32 type  2   force =    -0.00001573   -0.00000665    0.00001768
     atom   33 type  2   force =     0.00000030    0.00020470   -0.00009632
     atom   34 type  2   force =    -0.00000288   -0.00000050    0.00145848
     atom   35 type  2   force =    -0.00000178   -0.00000304    0.00000164
     atom   36 type  2   force =     0.00001326   -0.00003078    0.00077727
     atom   37 type  1   force =    -0.00014243    0.00003543    0.00003846
     atom   38 type  1   force =     0.00000853    0.00000676    0.00190338
     atom   39 type  1   force =    -0.00000266    0.00000594   -0.00001825
     atom   40 type  2   force =     0.00000071    0.00000177   -0.00325165
     atom   41 type  2   force =     0.00003303   -0.00003344    0.00002528
     atom   42 type  2   force =     0.00086715   -0.00012448   -0.00140132
     atom   43 type  2   force =    -0.00000551    0.00000284    0.00146955
     atom   44 type  2   force =     0.00001068   -0.00003093    0.00001816
     atom   45 type  2   force =     0.00186142   -0.00304102   -0.00303746
     atom   46 type  1   force =     0.00407567    0.00259486    0.00993513
     atom   47 type  1   force =     0.00001954    0.00000203    0.00189758
     atom   48 type  1   force =     0.00001496   -0.00001667   -0.00006935
     atom   49 type  2   force =     0.00000282   -0.00000120   -0.00325255
     atom   50 type  2   force =     0.00002015   -0.00000995    0.00004941
     atom   51 type  2   force =     0.00000423    0.00011349   -0.00016668
     atom   52 type  2   force =     0.00000197    0.00000083    0.00148139
     atom   53 type  2   force =    -0.00001084   -0.00002990    0.00000113
     atom   54 type  2   force =     0.00001666    0.00085470   -0.00921380
     atom   55 type  1   force =    -0.00000146   -0.00047162    0.00002605
     atom   56 type  1   force =     0.00000808    0.00000746    0.00189825
     atom   57 type  1   force =    -0.00001661   -0.00001157   -0.00002574
     atom   58 type  2   force =     0.00000088    0.00000035   -0.00325470
     atom   59 type  2   force =     0.00000173    0.00002116    0.00000462
     atom   60 type  2   force =     0.00031795    0.00014691   -0.00106288
     atom   61 type  2   force =     0.00000396   -0.00000322    0.00147949
     atom   62 type  2   force =     0.00000130    0.00001267   -0.00005065
     atom   63 type  2   force =    -0.00134129    0.00287216   -0.00262827
     atom   64 type  1   force =    -0.00050424   -0.00011307   -0.00010663
     atom   65 type  1   force =     0.00000676    0.00000757    0.00189623
     atom   66 type  1   force =    -0.00001710   -0.00000505   -0.00008494
     atom   67 type  2   force =     0.00000079    0.00000281   -0.00325325
     atom   68 type  2   force =     0.00003003    0.00003368    0.00000129
     atom   69 type  2   force =     0.00024710    0.00024831   -0.00043921
     atom   70 type  2   force =    -0.00000349   -0.00000569    0.00146826
     atom   71 type  2   force =    -0.00003936   -0.00000499    0.00002557
     atom   72 type  2   force =     0.00007619   -0.00018068    0.00046735
     atom   73 type  1   force =    -0.00000689    0.00061019   -0.00002679
     atom   74 type  1   force =    -0.00000122    0.00000667    0.00190587
     atom   75 type  1   force =    -0.00003260    0.00003918    0.00000490
     atom   76 type  2   force =     0.00000131    0.00000220   -0.00325196
     atom   77 type  2   force =    -0.00000198   -0.00004230    0.00006001
     atom   78 type  2   force =    -0.00013619    0.00014505   -0.00015319
     atom   79 type  2   force =    -0.00000586   -0.00000203    0.00147733
     atom   80 type  2   force =    -0.00000356    0.00002740   -0.00006100
     atom   81 type  2   force =     0.00070181   -0.00034721    0.00036425
     atom   82 type  1   force =    -0.00123541    0.00024986   -0.00037299
     atom   83 type  1   force =     0.00000121   -0.00000195    0.00190470
     atom   84 type  1   force =    -0.00001615   -0.00000187    0.00000259
     atom   85 type  2   force =     0.00000291    0.00000232   -0.00324691
     atom   86 type  2   force =     0.00001525    0.00002965    0.00001505
     atom   87 type  2   force =    -0.00010455   -0.00067683   -0.00095776
     atom   88 type  2   force =    -0.00000527    0.00000429    0.00146784
     atom   89 type  2   force =     0.00003432    0.00002112    0.00001349
     atom   90 type  2   force =     0.00328702   -0.00011453   -0.00249350
     atom   91 type  1   force =    -0.00051496   -0.00107142   -0.00036751
     atom   92 type  1   force =     0.00000425   -0.00000467    0.00190100
     atom   93 type  1   force =     0.00001943   -0.00002028   -0.00002528
     atom   94 type  2   force =     0.00000349   -0.00000081   -0.00325384
     atom   95 type  2   force =     0.00002821   -0.00000224   -0.00001235
     atom   96 type  2   force =    -0.00030174    0.00013044   -0.00106418
     atom   97 type  2   force =    -0.00000018   -0.00000311    0.00147959
     atom   98 type  2   force =     0.00002936    0.00000694    0.00000831
     atom   99 type  2   force =     0.00133028    0.00285631   -0.00261277
     atom  100 type  1   force =     0.00050455   -0.00011953   -0.00012911
     atom  101 type  1   force =     0.00000497    0.00000473    0.00190031
     atom  102 type  1   force =    -0.00000291   -0.00002893    0.00006801
     atom  103 type  2   force =     0.00000316    0.00000207   -0.00325202
     atom  104 type  2   force =    -0.00003087    0.00002892   -0.00000056
     atom  105 type  2   force =    -0.00000641   -0.00013285   -0.00008409
     atom  106 type  2   force =     0.00000221   -0.00000778    0.00147357
     atom  107 type  2   force =     0.00004124   -0.00000685    0.00002509
     atom  108 type  2   force =     0.00000564    0.00046261   -0.00026005
     atom  109 type  1   force =     0.00014806    0.00003018    0.00000288
     atom  110 type  1   force =    -0.00001516   -0.00000807    0.00189917
     atom  111 type  1   force =     0.00001737    0.00003594    0.00001704
     atom  112 type  2   force =     0.00000190   -0.00000018   -0.00324773
     atom  113 type  2   force =    -0.00003322   -0.00003715    0.00001898
     atom  114 type  2   force =     0.00013960    0.00015356   -0.00018670
     atom  115 type  2   force =     0.00000474   -0.00000445    0.00147314
     atom  116 type  2   force =    -0.00001110   -0.00003987    0.00001770
     atom  117 type  2   force =    -0.00068607   -0.00035084    0.00034624
     atom  118 type  1   force =     0.00121711    0.00025280   -0.00037450
     atom  119 type  1   force =    -0.00001739   -0.00000629    0.00189629
     atom  120 type  1   force =    -0.00001031    0.00001683   -0.00008308
     atom  121 type  2   force =    -0.00000185   -0.00000102   -0.00324719
     atom  122 type  2   force =    -0.00002271    0.00002840    0.00001145
     atom  123 type  2   force =    -0.00001679   -0.00008608   -0.00044329
     atom  124 type  2   force =    -0.00000436    0.00000544    0.00146917
     atom  125 type  2   force =    -0.00003996    0.00002228    0.00001649
     atom  126 type  2   force =    -0.00001969    0.00048151    0.00028749
     atom  127 type  1   force =     0.00000431    0.00012408   -0.00064754
     atom  128 type  1   force =    -0.00001315   -0.00000855    0.00189436
     atom  129 type  1   force =     0.00003334    0.00000610   -0.00002982
     atom  130 type  2   force =    -0.00000021   -0.00000268   -0.00324832
     atom  131 type  2   force =    -0.00000427   -0.00000249    0.00001811
     atom  132 type  2   force =     0.00002067   -0.00000841   -0.00031862
     atom  133 type  2   force =    -0.00000655   -0.00000086    0.00147039
     atom  134 type  2   force =    -0.00000526   -0.00000078    0.00000098
     atom  135 type  2   force =     0.00002732    0.00000076    0.00047040
     atom  136 type  1   force =     0.00079359    0.00090938   -0.00034419
     atom  137 type  1   force =    -0.00000445   -0.00000797    0.00189357
     atom  138 type  1   force =     0.00001532   -0.00002296   -0.00007978
     atom  139 type  2   force =     0.00000023    0.00000110   -0.00324878
     atom  140 type  2   force =     0.00000894   -0.00001336    0.00001880
     atom  141 type  2   force =    -0.00023563    0.00022455   -0.00044287
     atom  142 type  2   force =     0.00000097   -0.00000651    0.00146372
     atom  143 type  2   force =    -0.00000636   -0.00000960    0.00000130
     atom  144 type  2   force =    -0.00009132   -0.00017521    0.00048820
     atom  145 type  3   force =     0.13554545    0.07891500   -0.12803725
     atom  146 type  3   force =    -0.13541412    0.07884067   -0.12793528
     atom  147 type  3   force =     0.00001612   -0.17172303   -0.14158111
     atom  148 type  3   force =    -0.00011108    0.01287932    0.40065732
     The non-local contrib.  to forces
[...]
     atom   68 type  2   force =    -0.00000144   -0.00000050   -0.00004804
     atom   69 type  2   force =    -0.00000497   -0.00000319   -0.00011494
     atom   70 type  2   force =    -0.00000043   -0.00000028    0.00023999
     atom   71 type  2   force =    -0.00001212    0.00001775    0.00011919
     atom   72 type  2   force =    -0.00006366   -0.00003718   -0.00420409
     atom   73 type  1   force =    -0.00000001    0.00007316   -0.00239540
     atom   74 type  1   force =     0.00000000    0.00000001    0.00260721
     atom   75 type  1   force =     0.00000969   -0.00000558    0.00000232
     atom   76 type  2   force =    -0.00000006   -0.00000004    0.00440930
     atom   77 type  2   force =     0.00000001    0.00000002   -0.00004602
     atom   78 type  2   force =     0.00001222   -0.00000711   -0.00010777
     atom   79 type  2   force =    -0.00000055   -0.00000033    0.00023987
     atom   80 type  2   force =    -0.00000006   -0.00000012    0.00013153
     atom   81 type  2   force =    -0.00049247    0.00028463   -0.00419664
     atom   82 type  1   force =    -0.00047250   -0.00006927   -0.00205667
     atom   83 type  1   force =    -0.00000009    0.00000023    0.00260755
     atom   84 type  1   force =     0.00002418   -0.00000020   -0.00003384
     atom   85 type  2   force =    -0.00000005    0.00000002    0.00440885
     atom   86 type  2   force =     0.00000029    0.00000153   -0.00004807
     atom   87 type  2   force =    -0.00012257    0.00000988    0.00026906
     atom   88 type  2   force =    -0.00000040    0.00000020    0.00024005
     atom   89 type  2   force =     0.00002152    0.00000157    0.00011916
     atom   90 type  2   force =    -0.00121498   -0.00012316   -0.00373377
     atom   91 type  1   force =    -0.00029648   -0.00037467   -0.00205655
     atom   92 type  1   force =     0.00000008    0.00000005    0.00260786
     atom   93 type  1   force =     0.00001183    0.00002111   -0.00003372
     atom   94 type  2   force =    -0.00000007   -0.00000004    0.00440839
     atom   95 type  2   force =     0.00000217    0.00000127   -0.00005086
     atom   96 type  2   force =    -0.00005308   -0.00011082    0.00026914
     atom   97 type  2   force =    -0.00000000   -0.00000003    0.00024022
     atom   98 type  2   force =     0.00003976    0.00002296    0.00010519
     atom   99 type  2   force =    -0.00071475   -0.00099095   -0.00373298
     atom  100 type  1   force =     0.00006311   -0.00003650   -0.00239525
     atom  101 type  1   force =     0.00000015   -0.00000018    0.00260754
     atom  102 type  1   force =     0.00000000    0.00001111    0.00000248
     atom  103 type  2   force =     0.00000000   -0.00000006    0.00440885
     atom  104 type  2   force =     0.00000146   -0.00000051   -0.00004804
     atom  105 type  2   force =     0.00000003    0.00001384   -0.00010765
     atom  106 type  2   force =    -0.00000001   -0.00000047    0.00024005
     atom  107 type  2   force =     0.00001202    0.00001773    0.00011920
     atom  108 type  2   force =     0.00000000   -0.00056913   -0.00419614
     atom  109 type  1   force =     0.00067169    0.00038805   -0.00166681
     atom  110 type  1   force =     0.00000023   -0.00000002    0.00260754
     atom  111 type  1   force =    -0.00000968   -0.00000558    0.00000232
     atom  112 type  2   force =     0.00000006   -0.00000004    0.00440930
     atom  113 type  2   force =     0.00000118   -0.00000097   -0.00004807
     atom  114 type  2   force =    -0.00001212   -0.00000711   -0.00010774
     atom  115 type  2   force =     0.00000052   -0.00000034    0.00023987
     atom  116 type  2   force =    -0.00000953   -0.00001953    0.00011921
     atom  117 type  2   force =     0.00049250    0.00028465   -0.00419661
     atom  118 type  1   force =     0.00047251   -0.00006928   -0.00205668
     atom  119 type  1   force =     0.00000009    0.00000023    0.00260755
     atom  120 type  1   force =     0.00000000   -0.00000108    0.00000525
     atom  121 type  2   force =     0.00000000    0.00000008    0.00440930
     atom  122 type  2   force =    -0.00000027    0.00000154   -0.00004807
     atom  123 type  2   force =     0.00000004    0.00000607   -0.00011484
     atom  124 type  2   force =    -0.00000001    0.00000059    0.00023987
     atom  125 type  2   force =    -0.00002165    0.00000157    0.00011916
     atom  126 type  2   force =     0.00000002    0.00007370   -0.00420432
     atom  127 type  1   force =     0.00000002   -0.00000043   -0.00239626
     atom  128 type  1   force =     0.00000000    0.00000016    0.00260808
     atom  129 type  1   force =     0.00000860    0.00000499    0.00000519
     atom  130 type  2   force =     0.00000002   -0.00000003    0.00440924
     atom  131 type  2   force =     0.00000001    0.00000211   -0.00004576
     atom  132 type  2   force =    -0.00000946   -0.00000532   -0.00011785
     atom  133 type  2   force =    -0.00000002    0.00000046    0.00024000
     atom  134 type  2   force =    -0.00000006    0.00001021    0.00012122
     atom  135 type  2   force =    -0.00051944   -0.00030008   -0.00412358
     atom  136 type  1   force =     0.00017602    0.00044376   -0.00205687
     atom  137 type  1   force =     0.00000013   -0.00000007    0.00260808
     atom  138 type  1   force =    -0.00000102    0.00000051    0.00000528
     atom  139 type  2   force =    -0.00000002    0.00000003    0.00440924
     atom  140 type  2   force =     0.00000182   -0.00000102   -0.00004577
     atom  141 type  2   force =     0.00000503   -0.00000318   -0.00011494
     atom  142 type  2   force =     0.00000041   -0.00000028    0.00023999
     atom  143 type  2   force =     0.00000880   -0.00000533    0.00012120
     atom  144 type  2   force =     0.00006367   -0.00003716   -0.00420410
     atom  145 type  3   force =    -0.00030734   -0.00017719   -0.00619181
     atom  146 type  3   force =     0.00030734   -0.00017720   -0.00619180
     atom  147 type  3   force =    -0.00000002    0.00035454   -0.00619187
     atom  148 type  3   force =     0.00000001   -0.00000019   -0.00504144

     Total force =     0.001765     Total SCF correction =     0.000346
     SCF correction compared to forces is large: reduce conv_thr to get better values
     Energy error            =      9.6E-06 Ry
     Gradient error          =      5.4E-04 Ry/Bohr

     bfgs converged in  16 scf cycles and  15 bfgs steps
     (criteria: energy <  1.0E-04 Ry, force <  1.0E-03 Ry/Bohr)

     End of BFGS Geometry Optimization

     Final energy             =  -25893.0721790830 Ry

     File ./outdir/pwscf.bfgs deleted, as requested
Begin final coordinates

ATOMIC_POSITIONS (angstrom)
Mo            1.5762298747        2.6818409683        6.1146000224
Mo            1.5769197498        0.9104407117       -6.0872367793    0   0   0
Mo            0.0002336726        1.8209354385       -0.0024311840
S             0.0000044503        0.0000077495       -7.6506323570    0   0   0
S             1.5767779061        0.9107698432       -1.5683591102
S             0.0049888177        1.8230515909        4.5248199389
S             0.0000053241        0.0000068460       -4.5222282367    0   0   0
S             1.5767709938        0.9097072539        1.5643836510
S            -0.0783164052        1.7558986932        7.6825268393
Mo           -0.0429085145        5.4860634549        6.1144056958
Mo            0.0000011799        3.6417399547       -6.0872367793    0   0   0
Mo           -1.5765383894        4.5519863871       -0.0024313656
S            -1.5769141197        2.7313069925       -7.6506323570    0   0   0
S             0.0002023631        3.6416231297       -1.5677063751
S            -1.5721904155        4.5543426764        4.5247339171
S            -1.5769132459        2.7313060890       -4.5222282367    0   0   0
S             0.0004468898        3.6417536889        1.5657503503
S            -1.6721175747        4.5157472958        7.6824154255
Mo           -1.5837881543        8.2069493593        6.0617218444
Mo           -1.5769173901        6.3730391977       -6.0872367793    0   0   0
Mo           -3.1538157412        7.2830502019       -0.0038420512
S            -3.1538326896        5.4626062355       -7.6506323570    0   0   0
S            -1.5764989355        6.3724036748       -1.5683578101
S            -3.1549997912        7.2826315439        4.4919720899
S            -3.1538318159        5.4626053320       -4.5222282367    0   0   0
S            -1.5774085027        6.3729111740        1.5643796922
S            -3.1597733032        7.2855409017        7.6272405628
Mo            3.1620957440       -0.0132632473        6.0619200730
Mo           -3.1538359601        9.1043384407       -6.0872367793    0   0   0
Mo           -4.7308993716       10.0146374531       -0.0038435369
S            -4.7307512596        8.1939054785       -7.6506323570    0   0   0
S            -3.1536030689        9.1042366362       -1.5689436593
S            -4.7314326665       10.0131381226        4.4920416675
S            -4.7307503859        8.1939045750       -4.5222282367    0   0   0
S            -3.1543925985        9.1037716551        1.5628802295
S            -4.7314356706       10.0074396051        7.6272844000
Mo            4.7469639265        2.7204735429        6.0793820935
Mo            4.7307503218        0.9104407117       -6.0872367793    0   0   0
Mo            3.1533156506        1.8209344145       -0.0024364344
S             3.1538350223        0.0000077495       -7.6506323570    0   0   0
S             4.7302947145        0.9104270060       -1.5679684895
S             3.1474853760        1.8230617490        4.5248193137
S             3.1538358961        0.0000068460       -4.5222282367    0   0   0
S             4.7298973666        0.9103322260        1.5642875718
S             3.2307719429        1.7558986065        7.6825295881
Mo            3.1953418869        5.4860625918        6.1144012306
Mo            3.1538317519        3.6417399547       -6.0872367793    0   0   0
Mo            1.5767708081        4.5518571882       -0.0020216561
S             1.5769164523        2.7313069925       -7.6506323570    0   0   0
S             3.1533493058        3.6416220488       -1.5677103315
S             1.5762167735        4.5512963334        4.5922745154
S             1.5769173261        2.7313060890       -4.5222282367    0   0   0
S             3.1530879569        3.6417501257        1.5657440950
S             1.5762190907        4.5515859787        7.6008935978
Mo            1.5762232519        8.2126480564        6.0789798500
Mo            1.5769131819        6.3730391977       -6.0872367793    0   0   0
Mo           -0.0000039489        7.2826461156       -0.0024395881
S            -0.0000021176        5.4626062355       -7.6506323570    0   0   0
S             1.5767725528        6.3723415407       -1.5677144671
S            -0.0008376908        7.2761734071        4.5245053428
S            -0.0000012439        5.4626053320       -4.5222282367    0   0   0
S             1.5767624607        6.3720419937        1.5657364019
S            -0.0172501651        7.3822431418        7.6821734738
Mo            6.3072050576       -0.0008042412        6.0570831477
Mo           -0.0000053881        9.1043384407       -6.0872367793    0   0   0
Mo           -1.5770670961       10.0144545534       -0.0029550708
S            -1.5769206876        8.1939054785       -7.6506323570    0   0   0
S            -0.0000418231        9.1036170088       -1.5679638921
S            -1.5775956046       10.0139672051        4.4861287277
S            -1.5769198139        8.1939045750       -4.5222282367    0   0   0
S            -0.0003269794        9.1033054971        1.5642859579
S            -1.5733908547       10.0162471659        7.6350281836
Mo            7.8838890822        2.7300410201        6.0572955024
Mo            7.8845808939        0.9104407117       -6.0872367793    0   0   0
Mo            6.3072369196        1.8207225166       -0.0026588339
S             6.3076655943        0.0000077495       -7.6506323570    0   0   0
S             7.8844422037        0.9101389381       -1.5679698419
S             6.3032367479        1.8221519032        4.4927237156
S             6.3076664681        0.0000068460       -4.5222282367    0   0   0
S             7.8844265485        0.9101346437        1.5638211353
S             6.3279681179        1.8076457984        7.6361705141
Mo            6.3221367198        5.4598962414        6.0619129428
Mo            6.3076623239        3.6417399547       -6.0872367793    0   0   0
Mo            4.7300800867        4.5519836067       -0.0024361346
S             4.7307470244        2.7313069925       -7.6506323570    0   0   0
S             6.3071060869        3.6415539095       -1.5679675669
S             4.7246387879        4.5543416310        4.5247314504
S             4.7307478981        2.7313060890       -4.5222282367    0   0   0
S             6.3069700149        3.6419132289        1.5642845055
S             4.8245276944        4.5157648138        7.6824184059
Mo            4.7362326540        8.2069446219        6.0617339369
Mo            4.7307437539        6.3730391977       -6.0872367793    0   0   0
Mo            3.1535376534        7.2826455395       -0.0024393395
S             3.1538284544        5.4626062355       -7.6506323570    0   0   0
S             4.7300433274        6.3724027278       -1.5683601239
S             3.1532954426        7.2761798080        4.5245053145
S             3.1538293281        5.4626053320       -4.5222282367    0   0   0
S             4.7309311526        6.3729063234        1.5643767524
S             3.1696815401        7.3822234651        7.6821780992
Mo            9.4605869071       -0.0008071310        6.0570814318
Mo            3.1538251839        9.1043384407       -6.0872367793    0   0   0
Mo            1.5767626314       10.0141427374       -0.0026464061
S             1.5769098844        8.1939054785       -7.6506323570    0   0   0
S             3.1535786984        9.1036178778       -1.5679636257
S             1.5762274960       10.0096535217        4.4924525549
S             1.5769107581        8.1939045750       -4.5222282367    0   0   0
S             3.1538395116        9.1033051287        1.5642859399
S             1.5762214344       10.0380686226        7.6359601040
Mo           -1.5945074858        2.7204673795        6.0793750986
Mo           11.0384114659        0.9104407117       -6.0872367793    0   0   0
Mo            9.4616326365        1.8207242055       -0.0026529283
S             9.4614961663        0.0000077495       -7.6506323570    0   0   0
S            11.0385866569        0.9104305369       -1.5679636053
S             9.4645536168        1.8221478988        4.4927182014
S             9.4614970401        0.0000068460       -4.5222282367    0   0   0
S            11.0389618647        0.9103327453        1.5642937146
S             9.4398112016        1.8076420640        7.6361655364
Mo           -3.1697033397        5.4598951945        6.0619106483
Mo            9.4614928959        3.6417399547       -6.0872367793    0   0   0
Mo            7.8844309155        4.5518510904       -0.0029535026
S             7.8845775964        2.7313069925       -7.6506323570    0   0   0
S             9.4617710631        3.6415547766       -1.5679626287
S             7.8838817615        4.5509919469        4.4862674376
S             7.8845784701        2.7313060890       -4.5222282367    0   0   0
S             9.4618802419        3.6419174765        1.5642896094
S             7.8838741024        4.5463112530        7.6352261112
Mo           -4.7314351998        8.1927882270        6.0581964594
Mo            7.8845743259        6.3730391977       -6.0872367793    0   0   0
Mo            6.3073468920        7.2830492700       -0.0038435416
S             6.3076590264        5.4626062355       -7.6506323570    0   0   0
S             7.8844336856        6.3722876052       -1.5689438156
S             6.3074521111        7.2826353068        4.4919785408
S             6.3076599001        5.4626053320       -4.5222282367    0   0   0
S             7.8844204118        6.3731688485        1.5628849102
S             6.3122215299        7.2855406867        7.6272463662
Mo           -0.0096240620       -0.0132686942        6.0619258212
Mo            6.3076557559        9.1043384407       -6.0872367793    0   0   0
Mo            4.7305910375       10.0144554011       -0.0029524281
S             4.7307404564        8.1939054785       -7.6506323570    0   0   0
S             6.3071379417        9.1042372416       -1.5689439271
S             4.7300561217       10.0139566286        4.4861379076
S             4.7307413301        8.1939045750       -4.5222282367    0   0   0
S             6.3079049865        9.1037703185        1.5628795182
S             4.7258287230       10.0162454577        7.6350359143
Pd            3.0697844522        5.4137867393        9.0633671536
Pd            0.0825768589        5.4138016389        9.0632930886
Pd            1.5762209042        2.8281313405        9.0640230308
Pd            1.5760832304        4.5534077643       11.0765915870
End final coordinates



     Writing all to output data dir ./outdir/pwscf.save/
 
     init_run     :    104.34s CPU    106.89s WALL (       1 calls)
     electrons    :  76467.03s CPU  77455.77s WALL (      16 calls)
     update_pot   :     65.18s CPU     65.44s WALL (      15 calls)
     forces       :   1080.17s CPU   1112.31s WALL (      16 calls)
     force_dftd3  :      7.41s CPU      7.43s WALL (      16 calls)

     Called by init_run:
     wfcinit      :     85.67s CPU     87.01s WALL (       1 calls)
     potinit      :      1.83s CPU      1.91s WALL (       1 calls)
     hinit0       :     11.65s CPU     11.68s WALL (       1 calls)

     Called by electrons:
     c_bands      :  68192.82s CPU  68694.71s WALL (     209 calls)
     sum_band     :   7602.14s CPU   7885.61s WALL (     209 calls)
     v_of_rho     :     85.67s CPU     87.11s WALL (     213 calls)
     newd         :    433.89s CPU    646.09s WALL (     213 calls)
     PAW_pot      :    123.96s CPU    123.98s WALL (     228 calls)
     mix_rho      :     20.43s CPU     20.45s WALL (     209 calls)
     energy_dftd3 :      3.33s CPU      3.33s WALL (      16 calls)

     Called by c_bands:
     init_us_2    :    333.60s CPU    333.87s WALL (    1800 calls)
     init_us_2:cp :    333.58s CPU    333.87s WALL (    1800 calls)
     cegterg      :  67090.53s CPU  67585.38s WALL (     851 calls)

     Called by *egterg:
     cdiaghg      :   4485.48s CPU   4499.87s WALL (   10845 calls)
     h_psi        :  35850.99s CPU  36008.44s WALL (   10961 calls)
     s_psi        :   7230.51s CPU   7258.93s WALL (   10961 calls)
     g_psi        :     79.60s CPU     79.61s WALL (   10106 calls)

     Called by h_psi:
     h_psi:calbec :   7065.52s CPU   7066.85s WALL (   10961 calls)
     vloc_psi     :  21408.06s CPU  21461.35s WALL (   10961 calls)
     add_vuspsi   :   7283.10s CPU   7314.23s WALL (   10961 calls)

     General routines
     calbec       :   9981.66s CPU   9983.50s WALL (   12113 calls)
     fft          :     79.28s CPU     81.26s WALL (    2940 calls)
     ffts         :      3.80s CPU      3.84s WALL (     422 calls)
     fftw         :  17044.57s CPU  17086.52s WALL ( 4754536 calls)
     interpolate  :      8.50s CPU      8.57s WALL (     213 calls)
 
     Parallel routines
 
     PWSCF        :     21h41m CPU     21h58m WALL

 
   This run was terminated on:  10:34: 9  10Dec2023            

=------------------------------------------------------------------------------=
   JOB DONE.
=------------------------------------------------------------------------------=
Application 11448897 resources: utime ~2810937s, stime ~37548s, Rss ~2414616, inblocks ~0, outblocks ~37598368
