
     Program PWSCF v.7.3 starts on 16Mar2024 at 18:42:50 

     This program is part of the open-source Quantum ESPRESSO suite
     for quantum simulation of materials; please cite
         "P. Giannozzi et al., J. Phys.:Condens. Matter 21 395502 (2009);
         "P. Giannozzi et al., J. Phys.:Condens. Matter 29 465901 (2017);
         "P. Giannozzi et al., J. Chem. Phys. 152 154105 (2020);
          URL http://www.quantum-espresso.org", 
     in publications or presentations arising from this work. More details at
     http://www.quantum-espresso.org/quote

     Parallel version (MPI & OpenMP), running on      36 processor cores
     Number of MPI processes:                36
     Threads/MPI process:                     1

     MPI processes distributed on     1 nodes
     555354 MiB available memory on the printing compute node when the environment starts
 
     Waiting for input...
     Reading input from standard input
Warning: card &CELL ignored
Warning: card / ignored

     Current dimensions of program PWSCF are:
     Max number of different atomic species (ntypx) = 10
     Max number of k-points (npk) =  40000
     Max angular momentum in pseudopotentials (lmaxx) =  4
     file Mo.pbe-spn-kjpaw_psl.1.0.0.UPF: wavefunction(s)  4S 4D renormalized
     file S.pbe-n-kjpaw_psl.1.0.0.UPF: wavefunction(s)  3S 3P renormalized
     file Pd.pbe-spn-kjpaw_psl.1.0.0.UPF: wavefunction(s)  4S 5S 4D renormalized
     file Pt.pbe-spfn-kjpaw_psl.1.0.0.UPF: wavefunction(s)  5P 4F renormalized
 
     R & G space division:  proc/nbgrp/npool/nimage =      36
     Subspace diagonalization in iterative solution of the eigenvalue problem:
     one sub-group per band group will be used
     scalapack distributed-memory algorithm (size of sub-group:  6*  6 procs)

 
     Parallelization info
     --------------------
     sticks:   dense  smooth     PW     G-vecs:    dense   smooth      PW
     Min         585     334     89               198743    85850   11735
     Max         586     335     90               198750    85861   11748
     Sum       21073   12049   3205              7154885  3090769  422587
 
     Using Slab Decomposition
 


     bravais-lattice index     =            0
     lattice parameter (alat)  =      23.8199  a.u.
     unit-cell volume          =   33861.0370 (a.u.)^3
     number of atoms/cell      =          194
     number of atomic types    =            4
     number of electrons       =      1714.00
     number of Kohn-Sham states=         1028
     kinetic-energy cutoff     =      77.0000  Ry
     charge density cutoff     =     539.0000  Ry
     scf convergence threshold =      1.0E-06
     mixing beta               =       0.2000
     number of iterations used =            8  plain     mixing
     energy convergence thresh.=      1.0E-04
     force convergence thresh. =      1.0E-03
     Exchange-correlation= SLA  PW   PBX  PBC
                           (   1   4   3   4   0   0   0)
     nstep                     =         1000


     Effective Screening Medium Method
     =================================
     Boundary Conditions: Vacuum-Slab-Vacuum
     total charge in unit cell        =   0.0000
     grid points for fit at edges     =        4 
 

     celldm(1)=  23.819920  celldm(2)=   0.000000  celldm(3)=   0.000000
     celldm(4)=   0.000000  celldm(5)=   0.000000  celldm(6)=   0.000000

     crystal axes: (cart. coord. in units of alat)
               a(1) = (   1.000000   0.000000   0.000000 )  
               a(2) = (  -0.499999   0.866026   0.000000 )  
               a(3) = (   0.000000   0.000000   2.893000 )  

     reciprocal axes: (cart. coord. in units 2 pi/alat)
               b(1) = (  1.000000  0.577349  0.000000 )  
               b(2) = (  0.000000  1.154700  0.000000 )  
               b(3) = (  0.000000  0.000000  0.345662 )  


     PseudoPot. # 1 for Mo read from file:
     ./pseudo/Mo.pbe-spn-kjpaw_psl.1.0.0.UPF
     MD5 check sum: 317bf72632116215fd98f72de1686f13
     Pseudo is Projector augmented-wave + core cor, Zval = 14.0
     Generated using 'atomic' code by A. Dal Corso  v.7.2
     Shape of augmentation charge: PSQ
     Using radial grid of 1229 points,  6 beta functions with: 
                l(1) =   0
                l(2) =   0
                l(3) =   1
                l(4) =   1
                l(5) =   2
                l(6) =   2
     Q(r) pseudized with 0 coefficients 


     PseudoPot. # 2 for S  read from file:
     ./pseudo/S.pbe-n-kjpaw_psl.1.0.0.UPF
     MD5 check sum: 8b7b5302570d38d5e87fed6a1065abda
     Pseudo is Projector augmented-wave + core cor, Zval =  6.0
     Generated using 'atomic' code by A. Dal Corso  v.7.2
     Shape of augmentation charge: PSQ
     Using radial grid of 1151 points,  6 beta functions with: 
                l(1) =   0
                l(2) =   0
                l(3) =   1
                l(4) =   1
                l(5) =   2
                l(6) =   2
     Q(r) pseudized with 0 coefficients 


     PseudoPot. # 3 for Pd read from file:
     ./pseudo/Pd.pbe-spn-kjpaw_psl.1.0.0.UPF
     MD5 check sum: a60571a671f2502b8a6a4569d20a6edb
     Pseudo is Projector augmented-wave + core cor, Zval = 18.0
     Generated using 'atomic' code by A. Dal Corso  v.7.2
     Shape of augmentation charge: PSQ
     Using radial grid of 1235 points,  6 beta functions with: 
                l(1) =   0
                l(2) =   0
                l(3) =   1
                l(4) =   1
                l(5) =   2
                l(6) =   2
     Q(r) pseudized with 0 coefficients 


     PseudoPot. # 4 for Pt read from file:
     ./pseudo/Pt.pbe-spfn-kjpaw_psl.1.0.0.UPF
     MD5 check sum: 620096ebf4e6ebacc94de60fd67efcb5
     Pseudo is Projector augmented-wave + core cor, Zval = 32.0
     Generated using 'atomic' code by A. Dal Corso  v.7.2
     Shape of augmentation charge: PSQ
     Using radial grid of 1277 points,  8 beta functions with: 
                l(1) =   0
                l(2) =   0
                l(3) =   1
                l(4) =   1
                l(5) =   2
                l(6) =   2
                l(7) =   3
                l(8) =   3
     Q(r) pseudized with 0 coefficients 


     atomic species   valence    mass     pseudopotential
     Mo               14.00    95.95000     Mo( 1.00)
     S                 6.00    32.06000     S ( 1.00)
     Pd               18.00   106.42000     Pd( 1.00)
     Pt               32.00   195.08400     Pt( 1.00)

     No symmetry found



   Cartesian axes

     site n.     atom                  positions (alat units)
         1        Mo     tau(   1) = (   0.0000010   0.1443372  -0.7272732  )
         2        Mo     tau(   2) = (   0.1249995   0.0721706  -0.2424038  )
         3        S      tau(   3) = (   0.0000015   0.1443386  -0.3667807  )
         4        S      tau(   4) = (   0.1250010   0.0721682  -0.6030489  )
         5        S      tau(   5) = (   0.1250010   0.0721683  -0.8514963  )
         6        S      tau(   6) = (   0.0000015   0.1443389  -0.1180260  )
         7        Mo     tau(   7) = (   0.0000007   0.1443589   0.2424205  )
         8        Mo     tau(   8) = (   0.1250041   0.0720322   0.7266168  )
         9        S      tau(   9) = (   0.0000742   0.1444871   0.6020949  )
        10        S      tau(  10) = (   0.1250024   0.0721701   0.3667478  )
        11        S      tau(  11) = (   0.1250035   0.0721876   0.1180348  )
        12        S      tau(  12) = (  -0.0004118   0.1430864   0.8514340  )
        13        Mo     tau(  13) = (  -0.1249989   0.3608437  -0.7272732  )
        14        Mo     tau(  14) = (   0.0000030   0.2886752  -0.2424042  )
        15        S      tau(  15) = (  -0.1249977   0.3608450  -0.3667802  )
        16        S      tau(  16) = (   0.0000012   0.2886747  -0.6030489  )
        17        S      tau(  17) = (   0.0000012   0.2886748  -0.8514963  )
        18        S      tau(  18) = (  -0.1249977   0.3608454  -0.1180274  )
        19        Mo     tau(  19) = (  -0.1249729   0.3608584   0.2424608  )
        20        Mo     tau(  20) = (  -0.0007193   0.2876626   0.7275440  )
        21        S      tau(  21) = (  -0.1251115   0.3607789   0.6027257  )
        22        S      tau(  22) = (   0.0000621   0.2887099   0.3668377  )
        23        S      tau(  23) = (  -0.0000096   0.2886902   0.1180527  )
        24        S      tau(  24) = (  -0.1254673   0.3605734   0.8517408  )
        25        Mo     tau(  25) = (  -0.2499987   0.5773502  -0.7272732  )
        26        Mo     tau(  26) = (  -0.1249977   0.5051839  -0.2424055  )
        27        S      tau(  27) = (  -0.2499981   0.5773518  -0.3667809  )
        28        S      tau(  28) = (  -0.1249986   0.5051812  -0.6030489  )
        29        S      tau(  29) = (  -0.1249986   0.5051813  -0.8514963  )
        30        S      tau(  30) = (  -0.2499979   0.5773512  -0.1180266  )
        31        Mo     tau(  31) = (  -0.2499795   0.5773389   0.2424205  )
        32        Mo     tau(  32) = (  -0.1262356   0.5050639   0.7275441  )
        33        S      tau(  33) = (  -0.2498323   0.5773390   0.6020948  )
        34        S      tau(  34) = (  -0.1249376   0.5052159   0.3668377  )
        35        S      tau(  35) = (  -0.1249905   0.5051638   0.1180531  )
        36        S      tau(  36) = (  -0.2512883   0.5776183   0.8514340  )
        37        Mo     tau(  37) = (  -0.3749985   0.7938567  -0.7272732  )
        38        Mo     tau(  38) = (  -0.2500001   0.7216874  -0.2424031  )
        39        S      tau(  39) = (  -0.3749980   0.7938584  -0.3667800  )
        40        S      tau(  40) = (  -0.2499984   0.7216877  -0.6030489  )
        41        S      tau(  41) = (  -0.2499984   0.7216878  -0.8514963  )
        42        S      tau(  42) = (  -0.3749982   0.7938585  -0.1180264  )
        43        Mo     tau(  43) = (  -0.3749962   0.7938568   0.2423838  )
        44        Mo     tau(  44) = (  -0.2501148   0.7217588   0.7266170  )
        45        S      tau(  45) = (  -0.3749945   0.7938590   0.6021274  )
        46        S      tau(  46) = (  -0.2499958   0.7216877   0.3667488  )
        47        S      tau(  47) = (  -0.2499810   0.7216794   0.1180323  )
        48        S      tau(  48) = (  -0.3749953   0.7938585   0.8511588  )
        49        Mo     tau(  49) = (   0.2500010   0.1443372  -0.7272732  )
        50        Mo     tau(  50) = (   0.3750034   0.0721723  -0.2424032  )
        51        S      tau(  51) = (   0.2500017   0.1443391  -0.3667788  )
        52        S      tau(  52) = (   0.3750010   0.0721682  -0.6030489  )
        53        S      tau(  53) = (   0.3750010   0.0721683  -0.8514963  )
        54        S      tau(  54) = (   0.2500016   0.1443391  -0.1180271  )
        55        Mo     tau(  55) = (   0.2500054   0.1443594   0.2424211  )
        56        Mo     tau(  56) = (   0.3749279   0.0721263   0.7263991  )
        57        S      tau(  57) = (   0.2499344   0.1444864   0.6020948  )
        58        S      tau(  58) = (   0.3750316   0.0721860   0.3667597  )
        59        S      tau(  59) = (   0.3749924   0.0721644   0.1180346  )
        60        S      tau(  60) = (   0.2504199   0.1430865   0.8514340  )
        61        Mo     tau(  61) = (   0.1250012   0.3608437  -0.7272732  )
        62        Mo     tau(  62) = (   0.2500029   0.2886782  -0.2424031  )
        63        S      tau(  63) = (   0.1250024   0.3608455  -0.3667794  )
        64        S      tau(  64) = (   0.2500012   0.2886747  -0.6030489  )
        65        S      tau(  65) = (   0.2500012   0.2886748  -0.8514963  )
        66        S      tau(  66) = (   0.1250021   0.3608455  -0.1180270  )
        67        Mo     tau(  67) = (   0.1250038   0.3608653   0.2423963  )
        68        Mo     tau(  68) = (   0.2507284   0.2876625   0.7275438  )
        69        S      tau(  69) = (   0.1250046   0.3627170   0.6061948  )
        70        S      tau(  70) = (   0.2499461   0.2887116   0.3668373  )
        71        S      tau(  71) = (   0.2500171   0.2886900   0.1180543  )
        72        S      tau(  72) = (   0.1250046   0.3519103   0.8557806  )
        73        Mo     tau(  73) = (   0.0000014   0.5773502  -0.7272732  )
        74        Mo     tau(  74) = (   0.1250045   0.5051840  -0.2424036  )
        75        S      tau(  75) = (   0.0000030   0.5773520  -0.3667799  )
        76        S      tau(  76) = (   0.1250014   0.5051812  -0.6030489  )
        77        S      tau(  77) = (   0.1250014   0.5051813  -0.8514963  )
        78        S      tau(  78) = (   0.0000026   0.5773517  -0.1180274  )
        79        Mo     tau(  79) = (   0.0000222   0.5773400   0.2423964  )
        80        Mo     tau(  80) = (   0.1250047   0.5051836   0.7321380  )
        81        S      tau(  81) = (   0.0016251   0.5764170   0.6061946  )
        82        S      tau(  82) = (   0.1250047   0.5051815   0.3667777  )
        83        S      tau(  83) = (   0.1250048   0.5051819   0.1179962  )
        84        S      tau(  84) = (  -0.0077335   0.5818202   0.8557807  )
        85        Mo     tau(  85) = (  -0.1249984   0.7938567  -0.7272732  )
        86        Mo     tau(  86) = (   0.0000069   0.7216896  -0.2424039  )
        87        S      tau(  87) = (  -0.1249975   0.7938582  -0.3667782  )
        88        S      tau(  88) = (   0.0000016   0.7216877  -0.6030489  )
        89        S      tau(  89) = (   0.0000016   0.7216878  -0.8514963  )
        90        S      tau(  90) = (  -0.1249973   0.7938582  -0.1180279  )
        91        Mo     tau(  91) = (  -0.1249774   0.7938494   0.2424207  )
        92        Mo     tau(  92) = (  -0.0005116   0.7228241   0.7275438  )
        93        S      tau(  93) = (  -0.1249026   0.7937246   0.6020948  )
        94        S      tau(  94) = (   0.0000043   0.7216209   0.3668361  )
        95        S      tau(  95) = (   0.0000226   0.7216928   0.1180549  )
        96        S      tau(  96) = (  -0.1258721   0.7948451   0.8514341  )
        97        Mo     tau(  97) = (   0.5000010   0.1443372  -0.7272732  )
        98        Mo     tau(  98) = (   0.6250001   0.0721662  -0.2424040  )
        99        S      tau(  99) = (   0.5000017   0.1443386  -0.3667801  )
       100        S      tau( 100) = (   0.6250010   0.0721682  -0.6030489  )
       101        S      tau( 101) = (   0.6250010   0.0721683  -0.8514963  )
       102        S      tau( 102) = (   0.5000020   0.1443388  -0.1180261  )
       103        Mo     tau( 103) = (   0.5000075   0.1443411   0.2423793  )
       104        Mo     tau( 104) = (   0.6250042   0.0723339   0.7270464  )
       105        S      tau( 105) = (   0.5002366   0.1444733   0.6023595  )
       106        S      tau( 106) = (   0.6250029   0.0721787   0.3667562  )
       107        S      tau( 107) = (   0.6250040   0.0721260   0.1180315  )
       108        S      tau( 108) = (   0.4998752   0.1442648   0.8512770  )
       109        Mo     tau( 109) = (   0.3750012   0.3608437  -0.7272732  )
       110        Mo     tau( 110) = (   0.4999991   0.2886761  -0.2424038  )
       111        S      tau( 111) = (   0.3750012   0.3608452  -0.3667804  )
       112        S      tau( 112) = (   0.5000012   0.2886747  -0.6030489  )
       113        S      tau( 113) = (   0.5000012   0.2886748  -0.8514963  )
       114        S      tau( 114) = (   0.3750014   0.3608455  -0.1180261  )
       115        Mo     tau( 115) = (   0.3749795   0.3608597   0.2424601  )
       116        Mo     tau( 116) = (   0.5001461   0.2885951   0.7270464  )
       117        S      tau( 117) = (   0.3751205   0.3607791   0.6027254  )
       118        S      tau( 118) = (   0.5000105   0.2886721   0.3667569  )
       119        S      tau( 119) = (   0.4999655   0.2886989   0.1180297  )
       120        S      tau( 120) = (   0.3754765   0.3605739   0.8517402  )
       121        Mo     tau( 121) = (   0.2500014   0.5773502  -0.7272732  )
       122        Mo     tau( 122) = (   0.3749983   0.5051825  -0.2424043  )
       123        S      tau( 123) = (   0.2500017   0.5773519  -0.3667810  )
       124        S      tau( 124) = (   0.3750014   0.5051812  -0.6030489  )
       125        S      tau( 125) = (   0.3750014   0.5051813  -0.8514963  )
       126        S      tau( 126) = (   0.2500018   0.5773519  -0.1180256  )
       127        Mo     tau( 127) = (   0.2499863   0.5773402   0.2423965  )
       128        Mo     tau( 128) = (   0.3762454   0.5050642   0.7275433  )
       129        S      tau( 129) = (   0.2483844   0.5764169   0.6061944  )
       130        S      tau( 130) = (   0.3749442   0.5052158   0.3668400  )
       131        S      tau( 131) = (   0.3749972   0.5051650   0.1180510  )
       132        S      tau( 132) = (   0.2577438   0.5818204   0.8557797  )
       133        Mo     tau( 133) = (   0.1250016   0.7938567  -0.7272732  )
       134        Mo     tau( 134) = (   0.2499995   0.7216883  -0.2424036  )
       135        S      tau( 135) = (   0.1250024   0.7938578  -0.3667813  )
       136        S      tau( 136) = (   0.2500016   0.7216877  -0.6030489  )
       137        S      tau( 137) = (   0.2500016   0.7216878  -0.8514963  )
       138        S      tau( 138) = (   0.1250024   0.7938579  -0.1180253  )
       139        Mo     tau( 139) = (   0.1250047   0.7938294   0.2424606  )
       140        Mo     tau( 140) = (   0.2505220   0.7228241   0.7275433  )
       141        S      tau( 141) = (   0.1250053   0.7939926   0.6027252  )
       142        S      tau( 142) = (   0.2500048   0.7216200   0.3668387  )
       143        S      tau( 143) = (   0.2499864   0.7216915   0.1180524  )
       144        S      tau( 144) = (   0.1250054   0.7944033   0.8517402  )
       145        Mo     tau( 145) = (   0.7500010   0.1443372  -0.7272732  )
       146        Mo     tau( 146) = (   0.8750038   0.0721696  -0.2424038  )
       147        S      tau( 147) = (   0.7500016   0.1443382  -0.3667789  )
       148        S      tau( 148) = (   0.8750010   0.0721682  -0.6030489  )
       149        S      tau( 149) = (   0.8750010   0.0721683  -0.8514963  )
       150        S      tau( 150) = (   0.7500016   0.1443384  -0.1180279  )
       151        Mo     tau( 151) = (   0.7499986   0.1443409   0.2423802  )
       152        Mo     tau( 152) = (   0.8750804   0.0721266   0.7263988  )
       153        S      tau( 153) = (   0.7497713   0.1444738   0.6023592  )
       154        S      tau( 154) = (   0.8749758   0.0721848   0.3667595  )
       155        S      tau( 155) = (   0.8750127   0.0721632   0.1180342  )
       156        S      tau( 156) = (   0.7501331   0.1442647   0.8512770  )
       157        Mo     tau( 157) = (   0.6250012   0.3608437  -0.7272732  )
       158        Mo     tau( 158) = (   0.7500028   0.2886769  -0.2424041  )
       159        S      tau( 159) = (   0.6250015   0.3608451  -0.3667792  )
       160        S      tau( 160) = (   0.7500012   0.2886747  -0.6030489  )
       161        S      tau( 161) = (   0.7500012   0.2886748  -0.8514963  )
       162        S      tau( 162) = (   0.6250016   0.3608454  -0.1180280  )
       163        Mo     tau( 163) = (   0.6250032   0.3608391   0.2423797  )
       164        Mo     tau( 164) = (   0.7498627   0.2885951   0.7270467  )
       165        S      tau( 165) = (   0.6250046   0.3605769   0.6023590  )
       166        S      tau( 166) = (   0.7499943   0.2886711   0.3667569  )
       167        S      tau( 167) = (   0.7500399   0.2886970   0.1180318  )
       168        S      tau( 168) = (   0.6250043   0.3609947   0.8512770  )
       169        Mo     tau( 169) = (   0.5000014   0.5773502  -0.7272732  )
       170        Mo     tau( 170) = (   0.6250029   0.5051841  -0.2424047  )
       171        S      tau( 171) = (   0.5000014   0.5773518  -0.3667794  )
       172        S      tau( 172) = (   0.6250014   0.5051812  -0.6030489  )
       173        S      tau( 173) = (   0.6250014   0.5051813  -0.8514963  )
       174        S      tau( 174) = (   0.5000016   0.5773516  -0.1180277  )
       175        Mo     tau( 175) = (   0.4999855   0.5773383   0.2424207  )
       176        Mo     tau( 176) = (   0.6250049   0.5052713   0.7263986  )
       177        S      tau( 177) = (   0.4998428   0.5773389   0.6020941  )
       178        S      tau( 178) = (   0.6250030   0.5051500   0.3667588  )
       179        S      tau( 179) = (   0.6250025   0.5051935   0.1180351  )
       180        S      tau( 180) = (   0.5012979   0.5776190   0.8514332  )
       181        Mo     tau( 181) = (   0.3750016   0.7938567  -0.7272732  )
       182        Mo     tau( 182) = (   0.5000025   0.7216901  -0.2424039  )
       183        S      tau( 183) = (   0.3750019   0.7938578  -0.3667793  )
       184        S      tau( 184) = (   0.5000016   0.7216877  -0.6030489  )
       185        S      tau( 185) = (   0.5000016   0.7216878  -0.8514963  )
       186        S      tau( 186) = (   0.3750020   0.7938579  -0.1180272  )
       187        Mo     tau( 187) = (   0.3749848   0.7938487   0.2424206  )
       188        Mo     tau( 188) = (   0.5001249   0.7217591   0.7266160  )
       189        S      tau( 189) = (   0.3749125   0.7937251   0.6020942  )
       190        S      tau( 190) = (   0.5000021   0.7216868   0.3667472  )
       191        S      tau( 191) = (   0.4999874   0.7216780   0.1180346  )
       192        S      tau( 192) = (   0.3758826   0.7948451   0.8514332  )
       193        Pd     tau( 193) = (   0.1250063   0.5051842   0.9601361  )
       194        Pt     tau( 194) = (   0.6249921   0.0723525   0.9702531  )

     --------------------------------------------
     DFT-D3 Dispersion Correction (3-body terms):
     --------------------------------------------
       Reference C6 values for interpolation: 

         atom   Coordination number   C6
         S          0.000           268.01
         S          0.995           261.99
         S          1.990           251.62
         Mo         0.000          1691.79
         Mo         1.942          1004.01
         Mo        11.056           674.22
         Pd         0.000          1217.01
         Pd         1.863           573.90
         Pd         5.710           531.75
         Pt         0.000           782.29
         Pt         1.919           692.72
         Pt         6.667           673.75

       Values used:

         atom   Coordination number  R0_AB[au]  C6      C8
         Mo        10.208            3.547    674.21  77634.20
         Mo        10.221            3.547    674.22  77634.20
         S          3.858            3.128    251.62  12327.25
         S          3.859            3.128    251.62  12327.25
         S          3.758            3.128    251.62  12327.25
         S          3.859            3.128    251.62  12327.25
         Mo        10.220            3.547    674.22  77634.20
         Mo        10.234            3.547    674.22  77634.20
         S          3.847            3.128    251.62  12327.25
         S          3.861            3.128    251.62  12327.25
         S          3.859            3.128    251.62  12327.25
         S          3.806            3.128    251.62  12327.25
         Mo        10.208            3.547    674.22  77634.20
         Mo        10.221            3.547    674.22  77634.20
         S          3.858            3.128    251.62  12327.25
         S          3.859            3.128    251.62  12327.25
         S          3.758            3.128    251.62  12327.25
         S          3.859            3.128    251.62  12327.25
         Mo        10.221            3.547    674.22  77634.20
         Mo        10.191            3.547    674.22  77634.20
         S          3.855            3.128    251.62  12327.25
         S          3.856            3.128    251.62  12327.25
         S          3.859            3.128    251.62  12327.25
         S          3.757            3.128    251.62  12327.25
         Mo        10.208            3.547    674.22  77634.20
         Mo        10.221            3.547    674.22  77634.20
         S          3.858            3.128    251.62  12327.25
         S          3.859            3.128    251.62  12327.25
         S          3.758            3.128    251.62  12327.25
         S          3.859            3.128    251.62  12327.25
         Mo        10.220            3.547    674.22  77634.20
         Mo        10.191            3.547    674.22  77634.20
         S          3.847            3.128    251.62  12327.25
         S          3.856            3.128    251.62  12327.25
         S          3.859            3.128    251.62  12327.25
         S          3.805            3.128    251.62  12327.25
         Mo        10.208            3.547    674.22  77634.20
         Mo        10.221            3.547    674.22  77634.20
         S          3.858            3.128    251.62  12327.25
         S          3.859            3.128    251.62  12327.25
         S          3.758            3.128    251.62  12327.25
         S          3.859            3.128    251.62  12327.25
         Mo        10.219            3.547    674.22  77634.20
         Mo        10.234            3.547    674.22  77634.20
         S          3.856            3.128    251.62  12327.25
         S          3.861            3.128    251.62  12327.25
         S          3.859            3.128    251.62  12327.25
         S          3.782            3.128    251.62  12327.25
         Mo        10.208            3.547    674.22  77634.20
         Mo        10.221            3.547    674.22  77634.20
         S          3.858            3.128    251.62  12327.25
         S          3.859            3.128    251.62  12327.25
         S          3.758            3.128    251.62  12327.25
         S          3.859            3.128    251.62  12327.25
         Mo        10.220            3.547    674.22  77634.20
         Mo        10.254            3.547    674.22  77634.20
         S          3.847            3.128    251.62  12327.25
         S          3.860            3.128    251.62  12327.25
         S          3.859            3.128    251.62  12327.25
         S          3.806            3.128    251.62  12327.25
         Mo        10.208            3.547    674.22  77634.20
         Mo        10.221            3.547    674.22  77634.20
         S          3.858            3.128    251.62  12327.25
         S          3.859            3.128    251.62  12327.25
         S          3.758            3.128    251.62  12327.25
         S          3.859            3.128    251.62  12327.25
         Mo        10.222            3.547    674.22  77634.20
         Mo        10.191            3.547    674.22  77634.20
         S          3.865            3.128    251.62  12327.25
         S          3.856            3.128    251.62  12327.25
         S          3.859            3.128    251.62  12327.25
         S          4.653            3.128    251.62  12327.25
         Mo        10.208            3.547    674.22  77634.20
         Mo        10.221            3.547    674.22  77634.20
         S          3.858            3.128    251.62  12327.25
         S          3.859            3.128    251.62  12327.25
         S          3.758            3.128    251.62  12327.25
         S          3.859            3.128    251.62  12327.25
         Mo        10.222            3.547    674.22  77634.20
         Mo        10.821            3.547    674.22  77634.20
         S          3.865            3.128    251.62  12327.25
         S          3.853            3.128    251.62  12327.25
         S          3.859            3.128    251.62  12327.25
         S          4.654            3.128    251.62  12327.25
         Mo        10.208            3.547    674.22  77634.20
         Mo        10.221            3.547    674.22  77634.20
         S          3.858            3.128    251.62  12327.25
         S          3.859            3.128    251.62  12327.25
         S          3.758            3.128    251.62  12327.25
         S          3.859            3.128    251.62  12327.25
         Mo        10.220            3.547    674.22  77634.20
         Mo        10.202            3.547    674.22  77634.20
         S          3.847            3.128    251.62  12327.25
         S          3.856            3.128    251.62  12327.25
         S          3.859            3.128    251.62  12327.25
         S          3.817            3.128    251.62  12327.25
         Mo        10.208            3.547    674.22  77634.20
         Mo        10.221            3.547    674.22  77634.20
         S          3.858            3.128    251.62  12327.25
         S          3.859            3.128    251.62  12327.25
         S          3.758            3.128    251.62  12327.25
         S          3.859            3.128    251.62  12327.25
         Mo        10.220            3.547    674.22  77634.20
         Mo        10.834            3.547    674.22  77634.20
         S          3.863            3.128    251.62  12327.25
         S          3.860            3.128    251.62  12327.25
         S          3.859            3.128    251.62  12327.25
         S          4.732            3.128    251.62  12327.25
         Mo        10.208            3.547    674.22  77634.20
         Mo        10.221            3.547    674.22  77634.20
         S          3.858            3.128    251.62  12327.25
         S          3.859            3.128    251.62  12327.25
         S          3.758            3.128    251.62  12327.25
         S          3.859            3.128    251.62  12327.25
         Mo        10.221            3.547    674.22  77634.20
         Mo        10.240            3.547    674.22  77634.20
         S          3.855            3.128    251.62  12327.25
         S          3.860            3.128    251.62  12327.25
         S          3.859            3.128    251.62  12327.25
         S          3.757            3.128    251.62  12327.25
         Mo        10.208            3.547    674.22  77634.20
         Mo        10.221            3.547    674.22  77634.20
         S          3.858            3.128    251.62  12327.25
         S          3.859            3.128    251.62  12327.25
         S          3.758            3.128    251.62  12327.25
         S          3.859            3.128    251.62  12327.25
         Mo        10.222            3.547    674.22  77634.20
         Mo        10.191            3.547    674.22  77634.20
         S          3.865            3.128    251.62  12327.25
         S          3.856            3.128    251.62  12327.25
         S          3.859            3.128    251.62  12327.25
         S          4.654            3.128    251.62  12327.25
         Mo        10.208            3.547    674.22  77634.20
         Mo        10.221            3.547    674.22  77634.20
         S          3.858            3.128    251.62  12327.25
         S          3.859            3.128    251.62  12327.25
         S          3.758            3.128    251.62  12327.25
         S          3.859            3.128    251.62  12327.25
         Mo        10.221            3.547    674.22  77634.20
         Mo        10.202            3.547    674.22  77634.20
         S          3.856            3.128    251.62  12327.25
         S          3.856            3.128    251.62  12327.25
         S          3.859            3.128    251.62  12327.25
         S          4.725            3.128    251.62  12327.25
         Mo        10.208            3.547    674.22  77634.20
         Mo        10.221            3.547    674.22  77634.20
         S          3.858            3.128    251.62  12327.25
         S          3.859            3.128    251.62  12327.25
         S          3.758            3.128    251.62  12327.25
         S          3.859            3.128    251.62  12327.25
         Mo        10.220            3.547    674.22  77634.20
         Mo        10.254            3.547    674.22  77634.20
         S          3.863            3.128    251.62  12327.25
         S          3.860            3.128    251.62  12327.25
         S          3.859            3.128    251.62  12327.25
         S          4.732            3.128    251.62  12327.25
         Mo        10.208            3.547    674.22  77634.20
         Mo        10.220            3.547    674.22  77634.20
         S          3.858            3.128    251.62  12327.25
         S          3.859            3.128    251.62  12327.25
         S          3.758            3.128    251.62  12327.25
         S          3.859            3.128    251.62  12327.25
         Mo        10.220            3.547    674.22  77634.20
         Mo        10.240            3.547    674.22  77634.20
         S          3.862            3.128    251.62  12327.25
         S          3.860            3.128    251.62  12327.25
         S          3.859            3.128    251.62  12327.25
         S          3.777            3.128    251.62  12327.25
         Mo        10.208            3.547    674.22  77634.20
         Mo        10.221            3.547    674.22  77634.20
         S          3.858            3.128    251.62  12327.25
         S          3.859            3.128    251.62  12327.25
         S          3.758            3.128    251.62  12327.25
         S          3.859            3.128    251.62  12327.25
         Mo        10.220            3.547    674.22  77634.20
         Mo        10.244            3.547    674.22  77634.20
         S          3.847            3.128    251.62  12327.25
         S          3.860            3.128    251.62  12327.25
         S          3.859            3.128    251.62  12327.25
         S          3.805            3.128    251.62  12327.25
         Mo        10.208            3.547    674.21  77634.20
         Mo        10.221            3.547    674.22  77634.20
         S          3.858            3.128    251.62  12327.25
         S          3.859            3.128    251.62  12327.25
         S          3.758            3.128    251.62  12327.25
         S          3.859            3.128    251.62  12327.25
         Mo        10.220            3.547    674.22  77634.20
         Mo        10.234            3.547    674.22  77634.20
         S          3.847            3.128    251.62  12327.25
         S          3.861            3.128    251.62  12327.25
         S          3.859            3.128    251.62  12327.25
         S          3.817            3.128    251.62  12327.25
         Pd         3.767            3.168    558.46  51168.38
         Pt         3.625            3.168    692.72  72035.25

         Molecular C6 ( Ry / a.u.^6 ) =  13983844.86


     number of k points=     4  Gaussian smearing, width (Ry)=  0.0100
                       cart. coord. in units 2pi/alat
        k(    1) = (   0.0000000   0.0000000   0.0000000), wk =   0.5000000
        k(    2) = (   0.0000000  -0.5773499   0.0000000), wk =   0.5000000
        k(    3) = (  -0.5000000  -0.2886744   0.0000000), wk =   0.5000000
        k(    4) = (  -0.5000000  -0.8660242   0.0000000), wk =   0.5000000

     Dense  grid:  7154885 G-vectors     FFT dimensions: ( 180, 180, 512)

     Smooth grid:  3090769 G-vectors     FFT dimensions: ( 135, 135, 400)

     Estimated max dynamical RAM per process >       4.31 GB

     Estimated total dynamical RAM >     155.10 GB

     Initial potential from superposition of free atoms

     starting charge    1713.9389, renormalised to    1714.0000

     negative rho (up, down):  8.711E-04 0.000E+00
     Starting wfcs are 1179 randomized atomic wfcs
     Checking if some PAW data can be deallocated... 

     total cpu time spent up to now is      179.7 secs

     Self-consistent Calculation

     iteration #  1     ecut=    77.00 Ry     beta= 0.20
     Davidson diagonalization with overlap
     ethr =  1.00E-02,  avg # of iterations =  2.0

     Threshold (ethr) on eigenvalues was too large:
     Diagonalizing with lowered threshold

     Davidson diagonalization with overlap
     ethr =  1.64E-04,  avg # of iterations = 17.2

     negative rho (up, down):  2.351E-04 0.000E+00

     total cpu time spent up to now is     2196.1 secs

     total energy              =  -33980.23130352 Ry
     estimated scf accuracy    <       6.50092999 Ry

     iteration #  2     ecut=    77.00 Ry     beta= 0.20
     Davidson diagonalization with overlap
     ethr =  3.79E-04,  avg # of iterations =  2.0

     negative rho (up, down):  2.401E-05 0.000E+00

     total cpu time spent up to now is     2598.1 secs

     total energy              =  -33978.87417732 Ry
     estimated scf accuracy    <       3.40539458 Ry

     iteration #  3     ecut=    77.00 Ry     beta= 0.20
     Davidson diagonalization with overlap
     ethr =  1.99E-04,  avg # of iterations = 13.0

     negative rho (up, down):  1.563E-05 0.000E+00

     total cpu time spent up to now is     3122.9 secs

     total energy              =  -33979.27390088 Ry
     estimated scf accuracy    <       0.86047267 Ry

     iteration #  4     ecut=    77.00 Ry     beta= 0.20
     Davidson diagonalization with overlap
     c_bands:  1 eigenvalues not converged
     c_bands:  1 eigenvalues not converged
     c_bands:  2 eigenvalues not converged
     c_bands:  1 eigenvalues not converged
     ethr =  5.02E-05,  avg # of iterations = 20.0

     negative rho (up, down):  1.826E-05 0.000E+00

     total cpu time spent up to now is     4346.8 secs

     total energy              =  -33980.08195597 Ry
     estimated scf accuracy    <       0.39077283 Ry

     iteration #  5     ecut=    77.00 Ry     beta= 0.20
     Davidson diagonalization with overlap
     c_bands:  2 eigenvalues not converged
     c_bands:  3 eigenvalues not converged
     ethr =  2.28E-05,  avg # of iterations = 17.2

     negative rho (up, down):  4.343E-05 0.000E+00

     total cpu time spent up to now is     5015.8 secs

     total energy              =  -33980.16199845 Ry
     estimated scf accuracy    <       0.21508285 Ry

     iteration #  6     ecut=    77.00 Ry     beta= 0.20
     Davidson diagonalization with overlap
     c_bands:  1 eigenvalues not converged
     c_bands:  1 eigenvalues not converged
     c_bands:  1 eigenvalues not converged
     ethr =  1.25E-05,  avg # of iterations = 19.8

     negative rho (up, down):  1.909E-04 0.000E+00

     total cpu time spent up to now is     5572.0 secs

     total energy              =  -33980.15465275 Ry
     estimated scf accuracy    <       0.12690692 Ry

     iteration #  7     ecut=    77.00 Ry     beta= 0.20
     Davidson diagonalization with overlap
     c_bands:  1 eigenvalues not converged
     c_bands:  4 eigenvalues not converged
     ethr =  7.40E-06,  avg # of iterations = 18.0

     negative rho (up, down):  5.345E-04 0.000E+00

     total cpu time spent up to now is     6326.0 secs

     total energy              =  -33980.22321393 Ry
     estimated scf accuracy    <       0.05979788 Ry

     iteration #  8     ecut=    77.00 Ry     beta= 0.20
     Davidson diagonalization with overlap
     c_bands:  2 eigenvalues not converged
     c_bands:  3 eigenvalues not converged
     c_bands:  4 eigenvalues not converged
     ethr =  3.49E-06,  avg # of iterations = 40.5

     negative rho (up, down):  4.412E-04 0.000E+00

     total cpu time spent up to now is     7652.1 secs

     total energy              =  -33980.23351463 Ry
     estimated scf accuracy    <       0.04079387 Ry

     iteration #  9     ecut=    77.00 Ry     beta= 0.20
     Davidson diagonalization with overlap
     c_bands:  5 eigenvalues not converged
     c_bands:  4 eigenvalues not converged
     c_bands:  3 eigenvalues not converged
     ethr =  2.38E-06,  avg # of iterations = 37.8

     negative rho (up, down):  4.180E-04 0.000E+00

     total cpu time spent up to now is     8617.4 secs

     total energy              =  -33980.24225454 Ry
     estimated scf accuracy    <       0.00436933 Ry

     iteration # 10     ecut=    77.00 Ry     beta= 0.20
     Davidson diagonalization with overlap
     c_bands:  5 eigenvalues not converged
     c_bands:  2 eigenvalues not converged
     ethr =  2.55E-07,  avg # of iterations = 45.8

     negative rho (up, down):  4.583E-04 0.000E+00

     total cpu time spent up to now is    11055.4 secs

     total energy              =  -33980.25544903 Ry
     estimated scf accuracy    <       0.00645515 Ry

     iteration # 11     ecut=    77.00 Ry     beta= 0.20
     Davidson diagonalization with overlap
     c_bands:  3 eigenvalues not converged
     c_bands:  4 eigenvalues not converged
     ethr =  2.55E-07,  avg # of iterations = 15.5

     negative rho (up, down):  7.952E-04 0.000E+00

     total cpu time spent up to now is    11583.5 secs

     total energy              =  -33980.25329856 Ry
     estimated scf accuracy    <       0.00346356 Ry

     iteration # 12     ecut=    77.00 Ry     beta= 0.20
     Davidson diagonalization with overlap
     ethr =  2.02E-07,  avg # of iterations = 13.5

     negative rho (up, down):  8.546E-04 0.000E+00

     total cpu time spent up to now is    12658.6 secs

     total energy              =  -33980.25568172 Ry
     estimated scf accuracy    <       0.00881235 Ry

     iteration # 13     ecut=    77.00 Ry     beta= 0.20
     Davidson diagonalization with overlap
     ethr =  2.02E-07,  avg # of iterations =  4.0

     negative rho (up, down):  7.927E-04 0.000E+00

     total cpu time spent up to now is    13064.7 secs

     total energy              =  -33980.25429556 Ry
     estimated scf accuracy    <       0.00337870 Ry

     iteration # 14     ecut=    77.00 Ry     beta= 0.20
     Davidson diagonalization with overlap
     ethr =  1.97E-07,  avg # of iterations =  9.5

     negative rho (up, down):  7.691E-04 0.000E+00

     total cpu time spent up to now is    13511.0 secs

     total energy              =  -33980.25422727 Ry
     estimated scf accuracy    <       0.00072917 Ry

     iteration # 15     ecut=    77.00 Ry     beta= 0.20
     Davidson diagonalization with overlap
     c_bands:  2 eigenvalues not converged
     ethr =  4.25E-08,  avg # of iterations = 16.2

     negative rho (up, down):  7.930E-04 0.000E+00

     total cpu time spent up to now is    14547.9 secs

     total energy              =  -33980.25574501 Ry
     estimated scf accuracy    <       0.00116594 Ry

     iteration # 16     ecut=    77.00 Ry     beta= 0.20
     Davidson diagonalization with overlap
     ethr =  4.25E-08,  avg # of iterations =  1.2

     negative rho (up, down):  8.429E-04 0.000E+00

     total cpu time spent up to now is    14921.1 secs

     total energy              =  -33980.25531504 Ry
     estimated scf accuracy    <       0.00059238 Ry

     iteration # 17     ecut=    77.00 Ry     beta= 0.20
     Davidson diagonalization with overlap
     ethr =  3.46E-08,  avg # of iterations = 11.5

     negative rho (up, down):  8.558E-04 0.000E+00

     total cpu time spent up to now is    15683.9 secs

     total energy              =  -33980.25570401 Ry
     estimated scf accuracy    <       0.00014867 Ry

     iteration # 18     ecut=    77.00 Ry     beta= 0.20
     Davidson diagonalization with overlap
     ethr =  8.67E-09,  avg # of iterations =  9.8

     negative rho (up, down):  8.641E-04 0.000E+00

     total cpu time spent up to now is    16248.3 secs

     total energy              =  -33980.25569611 Ry
     estimated scf accuracy    <       0.00014998 Ry

     iteration # 19     ecut=    77.00 Ry     beta= 0.20
     Davidson diagonalization with overlap
     ethr =  8.67E-09,  avg # of iterations =  1.2

     negative rho (up, down):  8.630E-04 0.000E+00

     total cpu time spent up to now is    16620.8 secs

     total energy              =  -33980.25565737 Ry
     estimated scf accuracy    <       0.00006621 Ry

     iteration # 20     ecut=    77.00 Ry     beta= 0.20
     Davidson diagonalization with overlap
     ethr =  3.86E-09,  avg # of iterations = 12.5

     negative rho (up, down):  8.697E-04 0.000E+00

     total cpu time spent up to now is    17279.4 secs

     total energy              =  -33980.25569012 Ry
     estimated scf accuracy    <       0.00000343 Ry

     iteration # 21     ecut=    77.00 Ry     beta= 0.20
     Davidson diagonalization with overlap
     ethr =  2.00E-10,  avg # of iterations = 21.8

     negative rho (up, down):  8.689E-04 0.000E+00

     total cpu time spent up to now is    19939.0 secs

     total energy              =  -33980.25570890 Ry
     estimated scf accuracy    <       0.00000450 Ry

     iteration # 22     ecut=    77.00 Ry     beta= 0.20
     Davidson diagonalization with overlap
     ethr =  2.00E-10,  avg # of iterations =  1.0

     negative rho (up, down):  8.774E-04 0.000E+00

     total cpu time spent up to now is    20302.8 secs

     total energy              =  -33980.25570394 Ry
     estimated scf accuracy    <       0.00000438 Ry

     iteration # 23     ecut=    77.00 Ry     beta= 0.20
     Davidson diagonalization with overlap
     ethr =  2.00E-10,  avg # of iterations =  1.8

     negative rho (up, down):  8.777E-04 0.000E+00

     total cpu time spent up to now is    20693.3 secs

     total energy              =  -33980.25570268 Ry
     estimated scf accuracy    <       0.00000261 Ry

     iteration # 24     ecut=    77.00 Ry     beta= 0.20
     Davidson diagonalization with overlap
     ethr =  1.52E-10,  avg # of iterations =  2.0

     negative rho (up, down):  8.771E-04 0.000E+00

     total cpu time spent up to now is    21093.5 secs

     End of self-consistent calculation

          k = 0.0000 0.0000 0.0000 (386245 PWs)   bands (ev):

  -102.2526 -88.6633 -70.5668 -70.5649 -70.5638 -70.5625 -70.5389 -70.5345
   -70.5207 -66.5846 -66.5845 -66.5834 -66.5768 -66.5634 -66.5633 -66.5633
   -66.5633 -66.5633 -66.5633 -66.5633 -66.5632 -66.5632 -66.5632 -66.5631
   -66.5630 -66.5629 -66.5621 -66.5621 -66.5621 -66.5620 -66.5620 -66.5620
   -66.5604 -66.5559 -66.5522 -66.5437 -66.5422 -66.5420 -66.5419 -66.5419
   -66.5419 -66.5419 -66.5419 -66.5419 -66.5419 -66.5418 -66.5418 -66.5418
   -66.5418 -66.5418 -66.5417 -66.5417 -66.5415 -66.5413 -66.5407 -66.5407
   -66.5406 -66.5406 -66.5406 -66.5406 -66.5406 -66.5406 -66.5406 -66.5392
   -66.5306 -66.5283 -66.5247 -66.5235 -66.5183 -66.5176 -66.5140 -66.5029
   -66.4959 -56.5134 -56.4855 -56.4766 -54.4796 -54.4592 -54.4570 -40.9120
   -40.9120 -40.9120 -40.9120 -40.9120 -40.9119 -40.9115 -40.9115 -40.9115
   -40.8940 -40.8938 -40.8897 -40.8368 -40.8367 -40.8367 -40.8367 -40.8367
   -40.8367 -40.8367 -40.8367 -40.8367 -40.8366 -40.8365 -40.8365 -40.8361
   -40.8361 -40.8361 -40.8361 -40.8361 -40.8361 -40.8229 -40.8187 -40.8170
   -40.8122 -40.8077 -40.8069 -40.7527 -40.7442 -40.7442 -40.7437 -40.7364
   -40.7225 -40.7105 -40.7104 -40.7104 -40.7104 -40.7104 -40.7103 -40.7103
   -40.7103 -40.7103 -40.7103 -40.7102 -40.7101 -40.7096 -40.7096 -40.7096
   -40.7096 -40.7096 -40.7096 -40.7033 -40.7027 -40.7026 -40.7026 -40.7025
   -40.7025 -40.7025 -40.7025 -40.7025 -40.7025 -40.7024 -40.7024 -40.7022
   -40.7020 -40.7020 -40.7020 -40.7020 -40.7020 -40.7020 -40.6981 -40.6959
   -40.6947 -40.6933 -40.6921 -40.6908 -40.6886 -40.6854 -40.6755 -40.6753
   -40.6753 -40.6753 -40.6753 -40.6753 -40.6753 -40.6753 -40.6753 -40.6752
   -40.6751 -40.6751 -40.6745 -40.6745 -40.6745 -40.6745 -40.6745 -40.6745
   -40.6736 -40.6690 -40.6643 -40.6627 -40.6619 -40.6609 -40.6607 -40.6606
   -40.6606 -40.6606 -40.6606 -40.6606 -40.6606 -40.6606 -40.6605 -40.6605
   -40.6605 -40.6605 -40.6605 -40.6604 -40.6604 -40.6604 -40.6603 -40.6601
   -40.6600 -40.6600 -40.6600 -40.6600 -40.6599 -40.6599 -40.6599 -40.6599
   -40.6599 -40.6566 -40.6545 -40.6540 -40.6497 -40.6497 -40.6467 -40.6432
   -40.6418 -40.6414 -40.6348 -40.5970 -40.5970 -40.5970 -40.5970 -40.5969
   -40.5968 -40.5961 -40.5961 -40.5961 -40.5763 -40.5762 -40.5718 -40.5500
   -40.5499 -40.5499 -40.5499 -40.5499 -40.5499 -40.5498 -40.5498 -40.5498
   -40.5497 -40.5496 -40.5496 -40.5490 -40.5490 -40.5490 -40.5490 -40.5490
   -40.5490 -40.5343 -40.5307 -40.5263 -40.5252 -40.5237 -40.5138 -40.5022
   -40.5022 -40.5022 -40.5022 -40.5013 -40.5013 -40.4771 -40.4748 -20.1087
   -20.0484 -19.9484 -19.8466 -19.4020 -19.2602 -19.2281 -19.2166 -19.2161
   -19.2092 -19.1966 -19.1893 -19.1786 -19.1673 -19.1666 -19.1482 -19.1079
   -19.0987 -19.0917 -19.0847 -19.0832 -19.0647 -19.0042 -18.9999 -18.9977
   -18.9951 -18.9947 -18.9874 -18.8697 -18.7507 -18.5934 -18.5412 -18.5174
   -18.5147 -18.4699 -18.4666 -18.4546 -18.4360 -18.4004 -18.3876 -18.3825
   -18.3689 -18.3679 -18.3438 -18.3071 -18.2687 -18.2487 -18.2471 -18.2435
   -18.2312 -18.2077 -18.1815 -18.1568 -18.1535 -18.1451 -18.1420 -18.1342
   -18.1295 -18.1157 -18.1142 -18.0832 -18.0820 -18.0806 -18.0806 -18.0786
   -18.0779 -18.0531 -18.0490 -18.0445 -18.0443 -18.0417 -18.0383 -18.0374
   -18.0359 -18.0356 -18.0213 -18.0101 -18.0091 -18.0075 -18.0032 -17.9929
   -17.9921 -17.9898 -17.9798 -17.9769 -17.9677 -17.9651 -17.9602 -17.9572
   -17.9495 -17.9478 -17.9449 -17.9099 -17.9093 -17.9042 -17.9041 -17.8895
   -17.8783 -17.8770 -17.8760 -17.8751 -17.8558 -17.8533 -17.8495 -17.8435
   -17.8393 -17.8330 -17.8274 -17.8245 -17.8235 -17.8191 -17.8184 -17.8150
   -17.8019 -17.8014 -17.8003 -17.7917 -17.7899 -17.7865 -17.7815 -17.7804
   -17.7794 -17.7582 -17.7579 -17.7570 -17.7552 -17.7546 -17.7541 -12.0499
   -11.9219 -11.8495 -11.8155 -11.7696 -11.7486 -11.7383 -11.7214 -11.6399
   -11.6255 -11.6204 -11.5328 -11.5137 -11.5120 -11.4828 -11.3389 -11.3016
   -11.2300 -11.2144 -11.2023 -11.1989 -11.1948 -11.1841 -11.1703 -11.1108
   -11.1013 -11.0949 -11.0931 -11.0886 -11.0870 -11.0777 -11.0688 -11.0650
   -11.0565 -11.0346 -11.0312 -11.0242 -11.0232 -11.0196 -11.0155 -11.0037
   -10.9955 -10.9892 -10.9856 -10.9741 -10.9412 -10.9226 -10.9178 -10.9097
   -10.9089 -10.9026 -10.8806 -10.8769 -10.8596 -10.8574 -10.8523 -10.8470
   -10.8343 -10.8201 -10.8148 -10.8124 -10.8114 -10.8060 -10.8011 -10.7972
   -10.7913 -10.7874 -10.7847 -10.7843 -10.7824 -10.7736 -10.7723 -10.7707
   -10.7653 -10.7644 -10.7610 -10.7390 -10.7374 -10.7363 -10.7357 -10.7288
   -10.7270 -10.7255 -10.7208 -10.7120 -10.6983 -10.6981 -10.6976 -10.6972
   -10.6946 -10.6937 -10.6195 -10.6188 -10.6170 -10.5703 -10.5608 -10.5504
   -10.5462 -10.5425 -10.5375 -10.3330 -10.3235 -10.2481 -10.2122 -10.1455
   -10.0906 -10.0765  -9.9792  -9.9021  -9.8666  -9.8245  -9.7995  -9.7772
    -9.7689  -9.7686  -9.7613  -9.7594  -9.7420  -9.7360  -9.7320  -9.7299
    -9.7298  -9.7287  -9.7262  -9.7193  -9.7125  -9.7113  -9.7098  -9.7042
    -9.7029  -9.6799  -9.6576  -9.6540  -9.6280  -9.5932  -9.5923  -9.5887
    -9.5885  -9.5832  -9.5823  -9.5788  -9.5780  -9.5776  -9.5776  -9.5763
    -9.5761  -9.5631  -9.5587  -9.5307  -9.5146  -9.5092  -9.5023  -9.5023
    -9.5022  -9.5017  -9.5015  -9.5012  -9.4815  -9.4809  -9.4776  -9.4704
    -9.4609  -9.4548  -9.4395  -9.4145  -9.4041  -9.3377  -9.3307  -9.3241
    -9.3172  -9.3030  -9.3015  -9.2937  -9.2935  -9.2919  -9.2857  -9.2732
    -9.2665  -9.2120  -9.2075  -9.2049  -9.1923  -9.1913  -9.1828  -9.1496
    -9.1467  -9.1456  -9.1420  -9.1418  -9.1394  -9.1269  -9.1151  -9.1011
    -9.0963  -9.0951  -9.0877  -9.0507  -9.0486  -8.9974  -8.9941  -8.9756
    -8.9583  -8.9431  -8.9415  -8.9388  -8.9230  -8.9202  -8.9093  -8.9072
    -8.9068  -8.8982  -8.8781  -8.8779  -8.8770  -8.8704  -8.8578  -8.8557
    -8.8500  -8.8430  -8.8265  -8.7824  -8.7819  -8.7817  -8.7813  -8.7813
    -8.7810  -8.7169  -8.7159  -8.7059  -8.6982  -8.6971  -8.6943  -8.6318
    -8.6315  -8.6216  -8.6170  -8.6150  -8.6131  -8.5560  -8.5558  -8.5519
    -8.5512  -8.5505  -8.5492  -8.5393  -8.4621  -8.4314  -8.3981  -8.3732
    -8.3271  -8.3271  -8.3222  -8.3220  -8.3157  -8.3155  -8.2985  -8.2740
    -8.2497  -8.2398  -8.2368  -8.2367  -8.2364  -8.2352  -8.2318  -8.2262
    -8.2202  -8.2107  -8.2103  -8.2092  -8.2078  -8.2051  -8.1962  -8.1833
    -8.1819  -8.1814  -8.1807  -8.1798  -8.1770  -8.1726  -8.0903  -8.0683
    -7.9935  -7.9775  -7.8665  -7.8200  -7.8164  -7.8162  -7.7373  -7.7281
    -7.7248  -7.6571  -7.6446  -7.6395  -7.6030  -7.6021  -7.5971  -7.5935
    -7.5814  -7.5695  -7.5675  -7.5657  -7.5629  -7.5319  -7.5284  -7.5182
    -7.5168  -7.5115  -7.5016  -7.4985  -7.4951  -7.4936  -7.4929  -7.4926
    -7.4861  -7.4837  -7.4785  -7.4671  -7.4663  -7.4661  -7.4652  -7.4629
    -7.4578  -7.4433  -7.4429  -7.4428  -7.4424  -7.4420  -7.4412  -7.4298
    -7.4279  -7.4258  -7.4103  -7.3844  -7.3829  -7.3811  -7.3779  -7.3705
    -7.3657  -7.3621  -7.3380  -7.3120  -7.3010  -7.2950  -7.2908  -7.2749
    -7.2597  -7.2559  -7.2529  -7.2527  -7.2508  -7.2451  -7.2290  -7.2249
    -7.2100  -7.2098  -7.1915  -7.1915  -7.1740  -7.1739  -7.1610  -7.1366
    -7.0960  -7.0818  -7.0706  -7.0694  -6.9950  -6.9797  -6.9373  -6.9125
    -6.8890  -6.8468  -6.8397  -6.8272  -6.8252  -6.8006  -6.7625  -6.7440
    -6.7415  -6.7408  -6.7241  -6.6973  -6.6647  -6.6622  -6.6547  -6.6537
    -6.6169  -6.6147  -6.5965  -6.5863  -6.5860  -6.5795  -6.5715  -6.5522
    -6.5484  -6.5470  -6.5345  -6.5262  -6.5211  -6.5097  -6.5088  -6.4952
    -6.4764  -6.4763  -6.4750  -6.4706  -6.4704  -6.4685  -6.4668  -6.4643
    -6.4590  -6.4579  -6.4579  -6.4576  -6.4575  -6.4573  -6.4556  -6.4287
    -6.4179  -6.4066  -6.3940  -6.3836  -6.3706  -6.3685  -6.3664  -6.3449
    -6.3063  -6.2936  -6.2932  -6.2929  -6.2926  -6.2899  -6.2813  -6.2564
    -6.2549  -6.2542  -6.2534  -6.2494  -6.2436  -6.2248  -6.2168  -6.2162
    -6.2149  -6.2140  -6.2117  -6.2112  -6.1827  -6.1734  -6.1392  -6.1163
    -5.8564  -5.7217  -5.6649  -5.6596  -5.5344  -5.4112  -5.3938  -5.2691
    -5.1097  -4.3769  -3.8624  -3.8174  -3.8119  -3.8084  -3.8041  -3.7921
    -3.7891  -3.7870  -3.7817  -3.7815  -3.7813  -3.7651  -3.7211  -3.6686
    -3.6666  -3.6508  -3.6507  -3.6394  -3.6385  -3.6332  -3.6315  -3.6286
    -3.6244  -3.5432  -3.5000  -3.4739  -3.4657  -3.4615  -3.4609  -3.4579
    -3.4436  -3.4429  -3.4322  -3.4309  -3.4290  -3.4283  -3.4279  -3.4149
    -3.4091  -3.4052  -3.4024  -3.4023  -3.4022  -3.4011  -3.3941  -3.3878
    -3.3869  -3.3851  -3.3736  -3.3716  -3.3703  -3.3692  -3.3668  -3.3619
    -3.3610  -3.3579  -3.3534  -3.3491  -3.3475  -3.3164  -3.3157  -3.3074
    -3.3047  -3.3031  -3.2988  -3.2970  -3.2967  -3.2883  -3.2800  -3.2727
    -3.2685  -3.2589  -3.2470  -3.2419  -3.2401  -3.2316  -3.2228  -3.2137
    -3.2114  -3.1752  -3.1655  -3.1543  -3.1522  -3.0406  -3.0258  -3.0247
    -3.0234  -3.0187  -3.0176  -3.0109  -3.0041  -3.0001  -2.9965  -2.9681
    -2.9442  -2.9430  -2.9344  -2.9329  -2.9311  -2.9293  -2.9290  -2.9234
    -2.9231  -2.9228  -2.9218  -2.9183  -2.9146  -2.9135  -2.9122  -2.9055
    -2.8973  -2.8962  -2.8936  -2.8904  -2.8902  -2.8865  -2.8856  -2.8848
    -2.8846  -2.8814  -2.8780  -2.8522  -2.8404  -2.8360  -2.8337  -2.8292
    -2.8280  -2.8057  -2.7962  -2.7758  -2.7650  -2.7633  -2.7630  -2.7622
    -2.7619  -2.7616  -2.7613  -2.7608  -2.7602  -2.7535  -2.7473  -2.7449
    -2.7262  -2.7044  -2.6986  -2.6947  -2.6874  -2.6821  -2.6768  -2.6293
    -2.6245  -2.5974  -2.5932  -2.5884  -2.5833  -2.5790  -2.5784  -2.5778
    -2.5743  -2.5519  -2.5343  -2.5096  -2.5096  -2.5039  -2.4941  -2.3897
    -2.3798  -2.3709  -2.3697  -2.3663

          k = 0.0000-0.5773 0.0000 (386352 PWs)   bands (ev):

  -102.2526 -88.6633 -70.5668 -70.5649 -70.5638 -70.5625 -70.5389 -70.5345
   -70.5207 -66.5784 -66.5784 -66.5783 -66.5781 -66.5771 -66.5771 -66.5752
   -66.5677 -66.5677 -66.5676 -66.5676 -66.5666 -66.5665 -66.5665 -66.5603
   -66.5563 -66.5528 -66.5526 -66.5526 -66.5526 -66.5526 -66.5526 -66.5523
   -66.5523 -66.5514 -66.5514 -66.5514 -66.5514 -66.5508 -66.5482 -66.5482
   -66.5481 -66.5479 -66.5469 -66.5469 -66.5434 -66.5421 -66.5419 -66.5419
   -66.5419 -66.5418 -66.5418 -66.5418 -66.5414 -66.5407 -66.5406 -66.5406
   -66.5406 -66.5375 -66.5374 -66.5374 -66.5374 -66.5373 -66.5362 -66.5362
   -66.5310 -66.5297 -66.5241 -66.5233 -66.5184 -66.5179 -66.5141 -66.5032
   -66.4958 -56.5134 -56.4855 -56.4766 -54.4796 -54.4592 -54.4570 -40.8805
   -40.8805 -40.8804 -40.8804 -40.8804 -40.8804 -40.8804 -40.8800 -40.8798
   -40.8798 -40.8798 -40.8798 -40.8664 -40.8618 -40.8587 -40.8562 -40.8536
   -40.8536 -40.8536 -40.8534 -40.8530 -40.8530 -40.8451 -40.8415 -40.8415
   -40.8415 -40.8414 -40.8409 -40.8409 -40.8317 -40.8186 -40.8068 -40.7908
   -40.7908 -40.7908 -40.7908 -40.7908 -40.7908 -40.7907 -40.7907 -40.7902
   -40.7902 -40.7902 -40.7902 -40.7701 -40.7675 -40.7656 -40.7638 -40.7473
   -40.7393 -40.7321 -40.7321 -40.7320 -40.7319 -40.7315 -40.7315 -40.7270
   -40.7225 -40.7225 -40.7225 -40.7224 -40.7218 -40.7218 -40.7112 -40.7112
   -40.7111 -40.7111 -40.7106 -40.7106 -40.7070 -40.7046 -40.7026 -40.6953
   -40.6817 -40.6817 -40.6816 -40.6816 -40.6816 -40.6816 -40.6814 -40.6814
   -40.6814 -40.6810 -40.6810 -40.6810 -40.6810 -40.6769 -40.6729 -40.6729
   -40.6728 -40.6727 -40.6727 -40.6723 -40.6722 -40.6706 -40.6647 -40.6611
   -40.6610 -40.6610 -40.6610 -40.6607 -40.6606 -40.6605 -40.6605 -40.6605
   -40.6605 -40.6605 -40.6603 -40.6603 -40.6601 -40.6599 -40.6599 -40.6599
   -40.6599 -40.6582 -40.6546 -40.6519 -40.6519 -40.6518 -40.6518 -40.6512
   -40.6512 -40.6508 -40.6463 -40.6452 -40.6429 -40.6349 -40.6336 -40.6303
   -40.6302 -40.6301 -40.6301 -40.6301 -40.6301 -40.6300 -40.6297 -40.6293
   -40.6293 -40.6293 -40.6293 -40.6152 -40.6142 -40.6068 -40.6026 -40.5954
   -40.5954 -40.5954 -40.5954 -40.5954 -40.5953 -40.5953 -40.5953 -40.5945
   -40.5945 -40.5945 -40.5945 -40.5833 -40.5832 -40.5832 -40.5830 -40.5824
   -40.5823 -40.5763 -40.5737 -40.5715 -40.5697 -40.5641 -40.5639 -40.5639
   -40.5636 -40.5630 -40.5630 -40.5593 -40.5537 -40.5472 -40.5469 -40.5469
   -40.5469 -40.5468 -40.5460 -40.5460 -40.5348 -40.5195 -40.5165 -40.5163
   -40.5163 -40.5162 -40.5160 -40.5153 -40.5153 -40.4923 -40.4898 -19.9138
   -19.8511 -19.8223 -19.7949 -19.7223 -19.7031 -19.6162 -19.6091 -19.4394
   -19.4162 -19.3810 -19.3651 -19.2883 -19.2773 -19.1884 -19.1844 -18.8708
   -18.8282 -18.7942 -18.7472 -18.7194 -18.6882 -18.6817 -18.6806 -18.6796
   -18.6458 -18.6332 -18.6327 -18.6077 -18.6063 -18.5998 -18.5693 -18.5561
   -18.5550 -18.5245 -18.5155 -18.5151 -18.5076 -18.4959 -18.4859 -18.4731
   -18.4546 -18.4460 -18.4342 -18.4282 -18.4091 -18.3701 -18.3686 -18.3651
   -18.3570 -18.3243 -18.3080 -18.2928 -18.2858 -18.2823 -18.2352 -18.2157
   -18.2116 -18.2072 -18.1799 -18.1594 -18.1561 -18.1359 -18.1312 -18.1236
   -18.0927 -18.0766 -18.0662 -18.0637 -18.0612 -18.0586 -18.0533 -18.0518
   -18.0429 -18.0320 -18.0276 -18.0270 -18.0256 -18.0214 -18.0089 -18.0037
   -18.0017 -18.0013 -17.9970 -17.9702 -17.9665 -17.9657 -17.9636 -17.9618
   -17.9557 -17.9540 -17.9535 -17.9449 -17.9397 -17.9099 -17.9026 -17.8968
   -17.8951 -17.8904 -17.8852 -17.8519 -17.8508 -17.8470 -17.8379 -17.8188
   -17.8083 -17.8052 -17.7998 -17.7933 -17.7809 -17.7791 -17.7789 -17.7789
   -17.7773 -17.7755 -17.7699 -17.7649 -17.7607 -17.7455 -17.7408 -17.7210
   -17.7175 -17.7019 -17.6969 -17.6872 -17.6832 -17.6794 -17.6786 -11.9558
   -11.6878 -11.6666 -11.5682 -11.5656 -11.5482 -11.4853 -11.4758 -11.4686
   -11.4545 -11.4525 -11.4436 -11.4407 -11.4227 -11.4146 -11.3926 -11.3506
   -11.3483 -11.3364 -11.3235 -11.3140 -11.2875 -11.2817 -11.2780 -11.2634
   -11.2427 -11.2349 -11.2276 -11.2271 -11.2191 -11.2127 -11.2101 -11.1984
   -11.1692 -11.1615 -11.1564 -11.1493 -11.1449 -11.1346 -11.1282 -11.1273
   -11.1221 -11.1060 -11.1054 -11.0812 -11.0741 -11.0532 -11.0410 -11.0188
   -11.0146 -10.9844 -10.9282 -10.9121 -10.9091 -10.9081 -10.8786 -10.8745
   -10.8714 -10.8499 -10.8447 -10.8310 -10.8190 -10.8061 -10.7979 -10.7954
   -10.7853 -10.7766 -10.7750 -10.7706 -10.7705 -10.7700 -10.7684 -10.7641
   -10.7573 -10.7549 -10.7529 -10.7528 -10.7511 -10.7419 -10.7418 -10.7415
   -10.7361 -10.7029 -10.7029 -10.7028 -10.7021 -10.5534 -10.5063 -10.5030
   -10.4990 -10.4749 -10.4592 -10.4554 -10.4229 -10.3924 -10.3593 -10.2994
   -10.2336 -10.2316 -10.1805 -10.1315 -10.1148 -10.0971 -10.0880 -10.0786
   -10.0702 -10.0489 -10.0398 -10.0207 -10.0154  -9.9978  -9.9916  -9.9862
    -9.9841  -9.9781  -9.9546  -9.9534  -9.9439  -9.9112  -9.8907  -9.8864
    -9.8801  -9.8677  -9.8580  -9.8523  -9.8446  -9.8226  -9.8121  -9.7988
    -9.7857  -9.7804  -9.7663  -9.7416  -9.7396  -9.7270  -9.7169  -9.7116
    -9.6988  -9.6668  -9.6496  -9.6470  -9.6207  -9.6206  -9.6132  -9.5874
    -9.5837  -9.5760  -9.5591  -9.5402  -9.5318  -9.5239  -9.5028  -9.4971
    -9.4967  -9.4850  -9.4806  -9.4510  -9.4508  -9.4463  -9.4335  -9.4312
    -9.4259  -9.4194  -9.4151  -9.4117  -9.4031  -9.3910  -9.3791  -9.3501
    -9.3369  -9.2801  -9.2728  -9.2450  -9.2036  -9.2034  -9.1960  -9.1914
    -9.1667  -9.1559  -9.1544  -9.1399  -9.1275  -9.1185  -9.1060  -9.0891
    -9.0634  -9.0569  -9.0429  -9.0348  -9.0304  -9.0241  -9.0131  -9.0017
    -8.9968  -8.9944  -8.9760  -8.9479  -8.9455  -8.9334  -8.9293  -8.9140
    -8.9063  -8.8940  -8.8933  -8.8890  -8.8519  -8.8500  -8.8474  -8.8468
    -8.8458  -8.8372  -8.8336  -8.8310  -8.8292  -8.8292  -8.8255  -8.8223
    -8.8195  -8.8156  -8.8074  -8.7994  -8.7992  -8.7973  -8.7927  -8.7919
    -8.7656  -8.7529  -8.7499  -8.7498  -8.7458  -8.7428  -8.7406  -8.7224
    -8.7206  -8.6952  -8.6939  -8.6920  -8.6881  -8.6803  -8.6640  -8.6320
    -8.6175  -8.6057  -8.5925  -8.5512  -8.5061  -8.4630  -8.4623  -8.4575
    -8.4025  -8.3902  -8.3188  -8.3171  -8.3095  -8.2839  -8.2741  -8.2575
    -8.2086  -8.1604  -8.0882  -8.0872  -8.0829  -8.0784  -8.0745  -8.0669
    -8.0655  -8.0360  -8.0255  -8.0057  -7.9672  -7.9341  -7.9262  -7.9105
    -7.8678  -7.8487  -7.8311  -7.8114  -7.8024  -7.7906  -7.7892  -7.7839
    -7.7816  -7.7699  -7.7667  -7.7607  -7.7603  -7.7579  -7.7546  -7.7540
    -7.7479  -7.7471  -7.7425  -7.7399  -7.7366  -7.7316  -7.7314  -7.7286
    -7.7282  -7.7246  -7.7222  -7.7186  -7.7182  -7.7177  -7.7161  -7.7124
    -7.6912  -7.6886  -7.6866  -7.6856  -7.6794  -7.6569  -7.6559  -7.6559
    -7.6547  -7.6277  -7.6270  -7.6268  -7.6252  -7.6152  -7.6147  -7.6080
    -7.6033  -7.5930  -7.5782  -7.5695  -7.5683  -7.5623  -7.5572  -7.5571
    -7.5501  -7.5439  -7.5431  -7.5359  -7.5250  -7.5244  -7.5235  -7.5176
    -7.5098  -7.4899  -7.4520  -7.4229  -7.4209  -7.4176  -7.4053  -7.3894
    -7.3732  -7.2798  -7.2643  -7.1789  -7.1313  -7.1306  -7.1276  -7.1268
    -7.1148  -7.1013  -7.0826  -7.0812  -7.0707  -7.0640  -7.0569  -7.0312
    -7.0269  -7.0023  -6.9923  -6.9820  -6.9819  -6.9795  -6.9506  -6.9340
    -6.9278  -6.8787  -6.8732  -6.8716  -6.8685  -6.8594  -6.8443  -6.8404
    -6.8282  -6.8187  -6.8183  -6.7969  -6.7623  -6.7471  -6.7249  -6.7180
    -6.6907  -6.6821  -6.6738  -6.6445  -6.6375  -6.6218  -6.5989  -6.5908
    -6.5782  -6.5745  -6.5646  -6.5642  -6.5637  -6.5635  -6.5472  -6.5467
    -6.5462  -6.5461  -6.5384  -6.5382  -6.5382  -6.5381  -6.5290  -6.5126
    -6.4916  -6.4359  -6.4209  -6.3827  -6.3733  -6.3285  -6.2864  -6.2843
    -6.2815  -6.2798  -6.2699  -6.2592  -6.2378  -6.2364  -6.2337  -6.2327
    -6.2305  -6.2293  -6.2271  -6.2208  -6.2047  -6.1919  -6.1898  -6.1801
    -6.1770  -6.1616  -6.1577  -6.1572  -6.1485  -5.9931  -5.9544  -5.9424
    -5.9140  -5.9097  -5.8753  -5.8604  -5.8464  -5.8080  -5.8074  -5.7183
    -5.6795  -5.6423  -5.6381  -5.5890  -5.5640  -5.5431  -5.4623  -5.3996
    -5.3360  -4.3714  -4.0535  -4.0527  -4.0391  -4.0266  -3.8987  -3.8986
    -3.8835  -3.8790  -3.8517  -3.8385  -3.8006  -3.7996  -3.7861  -3.7826
    -3.7698  -3.7668  -3.7570  -3.7568  -3.7450  -3.7242  -3.6500  -3.6446
    -3.6430  -3.6242  -3.5660  -3.5613  -3.5595  -3.5590  -3.5540  -3.5179
    -3.5106  -3.5088  -3.4968  -3.4824  -3.4779  -3.4764  -3.4701  -3.4618
    -3.4540  -3.4406  -3.4371  -3.4310  -3.4305  -3.4279  -3.4261  -3.4216
    -3.4047  -3.3983  -3.3869  -3.3849  -3.3814  -3.3778  -3.3602  -3.3434
    -3.3266  -3.3078  -3.3059  -3.3038  -3.3024  -3.2991  -3.2969  -3.2899
    -3.2844  -3.2593  -3.2512  -3.2482  -3.2414  -3.2374  -3.2371  -3.2368
    -3.2333  -3.2324  -3.2230  -3.2050  -3.2007  -3.1927  -3.1887  -3.1841
    -3.1814  -3.1730  -3.1690  -3.1665  -3.1631  -3.1485  -3.1444  -3.1369
    -3.1319  -3.1300  -3.1197  -3.1196  -3.1172  -3.1097  -3.0927  -3.0643
    -3.0591  -3.0497  -3.0274  -3.0256  -3.0214  -3.0207  -3.0108  -2.9834
    -2.9802  -2.9801  -2.9794  -2.9785  -2.9785  -2.9714  -2.9684  -2.9619
    -2.9604  -2.9588  -2.9566  -2.9485  -2.9454  -2.9385  -2.9331  -2.9309
    -2.9297  -2.9257  -2.9252  -2.9172  -2.9142  -2.9074  -2.9043  -2.9027
    -2.8978  -2.8882  -2.8864  -2.8798  -2.8735  -2.8487  -2.8481  -2.8455
    -2.8419  -2.8342  -2.8240  -2.8161  -2.8125  -2.7533  -2.7485  -2.7482
    -2.7474  -2.7105  -2.6819  -2.6699  -2.6659  -2.5740  -2.5655  -2.5512
    -2.5419  -2.5406  -2.5271  -2.5118  -2.5005  -2.4925  -2.4853  -2.4846
    -2.4831  -2.4806  -2.4666  -2.4485  -2.3824  -2.3547  -2.3536  -2.3486
    -2.3462  -2.3310  -2.3117  -2.3040

          k =-0.5000-0.2887 0.0000 (386352 PWs)   bands (ev):

  -102.2526 -88.6633 -70.5668 -70.5649 -70.5638 -70.5625 -70.5389 -70.5345
   -70.5207 -66.5784 -66.5783 -66.5783 -66.5782 -66.5771 -66.5771 -66.5754
   -66.5677 -66.5677 -66.5676 -66.5676 -66.5665 -66.5665 -66.5656 -66.5611
   -66.5559 -66.5526 -66.5526 -66.5526 -66.5526 -66.5526 -66.5525 -66.5525
   -66.5524 -66.5516 -66.5514 -66.5514 -66.5514 -66.5514 -66.5482 -66.5481
   -66.5481 -66.5480 -66.5469 -66.5469 -66.5440 -66.5419 -66.5419 -66.5419
   -66.5418 -66.5418 -66.5418 -66.5418 -66.5416 -66.5406 -66.5406 -66.5406
   -66.5406 -66.5374 -66.5374 -66.5374 -66.5373 -66.5365 -66.5362 -66.5362
   -66.5317 -66.5279 -66.5244 -66.5228 -66.5209 -66.5177 -66.5131 -66.5031
   -66.4958 -56.5134 -56.4855 -56.4766 -54.4796 -54.4592 -54.4570 -40.8805
   -40.8804 -40.8804 -40.8804 -40.8804 -40.8803 -40.8802 -40.8802 -40.8798
   -40.8798 -40.8798 -40.8798 -40.8711 -40.8694 -40.8537 -40.8536 -40.8536
   -40.8536 -40.8535 -40.8530 -40.8530 -40.8448 -40.8439 -40.8415 -40.8415
   -40.8415 -40.8414 -40.8409 -40.8409 -40.8299 -40.8182 -40.8121 -40.7908
   -40.7908 -40.7908 -40.7908 -40.7908 -40.7908 -40.7907 -40.7907 -40.7902
   -40.7902 -40.7902 -40.7902 -40.7709 -40.7680 -40.7668 -40.7660 -40.7475
   -40.7381 -40.7321 -40.7321 -40.7320 -40.7319 -40.7315 -40.7315 -40.7291
   -40.7225 -40.7225 -40.7225 -40.7224 -40.7218 -40.7218 -40.7112 -40.7112
   -40.7111 -40.7111 -40.7106 -40.7106 -40.7088 -40.7024 -40.6962 -40.6945
   -40.6893 -40.6816 -40.6816 -40.6816 -40.6816 -40.6816 -40.6816 -40.6815
   -40.6814 -40.6810 -40.6810 -40.6810 -40.6810 -40.6753 -40.6747 -40.6729
   -40.6728 -40.6728 -40.6727 -40.6722 -40.6722 -40.6671 -40.6630 -40.6611
   -40.6610 -40.6610 -40.6610 -40.6606 -40.6606 -40.6605 -40.6605 -40.6605
   -40.6605 -40.6604 -40.6604 -40.6603 -40.6603 -40.6599 -40.6599 -40.6599
   -40.6599 -40.6597 -40.6556 -40.6519 -40.6519 -40.6518 -40.6518 -40.6512
   -40.6512 -40.6500 -40.6480 -40.6428 -40.6418 -40.6360 -40.6342 -40.6302
   -40.6301 -40.6301 -40.6301 -40.6301 -40.6301 -40.6300 -40.6299 -40.6293
   -40.6293 -40.6293 -40.6293 -40.6173 -40.6148 -40.6037 -40.5977 -40.5954
   -40.5954 -40.5954 -40.5954 -40.5954 -40.5953 -40.5953 -40.5953 -40.5945
   -40.5945 -40.5945 -40.5945 -40.5833 -40.5832 -40.5832 -40.5831 -40.5824
   -40.5824 -40.5771 -40.5741 -40.5727 -40.5696 -40.5639 -40.5639 -40.5639
   -40.5637 -40.5637 -40.5630 -40.5630 -40.5496 -40.5469 -40.5469 -40.5469
   -40.5468 -40.5460 -40.5460 -40.5451 -40.5365 -40.5230 -40.5171 -40.5163
   -40.5163 -40.5162 -40.5161 -40.5153 -40.5153 -40.4972 -40.4833 -19.9203
   -19.8482 -19.8229 -19.7886 -19.7224 -19.6981 -19.6159 -19.6075 -19.4487
   -19.4173 -19.3834 -19.3666 -19.2900 -19.2785 -19.1889 -19.1849 -18.8648
   -18.8056 -18.7683 -18.7473 -18.7243 -18.6993 -18.6815 -18.6806 -18.6786
   -18.6650 -18.6459 -18.6365 -18.6097 -18.6070 -18.6002 -18.5951 -18.5519
   -18.5404 -18.5260 -18.5145 -18.5118 -18.5076 -18.4993 -18.4858 -18.4684
   -18.4424 -18.4383 -18.4358 -18.4268 -18.4017 -18.3708 -18.3673 -18.3665
   -18.3441 -18.3316 -18.3153 -18.2991 -18.2913 -18.2812 -18.2347 -18.2272
   -18.2142 -18.2048 -18.1929 -18.1720 -18.1476 -18.1376 -18.1309 -18.1061
   -18.0915 -18.0810 -18.0680 -18.0640 -18.0613 -18.0587 -18.0555 -18.0505
   -18.0335 -18.0321 -18.0309 -18.0260 -18.0234 -18.0195 -18.0172 -18.0074
   -18.0029 -17.9979 -17.9888 -17.9698 -17.9664 -17.9655 -17.9628 -17.9593
   -17.9580 -17.9552 -17.9475 -17.9450 -17.9384 -17.9070 -17.9018 -17.8961
   -17.8949 -17.8883 -17.8785 -17.8523 -17.8484 -17.8459 -17.8342 -17.8264
   -17.8078 -17.8050 -17.8002 -17.7965 -17.7834 -17.7791 -17.7790 -17.7788
   -17.7775 -17.7763 -17.7749 -17.7647 -17.7625 -17.7449 -17.7416 -17.7205
   -17.7179 -17.7012 -17.6975 -17.6868 -17.6839 -17.6794 -17.6788 -11.9586
   -11.6855 -11.6696 -11.6002 -11.5612 -11.5230 -11.4929 -11.4788 -11.4541
   -11.4533 -11.4490 -11.4440 -11.4347 -11.4169 -11.4074 -11.3741 -11.3496
   -11.3474 -11.3348 -11.3293 -11.3163 -11.2955 -11.2904 -11.2802 -11.2627
   -11.2497 -11.2335 -11.2287 -11.2257 -11.2179 -11.2161 -11.2119 -11.2004
   -11.1677 -11.1646 -11.1576 -11.1460 -11.1409 -11.1314 -11.1293 -11.1260
   -11.1210 -11.1081 -11.1051 -11.0907 -11.0829 -11.0478 -11.0455 -11.0242
   -11.0163 -10.9817 -10.9399 -10.9186 -10.9083 -10.8914 -10.8796 -10.8689
   -10.8612 -10.8559 -10.8486 -10.8336 -10.8223 -10.8132 -10.7991 -10.7882
   -10.7872 -10.7830 -10.7820 -10.7708 -10.7705 -10.7702 -10.7678 -10.7612
   -10.7565 -10.7554 -10.7528 -10.7515 -10.7505 -10.7423 -10.7418 -10.7406
   -10.7382 -10.7030 -10.7029 -10.7026 -10.7023 -10.5535 -10.5072 -10.5046
   -10.4973 -10.4782 -10.4509 -10.4190 -10.3845 -10.3702 -10.3623 -10.3139
   -10.2815 -10.2235 -10.1901 -10.1471 -10.1083 -10.0935 -10.0894 -10.0773
   -10.0628 -10.0528 -10.0453 -10.0220 -10.0135  -9.9971  -9.9933  -9.9904
    -9.9871  -9.9751  -9.9630  -9.9579  -9.9434  -9.8972  -9.8909  -9.8817
    -9.8762  -9.8668  -9.8644  -9.8525  -9.8493  -9.8161  -9.8117  -9.8079
    -9.7882  -9.7773  -9.7708  -9.7427  -9.7351  -9.7280  -9.7205  -9.7004
    -9.6943  -9.6736  -9.6551  -9.6493  -9.6432  -9.6181  -9.6078  -9.5931
    -9.5769  -9.5700  -9.5665  -9.5428  -9.5332  -9.5127  -9.5103  -9.5001
    -9.4993  -9.4862  -9.4828  -9.4499  -9.4489  -9.4394  -9.4345  -9.4307
    -9.4237  -9.4180  -9.4158  -9.4110  -9.3975  -9.3923  -9.3883  -9.3393
    -9.3170  -9.2842  -9.2711  -9.2502  -9.2085  -9.1954  -9.1852  -9.1801
    -9.1672  -9.1613  -9.1604  -9.1436  -9.1350  -9.1040  -9.1002  -9.0942
    -9.0669  -9.0467  -9.0422  -9.0392  -9.0374  -9.0155  -9.0087  -9.0034
    -8.9955  -8.9913  -8.9876  -8.9547  -8.9430  -8.9275  -8.9231  -8.9185
    -8.9044  -8.9005  -8.8984  -8.8822  -8.8625  -8.8561  -8.8536  -8.8467
    -8.8459  -8.8442  -8.8398  -8.8328  -8.8304  -8.8284  -8.8274  -8.8237
    -8.8181  -8.8146  -8.8014  -8.7996  -8.7991  -8.7981  -8.7908  -8.7846
    -8.7632  -8.7534  -8.7510  -8.7483  -8.7450  -8.7431  -8.7404  -8.7231
    -8.7183  -8.6929  -8.6919  -8.6908  -8.6835  -8.6723  -8.6714  -8.6451
    -8.6172  -8.6107  -8.6030  -8.5630  -8.5125  -8.4643  -8.4595  -8.4190
    -8.4042  -8.3839  -8.3620  -8.3159  -8.3084  -8.2716  -8.2500  -8.2260
    -8.2087  -8.1383  -8.0898  -8.0873  -8.0854  -8.0784  -8.0762  -8.0670
    -8.0660  -8.0450  -8.0249  -8.0150  -7.9768  -7.9569  -7.9282  -7.9234
    -7.8874  -7.8329  -7.8284  -7.8077  -7.8022  -7.7916  -7.7888  -7.7878
    -7.7736  -7.7699  -7.7683  -7.7645  -7.7608  -7.7579  -7.7554  -7.7503
    -7.7474  -7.7464  -7.7435  -7.7409  -7.7402  -7.7364  -7.7293  -7.7280
    -7.7257  -7.7238  -7.7231  -7.7219  -7.7181  -7.7177  -7.7119  -7.7026
    -7.6949  -7.6912  -7.6877  -7.6846  -7.6800  -7.6577  -7.6566  -7.6553
    -7.6547  -7.6440  -7.6264  -7.6260  -7.6251  -7.6240  -7.6154  -7.6056
    -7.5994  -7.5821  -7.5740  -7.5678  -7.5675  -7.5658  -7.5577  -7.5559
    -7.5516  -7.5443  -7.5424  -7.5254  -7.5235  -7.5210  -7.5201  -7.5093
    -7.5031  -7.5025  -7.4379  -7.4238  -7.4166  -7.4151  -7.4130  -7.3850
    -7.3826  -7.3067  -7.2735  -7.1609  -7.1414  -7.1342  -7.1290  -7.1239
    -7.1230  -7.1049  -7.0814  -7.0742  -7.0691  -7.0587  -7.0436  -7.0409
    -7.0190  -6.9993  -6.9890  -6.9877  -6.9788  -6.9648  -6.9402  -6.9347
    -6.9204  -6.9049  -6.8741  -6.8681  -6.8668  -6.8544  -6.8400  -6.8277
    -6.8218  -6.8188  -6.8160  -6.8052  -6.7748  -6.7545  -6.7337  -6.7177
    -6.7031  -6.6896  -6.6599  -6.6404  -6.6316  -6.6188  -6.5867  -6.5799
    -6.5702  -6.5687  -6.5654  -6.5639  -6.5631  -6.5601  -6.5496  -6.5474
    -6.5463  -6.5457  -6.5456  -6.5384  -6.5383  -6.5382  -6.5381  -6.5040
    -6.4867  -6.4523  -6.4331  -6.3879  -6.3713  -6.3221  -6.3065  -6.2832
    -6.2820  -6.2782  -6.2738  -6.2542  -6.2481  -6.2406  -6.2364  -6.2351
    -6.2321  -6.2311  -6.2268  -6.2234  -6.2105  -6.2006  -6.1908  -6.1776
    -6.1694  -6.1613  -6.1602  -6.1513  -6.1491  -5.9629  -5.9579  -5.9356
    -5.9257  -5.9043  -5.8726  -5.8612  -5.8334  -5.8102  -5.8022  -5.7212
    -5.6928  -5.6608  -5.6166  -5.5923  -5.5643  -5.5437  -5.4548  -5.3943
    -5.3492  -4.3767  -4.0551  -4.0480  -4.0449  -4.0235  -3.9061  -3.8901
    -3.8821  -3.8709  -3.8665  -3.8201  -3.8017  -3.7995  -3.7881  -3.7822
    -3.7711  -3.7654  -3.7581  -3.7563  -3.7550  -3.7100  -3.6664  -3.6412
    -3.6383  -3.5991  -3.5688  -3.5667  -3.5620  -3.5593  -3.5565  -3.5257
    -3.5113  -3.5089  -3.5019  -3.4814  -3.4762  -3.4738  -3.4702  -3.4657
    -3.4548  -3.4420  -3.4390  -3.4325  -3.4303  -3.4298  -3.4225  -3.4124
    -3.4053  -3.4032  -3.3997  -3.3883  -3.3817  -3.3755  -3.3692  -3.3454
    -3.3308  -3.3129  -3.3042  -3.3032  -3.3021  -3.3007  -3.2956  -3.2937
    -3.2841  -3.2607  -3.2480  -3.2442  -3.2425  -3.2379  -3.2366  -3.2343
    -3.2328  -3.2303  -3.2187  -3.2003  -3.1997  -3.1917  -3.1850  -3.1823
    -3.1787  -3.1717  -3.1694  -3.1662  -3.1520  -3.1445  -3.1428  -3.1292
    -3.1262  -3.1252  -3.1198  -3.1194  -3.1193  -3.1153  -3.1040  -3.0613
    -3.0591  -3.0415  -3.0306  -3.0257  -3.0201  -3.0197  -3.0170  -2.9826
    -2.9818  -2.9798  -2.9796  -2.9790  -2.9780  -2.9682  -2.9670  -2.9642
    -2.9636  -2.9600  -2.9517  -2.9477  -2.9457  -2.9396  -2.9349  -2.9322
    -2.9283  -2.9260  -2.9254  -2.9192  -2.9153  -2.9053  -2.9039  -2.9019
    -2.8960  -2.8898  -2.8873  -2.8811  -2.8701  -2.8552  -2.8477  -2.8445
    -2.8404  -2.8323  -2.8229  -2.8191  -2.8062  -2.7553  -2.7529  -2.7456
    -2.7438  -2.7011  -2.6907  -2.6717  -2.6702  -2.5723  -2.5670  -2.5397
    -2.5377  -2.5306  -2.5091  -2.5073  -2.5015  -2.4882  -2.4847  -2.4842
    -2.4821  -2.4755  -2.4646  -2.4101  -2.3598  -2.3573  -2.3506  -2.3477
    -2.3467  -2.3221  -2.3083  -2.3028

          k =-0.5000-0.8660 0.0000 (386352 PWs)   bands (ev):

  -102.2526 -88.6633 -70.5668 -70.5649 -70.5638 -70.5625 -70.5389 -70.5345
   -70.5207 -66.5783 -66.5783 -66.5783 -66.5782 -66.5771 -66.5771 -66.5754
   -66.5677 -66.5677 -66.5676 -66.5676 -66.5665 -66.5665 -66.5656 -66.5611
   -66.5559 -66.5526 -66.5526 -66.5526 -66.5526 -66.5526 -66.5525 -66.5525
   -66.5524 -66.5516 -66.5514 -66.5514 -66.5514 -66.5514 -66.5482 -66.5481
   -66.5481 -66.5480 -66.5469 -66.5469 -66.5440 -66.5419 -66.5419 -66.5419
   -66.5418 -66.5418 -66.5418 -66.5418 -66.5416 -66.5407 -66.5406 -66.5406
   -66.5406 -66.5374 -66.5374 -66.5374 -66.5373 -66.5365 -66.5362 -66.5362
   -66.5317 -66.5279 -66.5244 -66.5228 -66.5209 -66.5177 -66.5131 -66.5031
   -66.4958 -56.5134 -56.4855 -56.4766 -54.4796 -54.4592 -54.4570 -40.8805
   -40.8804 -40.8804 -40.8804 -40.8804 -40.8804 -40.8802 -40.8802 -40.8798
   -40.8798 -40.8798 -40.8798 -40.8711 -40.8694 -40.8538 -40.8536 -40.8536
   -40.8536 -40.8535 -40.8530 -40.8530 -40.8448 -40.8440 -40.8415 -40.8415
   -40.8415 -40.8414 -40.8409 -40.8409 -40.8299 -40.8182 -40.8121 -40.7908
   -40.7908 -40.7908 -40.7908 -40.7908 -40.7908 -40.7907 -40.7907 -40.7902
   -40.7902 -40.7902 -40.7902 -40.7709 -40.7680 -40.7667 -40.7660 -40.7475
   -40.7381 -40.7321 -40.7321 -40.7320 -40.7319 -40.7315 -40.7315 -40.7291
   -40.7225 -40.7225 -40.7225 -40.7224 -40.7218 -40.7218 -40.7112 -40.7112
   -40.7111 -40.7111 -40.7106 -40.7106 -40.7088 -40.7024 -40.6962 -40.6945
   -40.6892 -40.6816 -40.6816 -40.6816 -40.6816 -40.6816 -40.6816 -40.6815
   -40.6814 -40.6810 -40.6810 -40.6810 -40.6810 -40.6753 -40.6747 -40.6729
   -40.6728 -40.6728 -40.6727 -40.6722 -40.6722 -40.6672 -40.6629 -40.6611
   -40.6610 -40.6610 -40.6610 -40.6607 -40.6606 -40.6605 -40.6605 -40.6605
   -40.6605 -40.6604 -40.6604 -40.6603 -40.6603 -40.6599 -40.6599 -40.6599
   -40.6599 -40.6596 -40.6556 -40.6519 -40.6519 -40.6518 -40.6518 -40.6512
   -40.6512 -40.6500 -40.6480 -40.6428 -40.6418 -40.6360 -40.6342 -40.6302
   -40.6301 -40.6301 -40.6301 -40.6301 -40.6301 -40.6300 -40.6299 -40.6293
   -40.6293 -40.6293 -40.6293 -40.6173 -40.6148 -40.6037 -40.5977 -40.5954
   -40.5954 -40.5954 -40.5954 -40.5954 -40.5953 -40.5953 -40.5953 -40.5945
   -40.5945 -40.5945 -40.5945 -40.5833 -40.5832 -40.5832 -40.5831 -40.5824
   -40.5824 -40.5771 -40.5741 -40.5727 -40.5696 -40.5639 -40.5639 -40.5639
   -40.5637 -40.5637 -40.5630 -40.5630 -40.5496 -40.5469 -40.5469 -40.5469
   -40.5468 -40.5460 -40.5460 -40.5451 -40.5365 -40.5230 -40.5171 -40.5163
   -40.5163 -40.5162 -40.5161 -40.5153 -40.5153 -40.4972 -40.4834 -19.9203
   -19.8482 -19.8229 -19.7886 -19.7224 -19.6981 -19.6159 -19.6075 -19.4487
   -19.4173 -19.3834 -19.3666 -19.2900 -19.2785 -19.1889 -19.1849 -18.8648
   -18.8057 -18.7683 -18.7473 -18.7243 -18.6992 -18.6815 -18.6806 -18.6786
   -18.6650 -18.6459 -18.6365 -18.6097 -18.6070 -18.6002 -18.5951 -18.5519
   -18.5404 -18.5260 -18.5145 -18.5118 -18.5076 -18.4993 -18.4858 -18.4684
   -18.4424 -18.4383 -18.4358 -18.4268 -18.4017 -18.3708 -18.3673 -18.3665
   -18.3441 -18.3316 -18.3153 -18.2991 -18.2913 -18.2812 -18.2347 -18.2272
   -18.2143 -18.2048 -18.1929 -18.1720 -18.1476 -18.1376 -18.1309 -18.1061
   -18.0915 -18.0810 -18.0680 -18.0640 -18.0613 -18.0587 -18.0555 -18.0505
   -18.0335 -18.0321 -18.0309 -18.0260 -18.0234 -18.0195 -18.0172 -18.0074
   -18.0029 -17.9979 -17.9888 -17.9698 -17.9664 -17.9656 -17.9628 -17.9593
   -17.9580 -17.9552 -17.9475 -17.9450 -17.9384 -17.9070 -17.9018 -17.8961
   -17.8949 -17.8883 -17.8784 -17.8523 -17.8484 -17.8459 -17.8342 -17.8264
   -17.8078 -17.8050 -17.8002 -17.7965 -17.7834 -17.7791 -17.7790 -17.7788
   -17.7776 -17.7762 -17.7749 -17.7647 -17.7625 -17.7449 -17.7416 -17.7205
   -17.7179 -17.7012 -17.6975 -17.6868 -17.6839 -17.6794 -17.6788 -11.9586
   -11.6856 -11.6695 -11.6002 -11.5613 -11.5230 -11.4930 -11.4788 -11.4541
   -11.4533 -11.4490 -11.4440 -11.4347 -11.4169 -11.4074 -11.3741 -11.3496
   -11.3474 -11.3348 -11.3293 -11.3163 -11.2955 -11.2904 -11.2802 -11.2627
   -11.2497 -11.2335 -11.2287 -11.2258 -11.2179 -11.2161 -11.2119 -11.2004
   -11.1677 -11.1646 -11.1576 -11.1460 -11.1409 -11.1314 -11.1293 -11.1260
   -11.1210 -11.1081 -11.1051 -11.0907 -11.0829 -11.0478 -11.0455 -11.0242
   -11.0163 -10.9817 -10.9399 -10.9186 -10.9083 -10.8914 -10.8796 -10.8689
   -10.8612 -10.8559 -10.8486 -10.8336 -10.8223 -10.8132 -10.7991 -10.7882
   -10.7872 -10.7830 -10.7820 -10.7708 -10.7705 -10.7702 -10.7678 -10.7613
   -10.7565 -10.7554 -10.7528 -10.7515 -10.7505 -10.7423 -10.7418 -10.7406
   -10.7382 -10.7030 -10.7029 -10.7026 -10.7023 -10.5535 -10.5072 -10.5046
   -10.4973 -10.4782 -10.4509 -10.4191 -10.3844 -10.3702 -10.3623 -10.3139
   -10.2815 -10.2235 -10.1901 -10.1471 -10.1083 -10.0935 -10.0894 -10.0773
   -10.0628 -10.0528 -10.0453 -10.0220 -10.0135  -9.9971  -9.9933  -9.9904
    -9.9871  -9.9751  -9.9630  -9.9579  -9.9434  -9.8972  -9.8909  -9.8817
    -9.8762  -9.8668  -9.8644  -9.8525  -9.8493  -9.8161  -9.8117  -9.8079
    -9.7882  -9.7773  -9.7708  -9.7427  -9.7351  -9.7280  -9.7205  -9.7004
[...]
     Energy error            =      4.4E-05 Ry
     Gradient error          =      3.2E-03 Ry/Bohr

     number of scf cycles    =  15
     number of bfgs steps    =  14

     energy             old  =  -33980.2846810739 Ry
     energy             new  =  -33980.2847249405 Ry

     CASE: energy            _new < energy            _old

     new trust radius        =       0.0089859179 bohr
     new conv_thr            =       0.0000000100 Ry


ATOMIC_POSITIONS (angstrom)
Mo               0.0000119917        1.8193638619       -9.1672481230    0   0   0
Mo               1.5756136568        0.9097075315       -3.0554901653    0   0   0
S                0.0000188998        1.8193822938       -4.6232556019    0   0   0
S                1.5756321638        0.9096773839       -7.6014065489    0   0   0
S                1.5756326175        0.9096785128      -10.7330757790    0   0   0
S                0.0000189190        1.8193860094       -1.4877129945    0   0   0
Mo              -0.0001343246        1.8194747912        3.0561407647
Mo               1.5756702959        0.9095129250        9.1475120017
S               -0.0002609048        1.8237722242        7.5805824199
S                1.5756534367        0.9093863406        4.6231535353
S                1.5756541360        0.9099449957        1.4881958703
S                0.0148976017        1.8059301934       10.7297118569
Mo              -1.5756053507        4.5484193819       -9.1672481230    0   0   0
Mo               0.0000378379        3.6387394919       -3.0554952701    0   0   0
S               -1.5755913433        4.5484363582       -4.6232494962    0   0   0
S                0.0000148214        3.6387329039       -7.6014065489    0   0   0
S                0.0000152751        3.6387340328      -10.7330757790    0   0   0
S               -1.5755906502        4.5484413613       -1.4877305502    0   0   0
Mo              -1.5755452241        4.5484804523        3.0564585926
Mo              -0.0060695315        3.6283182070        9.1667281326
S               -1.5736951786        4.5473949714        7.5882664566
S                0.0006409507        3.6391799957        4.6236644454
S               -0.0002234137        3.6387673417        1.4882077299
S               -1.5697925541        4.5606948873       10.7327206384
Mo              -3.1512226931        7.2774749019       -9.1672481230    0   0   0
Mo              -1.5755910988        6.3678216792       -3.0555115988    0   0   0
S               -3.1512162438        7.2774954350       -4.6232578178    0   0   0
S               -1.5756025210        6.3677884239       -7.6014065489    0   0   0
S               -1.5756020673        6.3677895528      -10.7330757790    0   0   0
S               -3.1512127704        7.2774877076       -1.4877200710    0   0   0
Mo              -3.1510944158        7.2774249666        3.0557142742
Mo              -1.5892950096        6.3659777898        9.1609030318
S               -3.1527275074        7.2788076676        7.5847201555
S               -1.5752770170        6.3682953610        4.6239182883
S               -1.5754569748        6.3676329140        1.4882796439
S               -3.1659551361        7.2806983856       10.7281211030
Mo              -4.7268400355       10.0065304219       -9.1672481230    0   0   0
Mo              -3.1512405618        9.0968403586       -3.0554816746    0   0   0
S               -4.7268341792       10.0065523623       -4.6232463762    0   0   0
S               -3.1512198634        9.0968439439       -7.6014065489    0   0   0
S               -3.1512194097        9.0968450728      -10.7330757790    0   0   0
S               -4.7268370797       10.0065537885       -1.4877176751    0   0   0
Mo              -4.7268153326       10.0064618094        3.0554197672
Mo              -3.1543391376        9.0966236948        9.1575029353
S               -4.7267960825       10.0024399665        7.5838164010
S               -3.1511484498        9.0968171331        4.6230234854
S               -3.1508417643        9.0969014297        1.4880296124
S               -4.7267959756       10.0082888389       10.7224446082
Mo               3.1512517547        1.8193638619       -9.1672481230    0   0   0
Mo               4.7269020221        0.9097289540       -3.0554823951    0   0   0
S                3.1512612351        1.8193882564       -4.6232320683    0   0   0
S                4.7268719268        0.9096773839       -7.6014065489    0   0   0
S                4.7268723805        0.9096785128      -10.7330757790    0   0   0
S                3.1512592485        1.8193890201       -1.4877261251    0   0   0
Mo               3.1514497742        1.8194737155        3.0561404595
Mo               4.7066195133        0.9053658624        9.1610360029
S                3.1515977463        1.8237726003        7.5805818133
S                4.7276672063        0.9099388865        4.6239615564
S                4.7269238434        0.9096046399        1.4883356186
S                3.1364434104        1.8059327687       10.7297051417
Mo               1.5756344123        4.5484193819       -9.1672481230    0   0   0
Mo               3.1512756394        3.6387769522       -3.0554814834    0   0   0
S                1.5756504879        4.5484423799       -4.6232390542    0   0   0
S                3.1512545844        3.6387329039       -7.6014065489    0   0   0
S                3.1512550381        3.6387340328      -10.7330757790    0   0   0
S                1.5756466253        4.5484431864       -1.4877251801    0   0   0
Mo               1.5756566739        4.5487166425        3.0553478755
Mo               3.1574188668        3.6283201609        9.1667225987
S                1.5756732261        4.5728156622        7.6353600193
S                3.1506756050        3.6391808730        4.6236608039
S                3.1515409080        3.6387681431        1.4882174503
S                1.5756775083        4.4430949098       10.7842175182
Mo               0.0000170699        7.2774749019       -9.1672481230    0   0   0
Mo               1.5756764447        6.3678236689       -3.0554877708    0   0   0
S                0.0000381981        7.2774979204       -4.6232454413    0   0   0
S                1.5756372420        6.3677884239       -7.6014065489    0   0   0
S                1.5756376957        6.3677895528      -10.7330757790    0   0   0
S                0.0000328088        7.2774946042       -1.4877307940    0   0   0
Mo               0.0002571143        7.2775712252        3.0558488478
Mo               1.5756795176        6.3681698857        9.2210096815
S                0.0209156255        7.2657353504        7.6309660583
S                1.5756607377        6.3677907840        4.6233381742
S                1.5756619307        6.3680091661        1.4877129263
S               -0.1063176087        7.3145493742       10.7862004795
Mo              -1.5756002725       10.0065304219       -9.1672481230    0   0   0
Mo               0.0000873425        9.0968676911       -3.0554912329    0   0   0
S               -1.5755883952       10.0065504530       -4.6232240150    0   0   0
S                0.0000198996        9.0968439439       -7.6014065489    0   0   0
S                0.0000203533        9.0968450728      -10.7330757790    0   0   0
S               -1.5755859047       10.0065492576       -1.4877362381    0   0   0
Mo              -1.5752052142       10.0065478307        3.0562980938
Mo              -0.0213531662        9.0940764021        9.1764065574
S               -1.5757646229       10.0042135454        7.5881815574
S                0.0005325663        9.0966248951        4.6245708311
S                0.0001486836        9.0969754691        1.4883570523
S               -1.5918504605       10.0157899724       10.7322461267
Mo               6.3024915177        1.8193638619       -9.1672481230    0   0   0
Mo               7.8781001445        0.9096521684       -3.0554919963    0   0   0
S                6.3025008696        1.8193826232       -4.6232480596    0   0   0
S                7.8781116898        0.9096773839       -7.6014065489    0   0   0
S                7.8781121435        0.9096785128      -10.7330757790    0   0   0
S                6.3025042007        1.8193849068       -1.4877147524    0   0   0
Mo               6.3027745300        1.8192599511        3.0557113564
Mo               7.8781472497        0.9110588871        9.2186807008
S                6.3267710682        1.8073268480        7.6386531244
S                7.8781364172        0.9096412344        4.6238454885
S                7.8781349986        0.9094233354        1.4879394017
S                6.1728143404        1.8933744006       10.7988164042
Mo               4.7268741753        4.5484193819       -9.1672481230    0   0   0
Mo               6.3024679138        3.6387501714       -3.0554895197    0   0   0
S                4.7268748770        4.5484386753       -4.6232519432    0   0   0
S                6.3024943474        3.6387329039       -7.6014065489    0   0   0
S                6.3024948011        3.6387340328      -10.7330757790    0   0   0
S                4.7268770533        4.5484432419       -1.4877137856    0   0   0
Mo               4.7268601586        4.5484814969        3.0564571072
Mo               6.2974821797        3.6570380727        9.1669009991
S                4.7250468491        4.5474010638        7.5882630467
S                6.3026692622        3.6381391524        4.6240002015
S                6.3023951751        3.6388627407        1.4883440449
S                4.7211448908        4.5607005204       10.7327114255
Mo               3.1512568329        7.2774749019       -9.1672481230    0   0   0
Mo               4.7268384135        6.3678043337       -3.0554959052    0   0   0
S                3.1512606125        7.2774972547       -4.6232589675    0   0   0
S                4.7268770050        6.3677884239       -7.6014065489    0   0   0
S                4.7268774587        6.3677895528      -10.7330757790    0   0   0
S                3.1512629079        7.2774963749       -1.4877081835    0   0   0
Mo               3.1510690201        7.2775711448        3.0558499959
Mo               4.7406539030        6.3659829156        9.1608979650
S                3.1304416577        7.2657401592        7.6309648091
S                4.7265992284        6.3682997679        4.6239258839
S                4.7267805321        6.3676340139        1.4882832335
S                3.2576787808        7.3145505119       10.7861969320
Mo               1.5756394905       10.0065304219       -9.1672481230    0   0   0
Mo               3.1512330605        9.0968514907       -3.0554878870    0   0   0
S                1.5756499830       10.0065443759       -4.6232632674    0   0   0
S                3.1512596626        9.0968439439       -7.6014065489    0   0   0
S                3.1512601163        9.0968450728      -10.7330757790    0   0   0
S                1.5756503041       10.0065459699       -1.4877044377    0   0   0
Mo               1.5756664524       10.0065233774        3.0562607280
Mo               3.1727200014        9.0940774101        9.1764075616
S                1.5756826435       10.0303521267        7.6463248144
S                3.1507951016        9.0966257321        4.6245765215
S                3.1511787313        9.0969767560        1.4883544555
S                1.5756844904        9.8541577399       10.8085440091
Mo               9.4537312807        1.8193638619       -9.1672481230    0   0   0
Mo              11.0293863460        0.9096952246       -3.0554894007    0   0   0
S                9.4537395970        1.8193770750       -4.6232328036    0   0   0
S               11.0293514528        0.9096773839       -7.6014065489    0   0   0
S               11.0293519066        0.9096785128      -10.7330757790    0   0   0
S                9.4537393632        1.8193794783       -1.4877366147    0   0   0
Mo               9.4534949666        1.8192573548        3.0557129035
Mo              11.0496807338        0.9053635116        9.1610414629
S                9.4295330107        1.8073260156        7.6386533771
S               11.0285983123        0.9099389360        4.6239597730
S               11.0293412746        0.9096013809        1.4883369380
S                9.5834715658        1.8933617415       10.7988240582
Mo               7.8781139383        4.5484193819       -9.1672481230    0   0   0
Mo               9.4537539161        3.6387607911       -3.0554933032    0   0   0
S                7.8781175448        4.5484378232       -4.6232366318    0   0   0
S                9.4537341104        3.6387329039       -7.6014065489    0   0   0
S                9.4537345641        3.6387340328      -10.7330757790    0   0   0
S                7.8781194018        4.5484411585       -1.4877377057    0   0   0
Mo               7.8781388030        4.5481804043        3.0560924252
Mo               9.4588275377        3.6570344682        9.1669061586
S                7.8781581846        4.5486136202        7.5902052960
S                9.4536095650        3.6381401702        4.6239906173
S                9.4538782710        3.6388613699        1.4883458684
S                7.8781554023        4.5553162075       10.7293532124
Mo               6.3024965959        7.2774749019       -9.1672481230    0   0   0
Mo               7.8781361655        6.3678242352       -3.0555014130    0   0   0
S                6.3024973331        7.2774953556       -4.6232392528    0   0   0
S                7.8781167680        6.3677884239       -7.6014065489    0   0   0
S                7.8781172217        6.3677895528      -10.7330757790    0   0   0
S                6.3024989866        7.2774929744       -1.4877349119    0   0   0
Mo               6.3024177717        7.2774236329        3.0557156699
Mo               7.8781598546        6.3708937513        9.1559320853
S                6.3040934265        7.2788109207        7.5847172470
S                7.8781407657        6.3676380111        4.6231718465
S                7.8781377273        6.3675827557        1.4880847674
S                6.3173165127        7.2806991219       10.7281188075
Mo               4.7268792535       10.0065304219       -9.1672481230    0   0   0
Mo               6.3025111524        9.0968738021       -3.0554915260    0   0   0
S                4.7268840634       10.0065452125       -4.6232380477    0   0   0
S                6.3024994256        9.0968439439       -7.6014065489    0   0   0
S                6.3024998793        9.0968450728      -10.7330757790    0   0   0
S                4.7268847312       10.0065459141       -1.4877283294    0   0   0
Mo               4.7265351985       10.0065471142        3.0562994171
Mo               6.3057063475        9.0966249812        9.1575029982
S                4.7271324381       10.0042149350        7.5881791284
S                6.3024797472        9.0968185667        4.6230202036
S                6.3021703495        9.0969007130        1.4880387852
S                4.7432200528       10.0157878083       10.7322505007
Pd               1.5756834809        6.3792358835       12.1037310732
Pt               7.8781316089        0.9018133325       11.9618037380



     Writing config-only to output data dir ./outdir/pwscf.save/ :
     XML data file
     NEW-OLD atomic charge density approx. for the potential

     negative rho (up, down):  8.958E-04 0.000E+00

     total cpu time spent up to now is   132452.4 secs

     Self-consistent Calculation

     iteration #  1     ecut=    77.00 Ry     beta= 0.20
     Davidson diagonalization with overlap
     ethr =  1.00E-06,  avg # of iterations =  7.0

     Threshold (ethr) on eigenvalues was too large:
     Diagonalizing with lowered threshold

     Davidson diagonalization with overlap
     ethr =  1.22E-08,  avg # of iterations = 12.8

     negative rho (up, down):  8.961E-04 0.000E+00

     total cpu time spent up to now is   133994.6 secs

     total energy              =  -33980.28477836 Ry
     estimated scf accuracy    <       0.00005342 Ry

     iteration #  2     ecut=    77.00 Ry     beta= 0.20
     Davidson diagonalization with overlap
     ethr =  3.12E-09,  avg # of iterations = 11.5

     negative rho (up, down):  8.964E-04 0.000E+00

     total cpu time spent up to now is   134524.3 secs

     total energy              =  -33980.28478652 Ry
     estimated scf accuracy    <       0.00003575 Ry

     iteration #  3     ecut=    77.00 Ry     beta= 0.20
     Davidson diagonalization with overlap
     ethr =  2.09E-09,  avg # of iterations =  2.0

     negative rho (up, down):  8.966E-04 0.000E+00

     total cpu time spent up to now is   134925.1 secs

     total energy              =  -33980.28477892 Ry
     estimated scf accuracy    <       0.00000518 Ry

     iteration #  4     ecut=    77.00 Ry     beta= 0.20
     Davidson diagonalization with overlap
     ethr =  3.02E-10,  avg # of iterations = 16.8

     negative rho (up, down):  8.968E-04 0.000E+00

     total cpu time spent up to now is   135776.7 secs

     total energy              =  -33980.28478047 Ry
     estimated scf accuracy    <       0.00000343 Ry

     iteration #  5     ecut=    77.00 Ry     beta= 0.20
     Davidson diagonalization with overlap
     ethr =  2.00E-10,  avg # of iterations =  5.0

     negative rho (up, down):  8.969E-04 0.000E+00

     total cpu time spent up to now is   136192.7 secs

     total energy              =  -33980.28477621 Ry
     estimated scf accuracy    <       0.00000173 Ry

     iteration #  6     ecut=    77.00 Ry     beta= 0.20
     Davidson diagonalization with overlap
     ethr =  1.01E-10,  avg # of iterations =  9.5

     negative rho (up, down):  8.970E-04 0.000E+00

     total cpu time spent up to now is   136774.4 secs

     total energy              =  -33980.28477487 Ry
     estimated scf accuracy    <       0.00000122 Ry

     iteration #  7     ecut=    77.00 Ry     beta= 0.20
     Davidson diagonalization with overlap
     ethr =  7.14E-11,  avg # of iterations =  6.8

     negative rho (up, down):  8.971E-04 0.000E+00

     total cpu time spent up to now is   137203.6 secs

     total energy              =  -33980.28477435 Ry
     estimated scf accuracy    <       0.00000035 Ry

     iteration #  8     ecut=    77.00 Ry     beta= 0.20
     Davidson diagonalization with overlap
     ethr =  2.05E-11,  avg # of iterations = 12.2

     negative rho (up, down):  8.972E-04 0.000E+00

     total cpu time spent up to now is   137891.7 secs

     total energy              =  -33980.28477454 Ry
     estimated scf accuracy    <       0.00000025 Ry

     iteration #  9     ecut=    77.00 Ry     beta= 0.20
     Davidson diagonalization with overlap
     ethr =  1.46E-11,  avg # of iterations =  3.0

     negative rho (up, down):  8.973E-04 0.000E+00

     total cpu time spent up to now is   138293.8 secs

     total energy              =  -33980.28477453 Ry
     estimated scf accuracy    <       0.00000005 Ry

     iteration # 10     ecut=    77.00 Ry     beta= 0.20
     Davidson diagonalization with overlap
     ethr =  3.12E-12,  avg # of iterations = 17.8

     negative rho (up, down):  8.973E-04 0.000E+00

     total cpu time spent up to now is   139049.4 secs

     total energy              =  -33980.28477457 Ry
     estimated scf accuracy    <       0.00000006 Ry

     iteration # 11     ecut=    77.00 Ry     beta= 0.20
     Davidson diagonalization with overlap
     ethr =  3.12E-12,  avg # of iterations =  3.0

     negative rho (up, down):  8.973E-04 0.000E+00

     total cpu time spent up to now is   139450.0 secs

     total energy              =  -33980.28477457 Ry
     estimated scf accuracy    <       0.00000002 Ry

     iteration # 12     ecut=    77.00 Ry     beta= 0.20
     Davidson diagonalization with overlap
