ITEM: TIMESTEP
0
ITEM: NUMBER OF ATOMS
377
ITEM: BOX BOUNDS xy xz yz pp pp ff
-7.3724492699999997e+00 2.4574830899999998e+01 -7.3724492699999997e+00
0.0000000000000000e+00 2.0701456793999998e+01 0.0000000000000000e+00
0.0000000000000000e+00 3.6159325252999999e+01 0.0000000000000000e+00
ITEM: ATOMS id type element x y z ix iy iz
1 6 Si 0.00622726 5.39871 5.84924 0 0 0
2 6 Si 1.38346 1.27811 6.48741 0 0 0
3 6 Si 3.89733 2.51221 5 0 0 0
4 5 O 0.858352 4.68694 7.13486 0 0 0
5 5 O -1.14378 6.50859 6.46205 0 0 0
6 5 O 2.94457 1.78139 6.226 0 0 0
7 5 O -0.952567 4.11933 5.15665 0 0 0
8 5 O 0.442021 1.86105 5.21008 0 0 0
9 5 O 0.870684 1.7965 7.98348 0 0 0
10 6 Si 0.108347 1.0673 9.29214 0 0 0
11 6 Si -0.932944 3.88682 9.96119 0 0 0
12 6 Si 1.53387 5.10158 8.5903 0 0 0
13 5 O 1.25995 0.548871 10.3652 0 0 0
14 5 O 4.0475 2.23179 9.99057 0 0 0
15 5 O 0.616427 4.50304 9.86346 0 0 0
16 5 O 1.55993 6.7512 8.75528 0 0 0
17 5 O 3.0434 4.40433 8.67773 0 0 0
18 5 O 3.39493 4.54421 11.3942 0 0 0
20 6 Si -1.07443 8.17899 6.48741 0 0 0
21 6 Si 1.43985 9.41269 5 0 0 0
24 5 O 0.48677 8.68222 6.22631 0 0 0
26 5 O -2.01546 8.76153 5.21008 0 0 0
27 5 O -1.58752 8.69681 7.98347 0 0 0
28 6 Si -2.34944 7.96739 9.29251 0 0 0
31 5 O -1.19709 7.44814 10.364 0 0 0
32 5 O 1.58973 9.13228 9.98983 0 0 0
55 6 Si 4.92164 5.3998 5.84881 0 0 0
56 6 Si 6.29867 1.27862 6.48761 0 0 0
57 6 Si 8.8123 2.51221 5 0 0 0
58 5 O 5.77436 4.68857 7.13341 0 0 0
59 5 O 3.77178 6.50872 6.46115 0 0 0
60 5 O 7.85968 1.78234 6.2264 0 0 0
61 5 O 3.9624 4.11933 5.15665 0 0 0
62 5 O 5.35699 1.86105 5.21008 0 0 0
63 5 O 5.78483 1.79682 7.98346 0 0 0
64 6 Si 5.02283 1.06715 9.29213 0 0 0
65 6 Si 3.98204 3.88696 9.96118 0 0 0
66 6 Si 6.44906 5.10138 8.58986 0 0 0
67 5 O 6.17476 0.548476 10.3642 0 0 0
68 5 O 8.9627 2.23168 9.98953 0 0 0
69 5 O 5.53151 4.50162 9.86252 0 0 0
70 5 O 6.4755 6.75064 8.75727 0 0 0
71 5 O 7.95899 4.40475 8.67802 0 0 0
72 5 O 8.30915 4.54312 11.3937 0 0 0
74 6 Si 3.84116 8.17897 6.4874 0 0 0
75 6 Si 6.35482 9.41269 5 0 0 0
78 5 O 5.40192 8.68265 6.2263 0 0 0
80 5 O 2.8995 8.76153 5.21008 0 0 0
81 5 O 3.32757 8.69718 7.98326 0 0 0
82 6 Si 2.56495 7.96765 9.29157 0 0 0
85 5 O 3.71742 7.44801 10.3633 0 0 0
86 5 O 6.5055 9.13243 9.98953 0 0 0
109 6 Si 9.8366 5.39916 5.84913 0 0 0
110 6 Si 11.2129 1.27822 6.48797 0 0 0
113 5 O 8.68707 6.50833 6.46242 0 0 0
115 5 O 8.87737 4.11933 5.15665 0 0 0
116 5 O 10.272 1.86105 5.21008 0 0 0
117 5 O 10.6991 1.7961 7.98356 0 0 0
118 6 Si 9.93775 1.06695 9.29289 0 0 0
119 6 Si 8.8973 3.88685 9.96147 0 0 0
121 5 O 11.0905 0.548691 10.3647 0 0 0
123 5 O 10.4464 4.50259 9.86373 0 0 0
128 6 Si 8.75579 8.17886 6.48773 0 0 0
134 5 O 7.81447 8.76153 5.21008 0 0 0
135 5 O 8.24249 8.69677 7.98368 0 0 0
136 6 Si 7.48025 7.96744 9.29255 0 0 0
139 5 O 8.63292 7.44897 10.3645 0 0 0
234 5 O -1.52147 4.54409 11.3937 1 0 0
272 2 H 2.46779 4.31228 11.5991 0 0 0
273 2 H -1.36069 6.63353 10.8837 0 0 0
278 2 H 7.38169 4.31262 11.5974 0 0 0
279 2 H 3.55329 6.63381 10.8841 0 0 0
285 2 H 8.47008 6.63393 10.8828 0 0 0
326 1 C 7.85605 10.2045 15.1744 0 0 0
327 1 C 8.64245 9.12868 14.6919 0 0 0
369 2 H 8.67511 8.89775 13.6087 0 0 0
373 4 N 8.5702 9.71485 17.4812 0 0 0
301 1 C 5.04213 4.78378 27.0333 0 0 0
302 1 C 4.89339 4.95701 25.5007 0 0 0
303 1 C 5.70771 6.14961 24.9292 0 0 0
304 1 C 5.52028 6.3287 23.3941 0 0 0
305 1 C 6.58422 7.17385 22.6264 0 0 0
306 1 C 6.51364 8.73947 22.7271 0 0 0
307 1 C 6.95304 9.3363 24.0947 0 0 0
309 1 C 7.368 9.3039 21.5618 0 0 0
329 2 H 6.1109 4.64104 27.328 0 0 0
330 2 H 4.46993 3.8983 27.401 0 0 0
331 2 H 4.66298 5.67947 27.5835 0 0 0
332 2 H 5.21903 4.01592 24.9879 0 0 0
333 2 H 3.81035 5.08583 25.2453 0 0 0
334 2 H 5.41777 7.0802 25.4771 0 0 0
335 2 H 6.79248 5.98752 25.1585 0 0 0
336 2 H 5.53463 5.30752 22.9331 0 0 0
337 2 H 4.49724 6.73289 23.1864 0 0 0
338 2 H 6.47998 6.92389 21.5421 0 0 0
339 2 H 7.60798 6.82957 22.9251 0 0 0
340 2 H 5.45893 9.04235 22.5081 0 0 0
341 2 H 6.36538 8.85047 24.909 0 0 0
342 2 H 8.02758 9.0809 24.2681 0 0 0
371 3 Mg 8.6663 10.1678 19.683 0 0 0
374 5 O 8.57217 9.72252 21.7821 0 0 0
375 5 O 6.87758 9.30805 20.3674 0 0 0
19 6 Si -2.45133 12.2998 5.84837 0 0 0
22 5 O -1.59813 11.5887 7.13367 0 0 0
23 5 O -3.60089 13.4094 6.46218 0 0 0
25 5 O -3.41005 11.0198 5.15665 0 0 0
29 6 Si -3.38971 10.7876 9.96123 0 0 0
30 6 Si -0.92316 12.0018 8.59021 0 0 0
33 5 O -1.84036 11.4025 9.86277 0 0 0
34 5 O -0.897893 13.6514 8.7566 0 0 0
35 5 O 0.586401 11.3048 8.67714 0 0 0
36 5 O 0.938456 11.4444 11.3935 0 0 0
37 6 Si -4.90833 19.2005 5.84786 0 0 0
38 6 Si -3.53169 15.0798 6.48776 0 0 0
39 6 Si -1.01763 16.3132 5 0 0 0
40 5 O -4.05457 18.4899 7.13316 0 0 0
41 5 O -6.05829 20.3093 6.46125 0 0 0
42 5 O -1.97072 15.5828 6.22614 0 0 0
43 5 O -5.86753 17.9203 5.15665 0 0 0
44 5 O -4.47294 15.662 5.21008 0 0 0
45 5 O -4.04527 15.5976 7.98349 0 0 0
46 6 Si -4.80722 14.8679 9.29252 0 0 0
47 6 Si -5.84679 17.6884 9.96068 0 0 0
48 6 Si -3.38015 18.9025 8.58982 0 0 0
49 5 O -3.65443 14.349 10.364 0 0 0
50 5 O -0.867282 16.0326 9.99043 0 0 0
51 5 O -4.29754 18.3025 9.86237 0 0 0
52 5 O -3.35408 20.5521 8.75656 0 0 0
53 5 O -1.8709 18.2053 8.67713 0 0 0
54 5 O -1.51777 18.3454 11.3935 0 0 0
73 6 Si 2.46397 12.3001 5.84797 0 0 0
76 5 O 3.31828 11.5895 7.13296 0 0 0
77 5 O 1.31394 13.4094 6.46173 0 0 0
79 5 O 1.50492 11.0198 5.15665 0 0 0
83 6 Si 1.52498 10.7875 9.96049 0 0 0
84 6 Si 3.99234 12.0015 8.59018 0 0 0
87 5 O 3.07454 11.401 9.86173 0 0 0
88 5 O 4.01872 13.651 8.75862 0 0 0
89 5 O 5.50193 11.3048 8.67728 0 0 0
90 5 O 5.85433 11.4445 11.3934 0 0 0
91 6 Si 0.00694918 19.201 5.84707 0 0 0
92 6 Si 1.38342 15.0795 6.48729 0 0 0
93 6 Si 3.89733 16.3132 5 0 0 0
94 5 O 0.861677 18.4905 7.1319 0 0 0
95 5 O -1.14296 20.3094 6.46134 0 0 0
96 5 O 2.94449 15.5833 6.22677 0 0 0
97 5 O -0.952567 17.9203 5.15665 0 0 0
98 5 O 0.442021 15.662 5.21008 0 0 0
99 5 O 0.87001 15.5973 7.98323 0 0 0
100 6 Si 0.107459 14.868 9.29174 0 0 0
101 6 Si -0.932015 17.6877 9.96069 0 0 0
102 6 Si 1.53526 18.902 8.58949 0 0 0
103 5 O 1.26076 14.3485 10.3627 0 0 0
104 5 O 4.04813 16.0326 9.98984 0 0 0
105 5 O 0.61733 18.3012 9.86141 0 0 0
106 5 O 1.561 20.5513 8.75865 0 0 0
107 5 O 3.04481 18.2049 8.67733 0 0 0
108 5 O 3.39513 18.3445 11.3938 0 0 0
127 6 Si 7.37866 12.3006 5.84735 0 0 0
131 5 O 6.22896 13.4093 6.46112 0 0 0
133 5 O 6.41988 11.0198 5.15665 0 0 0
137 6 Si 6.44089 10.7875 9.96079 0 0 0
141 5 O 7.98945 11.4025 9.86156 0 0 0
145 6 Si 4.92133 19.2002 5.84878 0 0 0
146 6 Si 6.29826 15.0794 6.48799 0 0 0
149 5 O 3.77141 20.3095 6.46133 0 0 0
151 5 O 3.9624 17.9203 5.15665 0 0 0
152 5 O 5.35699 15.662 5.21008 0 0 0
153 5 O 5.78455 15.5969 7.98355 0 0 0
154 6 Si 5.02347 14.8677 9.29329 0 0 0
155 6 Si 3.9831 17.6875 9.96117 0 0 0
157 5 O 6.17591 14.35 10.3651 0 0 0
159 5 O 5.53201 18.3032 9.8634 0 0 0
252 5 O -3.97757 11.444 11.394 1 0 0
270 5 O -6.4338 18.3453 11.3933 1 0 0
271 2 H -6.27489 20.4349 10.8827 0 -1 0
274 2 H 0.0114738 11.2129 11.599 0 0 0
275 2 H -3.81741 13.5343 10.8835 0 0 0
276 2 H -2.4443 18.1136 11.5997 0 0 0
277 2 H -1.36002 20.4349 10.8831 0 -1 0
280 2 H 4.92726 11.2135 11.5985 0 0 0
281 2 H 1.09721 13.535 10.8835 0 0 0
282 2 H 2.46833 18.1128 11.5982 0 0 0
283 2 H 3.55569 20.4351 10.8827 0 -1 0
287 2 H 6.01437 13.5335 10.8827 0 0 0
325 1 C 7.85158 10.4724 16.5666 0 0 0
367 2 H 7.28635 11.318 17.0055 0 0 0
368 2 H 7.25718 10.8317 14.4861 0 0 0
308 1 C 6.76974 10.8727 24.2 0 0 0
343 2 H 5.71041 11.1721 24.0035 0 0 0
344 2 H 7.42196 11.4115 23.4733 0 0 0
345 2 H 7.03171 11.2303 25.2251 0 0 0
111 6 Si 13.7273 2.51221 5 0 0 0
112 5 O 10.6894 4.68788 7.13438 0 0 0
114 5 O 12.7743 1.78154 6.22629 0 0 0
120 6 Si 11.3641 5.10176 8.59055 0 0 0
122 5 O 13.8776 2.23195 9.99051 0 0 0
124 5 O 11.3905 6.7513 8.7556 0 0 0
125 5 O 12.8743 4.40484 8.67788 0 0 0
126 5 O 13.2237 4.54352 11.3941 0 0 0
129 6 Si 11.2698 9.41269 5 0 0 0
132 5 O 10.317 8.68229 6.2264 0 0 0
140 5 O 11.4201 9.13291 9.98979 0 0 0
163 6 Si 14.7513 5.39871 5.84878 0 0 0
164 6 Si 16.1283 1.27851 6.48752 0 0 0
165 6 Si 18.6422 2.51221 5 0 0 0
166 5 O 15.6031 4.68765 7.13501 0 0 0
167 5 O 13.601 6.5086 6.46098 0 0 0
168 5 O 17.6894 1.78187 6.22632 0 0 0
169 5 O 13.7923 4.11933 5.15665 0 0 0
170 5 O 15.1869 1.86105 5.21008 0 0 0
171 5 O 15.6147 1.79635 7.98323 0 0 0
172 6 Si 14.8525 1.06698 9.29196 0 0 0
173 6 Si 13.8123 3.88715 9.96143 0 0 0
174 6 Si 16.2787 5.10172 8.59072 0 0 0
175 5 O 16.0051 0.546953 10.363 0 0 0
176 5 O 18.7929 2.2321 9.98969 0 0 0
177 5 O 15.3614 4.50234 9.86343 0 0 0
178 5 O 16.3038 6.75143 8.75585 0 0 0
179 5 O 17.7884 4.40497 8.67838 0 0 0
180 5 O 18.1381 4.54373 11.3945 0 0 0
182 6 Si 13.6707 8.17899 6.48732 0 0 0
183 6 Si 16.1847 9.41269 5 0 0 0
186 5 O 15.232 8.68168 6.22531 0 0 0
188 5 O 12.7294 8.76153 5.21008 0 0 0
189 5 O 13.1577 8.69727 7.98351 0 0 0
190 6 Si 12.395 7.96824 9.292 0 0 0
193 5 O 13.5469 7.44804 10.3641 0 0 0
194 5 O 16.3348 9.13247 9.99042 0 0 0
217 6 Si 19.6662 5.39926 5.84946 0 0 0
218 6 Si 21.0433 1.27862 6.48757 0 0 0
219 6 Si 23.5572 2.51221 5 0 0 0
220 5 O 20.5182 4.68744 7.13522 0 0 0
221 5 O 18.5169 6.50884 6.46116 0 0 0
222 5 O 22.6045 1.78242 6.22653 0 0 0
223 5 O 18.7073 4.11933 5.15665 0 0 0
224 5 O 20.1019 1.86105 5.21008 0 0 0
225 5 O 20.5296 1.79651 7.98319 0 0 0
226 6 Si 19.7675 1.06698 9.29243 0 0 0
227 6 Si 18.7266 3.88706 9.96154 0 0 0
228 6 Si 21.1938 5.10146 8.59111 0 0 0
229 5 O 20.9204 0.547795 10.3634 0 0 0
230 5 O 23.7073 2.2319 9.98954 0 0 0
231 5 O 20.276 4.50181 9.86319 0 0 0
232 5 O 21.22 6.75119 8.7573 0 0 0
233 5 O 22.7035 4.40464 8.67757 0 0 0
236 6 Si 18.5857 8.17881 6.48717 0 0 0
237 6 Si 21.0997 9.41269 5 0 0 0
240 5 O 20.1467 8.68252 6.22655 0 0 0
242 5 O 17.6444 8.76153 5.21008 0 0 0
243 5 O 18.0724 8.69715 7.98349 0 0 0
244 6 Si 17.3099 7.96747 9.29208 0 0 0
247 5 O 18.4629 7.44684 10.3624 0 0 0
248 5 O 21.2502 9.13225 9.99037 0 0 0
284 2 H 12.2964 4.31179 11.598 0 0 0
290 2 H 17.2106 4.31282 11.5976 0 0 0
291 2 H 13.3826 6.63406 10.8841 0 0 0
296 2 H 22.1257 4.31306 11.597 0 0 0
297 2 H 18.297 6.63391 10.8851 0 0 0
321 1 C 10.1029 7.88377 18.0451 0 0 0
322 1 C 10.9579 6.78057 17.7681 0 0 0
324 1 C 9.34579 8.65128 16.9925 0 0 0
328 1 C 9.39755 8.34778 15.6024 0 0 0
365 2 H 11.1228 6.43261 16.7328 0 0 0
370 2 H 10.0168 7.51346 15.2245 0 0 0
319 1 C 11.4076 6.56749 20.1683 0 0 0
320 1 C 10.5585 7.68012 20.3885 0 0 0
323 1 C 11.6104 6.11853 18.8385 0 0 0
363 2 H 11.8975 6.06807 21.0246 0 0 0
364 2 H 10.3555 8.09413 21.3971 0 0 0
366 2 H 12.2724 5.25439 18.6336 0 0 0
372 4 N 9.90591 8.33868 19.3564 0 0 0
130 5 O 8.23309 11.5899 7.13242 0 0 0
138 6 Si 8.90744 12.0025 8.58903 0 0 0
142 5 O 8.9328 13.6522 8.75521 0 0 0
143 5 O 10.4162 11.3045 8.67659 0 0 0
144 5 O 10.7665 11.4443 11.393 0 0 0
147 6 Si 8.8123 16.3132 5 0 0 0
148 5 O 5.77541 18.4897 7.13395 0 0 0
150 5 O 7.85932 15.583 6.22657 0 0 0
156 6 Si 6.44903 18.9028 8.59048 0 0 0
158 5 O 8.96263 16.0332 9.98989 0 0 0
160 5 O 6.47435 20.5524 8.75618 0 0 0
161 5 O 7.95902 18.206 8.67795 0 0 0
162 5 O 8.31045 18.3449 11.3943 0 0 0
181 6 Si 12.2938 12.3002 5.84841 0 0 0
184 5 O 13.1463 11.5899 7.13412 0 0 0
185 5 O 11.1436 13.4094 6.46197 0 0 0
187 5 O 11.3348 11.0198 5.15665 0 0 0
191 6 Si 11.3547 10.7881 9.96091 0 0 0
192 6 Si 13.822 12.0022 8.59018 0 0 0
195 5 O 12.9038 11.4033 9.86272 0 0 0
196 5 O 13.8482 13.6516 8.75608 0 0 0
197 5 O 15.3314 11.3051 8.6782 0 0 0
198 5 O 15.6835 11.4448 11.3934 0 0 0
199 6 Si 9.83637 19.2007 5.84833 0 0 0
200 6 Si 11.2136 15.0796 6.48748 0 0 0
201 6 Si 13.7273 16.3132 5 0 0 0
202 5 O 10.6895 18.4902 7.13352 0 0 0
203 5 O 8.68599 20.3099 6.46143 0 0 0
204 5 O 12.7745 15.583 6.22641 0 0 0
205 5 O 8.87737 17.9203 5.15665 0 0 0
206 5 O 10.272 15.662 5.21008 0 0 0
207 5 O 10.7003 15.5978 7.98372 0 0 0
208 6 Si 9.93785 14.8685 9.29191 0 0 0
209 6 Si 8.89786 17.6885 9.96108 0 0 0
210 6 Si 11.3645 18.903 8.58998 0 0 0
211 5 O 11.0901 14.3487 10.3631 0 0 0
212 5 O 13.878 16.0331 9.99044 0 0 0
213 5 O 10.4472 18.3025 9.86215 0 0 0
214 5 O 11.3902 20.5523 8.75723 0 0 0
215 5 O 12.8737 18.2054 8.67801 0 0 0
216 5 O 13.2253 18.3447 11.3938 0 0 0
235 6 Si 17.2095 12.3004 5.84793 0 0 0
238 5 O 18.0625 11.5898 7.13367 0 0 0
239 5 O 16.0589 13.4092 6.46124 0 0 0
241 5 O 16.2498 11.0198 5.15665 0 0 0
245 6 Si 16.2705 10.788 9.96085 0 0 0
246 6 Si 18.7373 12.002 8.58975 0 0 0
249 5 O 17.8196 11.4025 9.86237 0 0 0
250 5 O 18.7626 13.6513 8.75785 0 0 0
251 5 O 20.2468 11.3051 8.67771 0 0 0
253 6 Si 14.7516 19.2008 5.84829 0 0 0
254 6 Si 16.1281 15.0794 6.48753 0 0 0
255 6 Si 18.6422 16.3132 5 0 0 0
256 5 O 15.605 18.4901 7.13321 0 0 0
257 5 O 13.6019 20.3097 6.46192 0 0 0
258 5 O 17.6894 15.583 6.22632 0 0 0
259 5 O 13.7923 17.9203 5.15665 0 0 0
260 5 O 15.1869 15.662 5.21008 0 0 0
261 5 O 15.6151 15.5977 7.98368 0 0 0
262 6 Si 14.8528 14.8684 9.29201 0 0 0
263 6 Si 13.813 17.6881 9.96124 0 0 0
264 6 Si 16.2796 18.9027 8.5899 0 0 0
265 5 O 16.0051 14.349 10.364 0 0 0
266 5 O 18.7928 16.0329 9.99024 0 0 0
267 5 O 15.3621 18.3026 9.86264 0 0 0
268 5 O 16.3063 20.5519 8.75693 0 0 0
269 5 O 17.7892 18.2055 8.67726 0 0 0
286 2 H 9.839 11.2135 11.5963 0 0 0
288 2 H 7.38359 18.1126 11.5994 0 0 0
289 2 H 8.46807 20.4346 10.8842 0 -1 0
292 2 H 14.7563 11.2125 11.599 0 0 0
293 2 H 10.9263 13.5347 10.8841 0 0 0
294 2 H 12.2984 18.1132 11.5988 0 0 0
295 2 H 13.3846 20.4348 10.883 0 -1 0
298 2 H 19.6702 11.2122 11.5984 0 0 0
299 2 H 15.8415 13.5348 10.8833 0 0 0
300 2 H 17.2136 18.1138 11.5978 0 0 0
346 2 H 7.76267 19.0201 17.7427 0 0 0
347 2 H 9.53794 19.0881 17.4461 0 0 0
310 1 C 8.74164 19.3071 18.1993 0 0 0
311 1 C 8.99383 18.543 19.5223 0 0 0
312 1 C 8.97758 17.0004 19.3554 0 0 0
313 1 C 9.26186 16.2357 20.6765 0 0 0
314 1 C 9.04124 14.6996 20.6064 0 0 0
315 1 C 9.9604 13.9233 19.6079 0 0 0
316 1 C 11.4907 14.0213 19.8976 0 0 0
317 1 C 11.9363 13.5623 21.3108 0 0 0
318 1 C 9.47326 12.454 19.5168 0 0 0
348 2 H 8.72487 20.4118 18.362 0 0 0
349 2 H 9.9767 18.8614 19.9546 0 0 0
350 2 H 8.21951 18.8371 20.2752 0 0 0
351 2 H 7.98055 16.6861 18.9524 0 0 0
352 2 H 9.72556 16.7116 18.5741 0 0 0
353 2 H 10.3029 16.4664 21.0158 0 0 0
354 2 H 8.58956 16.6376 21.4768 0 0 0
355 2 H 7.98523 14.4804 20.3218 0 0 0
356 2 H 9.17619 14.2685 21.6289 0 0 0
357 2 H 9.77758 14.3437 18.5846 0 0 0
358 2 H 12.0183 13.3971 19.1368 0 0 0
359 2 H 11.8221 15.0761 19.7276 0 0 0
360 2 H 11.4872 14.1854 22.1219 0 0 0
361 2 H 13.0452 13.6441 21.4138 0 0 0
362 2 H 11.6506 12.499 21.4859 0 0 0
376 5 O 8.2116 12.2149 19.343 0 0 0
377 5 O 10.3143 11.4812 19.6274 0 0 0
ITEM: TIMESTEP
100000
ITEM: NUMBER OF ATOMS
377
ITEM: BOX BOUNDS xy xz yz pp pp ff
-7.3724492699999997e+00 2.4574830899999998e+01 -7.3724492699999997e+00
0.0000000000000000e+00 2.0701456793999998e+01 0.0000000000000000e+00
0.0000000000000000e+00 3.6159325252999999e+01 0.0000000000000000e+00
ITEM: ATOMS id type element x y z ix iy iz
1 6 Si 0.00622726 5.39871 5.84924 0 0 0
2 6 Si 1.38346 1.27811 6.48741 0 0 0
3 6 Si 3.89733 2.51221 5 0 0 0
4 5 O 0.858352 4.68694 7.13486 0 0 0
5 5 O -1.14378 6.50859 6.46205 0 0 0
6 5 O 2.94457 1.78139 6.226 0 0 0
7 5 O -0.952567 4.11933 5.15665 0 0 0
8 5 O 0.442021 1.86105 5.21008 0 0 0
9 5 O 0.870684 1.7965 7.98348 0 0 0
10 6 Si 0.108347 1.0673 9.29214 0 0 0
11 6 Si -0.932944 3.88682 9.96119 0 0 0
12 6 Si 1.53387 5.10158 8.5903 0 0 0
13 5 O 1.25995 0.548871 10.3652 0 0 0
14 5 O 4.0475 2.23179 9.99057 0 0 0
15 5 O 0.616427 4.50304 9.86346 0 0 0
16 5 O 1.55993 6.7512 8.75528 0 0 0
17 5 O 3.0434 4.40433 8.67773 0 0 0
18 5 O 3.39493 4.54421 11.3942 0 0 0
20 6 Si -1.07443 8.17899 6.48741 0 0 0
21 6 Si 1.43985 9.41269 5 0 0 0
24 5 O 0.48677 8.68222 6.22631 0 0 0
26 5 O -2.01546 8.76153 5.21008 0 0 0
27 5 O -1.58752 8.69681 7.98347 0 0 0
28 6 Si -2.34944 7.96739 9.29251 0 0 0
31 5 O -1.19709 7.44814 10.364 0 0 0
32 5 O 1.58973 9.13228 9.98983 0 0 0
55 6 Si 4.92164 5.3998 5.84881 0 0 0
56 6 Si 6.29867 1.27862 6.48761 0 0 0
57 6 Si 8.8123 2.51221 5 0 0 0
58 5 O 5.77436 4.68857 7.13341 0 0 0
59 5 O 3.77178 6.50872 6.46115 0 0 0
60 5 O 7.85968 1.78234 6.2264 0 0 0
61 5 O 3.9624 4.11933 5.15665 0 0 0
62 5 O 5.35699 1.86105 5.21008 0 0 0
63 5 O 5.78483 1.79682 7.98346 0 0 0
64 6 Si 5.02283 1.06715 9.29213 0 0 0
65 6 Si 3.98204 3.88696 9.96118 0 0 0
66 6 Si 6.44906 5.10138 8.58986 0 0 0
67 5 O 6.17476 0.548476 10.3642 0 0 0
68 5 O 8.9627 2.23168 9.98953 0 0 0
69 5 O 5.53151 4.50162 9.86252 0 0 0
70 5 O 6.4755 6.75064 8.75727 0 0 0
71 5 O 7.95899 4.40475 8.67802 0 0 0
72 5 O 8.30915 4.54312 11.3937 0 0 0
74 6 Si 3.84116 8.17897 6.4874 0 0 0
75 6 Si 6.35482 9.41269 5 0 0 0
78 5 O 5.40192 8.68265 6.2263 0 0 0
80 5 O 2.8995 8.76153 5.21008 0 0 0
81 5 O 3.32757 8.69718 7.98326 0 0 0
82 6 Si 2.56495 7.96765 9.29157 0 0 0
85 5 O 3.71742 7.44801 10.3633 0 0 0
86 5 O 6.5055 9.13243 9.98953 0 0 0
109 6 Si 9.8366 5.39916 5.84913 0 0 0
110 6 Si 11.2129 1.27822 6.48797 0 0 0
113 5 O 8.68707 6.50833 6.46242 0 0 0
115 5 O 8.87737 4.11933 5.15665 0 0 0
116 5 O 10.272 1.86105 5.21008 0 0 0
117 5 O 10.6991 1.7961 7.98356 0 0 0
118 6 Si 9.93775 1.06695 9.29289 0 0 0
119 6 Si 8.8973 3.88685 9.96147 0 0 0
121 5 O 11.0905 0.548691 10.3647 0 0 0
123 5 O 10.4464 4.50259 9.86373 0 0 0
128 6 Si 8.75579 8.17886 6.48773 0 0 0
134 5 O 7.81447 8.76153 5.21008 0 0 0
135 5 O 8.24249 8.69677 7.98368 0 0 0
136 6 Si 7.48025 7.96744 9.29255 0 0 0
139 5 O 8.63292 7.44897 10.3645 0 0 0
234 5 O -1.52147 4.54409 11.3937 1 0 0
272 2 H 2.46779 4.31228 11.5991 0 0 0
273 2 H -1.36069 6.63353 10.8837 0 0 0
278 2 H 7.38169 4.31262 11.5974 0 0 0
279 2 H 3.55329 6.63381 10.8841 0 0 0
285 2 H 8.47008 6.63393 10.8828 0 0 0
369 2 H 7.69522 8.98052 12.5917 0 0 0
327 1 C 8.50622 9.39934 13.2199 0 0 0
19 6 Si -2.45133 12.2998 5.84837 0 0 0
22 5 O -1.59813 11.5887 7.13367 0 0 0
23 5 O -3.60089 13.4094 6.46218 0 0 0
25 5 O -3.41005 11.0198 5.15665 0 0 0
29 6 Si -3.38971 10.7876 9.96123 0 0 0
30 6 Si -0.92316 12.0018 8.59021 0 0 0
33 5 O -1.84036 11.4025 9.86277 0 0 0
34 5 O -0.897893 13.6514 8.7566 0 0 0
35 5 O 0.586401 11.3048 8.67714 0 0 0
36 5 O 0.938456 11.4444 11.3935 0 0 0
37 6 Si -4.90833 19.2005 5.84786 0 0 0
38 6 Si -3.53169 15.0798 6.48776 0 0 0
39 6 Si -1.01763 16.3132 5 0 0 0
40 5 O -4.05457 18.4899 7.13316 0 0 0
41 5 O -6.05829 20.3093 6.46125 0 0 0
42 5 O -1.97072 15.5828 6.22614 0 0 0
43 5 O -5.86753 17.9203 5.15665 0 0 0
44 5 O -4.47294 15.662 5.21008 0 0 0
45 5 O -4.04527 15.5976 7.98349 0 0 0
46 6 Si -4.80722 14.8679 9.29252 0 0 0
47 6 Si -5.84679 17.6884 9.96068 0 0 0
48 6 Si -3.38015 18.9025 8.58982 0 0 0
49 5 O -3.65443 14.349 10.364 0 0 0
50 5 O -0.867282 16.0326 9.99043 0 0 0
51 5 O -4.29754 18.3025 9.86237 0 0 0
52 5 O -3.35408 20.5521 8.75656 0 0 0
53 5 O -1.8709 18.2053 8.67713 0 0 0
54 5 O -1.51777 18.3454 11.3935 0 0 0
73 6 Si 2.46397 12.3001 5.84797 0 0 0
76 5 O 3.31828 11.5895 7.13296 0 0 0
77 5 O 1.31394 13.4094 6.46173 0 0 0
79 5 O 1.50492 11.0198 5.15665 0 0 0
83 6 Si 1.52498 10.7875 9.96049 0 0 0
84 6 Si 3.99234 12.0015 8.59018 0 0 0
87 5 O 3.07454 11.401 9.86173 0 0 0
88 5 O 4.01872 13.651 8.75862 0 0 0
89 5 O 5.50193 11.3048 8.67728 0 0 0
90 5 O 5.85433 11.4445 11.3934 0 0 0
91 6 Si 0.00694918 19.201 5.84707 0 0 0
92 6 Si 1.38342 15.0795 6.48729 0 0 0
93 6 Si 3.89733 16.3132 5 0 0 0
94 5 O 0.861677 18.4905 7.1319 0 0 0
95 5 O -1.14296 20.3094 6.46134 0 0 0
96 5 O 2.94449 15.5833 6.22677 0 0 0
97 5 O -0.952567 17.9203 5.15665 0 0 0
98 5 O 0.442021 15.662 5.21008 0 0 0
99 5 O 0.87001 15.5973 7.98323 0 0 0
100 6 Si 0.107459 14.868 9.29174 0 0 0
101 6 Si -0.932015 17.6877 9.96069 0 0 0
102 6 Si 1.53526 18.902 8.58949 0 0 0
103 5 O 1.26076 14.3485 10.3627 0 0 0
104 5 O 4.04813 16.0326 9.98984 0 0 0
105 5 O 0.61733 18.3012 9.86141 0 0 0
106 5 O 1.561 20.5513 8.75865 0 0 0
107 5 O 3.04481 18.2049 8.67733 0 0 0
108 5 O 3.39513 18.3445 11.3938 0 0 0
127 6 Si 7.37866 12.3006 5.84735 0 0 0
131 5 O 6.22896 13.4093 6.46112 0 0 0
133 5 O 6.41988 11.0198 5.15665 0 0 0
137 6 Si 6.44089 10.7875 9.96079 0 0 0
141 5 O 7.98945 11.4025 9.86156 0 0 0
145 6 Si 4.92133 19.2002 5.84878 0 0 0
146 6 Si 6.29826 15.0794 6.48799 0 0 0
149 5 O 3.77141 20.3095 6.46133 0 0 0
151 5 O 3.9624 17.9203 5.15665 0 0 0
152 5 O 5.35699 15.662 5.21008 0 0 0
153 5 O 5.78455 15.5969 7.98355 0 0 0
154 6 Si 5.02347 14.8677 9.29329 0 0 0
155 6 Si 3.9831 17.6875 9.96117 0 0 0
157 5 O 6.17591 14.35 10.3651 0 0 0
159 5 O 5.53201 18.3032 9.8634 0 0 0
252 5 O -3.97757 11.444 11.394 1 0 0
270 5 O -6.4338 18.3453 11.3933 1 0 0
271 2 H -6.27489 20.4349 10.8827 0 -1 0
274 2 H 0.0114738 11.2129 11.599 0 0 0
275 2 H -3.81741 13.5343 10.8835 0 0 0
276 2 H -2.4443 18.1136 11.5997 0 0 0
277 2 H -1.36002 20.4349 10.8831 0 -1 0
280 2 H 4.92726 11.2135 11.5985 0 0 0
281 2 H 1.09721 13.535 10.8835 0 0 0
282 2 H 2.46833 18.1128 11.5982 0 0 0
283 2 H 3.55569 20.4351 10.8827 0 -1 0
287 2 H 6.01437 13.5335 10.8827 0 0 0
368 2 H 7.32011 11.1059 13.9566 0 0 0
326 1 C 8.29455 10.5805 13.974 0 0 0
111 6 Si 13.7273 2.51221 5 0 0 0
112 5 O 10.6894 4.68788 7.13438 0 0 0
114 5 O 12.7743 1.78154 6.22629 0 0 0
120 6 Si 11.3641 5.10176 8.59055 0 0 0
122 5 O 13.8776 2.23195 9.99051 0 0 0
124 5 O 11.3905 6.7513 8.7556 0 0 0
125 5 O 12.8743 4.40484 8.67788 0 0 0
126 5 O 13.2237 4.54352 11.3941 0 0 0
129 6 Si 11.2698 9.41269 5 0 0 0
132 5 O 10.317 8.68229 6.2264 0 0 0
140 5 O 11.4201 9.13291 9.98979 0 0 0
163 6 Si 14.7513 5.39871 5.84878 0 0 0
164 6 Si 16.1283 1.27851 6.48752 0 0 0
165 6 Si 18.6422 2.51221 5 0 0 0
166 5 O 15.6031 4.68765 7.13501 0 0 0
167 5 O 13.601 6.5086 6.46098 0 0 0
168 5 O 17.6894 1.78187 6.22632 0 0 0
169 5 O 13.7923 4.11933 5.15665 0 0 0
170 5 O 15.1869 1.86105 5.21008 0 0 0
171 5 O 15.6147 1.79635 7.98323 0 0 0
172 6 Si 14.8525 1.06698 9.29196 0 0 0
173 6 Si 13.8123 3.88715 9.96143 0 0 0
174 6 Si 16.2787 5.10172 8.59072 0 0 0
175 5 O 16.0051 0.546953 10.363 0 0 0
176 5 O 18.7929 2.2321 9.98969 0 0 0
177 5 O 15.3614 4.50234 9.86343 0 0 0
178 5 O 16.3038 6.75143 8.75585 0 0 0
179 5 O 17.7884 4.40497 8.67838 0 0 0
180 5 O 18.1381 4.54373 11.3945 0 0 0
182 6 Si 13.6707 8.17899 6.48732 0 0 0
183 6 Si 16.1847 9.41269 5 0 0 0
186 5 O 15.232 8.68168 6.22531 0 0 0
188 5 O 12.7294 8.76153 5.21008 0 0 0
189 5 O 13.1577 8.69727 7.98351 0 0 0
190 6 Si 12.395 7.96824 9.292 0 0 0
193 5 O 13.5469 7.44804 10.3641 0 0 0
194 5 O 16.3348 9.13247 9.99042 0 0 0
217 6 Si 19.6662 5.39926 5.84946 0 0 0
218 6 Si 21.0433 1.27862 6.48757 0 0 0
219 6 Si 23.5572 2.51221 5 0 0 0
220 5 O 20.5182 4.68744 7.13522 0 0 0
221 5 O 18.5169 6.50884 6.46116 0 0 0
222 5 O 22.6045 1.78242 6.22653 0 0 0
223 5 O 18.7073 4.11933 5.15665 0 0 0
224 5 O 20.1019 1.86105 5.21008 0 0 0
225 5 O 20.5296 1.79651 7.98319 0 0 0
226 6 Si 19.7675 1.06698 9.29243 0 0 0
227 6 Si 18.7266 3.88706 9.96154 0 0 0
228 6 Si 21.1938 5.10146 8.59111 0 0 0
229 5 O 20.9204 0.547795 10.3634 0 0 0
230 5 O 23.7073 2.2319 9.98954 0 0 0
231 5 O 20.276 4.50181 9.86319 0 0 0
232 5 O 21.22 6.75119 8.7573 0 0 0
233 5 O 22.7035 4.40464 8.67757 0 0 0
236 6 Si 18.5857 8.17881 6.48717 0 0 0
237 6 Si 21.0997 9.41269 5 0 0 0
240 5 O 20.1467 8.68252 6.22655 0 0 0
242 5 O 17.6444 8.76153 5.21008 0 0 0
243 5 O 18.0724 8.69715 7.98349 0 0 0
244 6 Si 17.3099 7.96747 9.29208 0 0 0
247 5 O 18.4629 7.44684 10.3624 0 0 0
248 5 O 21.2502 9.13225 9.99037 0 0 0
284 2 H 12.2964 4.31179 11.598 0 0 0
290 2 H 17.2106 4.31282 11.5976 0 0 0
291 2 H 13.3826 6.63406 10.8841 0 0 0
296 2 H 22.1257 4.31306 11.597 0 0 0
297 2 H 18.297 6.63391 10.8851 0 0 0
372 4 N 13.0422 9.37923 15.0645 0 0 0
319 1 C 14.7851 7.70637 14.6004 0 0 0
364 2 H 14.9533 9.47487 15.939 0 0 0
348 2 H 17.5771 0.43216 13.6761 0 1 0
323 1 C 13.9059 7.02154 13.7235 0 0 0
366 2 H 14.2386 6.10336 13.2008 0 0 0
322 1 C 12.5932 7.51669 13.5196 0 0 0
321 1 C 12.1748 8.69206 14.2038 0 0 0
320 1 C 14.3243 8.88077 15.2453 0 0 0
363 2 H 15.8126 7.34155 14.7848 0 0 0
365 2 H 11.9128 6.98471 12.831 0 0 0
324 1 C 10.8015 9.29919 14.0785 0 0 0
328 1 C 9.76749 8.75421 13.2655 0 0 0
370 2 H 9.93435 7.83708 12.6709 0 0 0
330 2 H 16.6202 6.69267 24.7579 0 0 0
337 2 H 12.9903 8.73861 21.8532 0 0 0
336 2 H 13.5731 7.24164 21.0842 0 0 0
332 2 H 15.1508 6.3479 22.7281 0 0 0
331 2 H 16.683 8.46654 24.4536 0 0 0
335 2 H 16.0145 8.23903 21.2895 0 0 0
333 2 H 14.387 7.51435 23.8468 0 0 0
302 1 C 15.2556 7.37925 23.1524 0 0 0
304 1 C 13.8156 8.32735 21.2185 0 0 0
303 1 C 15.1619 8.4115 21.9958 0 0 0
338 2 H 12.8636 8.54028 19.2811 0 0 0
301 1 C 16.5759 7.47062 23.9582 0 0 0
339 2 H 14.6467 8.63484 19.2075 0 0 0
305 1 C 13.7557 8.97125 19.7981 0 0 0
329 2 H 17.4684 7.32945 23.3002 0 0 0
334 2 H 15.3171 9.43694 22.4137 0 0 0
130 5 O 8.23309 11.5899 7.13242 0 0 0
138 6 Si 8.90744 12.0025 8.58903 0 0 0
142 5 O 8.9328 13.6522 8.75521 0 0 0
143 5 O 10.4162 11.3045 8.67659 0 0 0
144 5 O 10.7665 11.4443 11.393 0 0 0
147 6 Si 8.8123 16.3132 5 0 0 0
148 5 O 5.77541 18.4897 7.13395 0 0 0
150 5 O 7.85932 15.583 6.22657 0 0 0
156 6 Si 6.44903 18.9028 8.59048 0 0 0
158 5 O 8.96263 16.0332 9.98989 0 0 0
160 5 O 6.47435 20.5524 8.75618 0 0 0
161 5 O 7.95902 18.206 8.67795 0 0 0
162 5 O 8.31045 18.3449 11.3943 0 0 0
181 6 Si 12.2938 12.3002 5.84841 0 0 0
184 5 O 13.1463 11.5899 7.13412 0 0 0
185 5 O 11.1436 13.4094 6.46197 0 0 0
187 5 O 11.3348 11.0198 5.15665 0 0 0
191 6 Si 11.3547 10.7881 9.96091 0 0 0
192 6 Si 13.822 12.0022 8.59018 0 0 0
195 5 O 12.9038 11.4033 9.86272 0 0 0
196 5 O 13.8482 13.6516 8.75608 0 0 0
197 5 O 15.3314 11.3051 8.6782 0 0 0
198 5 O 15.6835 11.4448 11.3934 0 0 0
199 6 Si 9.83637 19.2007 5.84833 0 0 0
200 6 Si 11.2136 15.0796 6.48748 0 0 0
201 6 Si 13.7273 16.3132 5 0 0 0
202 5 O 10.6895 18.4902 7.13352 0 0 0
203 5 O 8.68599 20.3099 6.46143 0 0 0
204 5 O 12.7745 15.583 6.22641 0 0 0
205 5 O 8.87737 17.9203 5.15665 0 0 0
206 5 O 10.272 15.662 5.21008 0 0 0
207 5 O 10.7003 15.5978 7.98372 0 0 0
208 6 Si 9.93785 14.8685 9.29191 0 0 0
209 6 Si 8.89786 17.6885 9.96108 0 0 0
210 6 Si 11.3645 18.903 8.58998 0 0 0
211 5 O 11.0901 14.3487 10.3631 0 0 0
212 5 O 13.878 16.0331 9.99044 0 0 0
213 5 O 10.4472 18.3025 9.86215 0 0 0
214 5 O 11.3902 20.5523 8.75723 0 0 0
215 5 O 12.8737 18.2054 8.67801 0 0 0
216 5 O 13.2253 18.3447 11.3938 0 0 0
235 6 Si 17.2095 12.3004 5.84793 0 0 0
238 5 O 18.0625 11.5898 7.13367 0 0 0
239 5 O 16.0589 13.4092 6.46124 0 0 0
241 5 O 16.2498 11.0198 5.15665 0 0 0
245 6 Si 16.2705 10.788 9.96085 0 0 0
246 6 Si 18.7373 12.002 8.58975 0 0 0
249 5 O 17.8196 11.4025 9.86237 0 0 0
250 5 O 18.7626 13.6513 8.75785 0 0 0
251 5 O 20.2468 11.3051 8.67771 0 0 0
253 6 Si 14.7516 19.2008 5.84829 0 0 0
254 6 Si 16.1281 15.0794 6.48753 0 0 0
255 6 Si 18.6422 16.3132 5 0 0 0
256 5 O 15.605 18.4901 7.13321 0 0 0
257 5 O 13.6019 20.3097 6.46192 0 0 0
258 5 O 17.6894 15.583 6.22632 0 0 0
259 5 O 13.7923 17.9203 5.15665 0 0 0
260 5 O 15.1869 15.662 5.21008 0 0 0
261 5 O 15.6151 15.5977 7.98368 0 0 0
262 6 Si 14.8528 14.8684 9.29201 0 0 0
263 6 Si 13.813 17.6881 9.96124 0 0 0
264 6 Si 16.2796 18.9027 8.5899 0 0 0
265 5 O 16.0051 14.349 10.364 0 0 0
266 5 O 18.7928 16.0329 9.99024 0 0 0
267 5 O 15.3621 18.3026 9.86264 0 0 0
268 5 O 16.3063 20.5519 8.75693 0 0 0
269 5 O 17.7892 18.2055 8.67726 0 0 0
286 2 H 9.839 11.2135 11.5963 0 0 0
288 2 H 7.38359 18.1126 11.5994 0 0 0
289 2 H 8.46807 20.4346 10.8842 0 -1 0
292 2 H 14.7563 11.2125 11.599 0 0 0
293 2 H 10.9263 13.5347 10.8841 0 0 0
294 2 H 12.2984 18.1132 11.5988 0 0 0
295 2 H 13.3846 20.4348 10.883 0 -1 0
298 2 H 19.6702 11.2122 11.5984 0 0 0
299 2 H 15.8415 13.5348 10.8833 0 0 0
300 2 H 17.2136 18.1138 11.5978 0 0 0
318 1 C 12.4516 13.475 14.9082 0 0 0
347 2 H 10.1173 19.6313 12.6824 0 0 0
357 2 H 11.6882 15.1545 13.8455 0 0 0
358 2 H 13.5794 14.2105 12.5211 0 0 0
352 2 H 11.3858 17.4834 13.5384 0 0 0
367 2 H 9.27533 12.0248 15.3413 0 0 0
359 2 H 13.7419 15.9747 12.7813 0 0 0
316 1 C 13.7938 14.9837 13.2976 0 0 0
315 1 C 12.6539 14.9117 14.361 0 0 0
361 2 H 15.9705 14.8025 13.0032 0 0 0
377 5 O 13.1536 12.4965 14.4437 0 0 0
376 5 O 11.5809 13.2714 15.846 0 0 0
362 2 H 15.3146 13.7578 14.3223 0 0 0
317 1 C 15.2303 14.7585 13.8381 0 0 0
310 1 C 10.2087 20.018 13.7271 0 0 0
325 1 C 9.36268 11.0885 14.7557 0 0 0
312 1 C 11.5208 17.9413 14.551 0 0 0
346 2 H 9.28999 19.7038 14.2806 0 0 0
360 2 H 15.5317 15.5357 14.5818 0 0 0
355 2 H 11.9668 15.6819 16.2731 0 0 0
371 3 Mg 12.3507 11.296 15.9792 0 0 0
311 1 C 11.4913 19.4865 14.4129 0 0 0
314 1 C 12.8034 15.8955 15.567 0 0 0
353 2 H 13.6909 17.6425 14.5466 0 0 0
351 2 H 10.6366 17.6106 15.1544 0 0 0
349 2 H 12.3897 19.8271 13.8375 0 0 0
356 2 H 13.7409 15.6444 16.1218 0 0 0
350 2 H 11.5874 19.946 15.4291 0 0 0
313 1 C 12.8212 17.4073 15.2102 0 0 0
354 2 H 13.0044 17.9761 16.1574 0 0 0
374 5 O 14.0028 11.2313 17.3503 0 0 0
375 5 O 11.9098 10.6587 17.9303 0 0 0
373 4 N 10.6026 10.4689 14.8294 0 0 0
307 1 C 14.8985 11.3371 20.0531 0 0 0
343 2 H 13.8743 13.1872 20.7242 0 0 0
345 2 H 15.6292 13.3939 20.3798 0 0 0
344 2 H 14.4594 13.2453 19.0148 0 0 0
308 1 C 14.7008 12.8752 20.0388 0 0 0
342 2 H 15.7112 11.0636 19.3357 0 0 0
309 1 C 13.1498 10.8402 18.241 0 0 0
341 2 H 15.2422 11.0312 21.0694 0 0 0
306 1 C 13.6191 10.5318 19.6871 0 0 0
340 2 H 12.777 10.843 20.3551 0 0 0
ITEM: TIMESTEP
200000
ITEM: NUMBER OF ATOMS
377
ITEM: BOX BOUNDS xy xz yz pp pp ff
-7.3724492699999997e+00 2.4574830899999998e+01 -7.3724492699999997e+00
0.0000000000000000e+00 2.0701456793999998e+01 0.0000000000000000e+00
0.0000000000000000e+00 3.6159325252999999e+01 0.0000000000000000e+00
ITEM: ATOMS id type element x y z ix iy iz
1 6 Si 0.00622726 5.39871 5.84924 0 0 0
2 6 Si 1.38346 1.27811 6.48741 0 0 0
3 6 Si 3.89733 2.51221 5 0 0 0
4 5 O 0.858352 4.68694 7.13486 0 0 0
5 5 O -1.14378 6.50859 6.46205 0 0 0
6 5 O 2.94457 1.78139 6.226 0 0 0
7 5 O -0.952567 4.11933 5.15665 0 0 0
8 5 O 0.442021 1.86105 5.21008 0 0 0
9 5 O 0.870684 1.7965 7.98348 0 0 0
10 6 Si 0.108347 1.0673 9.29214 0 0 0
11 6 Si -0.932944 3.88682 9.96119 0 0 0
12 6 Si 1.53387 5.10158 8.5903 0 0 0
13 5 O 1.25995 0.548871 10.3652 0 0 0
14 5 O 4.0475 2.23179 9.99057 0 0 0
15 5 O 0.616427 4.50304 9.86346 0 0 0
16 5 O 1.55993 6.7512 8.75528 0 0 0
17 5 O 3.0434 4.40433 8.67773 0 0 0