
     Program PWSCF v.7.3 starts on 10Mar2024 at  6: 0:56 

     This program is part of the open-source Quantum ESPRESSO suite
     for quantum simulation of materials; please cite
         "P. Giannozzi et al., J. Phys.:Condens. Matter 21 395502 (2009);
         "P. Giannozzi et al., J. Phys.:Condens. Matter 29 465901 (2017);
         "P. Giannozzi et al., J. Chem. Phys. 152 154105 (2020);
          URL http://www.quantum-espresso.org", 
     in publications or presentations arising from this work. More details at
     http://www.quantum-espresso.org/quote

     Parallel version (MPI & OpenMP), running on      36 processor cores
     Number of MPI processes:                36
     Threads/MPI process:                     1

     MPI processes distributed on     1 nodes
     557517 MiB available memory on the printing compute node when the environment starts
 
     Waiting for input...
     Reading input from standard input
Warning: card &CELL ignored
Warning: card / ignored

     Current dimensions of program PWSCF are:
     Max number of different atomic species (ntypx) = 10
     Max number of k-points (npk) =  40000
     Max angular momentum in pseudopotentials (lmaxx) =  4
     file Mo.pbe-spn-kjpaw_psl.1.0.0.UPF: wavefunction(s)  4S 4D renormalized
     file S.pbe-n-kjpaw_psl.1.0.0.UPF: wavefunction(s)  3S 3P renormalized
     file Pd.pbe-spn-kjpaw_psl.1.0.0.UPF: wavefunction(s)  4S 5S 4D renormalized
     file Pt.pbe-spfn-kjpaw_psl.1.0.0.UPF: wavefunction(s)  5P 4F renormalized
 
     R & G space division:  proc/nbgrp/npool/nimage =      36
     Subspace diagonalization in iterative solution of the eigenvalue problem:
     one sub-group per band group will be used
     scalapack distributed-memory algorithm (size of sub-group:  6*  6 procs)

 
     Parallelization info
     --------------------
     sticks:   dense  smooth     PW     G-vecs:    dense   smooth      PW
     Min         586     335     89               165416    71459    9765
     Max         587     337     90               165425    71461    9778
     Sum       21109   12085   3205              5955087  2572543  351657
 
     Using Slab Decomposition
 


     bravais-lattice index     =            0
     lattice parameter (alat)  =      23.8395  a.u.
     unit-cell volume          =   28182.8498 (a.u.)^3
     number of atoms/cell      =          146
     number of atomic types    =            4
     number of electrons       =      1298.00
     number of Kohn-Sham states=          779
     kinetic-energy cutoff     =      77.0000  Ry
     charge density cutoff     =     539.0000  Ry
     scf convergence threshold =      1.0E-06
     mixing beta               =       0.2000
     number of iterations used =            8  plain     mixing
     energy convergence thresh.=      1.0E-04
     force convergence thresh. =      1.0E-03
     Exchange-correlation= SLA  PW   PBX  PBC
                           (   1   4   3   4   0   0   0)
     nstep                     =         1000


     Effective Screening Medium Method
     =================================
     Boundary Conditions: Vacuum-Slab-Vacuum
     total charge in unit cell        =   0.0000
     grid points for fit at edges     =        4 
 

     celldm(1)=  23.839504  celldm(2)=   0.000000  celldm(3)=   0.000000
     celldm(4)=   0.000000  celldm(5)=   0.000000  celldm(6)=   0.000000

     crystal axes: (cart. coord. in units of alat)
               a(1) = (   1.000000   0.000000   0.000000 )  
               a(2) = (  -0.500001   0.866026   0.000000 )  
               a(3) = (   0.000000   0.000000   2.401941 )  

     reciprocal axes: (cart. coord. in units 2 pi/alat)
               b(1) = (  1.000000  0.577351  0.000000 )  
               b(2) = (  0.000000  1.154700  0.000000 )  
               b(3) = (  0.000000  0.000000  0.416330 )  


     PseudoPot. # 1 for Mo read from file:
     ./pseudo/Mo.pbe-spn-kjpaw_psl.1.0.0.UPF
     MD5 check sum: 317bf72632116215fd98f72de1686f13
     Pseudo is Projector augmented-wave + core cor, Zval = 14.0
     Generated using 'atomic' code by A. Dal Corso  v.7.2
     Shape of augmentation charge: PSQ
     Using radial grid of 1229 points,  6 beta functions with: 
                l(1) =   0
                l(2) =   0
                l(3) =   1
                l(4) =   1
                l(5) =   2
                l(6) =   2
     Q(r) pseudized with 0 coefficients 


     PseudoPot. # 2 for S  read from file:
     ./pseudo/S.pbe-n-kjpaw_psl.1.0.0.UPF
     MD5 check sum: 8b7b5302570d38d5e87fed6a1065abda
     Pseudo is Projector augmented-wave + core cor, Zval =  6.0
     Generated using 'atomic' code by A. Dal Corso  v.7.2
     Shape of augmentation charge: PSQ
     Using radial grid of 1151 points,  6 beta functions with: 
                l(1) =   0
                l(2) =   0
                l(3) =   1
                l(4) =   1
                l(5) =   2
                l(6) =   2
     Q(r) pseudized with 0 coefficients 


     PseudoPot. # 3 for Pd read from file:
     ./pseudo/Pd.pbe-spn-kjpaw_psl.1.0.0.UPF
     MD5 check sum: a60571a671f2502b8a6a4569d20a6edb
     Pseudo is Projector augmented-wave + core cor, Zval = 18.0
     Generated using 'atomic' code by A. Dal Corso  v.7.2
     Shape of augmentation charge: PSQ
     Using radial grid of 1235 points,  6 beta functions with: 
                l(1) =   0
                l(2) =   0
                l(3) =   1
                l(4) =   1
                l(5) =   2
                l(6) =   2
     Q(r) pseudized with 0 coefficients 


     PseudoPot. # 4 for Pt read from file:
     ./pseudo/Pt.pbe-spfn-kjpaw_psl.1.0.0.UPF
     MD5 check sum: 620096ebf4e6ebacc94de60fd67efcb5
     Pseudo is Projector augmented-wave + core cor, Zval = 32.0
     Generated using 'atomic' code by A. Dal Corso  v.7.2
     Shape of augmentation charge: PSQ
     Using radial grid of 1277 points,  8 beta functions with: 
                l(1) =   0
                l(2) =   0
                l(3) =   1
                l(4) =   1
                l(5) =   2
                l(6) =   2
                l(7) =   3
                l(8) =   3
     Q(r) pseudized with 0 coefficients 


     atomic species   valence    mass     pseudopotential
     Mo               14.00    95.95000     Mo( 1.00)
     S                 6.00    32.06000     S ( 1.00)
     Pd               18.00   106.42000     Pd( 1.00)
     Pt               32.00   195.08400     Pt( 1.00)

     No symmetry found



   Cartesian axes

     site n.     atom                  positions (alat units)
         1        Mo     tau(   1) = (   0.1244805   0.2154429   0.4826124  )
         2        Mo     tau(   2) = (   0.1250004   0.0721694  -0.4825273  )
         3        Mo     tau(   3) = (   0.0000154   0.1443583  -0.0000534  )
         4        S      tau(   4) = (   0.0000004   0.0000006  -0.6064556  )
         5        S      tau(   5) = (   0.1249822   0.0722030  -0.1241916  )
         6        S      tau(   6) = (   0.0001873   0.1444894   0.3573292  )
         7        S      tau(   7) = (   0.0000004   0.0000005  -0.3584711  )
         8        S      tau(   8) = (   0.1250220   0.0721432   0.1241096  )
         9        S      tau(   9) = (  -0.0009222   0.1433430   0.6062350  )
        10        Mo     tau(  10) = (  -0.0011812   0.4330952   0.4826123  )
        11        Mo     tau(  11) = (   0.0000001   0.2886759  -0.4825273  )
        12        Mo     tau(  12) = (  -0.1249761   0.3608493  -0.0000533  )
        13        S      tau(  13) = (  -0.1249999   0.2165071  -0.6064556  )
        14        S      tau(  14) = (   0.0000232   0.2886904  -0.1241345  )
        15        S      tau(  15) = (  -0.1247753   0.3609305   0.3573291  )
        16        S      tau(  16) = (  -0.1249998   0.2165070  -0.3584711  )
        17        S      tau(  17) = (   0.0000901   0.2887289   0.1242236  )
        18        S      tau(  18) = (  -0.1263226   0.3605428   0.6062351  )
        19        Mo     tau(  19) = (  -0.1251400   0.6495983   0.4819363  )
        20        Mo     tau(  20) = (  -0.1250002   0.5051824  -0.4825273  )
        21        Mo     tau(  21) = (  -0.2500026   0.5773383  -0.0001491  )
        22        S      tau(  22) = (  -0.2500002   0.4330136  -0.6064556  )
        23        S      tau(  23) = (  -0.1249812   0.5051509  -0.1241919  )
        24        S      tau(  24) = (  -0.2500015   0.5775831   0.3575295  )
        25        S      tau(  25) = (  -0.2500001   0.4330135  -0.3584711  )
        26        S      tau(  26) = (  -0.1250129   0.5052153   0.1241101  )
        27        S      tau(  27) = (  -0.2500018   0.5771934   0.6060379  )
        28        Mo     tau(  28) = (   0.2499987  -0.0001601   0.4819365  )
        29        Mo     tau(  29) = (  -0.2500004   0.7216889  -0.4825273  )
        30        Mo     tau(  30) = (  -0.3750135   0.7938631  -0.0001491  )
        31        S      tau(  31) = (  -0.3750004   0.6495201  -0.6064556  )
        32        S      tau(  32) = (  -0.2500026   0.7216883  -0.1242347  )
        33        S      tau(  33) = (  -0.3747997   0.7937400   0.3575295  )
        34        S      tau(  34) = (  -0.3750004   0.6495200  -0.3584711  )
        35        S      tau(  35) = (  -0.2500029   0.7216883   0.1240299  )
        36        S      tau(  36) = (  -0.3751376   0.7939346   0.6060379  )
        37        Mo     tau(  37) = (   0.3755166   0.2154425   0.4826119  )
        38        Mo     tau(  38) = (   0.3750004   0.0721694  -0.4825273  )
        39        Mo     tau(  39) = (   0.2499990   0.1443474  -0.0000968  )
        40        S      tau(  40) = (   0.2500004   0.0000006  -0.6064556  )
        41        S      tau(  41) = (   0.3750152   0.0722028  -0.1241921  )
        42        S      tau(  42) = (   0.2499983   0.1443201   0.3580593  )
        43        S      tau(  43) = (   0.2500004   0.0000005  -0.3584711  )
        44        S      tau(  44) = (   0.3749754   0.0721432   0.1241106  )
        45        S      tau(  45) = (   0.2499987   0.1437775   0.6065499  )
        46        Mo     tau(  46) = (   0.2499984   0.4330123   0.4872880  )
        47        Mo     tau(  47) = (   0.2500001   0.2886759  -0.4825273  )
        48        Mo     tau(  48) = (   0.1250277   0.3608616  -0.0000572  )
        49        S      tau(  49) = (   0.1250001   0.2165071  -0.6064556  )
        50        S      tau(  50) = (   0.2499987   0.2886898  -0.1241693  )
        51        S      tau(  51) = (   0.1266397   0.3617911   0.3615924  )
        52        S      tau(  52) = (   0.1250002   0.2165070  -0.3584711  )
        53        S      tau(  53) = (   0.2499988   0.2886671   0.1241958  )
        54        S      tau(  54) = (   0.1173054   0.3564020   0.6108885  )
        55        Mo     tau(  55) = (   0.1243363   0.6504991   0.4826116  )
        56        Mo     tau(  56) = (   0.1249998   0.5051824  -0.4825273  )
        57        Mo     tau(  57) = (   0.0000060   0.5773464  -0.0000969  )
        58        S      tau(  58) = (  -0.0000002   0.4330136  -0.6064556  )
        59        S      tau(  59) = (   0.1250101   0.5051751  -0.1241696  )
        60        S      tau(  60) = (  -0.0000165   0.5773581   0.3580590  )
        61        S      tau(  61) = (  -0.0000001   0.4330135  -0.3584711  )
        62        S      tau(  62) = (   0.1249907   0.5051868   0.1241956  )
        63        S      tau(  63) = (  -0.0004863   0.5776299   0.6065497  )
        64        Mo     tau(  64) = (   0.5000682   0.0000393   0.4813064  )
        65        Mo     tau(  65) = (  -0.0000004   0.7216889  -0.4825273  )
        66        Mo     tau(  66) = (  -0.1249919   0.7938635  -0.0001489  )
        67        S      tau(  67) = (  -0.1250004   0.6495201  -0.6064556  )
        68        S      tau(  68) = (   0.0000350   0.7216859  -0.1241920  )
        69        S      tau(  69) = (  -0.1252051   0.7937392   0.3575294  )
        70        S      tau(  70) = (  -0.1250004   0.6495200  -0.3584711  )
        71        S      tau(  71) = (  -0.0000364   0.7216812   0.1241103  )
        72        S      tau(  72) = (  -0.1248667   0.7939344   0.6060378  )
        73        Mo     tau(  73) = (   0.6250985   0.2164481   0.4814760  )
        74        Mo     tau(  74) = (   0.6250004   0.0721694  -0.4825273  )
        75        Mo     tau(  75) = (   0.4999807   0.1443583  -0.0000532  )
        76        S      tau(  76) = (   0.5000004   0.0000006  -0.6064556  )
        77        S      tau(  77) = (   0.6249710   0.0721537  -0.1241599  )
        78        S      tau(  78) = (   0.4998101   0.1444887   0.3573287  )
        79        S      tau(  79) = (   0.5000004   0.0000005  -0.3584711  )
        80        S      tau(  80) = (   0.6250072   0.0721744   0.1241160  )
        81        S      tau(  81) = (   0.5009199   0.1433424   0.6062338  )
        82        Mo     tau(  82) = (   0.5011786   0.4330950   0.4826115  )
        83        Mo     tau(  83) = (   0.5000001   0.2886759  -0.4825273  )
        84        Mo     tau(  84) = (   0.3749686   0.3608615  -0.0000573  )
        85        S      tau(  85) = (   0.3750001   0.2165071  -0.6064556  )
        86        S      tau(  86) = (   0.4999725   0.2886900  -0.1241349  )
        87        S      tau(  87) = (   0.3733572   0.3617909   0.3615920  )
        88        S      tau(  88) = (   0.3750002   0.2165070  -0.3584711  )
        89        S      tau(  89) = (   0.4999057   0.2887288   0.1242238  )
        90        S      tau(  90) = (   0.3826919   0.3564018   0.6108876  )
        91        Mo     tau(  91) = (   0.3756598   0.6504996   0.4826113  )
        92        Mo     tau(  92) = (   0.3749998   0.5051824  -0.4825273  )
        93        Mo     tau(  93) = (   0.2499978   0.5773166  -0.0000576  )
        94        S      tau(  94) = (   0.2499998   0.4330136  -0.6064556  )
        95        S      tau(  95) = (   0.3749857   0.5051746  -0.1241697  )
        96        S      tau(  96) = (   0.2499981   0.5754545   0.3615919  )
        97        S      tau(  97) = (   0.2499999   0.4330135  -0.3584711  )
        98        S      tau(  98) = (   0.3750048   0.5051860   0.1241960  )
        99        S      tau(  99) = (   0.2499983   0.5862331   0.6108872  )
       100        Mo     tau( 100) = (   0.7499988   0.0001148   0.4814756  )
       101        Mo     tau( 101) = (   0.2499996   0.7216889  -0.4825273  )
       102        Mo     tau( 102) = (   0.1250062   0.7938321  -0.0000534  )
       103        S      tau( 103) = (   0.1249996   0.6495201  -0.6064556  )
       104        S      tau( 104) = (   0.2499971   0.7216593  -0.1241350  )
       105        S      tau( 105) = (   0.1250350   0.7936175   0.3573284  )
       106        S      tau( 106) = (   0.1249996   0.6495200  -0.3584711  )
       107        S      tau( 107) = (   0.2499972   0.7215818   0.1242234  )
       108        S      tau( 108) = (   0.1245975   0.7951515   0.6062336  )
       109        Mo     tau( 109) = (  -0.1251006   0.2164484   0.4814769  )
       110        Mo     tau( 110) = (   0.8750004   0.0721694  -0.4825273  )
       111        Mo     tau( 111) = (   0.7499976   0.1443379  -0.0001196  )
       112        S      tau( 112) = (   0.7500004   0.0000006  -0.6064556  )
       113        S      tau( 113) = (   0.8750246   0.0721533  -0.1241599  )
       114        S      tau( 114) = (   0.7499994   0.1443376   0.3572937  )
       115        S      tau( 115) = (   0.7500004   0.0000005  -0.3584711  )
       116        S      tau( 116) = (   0.8749884   0.0721739   0.1241157  )
       117        S      tau( 117) = (   0.7499987   0.1443370   0.6058240  )
       118        Mo     tau( 118) = (  -0.2500010   0.4329316   0.4813070  )
       119        Mo     tau( 119) = (   0.7500001   0.2886759  -0.4825273  )
       120        Mo     tau( 120) = (   0.6249710   0.3608493  -0.0000534  )
       121        S      tau( 121) = (   0.6250001   0.2165071  -0.6064556  )
       122        S      tau( 122) = (   0.7499973   0.2887067  -0.1241600  )
       123        S      tau( 123) = (   0.6247737   0.3609305   0.3573287  )
       124        S      tau( 124) = (   0.6250002   0.2165070  -0.3584711  )
       125        S      tau( 125) = (   0.7499971   0.2886649   0.1241160  )
       126        S      tau( 126) = (   0.6263203   0.3605423   0.6062340  )
       127        Mo     tau( 127) = (  -0.3748636   0.6495986   0.4819361  )
       128        Mo     tau( 128) = (   0.6249998   0.5051824  -0.4825273  )
       129        Mo     tau( 129) = (   0.4999891   0.5773453  -0.0000967  )
       130        S      tau( 130) = (   0.4999998   0.4330136  -0.6064556  )
       131        S      tau( 131) = (   0.6249761   0.5051506  -0.1241920  )
       132        S      tau( 132) = (   0.5000130   0.5773585   0.3580587  )
       133        S      tau( 133) = (   0.4999999   0.4330135  -0.3584711  )
       134        S      tau( 134) = (   0.6250081   0.5052147   0.1241104  )
       135        S      tau( 135) = (   0.5004826   0.5776298   0.6065487  )
       136        Mo     tau( 136) = (  -0.0000706   0.0000401   0.4813070  )
       137        Mo     tau( 137) = (   0.4999996   0.7216889  -0.4825273  )
       138        Mo     tau( 138) = (   0.3749881   0.7938314  -0.0000535  )
       139        S      tau( 139) = (   0.3749996   0.6495201  -0.6064556  )
       140        S      tau( 140) = (   0.4999594   0.7216844  -0.1241918  )
       141        S      tau( 141) = (   0.3749610   0.7936184   0.3573285  )
       142        S      tau( 142) = (   0.3749996   0.6495200  -0.3584711  )
       143        S      tau( 143) = (   0.5000310   0.7216802   0.1241101  )
       144        S      tau( 144) = (   0.3753979   0.7951517   0.6062337  )
       145        Pd     tau( 145) = (   0.2499985   0.4330123   0.7148096  )
       146        Pt     tau( 146) = (   0.2500134   0.4330448   0.9050898  )

     --------------------------------------------
     DFT-D3 Dispersion Correction (3-body terms):
     --------------------------------------------
       Reference C6 values for interpolation: 

         atom   Coordination number   C6
         S          0.000           268.01
         S          0.995           261.99
         S          1.990           251.62
         Mo         0.000          1691.79
         Mo         1.942          1004.01
         Mo        11.056           674.22
         Pd         0.000          1217.01
         Pd         1.863           573.90
         Pd         5.710           531.75
         Pt         0.000           782.29
         Pt         1.919           692.72
         Pt         6.667           673.75

       Values used:

         atom   Coordination number  R0_AB[au]  C6      C8
         Mo        10.173            3.547    674.22  77634.20
         Mo        10.189            3.547    674.22  77634.20
         Mo        10.201            3.547    674.22  77634.20
         S          3.753            3.128    251.62  12327.25
         S          3.858            3.128    251.62  12327.25
         S          3.848            3.128    251.62  12327.25
         S          3.859            3.128    251.62  12327.25
         S          3.860            3.128    251.62  12327.25
         S          3.798            3.128    251.62  12327.25
         Mo        10.173            3.547    674.22  77634.20
         Mo        10.189            3.547    674.22  77634.20
         Mo        10.201            3.547    674.22  77634.20
         S          3.753            3.128    251.62  12327.25
         S          3.859            3.128    251.62  12327.25
         S          3.848            3.128    251.62  12327.25
         S          3.858            3.128    251.62  12327.25
         S          3.855            3.128    251.62  12327.25
         S          3.798            3.128    251.62  12327.25
         Mo        10.208            3.547    674.22  77634.20
         Mo        10.189            3.547    674.22  77634.20
         Mo        10.200            3.547    674.22  77634.20
         S          3.753            3.128    251.62  12327.25
         S          3.858            3.128    251.62  12327.25
         S          3.862            3.128    251.62  12327.25
         S          3.859            3.128    251.62  12327.25
         S          3.860            3.128    251.62  12327.25
         S          3.759            3.128    251.62  12327.25
         Mo        10.208            3.547    674.22  77634.20
         Mo        10.189            3.547    674.22  77634.20
         Mo        10.200            3.547    674.22  77634.20
         S          3.753            3.128    251.62  12327.25
         S          3.858            3.128    251.62  12327.25
         S          3.862            3.128    251.62  12327.25
         S          3.859            3.128    251.62  12327.25
         S          3.862            3.128    251.62  12327.25
         S          3.759            3.128    251.62  12327.25
         Mo        10.173            3.547    674.22  77634.20
         Mo        10.189            3.547    674.22  77634.20
         Mo        10.202            3.547    674.22  77634.20
         S          3.753            3.128    251.62  12327.25
         S          3.858            3.128    251.62  12327.25
         S          3.857            3.128    251.62  12327.25
         S          3.859            3.128    251.62  12327.25
         S          3.860            3.128    251.62  12327.25
         S          3.751            3.128    251.62  12327.25
         Mo        10.812            3.547    674.22  77634.20
         Mo        10.189            3.547    674.22  77634.20
         Mo        10.202            3.547    674.22  77634.20
         S          3.753            3.128    251.62  12327.25
         S          3.859            3.128    251.62  12327.25
         S          3.866            3.128    251.62  12327.25
         S          3.859            3.128    251.62  12327.25
         S          3.853            3.128    251.62  12327.25
         S          4.651            3.128    251.62  12327.25
         Mo        10.173            3.547    674.22  77634.20
         Mo        10.189            3.547    674.22  77634.20
         Mo        10.202            3.547    674.22  77634.20
         S          3.753            3.128    251.62  12327.25
         S          3.859            3.128    251.62  12327.25
         S          3.857            3.128    251.62  12327.25
         S          3.859            3.128    251.62  12327.25
         S          3.853            3.128    251.62  12327.25
         S          3.751            3.128    251.62  12327.25
         Mo        10.223            3.547    674.22  77634.20
         Mo        10.189            3.547    674.22  77634.20
         Mo        10.200            3.547    674.22  77634.20
         S          3.753            3.128    251.62  12327.25
         S          3.858            3.128    251.62  12327.25
         S          3.862            3.128    251.62  12327.25
         S          3.859            3.128    251.62  12327.25
         S          3.860            3.128    251.62  12327.25
         S          3.759            3.128    251.62  12327.25
         Mo        10.213            3.547    674.22  77634.20
         Mo        10.189            3.547    674.22  77634.20
         Mo        10.201            3.547    674.22  77634.20
         S          3.753            3.128    251.62  12327.25
         S          3.858            3.128    251.62  12327.25
         S          3.848            3.128    251.62  12327.25
         S          3.859            3.128    251.62  12327.25
         S          3.860            3.128    251.62  12327.25
         S          3.798            3.128    251.62  12327.25
         Mo        10.173            3.547    674.22  77634.20
         Mo        10.189            3.547    674.22  77634.20
         Mo        10.202            3.547    674.22  77634.20
         S          3.753            3.128    251.62  12327.25
         S          3.859            3.128    251.62  12327.25
         S          3.866            3.128    251.62  12327.25
         S          3.859            3.128    251.62  12327.25
         S          3.855            3.128    251.62  12327.25
         S          4.651            3.128    251.62  12327.25
         Mo        10.173            3.547    674.22  77634.20
         Mo        10.189            3.547    674.22  77634.20
         Mo        10.202            3.547    674.22  77634.20
         S          3.753            3.128    251.62  12327.25
         S          3.859            3.128    251.62  12327.25
         S          3.866            3.128    251.62  12327.25
         S          3.859            3.128    251.62  12327.25
         S          3.853            3.128    251.62  12327.25
         S          4.651            3.128    251.62  12327.25
         Mo        10.213            3.547    674.22  77634.20
         Mo        10.189            3.547    674.22  77634.20
         Mo        10.201            3.547    674.22  77634.20
         S          3.753            3.128    251.62  12327.25
         S          3.859            3.128    251.62  12327.25
         S          3.848            3.128    251.62  12327.25
         S          3.859            3.128    251.62  12327.25
         S          3.855            3.128    251.62  12327.25
         S          3.798            3.128    251.62  12327.25
         Mo        10.213            3.547    674.21  77634.20
         Mo        10.189            3.547    674.22  77634.20
         Mo        10.199            3.547    674.22  77634.20
         S          3.753            3.128    251.62  12327.25
         S          3.858            3.128    251.62  12327.25
         S          3.855            3.128    251.62  12327.25
         S          3.858            3.128    251.62  12327.25
         S          3.860            3.128    251.62  12327.25
         S          3.777            3.128    251.62  12327.25
         Mo        10.223            3.547    674.22  77634.20
         Mo        10.189            3.547    674.22  77634.20
         Mo        10.201            3.547    674.22  77634.20
         S          3.753            3.128    251.62  12327.25
         S          3.858            3.128    251.62  12327.25
         S          3.848            3.128    251.62  12327.25
         S          3.858            3.128    251.62  12327.25
         S          3.860            3.128    251.62  12327.25
         S          3.798            3.128    251.62  12327.25
         Mo        10.208            3.547    674.22  77634.20
         Mo        10.189            3.547    674.22  77634.20
         Mo        10.202            3.547    674.22  77634.20
         S          3.753            3.128    251.62  12327.25
         S          3.858            3.128    251.62  12327.25
         S          3.857            3.128    251.62  12327.25
         S          3.859            3.128    251.62  12327.25
         S          3.860            3.128    251.62  12327.25
         S          3.751            3.128    251.62  12327.25
         Mo        10.223            3.547    674.22  77634.20
         Mo        10.189            3.547    674.22  77634.20
         Mo        10.201            3.547    674.22  77634.20
         S          3.753            3.128    251.62  12327.25
         S          3.858            3.128    251.62  12327.25
         S          3.848            3.128    251.62  12327.25
         S          3.859            3.128    251.62  12327.25
         S          3.860            3.128    251.62  12327.25
         S          3.798            3.128    251.62  12327.25
         Pd         4.744            3.168    531.75  48720.73
         Pt         1.003            3.168    721.75  75054.30

         Molecular C6 ( Ry / a.u.^6 ) =   7935841.22


     number of k points=     4  Gaussian smearing, width (Ry)=  0.0100
                       cart. coord. in units 2pi/alat
        k(    1) = (   0.0000000   0.0000000   0.0000000), wk =   0.5000000
        k(    2) = (   0.0000000  -0.5773499   0.0000000), wk =   0.5000000
        k(    3) = (  -0.5000000  -0.2886755   0.0000000), wk =   0.5000000
        k(    4) = (  -0.5000000  -0.8660254   0.0000000), wk =   0.5000000

     Dense  grid:  5955087 G-vectors     FFT dimensions: ( 180, 180, 432)

     Smooth grid:  2572543 G-vectors     FFT dimensions: ( 135, 135, 320)

     Estimated max dynamical RAM per process >       3.07 GB

     Estimated total dynamical RAM >     110.53 GB

     Initial potential from superposition of free atoms

     starting charge    1297.9541, renormalised to    1298.0000

     negative rho (up, down):  7.493E-04 0.000E+00
     Starting wfcs are  891 randomized atomic wfcs
     Checking if some PAW data can be deallocated... 

     total cpu time spent up to now is       99.2 secs

     Self-consistent Calculation

     iteration #  1     ecut=    77.00 Ry     beta= 0.20
     Davidson diagonalization with overlap
     ethr =  1.00E-02,  avg # of iterations =  2.0

     Threshold (ethr) on eigenvalues was too large:
     Diagonalizing with lowered threshold

     Davidson diagonalization with overlap
     ethr =  2.41E-04,  avg # of iterations = 15.2

     negative rho (up, down):  1.966E-04 0.000E+00

     total cpu time spent up to now is     1026.5 secs

     total energy              =  -26031.25659099 Ry
     estimated scf accuracy    <       4.92913907 Ry

     iteration #  2     ecut=    77.00 Ry     beta= 0.20
     Davidson diagonalization with overlap
     ethr =  3.80E-04,  avg # of iterations =  8.0

     negative rho (up, down):  2.052E-04 0.000E+00

     total cpu time spent up to now is     1263.5 secs

     total energy              =  -26027.38879692 Ry
     estimated scf accuracy    <     100.03001972 Ry

     iteration #  3     ecut=    77.00 Ry     beta= 0.20
     Davidson diagonalization with overlap
     ethr =  3.80E-04,  avg # of iterations =  7.5

     negative rho (up, down):  1.491E-04 0.000E+00

     total cpu time spent up to now is     1500.2 secs

     total energy              =  -26030.82842181 Ry
     estimated scf accuracy    <      11.49346900 Ry

     iteration #  4     ecut=    77.00 Ry     beta= 0.20
     Davidson diagonalization with overlap
     ethr =  3.80E-04,  avg # of iterations =  1.0

     negative rho (up, down):  2.668E-05 0.000E+00

     total cpu time spent up to now is     1701.3 secs

     total energy              =  -26030.96136156 Ry
     estimated scf accuracy    <       2.87333371 Ry

     iteration #  5     ecut=    77.00 Ry     beta= 0.20
     Davidson diagonalization with overlap
     ethr =  2.21E-04,  avg # of iterations =  2.0

     negative rho (up, down):  1.623E-05 0.000E+00

     total cpu time spent up to now is     1922.3 secs

     total energy              =  -26030.90183881 Ry
     estimated scf accuracy    <       0.88977748 Ry

     iteration #  6     ecut=    77.00 Ry     beta= 0.20
     Davidson diagonalization with overlap
     ethr =  6.85E-05,  avg # of iterations = 12.8

     negative rho (up, down):  2.022E-05 0.000E+00

     total cpu time spent up to now is     2430.3 secs

     total energy              =  -26031.57926535 Ry
     estimated scf accuracy    <       0.64014853 Ry

     iteration #  7     ecut=    77.00 Ry     beta= 0.20
     Davidson diagonalization with overlap
     ethr =  4.93E-05,  avg # of iterations =  2.0

     negative rho (up, down):  2.476E-05 0.000E+00

     total cpu time spent up to now is     2651.1 secs

     total energy              =  -26031.59959495 Ry
     estimated scf accuracy    <       0.28127547 Ry

     iteration #  8     ecut=    77.00 Ry     beta= 0.20
     Davidson diagonalization with overlap
     ethr =  2.17E-05,  avg # of iterations = 14.5

     negative rho (up, down):  1.561E-05 0.000E+00

     total cpu time spent up to now is     2980.9 secs

     total energy              =  -26031.74124979 Ry
     estimated scf accuracy    <       0.29734520 Ry

     iteration #  9     ecut=    77.00 Ry     beta= 0.20
     Davidson diagonalization with overlap
     ethr =  2.17E-05,  avg # of iterations =  4.0

     negative rho (up, down):  7.923E-06 0.000E+00

     total cpu time spent up to now is     3210.3 secs

     total energy              =  -26031.83224628 Ry
     estimated scf accuracy    <       0.40274212 Ry

     iteration # 10     ecut=    77.00 Ry     beta= 0.20
     Davidson diagonalization with overlap
     ethr =  2.17E-05,  avg # of iterations =  4.8

     negative rho (up, down):  2.133E-03 0.000E+00

     total cpu time spent up to now is     3444.8 secs

     total energy              =  -26031.48808782 Ry
     estimated scf accuracy    <       0.51587210 Ry

     iteration # 11     ecut=    77.00 Ry     beta= 0.20
     Davidson diagonalization with overlap
     ethr =  2.17E-05,  avg # of iterations = 15.2

     negative rho (up, down):  2.749E-04 0.000E+00

     total cpu time spent up to now is     3910.0 secs

     total energy              =  -26031.55644986 Ry
     estimated scf accuracy    <       0.71950462 Ry

     iteration # 12     ecut=    77.00 Ry     beta= 0.20
     Davidson diagonalization with overlap
     ethr =  2.17E-05,  avg # of iterations =  8.8

     negative rho (up, down):  1.572E-04 0.000E+00

     total cpu time spent up to now is     4154.9 secs

     total energy              =  -26031.59752914 Ry
     estimated scf accuracy    <       0.07988011 Ry

     iteration # 13     ecut=    77.00 Ry     beta= 0.20
     Davidson diagonalization with overlap
     c_bands:  4 eigenvalues not converged
     c_bands:  3 eigenvalues not converged
     c_bands:  3 eigenvalues not converged
     c_bands:  5 eigenvalues not converged
     ethr =  6.15E-06,  avg # of iterations = 60.0

     negative rho (up, down):  2.829E-04 0.000E+00

     total cpu time spent up to now is     5147.9 secs

     total energy              =  -26031.67441824 Ry
     estimated scf accuracy    <       0.13073859 Ry

     iteration # 14     ecut=    77.00 Ry     beta= 0.20
     Davidson diagonalization with overlap
     c_bands:  1 eigenvalues not converged
     ethr =  6.15E-06,  avg # of iterations = 14.8

     negative rho (up, down):  6.149E-04 0.000E+00

     total cpu time spent up to now is     5397.3 secs

     total energy              =  -26031.64720885 Ry
     estimated scf accuracy    <       0.05342794 Ry

     iteration # 15     ecut=    77.00 Ry     beta= 0.20
     Davidson diagonalization with overlap
     c_bands:  2 eigenvalues not converged
     c_bands:  1 eigenvalues not converged
     c_bands:  1 eigenvalues not converged
     ethr =  4.12E-06,  avg # of iterations = 17.0

     negative rho (up, down):  6.016E-04 0.000E+00

     total cpu time spent up to now is     5663.6 secs

     total energy              =  -26031.65559063 Ry
     estimated scf accuracy    <       0.01335492 Ry

     iteration # 16     ecut=    77.00 Ry     beta= 0.20
     Davidson diagonalization with overlap
     c_bands:  2 eigenvalues not converged
     ethr =  1.03E-06,  avg # of iterations = 33.2

     negative rho (up, down):  6.231E-04 0.000E+00

     total cpu time spent up to now is     6347.0 secs

     total energy              =  -26031.66494625 Ry
     estimated scf accuracy    <       0.00413331 Ry

     iteration # 17     ecut=    77.00 Ry     beta= 0.20
     Davidson diagonalization with overlap
     ethr =  3.18E-07,  avg # of iterations = 10.2

     negative rho (up, down):  6.637E-04 0.000E+00

     total cpu time spent up to now is     6651.8 secs

     total energy              =  -26031.66614519 Ry
     estimated scf accuracy    <       0.00108879 Ry

     iteration # 18     ecut=    77.00 Ry     beta= 0.20
     Davidson diagonalization with overlap
     ethr =  8.39E-08,  avg # of iterations = 16.2

     negative rho (up, down):  7.599E-04 0.000E+00

     total cpu time spent up to now is     7183.4 secs

     total energy              =  -26031.66723198 Ry
     estimated scf accuracy    <       0.00068428 Ry

     iteration # 19     ecut=    77.00 Ry     beta= 0.20
     Davidson diagonalization with overlap
     ethr =  5.27E-08,  avg # of iterations =  6.8

     negative rho (up, down):  7.830E-04 0.000E+00

     total cpu time spent up to now is     7612.2 secs

     total energy              =  -26031.66806364 Ry
     estimated scf accuracy    <       0.00108038 Ry

     iteration # 20     ecut=    77.00 Ry     beta= 0.20
     Davidson diagonalization with overlap
     ethr =  5.27E-08,  avg # of iterations =  3.0

     negative rho (up, down):  7.674E-04 0.000E+00

     total cpu time spent up to now is     7833.3 secs

     total energy              =  -26031.66776339 Ry
     estimated scf accuracy    <       0.00132442 Ry

     iteration # 21     ecut=    77.00 Ry     beta= 0.20
     Davidson diagonalization with overlap
     ethr =  5.27E-08,  avg # of iterations =  1.0

     negative rho (up, down):  7.498E-04 0.000E+00

     total cpu time spent up to now is     8033.4 secs

     total energy              =  -26031.66749294 Ry
     estimated scf accuracy    <       0.00068157 Ry

     iteration # 22     ecut=    77.00 Ry     beta= 0.20
     Davidson diagonalization with overlap
     ethr =  5.25E-08,  avg # of iterations =  1.5

     negative rho (up, down):  7.574E-04 0.000E+00

     total cpu time spent up to now is     8243.6 secs

     total energy              =  -26031.66747608 Ry
     estimated scf accuracy    <       0.00022438 Ry

     iteration # 23     ecut=    77.00 Ry     beta= 0.20
     Davidson diagonalization with overlap
     ethr =  1.73E-08,  avg # of iterations = 12.2

     negative rho (up, down):  7.568E-04 0.000E+00

     total cpu time spent up to now is     8557.4 secs

     total energy              =  -26031.66753450 Ry
     estimated scf accuracy    <       0.00008416 Ry

     iteration # 24     ecut=    77.00 Ry     beta= 0.20
     Davidson diagonalization with overlap
     c_bands:  1 eigenvalues not converged
     c_bands:  1 eigenvalues not converged
     ethr =  6.48E-09,  avg # of iterations = 17.0

     negative rho (up, down):  7.686E-04 0.000E+00

     total cpu time spent up to now is     8989.4 secs

     total energy              =  -26031.66760588 Ry
     estimated scf accuracy    <       0.00002488 Ry

     iteration # 25     ecut=    77.00 Ry     beta= 0.20
     Davidson diagonalization with overlap
     ethr =  1.92E-09,  avg # of iterations = 10.0

     negative rho (up, down):  7.804E-04 0.000E+00

     total cpu time spent up to now is     9333.5 secs

     total energy              =  -26031.66761062 Ry
     estimated scf accuracy    <       0.00001456 Ry

     iteration # 26     ecut=    77.00 Ry     beta= 0.20
     Davidson diagonalization with overlap
     c_bands:  1 eigenvalues not converged
     ethr =  1.12E-09,  avg # of iterations = 14.0

     negative rho (up, down):  7.905E-04 0.000E+00

     total cpu time spent up to now is     9634.0 secs

     total energy              =  -26031.66760889 Ry
     estimated scf accuracy    <       0.00000869 Ry

     iteration # 27     ecut=    77.00 Ry     beta= 0.20
     Davidson diagonalization with overlap
     c_bands:  1 eigenvalues not converged
     ethr =  6.69E-10,  avg # of iterations = 15.8

     negative rho (up, down):  7.909E-04 0.000E+00

     total cpu time spent up to now is    10000.9 secs

     total energy              =  -26031.66761304 Ry
     estimated scf accuracy    <       0.00000229 Ry

     iteration # 28     ecut=    77.00 Ry     beta= 0.20
     Davidson diagonalization with overlap
     c_bands:  1 eigenvalues not converged
     c_bands:  1 eigenvalues not converged
     ethr =  1.77E-10,  avg # of iterations = 17.8

     negative rho (up, down):  7.899E-04 0.000E+00

     total cpu time spent up to now is    10501.6 secs

     total energy              =  -26031.66761511 Ry
     estimated scf accuracy    <       0.00000190 Ry

     iteration # 29     ecut=    77.00 Ry     beta= 0.20
     Davidson diagonalization with overlap
     ethr =  1.47E-10,  avg # of iterations =  9.0

     negative rho (up, down):  7.910E-04 0.000E+00

     total cpu time spent up to now is    10743.0 secs

     total energy              =  -26031.66761429 Ry
     estimated scf accuracy    <       0.00000103 Ry

     iteration # 30     ecut=    77.00 Ry     beta= 0.20
     Davidson diagonalization with overlap
     ethr =  7.92E-11,  avg # of iterations = 15.8

     negative rho (up, down):  7.939E-04 0.000E+00

     total cpu time spent up to now is    11221.5 secs

     End of self-consistent calculation

          k = 0.0000 0.0000 0.0000 (321495 PWs)   bands (ev):

  -101.6388 -89.7777 -70.1387 -70.1148 -70.1147 -70.0312 -70.0312 -69.8493
   -69.8489 -67.0274 -67.0063 -67.0063 -67.0063 -67.0063 -67.0063 -67.0063
   -66.9851 -66.9851 -66.9851 -66.9851 -66.9851 -66.9851 -66.9851 -66.9850
   -66.9850 -66.9593 -66.9387 -66.9387 -66.9384 -66.9379 -66.9378 -66.9378
   -66.9177 -66.9177 -66.9174 -66.9174 -66.9170 -66.9170 -66.9164 -66.9164
   -66.9162 -66.8857 -66.8584 -66.8429 -66.8402 -66.8401 -66.8354 -66.8353
   -66.8221 -66.8212 -66.8212 -66.8196 -66.8160 -66.8160 -66.8114 -66.8113
   -66.8102 -56.2990 -55.6409 -55.5853 -55.5853 -55.4129 -55.4128 -41.3537
   -41.3537 -41.3537 -41.2845 -41.2842 -41.2842 -41.2789 -41.2789 -41.2789
   -41.2789 -41.2789 -41.2789 -41.2099 -41.2099 -41.2096 -41.2094 -41.2094
   -41.2092 -41.1875 -41.1840 -41.1840 -41.1833 -41.1534 -41.1534 -41.1534
   -41.1533 -41.1533 -41.1533 -41.1461 -41.1461 -41.1461 -41.1461 -41.1461
   -41.1460 -41.1202 -41.1185 -41.1185 -41.1185 -41.1185 -41.1185 -41.1185
   -41.1110 -41.1097 -41.1097 -41.1091 -41.1070 -41.1070 -41.1044 -41.1044
   -41.1044 -41.1044 -41.1044 -41.1044 -41.1043 -41.1043 -41.1043 -41.0845
   -41.0842 -41.0842 -41.0841 -41.0841 -41.0838 -41.0792 -41.0792 -41.0790
   -41.0787 -41.0784 -41.0783 -41.0597 -41.0496 -41.0496 -41.0493 -41.0493
   -41.0492 -41.0490 -41.0407 -41.0407 -41.0407 -41.0378 -41.0378 -41.0374
   -41.0374 -41.0372 -41.0372 -41.0366 -41.0366 -41.0363 -41.0177 -40.9939
   -40.9939 -40.9939 -40.9939 -40.9939 -40.9939 -40.9896 -40.9896 -40.9856
   -40.9856 -40.9846 -40.9844 -40.9844 -40.9834 -40.9832 -40.9832 -40.9717
   -40.9716 -40.9716 -40.9710 -40.9612 -40.9541 -40.9541 -40.9538 -40.9478
   -40.9466 -40.9466 -40.9440 -40.9437 -40.9436 -40.9426 -40.9426 -40.9405
   -40.9402 -40.9402 -40.9393 -40.9393 -40.9254 -40.9249 -40.9249 -40.9247
   -40.9247 -40.9244 -40.8776 -40.8776 -40.8726 -40.8726 -40.8679 -40.8284
   -40.8284 -40.8240 -40.8212 -40.8212 -40.8177 -40.7764 -40.7764 -20.4564
   -20.3320 -20.2031 -19.5928 -19.5911 -19.5911 -19.5898 -19.5896 -19.5896
   -19.5077 -19.4896 -19.4896 -19.4673 -19.4664 -19.4664 -19.3979 -19.3841
   -19.3841 -19.3220 -19.3220 -19.3220 -19.1974 -19.0122 -18.8545 -18.8192
   -18.8192 -18.7914 -18.7881 -18.7881 -18.7874 -18.6991 -18.6991 -18.6742
   -18.6256 -18.6252 -18.6252 -18.5556 -18.5556 -18.5356 -18.4860 -18.4860
   -18.4859 -18.4859 -18.4855 -18.4855 -18.4792 -18.4772 -18.4772 -18.4459
   -18.4458 -18.4458 -18.4143 -18.4143 -18.4039 -18.4019 -18.3994 -18.3994
   -18.3844 -18.3843 -18.3697 -18.3679 -18.3679 -18.3092 -18.3000 -18.2974
   -18.2974 -18.2930 -18.2930 -18.2920 -18.2799 -18.2799 -18.2540 -18.2470
   -18.2470 -18.2461 -18.2435 -18.2418 -18.2418 -18.2155 -18.2155 -18.2025
   -18.1883 -18.1883 -18.1740 -18.1720 -18.1707 -18.1707 -18.1431 -18.1431
   -18.1082 -18.0892 -18.0892 -18.0776 -18.0721 -18.0640 -18.0639 -12.2682
   -12.1103 -12.1020 -12.1020 -12.0814 -12.0280 -12.0280 -12.0056 -11.9480
   -11.9480 -11.8831 -11.5719 -11.5482 -11.5482 -11.5442 -11.5435 -11.5435
   -11.4996 -11.4738 -11.4738 -11.4726 -11.4716 -11.4716 -11.4651 -11.4184
   -11.3871 -11.3871 -11.3435 -11.3388 -11.3388 -11.3165 -11.3165 -11.3110
   -11.2546 -11.2494 -11.2494 -11.2398 -11.2367 -11.2367 -11.2334 -11.2192
   -11.2192 -11.1901 -11.1901 -11.1809 -11.1778 -11.1768 -11.1768 -11.1715
   -11.1715 -11.1528 -11.1487 -11.1487 -11.1438 -11.1260 -11.1213 -11.1213
   -11.1176 -11.1176 -11.0957 -11.0707 -11.0707 -11.0551 -11.0546 -11.0546
   -11.0296 -10.9804 -10.9524 -10.9524 -10.9465 -10.9323 -10.9323 -10.9190
   -10.9190 -10.9169 -10.5197 -10.5196 -10.3948 -10.3912 -10.3911 -10.2524
   -10.2265 -10.2265 -10.1372 -10.1165 -10.1165 -10.1134 -10.1113 -10.1113
   -10.0972 -10.0442 -10.0347 -10.0347 -10.0307 -10.0214 -10.0214 -10.0103
   -10.0002 -10.0002  -9.9637  -9.9637  -9.9631  -9.9568  -9.9518  -9.9518
    -9.9193  -9.9187  -9.9187  -9.9187  -9.9149  -9.9149  -9.8849  -9.8733
    -9.8603  -9.8603  -9.8390  -9.8390  -9.8186  -9.8118  -9.8118  -9.7804
    -9.7804  -9.7749  -9.7669  -9.7643  -9.7643  -9.6820  -9.6680  -9.6680
    -9.6489  -9.6489  -9.6368  -9.6138  -9.6138  -9.5612  -9.5274  -9.5274
    -9.5230  -9.5214  -9.5131  -9.5131  -9.5039  -9.5039  -9.4888  -9.4149
    -9.3673  -9.3653  -9.3653  -9.3644  -9.3501  -9.3501  -9.3381  -9.3381
    -9.3276  -9.3276  -9.3217  -9.2881  -9.2816  -9.2816  -9.2412  -9.1930
    -9.1929  -9.1721  -9.1721  -9.1670  -9.1424  -9.1400  -9.1400  -9.1380
    -9.1380  -9.1365  -9.1248  -9.1038  -9.1038  -9.0703  -9.0702  -9.0563
    -9.0549  -9.0549  -9.0544  -8.9977  -8.9867  -8.9867  -8.8561  -8.7763
    -8.7763  -8.7089  -8.7017  -8.7017  -8.6938  -8.6938  -8.6640  -8.6640
    -8.6640  -8.6639  -8.6638  -8.6638  -8.5950  -8.5950  -8.5903  -8.5886
    -8.5886  -8.5882  -8.5787  -8.5787  -8.5131  -8.5047  -8.5047  -8.4795
    -8.3442  -8.3442  -8.3030  -8.2557  -8.2557  -8.0530  -8.0288  -8.0268
    -8.0268  -7.9503  -7.9502  -7.9285  -7.9284  -7.9284  -7.9283  -7.9275
    -7.9275  -7.8826  -7.8822  -7.8822  -7.8820  -7.8817  -7.8817  -7.8533
    -7.8518  -7.8518  -7.8502  -7.8473  -7.8472  -7.8253  -7.8191  -7.8191
    -7.8065  -7.8053  -7.8053  -7.8047  -7.8022  -7.8022  -7.7719  -7.7641
    -7.7566  -7.7566  -7.7550  -7.7522  -7.7522  -7.7379  -7.7379  -7.7250
    -7.7101  -7.6758  -7.6758  -7.6557  -7.6474  -7.6474  -7.6272  -7.6271
    -7.5765  -7.5765  -7.5412  -7.5412  -7.5400  -7.4865  -7.4865  -7.4786
    -7.4331  -7.4331  -7.2855  -7.2518  -7.2518  -7.1747  -7.1747  -7.1594
    -7.1482  -7.1456  -7.1456  -7.1455  -7.0401  -7.0357  -7.0357  -6.9945
    -6.9945  -6.9629  -6.9532  -6.9532  -6.9497  -6.9317  -6.9317  -6.9281
    -6.8660  -6.8660  -6.8648  -6.8582  -6.8582  -6.8521  -6.8396  -6.8395
    -6.8360  -6.8091  -6.8091  -6.7792  -6.7663  -6.7630  -6.7630  -6.7416
    -6.7416  -6.7326  -6.6954  -6.6954  -6.6953  -6.6953  -6.6953  -6.6953
    -6.6942  -6.6942  -6.6700  -6.6168  -6.6168  -6.6154  -6.6154  -6.6153
    -6.6149  -6.5972  -6.5972  -6.5171  -6.5148  -6.5148  -6.5071  -6.4856
    -6.4483  -6.4483  -5.8892  -5.5631  -5.4771  -5.4771  -5.4021  -5.3612
    -5.3612  -5.3573  -4.1741  -4.1741  -4.1700  -4.1687  -4.1687  -4.1596
    -4.1398  -4.1393  -4.1393  -4.1376  -4.1376  -4.1341  -3.9283  -3.9283
    -3.9128  -3.9126  -3.9074  -3.9074  -3.8950  -3.8950  -3.8925  -3.8905
    -3.8904  -3.8426  -3.8360  -3.8360  -3.8357  -3.8182  -3.8167  -3.8164
    -3.8164  -3.8152  -3.8152  -3.7661  -3.7659  -3.7658  -3.7228  -3.7101
    -3.7101  -3.7100  -3.7002  -3.7002  -3.6989  -3.6989  -3.6890  -3.6884
    -3.6884  -3.6835  -3.6619  -3.6556  -3.6556  -3.6146  -3.5854  -3.5853
    -3.5825  -3.5773  -3.5770  -3.5617  -3.5563  -3.5563  -3.5356  -3.5356
    -3.5273  -3.3688  -3.3685  -3.3684  -3.3640  -3.3640  -3.2980  -3.2973
    -3.2972  -3.2971  -3.2971  -3.2970  -3.2933  -3.2930  -3.2708  -3.2694
    -3.2693  -3.2521  -3.2520  -3.2415  -3.2272  -3.2272  -3.2243  -3.2221
    -3.2220  -3.2169  -3.2166  -3.2152  -3.2146  -3.1959  -3.1958  -3.1652
    -3.1558  -3.1557  -3.1119  -3.1115  -3.1064  -3.1048  -3.0961  -3.0953
    -3.0948  -3.0924  -3.0812  -3.0795  -3.0756  -3.0749  -3.0588  -3.0444
    -3.0308  -3.0306  -2.9846  -2.9785  -2.9784  -2.9582  -2.9578  -2.9500
    -2.9325  -2.9323  -2.8906  -2.8626  -2.8617  -2.8172  -2.7992  -2.7985
    -2.7810  -2.7802  -2.7730

          k = 0.0000-0.5773 0.0000 (321564 PWs)   bands (ev):

  -101.6388 -89.7777 -70.1387 -70.1148 -70.1147 -70.0312 -70.0312 -69.8493
   -69.8489 -67.0212 -67.0212 -67.0107 -67.0107 -66.9957 -66.9957 -66.9957
   -66.9957 -66.9913 -66.9913 -66.9851 -66.9851 -66.9851 -66.9851 -66.9807
   -66.9807 -66.9534 -66.9529 -66.9426 -66.9425 -66.9279 -66.9278 -66.9275
   -66.9274 -66.9235 -66.9230 -66.9173 -66.9173 -66.9172 -66.9163 -66.9126
   -66.9126 -66.8856 -66.8561 -66.8506 -66.8424 -66.8377 -66.8298 -66.8295
   -66.8251 -66.8248 -66.8209 -66.8191 -66.8167 -66.8164 -66.8129 -66.8115
   -66.8079 -56.2990 -55.6409 -55.5853 -55.5853 -55.4129 -55.4128 -41.3223
   -41.3223 -41.3223 -41.3223 -41.2957 -41.2957 -41.2837 -41.2837 -41.2532
   -41.2531 -41.2530 -41.2524 -41.2333 -41.2333 -41.2333 -41.2333 -41.2265
   -41.2261 -41.2144 -41.2143 -41.1754 -41.1754 -41.1654 -41.1654 -41.1641
   -41.1640 -41.1640 -41.1640 -41.1568 -41.1547 -41.1547 -41.1535 -41.1503
   -41.1488 -41.1285 -41.1253 -41.1253 -41.1253 -41.1253 -41.1250 -41.1166
   -41.1166 -41.1128 -41.1124 -41.1083 -41.1079 -41.1044 -41.1044 -41.1044
   -41.1044 -41.1043 -41.1043 -41.0962 -41.0962 -41.0957 -41.0957 -41.0874
   -41.0874 -41.0736 -41.0736 -41.0736 -41.0736 -41.0660 -41.0653 -41.0630
   -41.0619 -41.0582 -41.0582 -41.0579 -41.0577 -41.0564 -41.0496 -41.0491
   -41.0391 -41.0391 -41.0391 -41.0391 -41.0374 -41.0373 -41.0373 -41.0365
   -41.0352 -41.0352 -41.0285 -41.0285 -41.0271 -41.0270 -41.0136 -41.0079
   -41.0078 -41.0048 -41.0047 -41.0044 -41.0044 -41.0040 -41.0008 -40.9930
   -40.9910 -40.9910 -40.9907 -40.9824 -40.9701 -40.9700 -40.9700 -40.9699
   -40.9638 -40.9632 -40.9632 -40.9605 -40.9605 -40.9582 -40.9577 -40.9575
   -40.9539 -40.9482 -40.9439 -40.9415 -40.9413 -40.9395 -40.9391 -40.9385
   -40.9347 -40.9335 -40.9296 -40.9219 -40.9219 -40.9091 -40.9040 -40.9037
   -40.8998 -40.8917 -40.8912 -40.8737 -40.8719 -40.8680 -40.8646 -40.8594
   -40.8520 -40.8402 -40.8336 -40.8239 -40.8176 -40.7908 -40.7893 -20.2206
   -20.2194 -20.1072 -20.0906 -19.9888 -19.9506 -19.7853 -19.7852 -19.6682
   -19.6672 -19.5472 -19.5457 -19.1044 -19.0924 -19.0788 -19.0773 -19.0771
   -19.0770 -19.0083 -19.0010 -18.9826 -18.9663 -18.9489 -18.9344 -18.9245
   -18.8787 -18.8735 -18.8705 -18.8525 -18.8302 -18.8299 -18.8297 -18.7703
   -18.7464 -18.7315 -18.7231 -18.7214 -18.7033 -18.6661 -18.6066 -18.6055
   -18.5789 -18.5545 -18.5484 -18.5470 -18.5460 -18.4781 -18.4672 -18.4664
   -18.4663 -18.4662 -18.4634 -18.4410 -18.4338 -18.4264 -18.4169 -18.3894
   -18.3870 -18.3868 -18.3855 -18.3737 -18.3688 -18.3352 -18.3248 -18.3160
   -18.2996 -18.2952 -18.2942 -18.2936 -18.2884 -18.2660 -18.2581 -18.2471
   -18.2464 -18.2460 -18.2184 -18.2062 -18.2033 -18.2033 -18.1939 -18.1860
   -18.1848 -18.1421 -18.1421 -18.1363 -18.1255 -18.1251 -18.1100 -18.0886
   -18.0841 -18.0810 -18.0807 -18.0360 -18.0223 -17.9900 -17.9785 -12.0165
   -12.0051 -11.8990 -11.8141 -11.8128 -11.8125 -11.8101 -11.7917 -11.7871
   -11.7463 -11.7371 -11.7243 -11.7242 -11.7027 -11.6895 -11.6702 -11.6512
   -11.6329 -11.6157 -11.6129 -11.6112 -11.6049 -11.5963 -11.5963 -11.5876
   -11.5480 -11.5477 -11.5384 -11.5116 -11.4886 -11.4864 -11.4863 -11.4838
   -11.4721 -11.3457 -11.3094 -11.3011 -11.3004 -11.2849 -11.2696 -11.2539
   -11.2522 -11.2264 -11.2116 -11.1954 -11.1936 -11.1753 -11.1704 -11.1699
   -11.1690 -11.1659 -11.1509 -11.1474 -11.1206 -11.1200 -11.1082 -11.1048
   -11.1019 -11.1006 -11.0893 -11.0729 -11.0301 -11.0256 -10.9773 -10.8893
   -10.8794 -10.8308 -10.8263 -10.7375 -10.7032 -10.6560 -10.6512 -10.5501
   -10.4858 -10.4608 -10.4583 -10.4514 -10.4480 -10.3700 -10.3619 -10.3530
   -10.3392 -10.2766 -10.2717 -10.2702 -10.2682 -10.2595 -10.2578 -10.2347
   -10.2334 -10.2298 -10.2280 -10.2060 -10.1967 -10.1356 -10.1157 -10.1131
   -10.0846 -10.0834 -10.0776 -10.0723 -10.0567 -10.0513 -10.0447 -10.0419
   -10.0324  -9.9943  -9.9798  -9.9657  -9.9468  -9.9461  -9.9359  -9.9309
    -9.9302  -9.9283  -9.9098  -9.8689  -9.8661  -9.8591  -9.8315  -9.8119
    -9.8046  -9.8029  -9.7828  -9.7369  -9.7318  -9.6429  -9.6274  -9.5835
    -9.5783  -9.5308  -9.5093  -9.4916  -9.4768  -9.4729  -9.4644  -9.4629
    -9.4595  -9.4546  -9.4521  -9.4192  -9.4046  -9.3691  -9.3580  -9.3386
    -9.3346  -9.3332  -9.3145  -9.3090  -9.3006  -9.2865  -9.2820  -9.2718
    -9.2693  -9.2682  -9.2670  -9.2525  -9.2397  -9.2334  -9.2173  -9.2110
    -9.2058  -9.1957  -9.1933  -9.1860  -9.1787  -9.1787  -9.1623  -9.1555
    -9.1445  -9.1367  -9.1301  -9.1263  -9.1055  -9.1019  -9.0954  -9.0942
    -9.0702  -9.0557  -9.0527  -9.0115  -9.0026  -8.9513  -8.8584  -8.8520
    -8.8481  -8.7775  -8.7627  -8.7227  -8.7196  -8.7128  -8.6060  -8.5438
    -8.5327  -8.5326  -8.4586  -8.4578  -8.4180  -8.3990  -8.3674  -8.3110
    -8.2744  -8.2738  -8.2623  -8.2350  -8.2007  -8.2001  -8.1932  -8.1859
    -8.1859  -8.1847  -8.1828  -8.1787  -8.1734  -8.1651  -8.1392  -8.1391
    -8.1388  -8.1375  -8.1135  -8.1132  -8.0973  -8.0939  -8.0928  -8.0927
    -8.0655  -8.0647  -8.0622  -8.0611  -8.0389  -8.0336  -8.0215  -8.0190
    -8.0161  -8.0144  -8.0035  -8.0007  -8.0005  -7.9858  -7.9695  -7.9683
    -7.9636  -7.9526  -7.9389  -7.9304  -7.9277  -7.9272  -7.9165  -7.8948
    -7.8877  -7.8763  -7.8746  -7.8463  -7.8199  -7.8106  -7.7645  -7.7598
    -7.6887  -7.6684  -7.6004  -7.5892  -7.5783  -7.5743  -7.5723  -7.5542
    -7.5213  -7.4862  -7.4471  -7.4425  -7.4318  -7.4317  -7.3649  -7.3506
    -7.3492  -7.3491  -7.3119  -7.2795  -7.2718  -7.2717  -7.2569  -7.2521
    -7.2470  -7.2301  -7.1876  -7.1670  -7.1651  -7.1199  -7.1096  -7.0884
    -7.0534  -7.0420  -6.9984  -6.9977  -6.9977  -6.9975  -6.9924  -6.9738
    -6.9738  -6.9285  -6.9272  -6.9264  -6.9242  -6.9134  -6.9044  -6.8351
    -6.8301  -6.8212  -6.8191  -6.8090  -6.7593  -6.7445  -6.6783  -6.6660
    -6.6659  -6.6659  -6.6652  -6.6105  -6.5990  -6.5893  -6.5841  -6.5831
    -6.5827  -6.5755  -6.5451  -6.5051  -6.4950  -6.4931  -6.4790  -6.4699
    -6.4679  -6.4518  -6.3175  -6.3174  -6.2393  -6.2393  -6.1515  -6.1442
    -6.1021  -6.0643  -5.9120  -5.8820  -5.4775  -5.4775  -5.4045  -5.3750
    -5.3562  -5.3559  -4.3511  -4.3503  -4.3439  -4.3378  -4.2330  -4.2330
    -4.2077  -4.2011  -4.1658  -4.1657  -4.0934  -4.0932  -4.0772  -4.0758
    -4.0630  -4.0556  -4.0003  -3.9797  -3.9326  -3.9318  -3.9302  -3.9295
    -3.9180  -3.9178  -3.8670  -3.8655  -3.8544  -3.8372  -3.8346  -3.8307
    -3.8111  -3.8102  -3.8041  -3.7990  -3.7940  -3.7917  -3.7907  -3.7698
    -3.7355  -3.7149  -3.6849  -3.6846  -3.6839  -3.6800  -3.6697  -3.6651
    -3.6549  -3.6544  -3.6440  -3.6429  -3.6084  -3.6083  -3.6080  -3.6076
    -3.5985  -3.5816  -3.5713  -3.5677  -3.5666  -3.5639  -3.5314  -3.5297
    -3.5288  -3.5260  -3.5220  -3.5147  -3.4934  -3.4708  -3.4366  -3.4346
    -3.4218  -3.4190  -3.4095  -3.4045  -3.4037  -3.4007  -3.3643  -3.3633
    -3.3456  -3.3455  -3.3450  -3.3449  -3.3435  -3.3243  -3.3042  -3.2978
    -3.2954  -3.2949  -3.2643  -3.2568  -3.2460  -3.2449  -3.2428  -3.2410
    -3.2181  -3.2015  -3.1964  -3.1884  -3.1860  -3.1761  -3.1756  -3.1540
    -3.1361  -3.1325  -3.1276  -3.1253  -3.1132  -3.1112  -3.0619  -3.0595
    -3.0245  -3.0071  -2.9814  -2.9810  -2.9581  -2.9580  -2.9498  -2.9492
    -2.8955  -2.8936  -2.8283  -2.8217  -2.8021  -2.7986  -2.7899  -2.7783
    -2.6691  -2.6311  -2.6147

          k =-0.5000-0.2887 0.0000 (321564 PWs)   bands (ev):

  -101.6388 -89.7777 -70.1387 -70.1148 -70.1147 -70.0312 -70.0312 -69.8493
   -69.8489 -67.0212 -67.0212 -67.0107 -67.0107 -66.9957 -66.9957 -66.9957
   -66.9957 -66.9913 -66.9913 -66.9851 -66.9851 -66.9851 -66.9851 -66.9807
   -66.9807 -66.9534 -66.9529 -66.9426 -66.9425 -66.9279 -66.9278 -66.9275
   -66.9274 -66.9235 -66.9230 -66.9173 -66.9173 -66.9172 -66.9163 -66.9126
   -66.9126 -66.8856 -66.8561 -66.8506 -66.8424 -66.8377 -66.8298 -66.8295
   -66.8251 -66.8248 -66.8209 -66.8191 -66.8167 -66.8164 -66.8129 -66.8115
   -66.8079 -56.2990 -55.6409 -55.5853 -55.5853 -55.4129 -55.4128 -41.3223
   -41.3223 -41.3223 -41.3223 -41.2957 -41.2956 -41.2837 -41.2837 -41.2532
   -41.2531 -41.2530 -41.2524 -41.2333 -41.2333 -41.2333 -41.2333 -41.2265
   -41.2261 -41.2144 -41.2143 -41.1754 -41.1754 -41.1654 -41.1654 -41.1641
   -41.1640 -41.1640 -41.1640 -41.1568 -41.1547 -41.1547 -41.1535 -41.1503
   -41.1488 -41.1285 -41.1253 -41.1253 -41.1253 -41.1253 -41.1250 -41.1166
   -41.1166 -41.1128 -41.1124 -41.1083 -41.1079 -41.1044 -41.1044 -41.1044
   -41.1044 -41.1043 -41.1043 -41.0962 -41.0962 -41.0957 -41.0957 -41.0874
   -41.0874 -41.0736 -41.0736 -41.0736 -41.0736 -41.0660 -41.0653 -41.0630
   -41.0619 -41.0582 -41.0582 -41.0579 -41.0577 -41.0564 -41.0496 -41.0491
   -41.0391 -41.0391 -41.0391 -41.0391 -41.0374 -41.0373 -41.0373 -41.0365
   -41.0352 -41.0352 -41.0285 -41.0285 -41.0271 -41.0270 -41.0136 -41.0079
   -41.0078 -41.0048 -41.0047 -41.0044 -41.0044 -41.0040 -41.0008 -40.9930
   -40.9910 -40.9910 -40.9907 -40.9824 -40.9701 -40.9700 -40.9700 -40.9699
   -40.9638 -40.9632 -40.9632 -40.9605 -40.9605 -40.9582 -40.9578 -40.9575
   -40.9539 -40.9482 -40.9439 -40.9415 -40.9413 -40.9395 -40.9391 -40.9385
   -40.9347 -40.9335 -40.9297 -40.9219 -40.9219 -40.9091 -40.9040 -40.9037
   -40.8998 -40.8917 -40.8912 -40.8737 -40.8719 -40.8680 -40.8646 -40.8594
   -40.8520 -40.8402 -40.8336 -40.8239 -40.8176 -40.7908 -40.7893 -20.2206
   -20.2194 -20.1072 -20.0906 -19.9888 -19.9506 -19.7853 -19.7852 -19.6682
   -19.6672 -19.5472 -19.5457 -19.1044 -19.0924 -19.0788 -19.0773 -19.0771
   -19.0770 -19.0083 -19.0010 -18.9826 -18.9663 -18.9489 -18.9344 -18.9245
   -18.8787 -18.8735 -18.8704 -18.8525 -18.8302 -18.8299 -18.8297 -18.7703
   -18.7464 -18.7315 -18.7231 -18.7214 -18.7033 -18.6661 -18.6066 -18.6054
   -18.5789 -18.5545 -18.5484 -18.5470 -18.5460 -18.4780 -18.4672 -18.4664
   -18.4663 -18.4662 -18.4634 -18.4410 -18.4338 -18.4264 -18.4169 -18.3894
   -18.3870 -18.3868 -18.3855 -18.3737 -18.3688 -18.3352 -18.3248 -18.3160
   -18.2996 -18.2952 -18.2942 -18.2936 -18.2884 -18.2660 -18.2581 -18.2471
   -18.2464 -18.2460 -18.2184 -18.2062 -18.2033 -18.2033 -18.1939 -18.1860
   -18.1848 -18.1421 -18.1421 -18.1363 -18.1255 -18.1251 -18.1100 -18.0886
   -18.0841 -18.0810 -18.0807 -18.0360 -18.0223 -17.9900 -17.9785 -12.0165
   -12.0051 -11.8990 -11.8141 -11.8128 -11.8125 -11.8101 -11.7917 -11.7871
   -11.7463 -11.7371 -11.7243 -11.7242 -11.7027 -11.6895 -11.6702 -11.6512
   -11.6329 -11.6157 -11.6129 -11.6112 -11.6049 -11.5963 -11.5963 -11.5876
   -11.5480 -11.5477 -11.5384 -11.5116 -11.4886 -11.4864 -11.4863 -11.4838
   -11.4721 -11.3457 -11.3094 -11.3011 -11.3004 -11.2849 -11.2696 -11.2539
   -11.2522 -11.2264 -11.2116 -11.1954 -11.1936 -11.1753 -11.1704 -11.1699
   -11.1690 -11.1659 -11.1509 -11.1474 -11.1206 -11.1200 -11.1082 -11.1048
   -11.1019 -11.1006 -11.0893 -11.0729 -11.0301 -11.0256 -10.9773 -10.8893
   -10.8794 -10.8308 -10.8263 -10.7375 -10.7032 -10.6560 -10.6512 -10.5501
   -10.4858 -10.4608 -10.4583 -10.4514 -10.4480 -10.3700 -10.3619 -10.3530
   -10.3392 -10.2766 -10.2717 -10.2702 -10.2682 -10.2595 -10.2578 -10.2347
   -10.2334 -10.2298 -10.2280 -10.2060 -10.1967 -10.1356 -10.1157 -10.1131
   -10.0846 -10.0834 -10.0776 -10.0723 -10.0567 -10.0513 -10.0447 -10.0419
   -10.0324  -9.9943  -9.9798  -9.9657  -9.9467  -9.9461  -9.9359  -9.9309
    -9.9302  -9.9283  -9.9098  -9.8689  -9.8661  -9.8591  -9.8315  -9.8120
    -9.8046  -9.8029  -9.7828  -9.7369  -9.7318  -9.6429  -9.6274  -9.5835
    -9.5783  -9.5308  -9.5093  -9.4915  -9.4768  -9.4729  -9.4644  -9.4629
    -9.4595  -9.4546  -9.4521  -9.4192  -9.4046  -9.3691  -9.3580  -9.3386
    -9.3346  -9.3332  -9.3145  -9.3090  -9.3006  -9.2865  -9.2820  -9.2718
    -9.2693  -9.2682  -9.2670  -9.2525  -9.2397  -9.2334  -9.2173  -9.2110
    -9.2058  -9.1957  -9.1933  -9.1860  -9.1788  -9.1787  -9.1623  -9.1555
    -9.1445  -9.1367  -9.1301  -9.1263  -9.1055  -9.1019  -9.0954  -9.0942
    -9.0702  -9.0557  -9.0527  -9.0115  -9.0026  -8.9513  -8.8584  -8.8520
    -8.8481  -8.7775  -8.7627  -8.7227  -8.7196  -8.7128  -8.6060  -8.5438
    -8.5327  -8.5326  -8.4586  -8.4578  -8.4180  -8.3990  -8.3674  -8.3110
    -8.2744  -8.2738  -8.2624  -8.2349  -8.2007  -8.2001  -8.1932  -8.1859
    -8.1859  -8.1847  -8.1828  -8.1787  -8.1734  -8.1651  -8.1392  -8.1390
    -8.1388  -8.1375  -8.1134  -8.1132  -8.0973  -8.0939  -8.0928  -8.0927
    -8.0655  -8.0647  -8.0622  -8.0611  -8.0389  -8.0336  -8.0215  -8.0190
    -8.0161  -8.0144  -8.0034  -8.0007  -8.0005  -7.9858  -7.9695  -7.9683
    -7.9636  -7.9526  -7.9389  -7.9304  -7.9277  -7.9272  -7.9165  -7.8948
    -7.8877  -7.8764  -7.8746  -7.8464  -7.8199  -7.8106  -7.7645  -7.7598
    -7.6887  -7.6683  -7.6004  -7.5892  -7.5783  -7.5743  -7.5724  -7.5542
    -7.5213  -7.4862  -7.4471  -7.4425  -7.4318  -7.4316  -7.3649  -7.3506
    -7.3492  -7.3491  -7.3119  -7.2795  -7.2718  -7.2717  -7.2569  -7.2521
    -7.2470  -7.2301  -7.1876  -7.1670  -7.1651  -7.1199  -7.1096  -7.0885
    -7.0534  -7.0420  -6.9984  -6.9977  -6.9977  -6.9976  -6.9924  -6.9738
    -6.9738  -6.9285  -6.9272  -6.9264  -6.9242  -6.9134  -6.9044  -6.8351
    -6.8301  -6.8212  -6.8191  -6.8090  -6.7593  -6.7445  -6.6783  -6.6660
    -6.6659  -6.6658  -6.6652  -6.6104  -6.5990  -6.5892  -6.5841  -6.5831
    -6.5827  -6.5755  -6.5451  -6.5051  -6.4950  -6.4931  -6.4789  -6.4698
    -6.4680  -6.4519  -6.3175  -6.3174  -6.2393  -6.2393  -6.1515  -6.1442
    -6.1021  -6.0643  -5.9120  -5.8820  -5.4775  -5.4775  -5.4045  -5.3750
    -5.3562  -5.3558  -4.3511  -4.3503  -4.3439  -4.3378  -4.2330  -4.2330
    -4.2077  -4.2011  -4.1659  -4.1658  -4.0934  -4.0932  -4.0771  -4.0758
    -4.0630  -4.0556  -4.0003  -3.9794  -3.9325  -3.9317  -3.9300  -3.9294
    -3.9182  -3.9180  -3.8670  -3.8655  -3.8543  -3.8372  -3.8346  -3.8308
    -3.8111  -3.8104  -3.8042  -3.7989  -3.7941  -3.7917  -3.7906  -3.7700
    -3.7356  -3.7149  -3.6850  -3.6849  -3.6838  -3.6801  -3.6697  -3.6651
    -3.6549  -3.6544  -3.6440  -3.6429  -3.6084  -3.6083  -3.6080  -3.6076
    -3.5984  -3.5818  -3.5714  -3.5679  -3.5668  -3.5640  -3.5314  -3.5298
    -3.5289  -3.5261  -3.5224  -3.5146  -3.4935  -3.4710  -3.4366  -3.4347
    -3.4218  -3.4191  -3.4097  -3.4046  -3.4037  -3.4009  -3.3642  -3.3632
    -3.3455  -3.3452  -3.3449  -3.3448  -3.3435  -3.3242  -3.3041  -3.2977
    -3.2953  -3.2949  -3.2644  -3.2567  -3.2464  -3.2451  -3.2426  -3.2411
    -3.2182  -3.2015  -3.1964  -3.1885  -3.1861  -3.1761  -3.1758  -3.1541
    -3.1362  -3.1320  -3.1276  -3.1253  -3.1132  -3.1112  -3.0612  -3.0596
    -3.0235  -3.0065  -2.9814  -2.9810  -2.9581  -2.9580  -2.9498  -2.9495
    -2.8955  -2.8936  -2.8281  -2.8222  -2.8029  -2.7985  -2.7898  -2.7783
    -2.6678  -2.6289  -2.6129

          k =-0.5000-0.8660 0.0000 (321564 PWs)   bands (ev):

  -101.6388 -89.7777 -70.1387 -70.1148 -70.1147 -70.0312 -70.0312 -69.8493
   -69.8489 -67.0212 -67.0212 -67.0107 -67.0107 -66.9957 -66.9957 -66.9957
   -66.9957 -66.9913 -66.9913 -66.9851 -66.9851 -66.9851 -66.9851 -66.9807
   -66.9807 -66.9534 -66.9529 -66.9426 -66.9425 -66.9279 -66.9278 -66.9275
   -66.9274 -66.9235 -66.9230 -66.9173 -66.9173 -66.9172 -66.9163 -66.9126
   -66.9126 -66.8856 -66.8561 -66.8506 -66.8424 -66.8377 -66.8298 -66.8295
   -66.8251 -66.8248 -66.8209 -66.8191 -66.8167 -66.8164 -66.8129 -66.8115
   -66.8079 -56.2990 -55.6409 -55.5853 -55.5853 -55.4129 -55.4128 -41.3223
   -41.3223 -41.3223 -41.3223 -41.2957 -41.2957 -41.2837 -41.2837 -41.2531
   -41.2531 -41.2530 -41.2524 -41.2333 -41.2333 -41.2333 -41.2333 -41.2265
   -41.2261 -41.2144 -41.2143 -41.1754 -41.1754 -41.1654 -41.1654 -41.1641
   -41.1640 -41.1640 -41.1640 -41.1568 -41.1547 -41.1547 -41.1535 -41.1503
   -41.1488 -41.1285 -41.1253 -41.1253 -41.1253 -41.1253 -41.1250 -41.1166
   -41.1166 -41.1128 -41.1124 -41.1083 -41.1079 -41.1044 -41.1044 -41.1044
   -41.1044 -41.1044 -41.1043 -41.0962 -41.0962 -41.0957 -41.0957 -41.0874
   -41.0874 -41.0736 -41.0736 -41.0736 -41.0736 -41.0660 -41.0653 -41.0630
   -41.0619 -41.0582 -41.0582 -41.0579 -41.0577 -41.0564 -41.0496 -41.0491
   -41.0391 -41.0391 -41.0391 -41.0391 -41.0374 -41.0374 -41.0373 -41.0365
   -41.0352 -41.0352 -41.0285 -41.0285 -41.0271 -41.0270 -41.0136 -41.0079
   -41.0079 -41.0048 -41.0047 -41.0044 -41.0044 -41.0040 -41.0008 -40.9930
   -40.9910 -40.9910 -40.9907 -40.9824 -40.9701 -40.9700 -40.9700 -40.9699
   -40.9638 -40.9632 -40.9632 -40.9605 -40.9605 -40.9582 -40.9577 -40.9575
   -40.9539 -40.9482 -40.9439 -40.9415 -40.9413 -40.9395 -40.9391 -40.9385
   -40.9347 -40.9335 -40.9297 -40.9219 -40.9219 -40.9091 -40.9041 -40.9037
   -40.8997 -40.8917 -40.8912 -40.8737 -40.8719 -40.8680 -40.8646 -40.8594
   -40.8520 -40.8402 -40.8336 -40.8239 -40.8176 -40.7908 -40.7893 -20.2206
   -20.2194 -20.1072 -20.0906 -19.9888 -19.9506 -19.7853 -19.7852 -19.6682
   -19.6672 -19.5472 -19.5457 -19.1044 -19.0924 -19.0788 -19.0773 -19.0771
   -19.0770 -19.0083 -19.0010 -18.9826 -18.9663 -18.9489 -18.9344 -18.9245
   -18.8787 -18.8735 -18.8704 -18.8525 -18.8302 -18.8299 -18.8297 -18.7703
   -18.7464 -18.7315 -18.7231 -18.7214 -18.7033 -18.6661 -18.6066 -18.6054
   -18.5789 -18.5545 -18.5484 -18.5470 -18.5460 -18.4781 -18.4672 -18.4664
   -18.4663 -18.4662 -18.4634 -18.4410 -18.4338 -18.4264 -18.4169 -18.3894
   -18.3870 -18.3868 -18.3855 -18.3737 -18.3688 -18.3352 -18.3248 -18.3160
   -18.2996 -18.2952 -18.2942 -18.2936 -18.2884 -18.2660 -18.2581 -18.2471
   -18.2464 -18.2460 -18.2184 -18.2062 -18.2033 -18.2033 -18.1939 -18.1860
   -18.1848 -18.1421 -18.1421 -18.1363 -18.1255 -18.1251 -18.1100 -18.0886
   -18.0841 -18.0810 -18.0807 -18.0360 -18.0223 -17.9900 -17.9785 -12.0165
   -12.0051 -11.8990 -11.8141 -11.8128 -11.8125 -11.8101 -11.7917 -11.7871
   -11.7463 -11.7371 -11.7243 -11.7242 -11.7027 -11.6895 -11.6702 -11.6512
   -11.6329 -11.6157 -11.6129 -11.6112 -11.6049 -11.5963 -11.5963 -11.5876
   -11.5480 -11.5477 -11.5384 -11.5116 -11.4886 -11.4864 -11.4863 -11.4838
   -11.4721 -11.3457 -11.3094 -11.3011 -11.3004 -11.2849 -11.2696 -11.2539
   -11.2522 -11.2264 -11.2116 -11.1954 -11.1936 -11.1753 -11.1704 -11.1699
   -11.1690 -11.1659 -11.1509 -11.1474 -11.1206 -11.1200 -11.1082 -11.1048
   -11.1019 -11.1006 -11.0893 -11.0729 -11.0301 -11.0256 -10.9773 -10.8893
   -10.8794 -10.8308 -10.8263 -10.7375 -10.7032 -10.6560 -10.6512 -10.5501
   -10.4858 -10.4608 -10.4583 -10.4514 -10.4480 -10.3700 -10.3619 -10.3530
   -10.3392 -10.2766 -10.2717 -10.2702 -10.2682 -10.2595 -10.2578 -10.2347
   -10.2334 -10.2298 -10.2280 -10.2060 -10.1967 -10.1356 -10.1157 -10.1131
   -10.0846 -10.0834 -10.0776 -10.0723 -10.0567 -10.0513 -10.0447 -10.0419
   -10.0324  -9.9943  -9.9798  -9.9657  -9.9467  -9.9461  -9.9359  -9.9309
    -9.9302  -9.9283  -9.9098  -9.8689  -9.8661  -9.8591  -9.8315  -9.8119
    -9.8046  -9.8029  -9.7828  -9.7369  -9.7318  -9.6429  -9.6274  -9.5835
    -9.5783  -9.5308  -9.5093  -9.4916  -9.4768  -9.4729  -9.4644  -9.4629
    -9.4595  -9.4546  -9.4521  -9.4192  -9.4046  -9.3691  -9.3580  -9.3386
    -9.3346  -9.3332  -9.3145  -9.3090  -9.3006  -9.2865  -9.2820  -9.2718
    -9.2693  -9.2682  -9.2670  -9.2525  -9.2397  -9.2334  -9.2173  -9.2110
    -9.2058  -9.1956  -9.1933  -9.1860  -9.1787  -9.1787  -9.1624  -9.1555
    -9.1445  -9.1367  -9.1301  -9.1263  -9.1055  -9.1019  -9.0954  -9.0942
    -9.0702  -9.0557  -9.0527  -9.0115  -9.0026  -8.9513  -8.8584  -8.8520
    -8.8481  -8.7775  -8.7627  -8.7227  -8.7196  -8.7128  -8.6060  -8.5438
    -8.5327  -8.5326  -8.4586  -8.4578  -8.4180  -8.3990  -8.3674  -8.3110
    -8.2744  -8.2738  -8.2623  -8.2350  -8.2007  -8.2001  -8.1932  -8.1859
    -8.1859  -8.1847  -8.1828  -8.1787  -8.1734  -8.1651  -8.1392  -8.1391
    -8.1388  -8.1375  -8.1135  -8.1132  -8.0973  -8.0939  -8.0928  -8.0927
    -8.0655  -8.0647  -8.0622  -8.0611  -8.0389  -8.0336  -8.0215  -8.0190
    -8.0161  -8.0144  -8.0034  -8.0007  -8.0005  -7.9858  -7.9695  -7.9683
    -7.9636  -7.9526  -7.9389  -7.9304  -7.9277  -7.9272  -7.9165  -7.8948
    -7.8877  -7.8763  -7.8746  -7.8464  -7.8199  -7.8106  -7.7645  -7.7598
    -7.6887  -7.6684  -7.6004  -7.5892  -7.5783  -7.5743  -7.5724  -7.5542
    -7.5213  -7.4862  -7.4471  -7.4425  -7.4318  -7.4317  -7.3649  -7.3506
    -7.3492  -7.3491  -7.3119  -7.2795  -7.2718  -7.2717  -7.2569  -7.2521
    -7.2470  -7.2301  -7.1876  -7.1670  -7.1651  -7.1199  -7.1096  -7.0884
    -7.0534  -7.0420  -6.9984  -6.9977  -6.9977  -6.9975  -6.9924  -6.9738
    -6.9738  -6.9285  -6.9272  -6.9264  -6.9242  -6.9134  -6.9044  -6.8351
    -6.8301  -6.8212  -6.8191  -6.8090  -6.7593  -6.7445  -6.6783  -6.6660
    -6.6659  -6.6659  -6.6652  -6.6104  -6.5990  -6.5892  -6.5841  -6.5831
    -6.5827  -6.5755  -6.5451  -6.5051  -6.4950  -6.4931  -6.4789  -6.4699
    -6.4679  -6.4519  -6.3175  -6.3174  -6.2393  -6.2393  -6.1515  -6.1442
    -6.1021  -6.0643  -5.9120  -5.8820  -5.4775  -5.4775  -5.4045  -5.3750
    -5.3562  -5.3558  -4.3511  -4.3502  -4.3439  -4.3377  -4.2330  -4.2330
    -4.2078  -4.2010  -4.1659  -4.1658  -4.0934  -4.0932  -4.0770  -4.0758
    -4.0631  -4.0556  -4.0004  -3.9796  -3.9325  -3.9317  -3.9300  -3.9294
    -3.9182  -3.9180  -3.8670  -3.8656  -3.8542  -3.8372  -3.8345  -3.8308
    -3.8111  -3.8103  -3.8039  -3.7988  -3.7940  -3.7916  -3.7906  -3.7696
    -3.7356  -3.7149  -3.6850  -3.6849  -3.6838  -3.6801  -3.6697  -3.6651
    -3.6549  -3.6544  -3.6440  -3.6429  -3.6084  -3.6083  -3.6080  -3.6075
    -3.5983  -3.5817  -3.5713  -3.5675  -3.5663  -3.5642  -3.5316  -3.5299
    -3.5289  -3.5260  -3.5222  -3.5146  -3.4935  -3.4710  -3.4366  -3.4347
    -3.4218  -3.4191  -3.4096  -3.4046  -3.4037  -3.4009  -3.3642  -3.3632
    -3.3455  -3.3453  -3.3449  -3.3448  -3.3433  -3.3240  -3.3039  -3.2976
    -3.2953  -3.2949  -3.2644  -3.2567  -3.2461  -3.2450  -3.2427  -3.2411
    -3.2181  -3.2012  -3.1961  -3.1884  -3.1860  -3.1761  -3.1755  -3.1542
    -3.1352  -3.1313  -3.1258  -3.1246  -3.1134  -3.1113  -3.0596  -3.0570
    -3.0169  -3.0033  -2.9813  -2.9809  -2.9580  -2.9574  -2.9495  -2.9490
    -2.8954  -2.8936  -2.8279  -2.8222  -2.8029  -2.7983  -2.7897  -2.7782
    -2.6662  -2.6274  -2.6182

     the Fermi energy is    -5.3007 ev

!    total energy              =  -26031.66761397 Ry
     total all-electron energy =   -512284.237242 Ry
     estimated scf accuracy    <       0.00000024 Ry
     smearing contrib. (-TS)   =      -0.01911590 Ry
     internal energy E=F+TS    =  -26031.64849807 Ry

     The total energy is F=E-TS. E is the sum of the following terms:
     one-electron contribution =  500712.28482890 Ry
     hartree contribution      = -250512.36214992 Ry
     xc contribution           =   -1534.09272042 Ry
     ewald contribution        = -258504.62768661 Ry
     DFT-D3 Dispersion         =      -3.99559198 Ry
     one-center paw contrib.   =  -16188.85517804 Ry

     convergence has been achieved in  30 iterations

     negative rho (up, down):  7.939E-04 0.000E+00

     Forces acting on atoms (cartesian axes, Ry/au):

     atom    1 type  1   force =     0.00306488    0.00034613   -0.00133466
     atom    2 type  1   force =    -0.00000568   -0.00000278    0.00190953
     atom    3 type  1   force =     0.00000035   -0.00004735    0.00006349
     atom    4 type  2   force =     0.00000035    0.00000080   -0.00324517
     atom    5 type  2   force =     0.00000519    0.00000196    0.00006354
     atom    6 type  2   force =     0.00005374   -0.00005799    0.00034954
     atom    7 type  2   force =     0.00000268   -0.00000132    0.00142977
     atom    8 type  2   force =    -0.00000573    0.00000503   -0.00006002
     atom    9 type  2   force =    -0.00110123   -0.00028908    0.00083059
     atom   10 type  1   force =     0.00183341    0.00248462   -0.00132825
     atom   11 type  1   force =    -0.00000876   -0.00000400    0.00190845
     atom   12 type  1   force =    -0.00003206    0.00002590    0.00006399
     atom   13 type  2   force =    -0.00000126   -0.00000006   -0.00324333
     atom   14 type  2   force =    -0.00002434   -0.00001445    0.00007078
     atom   15 type  2   force =    -0.00002006    0.00007692    0.00035056
     atom   16 type  2   force =    -0.00000031    0.00000001    0.00144834
     atom   17 type  2   force =    -0.00004790   -0.00002796   -0.00006707
     atom   18 type  2   force =    -0.00079768   -0.00080828    0.00082577
     atom   19 type  1   force =    -0.00020537    0.00011735   -0.00164626
     atom   20 type  1   force =    -0.00000096    0.00000268    0.00191194
     atom   21 type  1   force =     0.00000572    0.00003517    0.00004938
     atom   22 type  2   force =     0.00000068   -0.00000006   -0.00324627
     atom   23 type  2   force =     0.00000702    0.00000407    0.00006386
     atom   24 type  2   force =     0.00000013   -0.00012553    0.00036168
     atom   25 type  2   force =     0.00000128    0.00000271    0.00142892
     atom   26 type  2   force =     0.00000343   -0.00000523   -0.00006079
     atom   27 type  2   force =     0.00000178    0.00026979    0.00055351
     atom   28 type  1   force =    -0.00000265   -0.00024268   -0.00164120
     atom   29 type  1   force =     0.00000034    0.00000170    0.00191259
     atom   30 type  1   force =     0.00002875   -0.00001303    0.00004801
     atom   31 type  2   force =     0.00000142    0.00000213   -0.00324470
     atom   32 type  2   force =    -0.00000027    0.00000171    0.00005301
     atom   33 type  2   force =    -0.00011140    0.00006270    0.00036318
     atom   34 type  2   force =    -0.00000084    0.00000132    0.00144016
     atom   35 type  2   force =     0.00000079    0.00000094   -0.00010804
     atom   36 type  2   force =     0.00023399   -0.00013352    0.00055637
     atom   37 type  1   force =    -0.00307136    0.00034079   -0.00133204
     atom   38 type  1   force =    -0.00000252   -0.00000722    0.00191028
     atom   39 type  1   force =    -0.00000885   -0.00000253   -0.00008866
     atom   40 type  2   force =    -0.00000090   -0.00000021   -0.00324214
     atom   41 type  2   force =    -0.00001096    0.00000104    0.00006411
     atom   42 type  2   force =    -0.00000073    0.00078238    0.00029689
     atom   43 type  2   force =    -0.00000159    0.00000246    0.00143746
     atom   44 type  2   force =    -0.00000109    0.00000402   -0.00006017
     atom   45 type  2   force =    -0.00000179   -0.00102318    0.00151042
     atom   46 type  1   force =    -0.00000496    0.00000820    0.01182882
     atom   47 type  1   force =    -0.00000542   -0.00000434    0.00190506
     atom   48 type  1   force =     0.00001789    0.00001746    0.00003863
     atom   49 type  2   force =    -0.00000202   -0.00000279   -0.00324756
     atom   50 type  2   force =    -0.00000514   -0.00000064    0.00007078
     atom   51 type  2   force =     0.00014045    0.00008259   -0.00175388
     atom   52 type  2   force =    -0.00000281    0.00000421    0.00144152
     atom   53 type  2   force =    -0.00000587   -0.00005082   -0.00018733
     atom   54 type  2   force =    -0.00095041   -0.00054754   -0.00703565
     atom   55 type  1   force =    -0.00123027   -0.00282439   -0.00132937
     atom   56 type  1   force =    -0.00000745    0.00000012    0.00190734
     atom   57 type  1   force =     0.00000463   -0.00000613   -0.00008239
     atom   58 type  2   force =    -0.00000358   -0.00000039   -0.00324623
     atom   59 type  2   force =    -0.00000210   -0.00000202    0.00007234
     atom   60 type  2   force =     0.00067954   -0.00039103    0.00029965
     atom   61 type  2   force =     0.00000156   -0.00000411    0.00143917
     atom   62 type  2   force =    -0.00004648    0.00002375   -0.00018813
     atom   63 type  2   force =    -0.00088381    0.00051090    0.00150909
     atom   64 type  1   force =    -0.00031147   -0.00019112   -0.00073257
     atom   65 type  1   force =    -0.00000352    0.00000048    0.00191143
     atom   66 type  1   force =    -0.00002860   -0.00001904    0.00005035
     atom   67 type  2   force =    -0.00000115    0.00000068   -0.00324228
     atom   68 type  2   force =    -0.00000194   -0.00000869    0.00006521
     atom   69 type  2   force =     0.00011106    0.00006321    0.00036743
     atom   70 type  2   force =     0.00000259   -0.00000137    0.00143680
     atom   71 type  2   force =     0.00000578   -0.00000145   -0.00006318
     atom   72 type  2   force =    -0.00023507   -0.00013530    0.00055897
     atom   73 type  1   force =    -0.00025832    0.00014593   -0.00040425
     atom   74 type  1   force =     0.00000508    0.00000054    0.00191016
     atom   75 type  1   force =    -0.00000159   -0.00005502    0.00006178
     atom   76 type  2   force =    -0.00000091   -0.00000015   -0.00324760
     atom   77 type  2   force =     0.00005396    0.00002702    0.00009207
     atom   78 type  2   force =    -0.00005331   -0.00005857    0.00034981
     atom   79 type  2   force =    -0.00000290   -0.00000138    0.00143127
     atom   80 type  2   force =    -0.00006006   -0.00003909   -0.00006808
     atom   81 type  2   force =     0.00110062   -0.00028820    0.00083208
     atom   82 type  1   force =    -0.00183494    0.00248894   -0.00132799
     atom   83 type  1   force =     0.00000762   -0.00000888    0.00190818
     atom   84 type  1   force =    -0.00002680    0.00001899    0.00003845
     atom   85 type  2   force =    -0.00000014   -0.00000263   -0.00324888
     atom   86 type  2   force =     0.00002359   -0.00001437    0.00006985
     atom   87 type  2   force =    -0.00014591    0.00008362   -0.00175514
     atom   88 type  2   force =     0.00000003    0.00000404    0.00144272
     atom   89 type  2   force =     0.00004775   -0.00002758   -0.00006479
     atom   90 type  2   force =     0.00094511   -0.00054643   -0.00703325
     atom   91 type  1   force =     0.00122353   -0.00282289   -0.00133092
     atom   92 type  1   force =     0.00000035    0.00000373    0.00190302
     atom   93 type  1   force =    -0.00000350   -0.00002510    0.00003885
     atom   94 type  2   force =    -0.00000150   -0.00000043   -0.00325693
     atom   95 type  2   force =    -0.00000314    0.00000146    0.00007113
     atom   96 type  2   force =    -0.00000176   -0.00016068   -0.00175110
     atom   97 type  2   force =    -0.00000213   -0.00000028    0.00144191
     atom   98 type  2   force =     0.00004146    0.00002832   -0.00018723
     atom   99 type  2   force =    -0.00000249    0.00109534   -0.00703713
     atom  100 type  1   force =     0.00000010   -0.00031278   -0.00040502
     atom  101 type  1   force =    -0.00000073    0.00001364    0.00191005
     atom  102 type  1   force =    -0.00003613    0.00001631    0.00006504
     atom  103 type  2   force =    -0.00000239    0.00000229   -0.00324814
     atom  104 type  2   force =    -0.00000026    0.00002786    0.00007356
     atom  105 type  2   force =    -0.00007484   -0.00002200    0.00035315
     atom  106 type  2   force =     0.00000332   -0.00000109    0.00144221
     atom  107 type  2   force =    -0.00000015    0.00005647   -0.00006802
     atom  108 type  2   force =     0.00030220    0.00109364    0.00082662
     atom  109 type  1   force =     0.00026261    0.00015047   -0.00040778
     atom  110 type  1   force =     0.00000221    0.00000260    0.00191152
     atom  111 type  1   force =     0.00000977   -0.00001024    0.00024873
     atom  112 type  2   force =     0.00000054    0.00000273   -0.00324305
     atom  113 type  2   force =    -0.00005162    0.00002999    0.00009423
     atom  114 type  2   force =     0.00000005   -0.00000275    0.00008589
     atom  115 type  2   force =     0.00000032    0.00000125    0.00145042
[...]
     atom   70 type  2   force =     0.00000463   -0.00000264    0.00148158
     atom   71 type  2   force =    -0.00000252   -0.00001443   -0.00001436
     atom   72 type  2   force =     0.00002957    0.00001716   -0.00020671
     atom   73 type  1   force =     0.00009239   -0.00005336   -0.00003855
     atom   74 type  1   force =     0.00000021    0.00000017    0.00189164
     atom   75 type  1   force =    -0.00000508    0.00001845   -0.00003241
     atom   76 type  2   force =    -0.00000001   -0.00000027   -0.00329015
     atom   77 type  2   force =    -0.00000110   -0.00000120   -0.00000467
     atom   78 type  2   force =    -0.00013986    0.00020310    0.00004773
     atom   79 type  2   force =     0.00000458    0.00000296    0.00146902
     atom   80 type  2   force =     0.00000054    0.00000045    0.00000198
     atom   81 type  2   force =     0.00008953   -0.00001539   -0.00011690
     atom   82 type  1   force =    -0.00000053   -0.00012789    0.00010275
     atom   83 type  1   force =     0.00000062   -0.00000061    0.00189140
     atom   84 type  1   force =    -0.00000535    0.00000267   -0.00004656
     atom   85 type  2   force =    -0.00000001   -0.00000038   -0.00328972
     atom   86 type  2   force =     0.00000712   -0.00000409   -0.00000096
     atom   87 type  2   force =    -0.00033655    0.00019415    0.00002945
     atom   88 type  2   force =     0.00000149    0.00000827    0.00148107
     atom   89 type  2   force =    -0.00001276    0.00000721   -0.00003992
     atom   90 type  2   force =     0.00033451   -0.00019273    0.00000815
     atom   91 type  1   force =    -0.00011121    0.00006387    0.00010378
     atom   92 type  1   force =    -0.00000613   -0.00000350    0.00189079
     atom   93 type  1   force =     0.00000123   -0.00000841   -0.00004605
     atom   94 type  2   force =     0.00000028   -0.00000013   -0.00329305
     atom   95 type  2   force =    -0.00000359   -0.00000217   -0.00003182
     atom   96 type  2   force =    -0.00000036   -0.00038858    0.00002860
     atom   97 type  2   force =    -0.00000022    0.00000016    0.00146459
     atom   98 type  2   force =    -0.00000551   -0.00000293   -0.00003361
     atom   99 type  2   force =    -0.00000003    0.00038522    0.00000816
     atom  100 type  1   force =    -0.00000032    0.00010595   -0.00003785
     atom  101 type  1   force =    -0.00000016    0.00000098    0.00189141
     atom  102 type  1   force =     0.00000970   -0.00001012   -0.00003649
     atom  103 type  2   force =    -0.00000010   -0.00000023   -0.00328973
     atom  104 type  2   force =    -0.00000015    0.00000857   -0.00000083
     atom  105 type  2   force =     0.00010586   -0.00022258    0.00004785
     atom  106 type  2   force =     0.00000761   -0.00000242    0.00148101
     atom  107 type  2   force =     0.00000015   -0.00001491   -0.00003867
     atom  108 type  2   force =     0.00003145    0.00008536   -0.00011777
     atom  109 type  1   force =    -0.00009179   -0.00005284   -0.00003893
     atom  110 type  1   force =    -0.00000081    0.00000017    0.00189160
     atom  111 type  1   force =    -0.00000017    0.00000042   -0.00003429
     atom  112 type  2   force =     0.00000023   -0.00000022   -0.00328915
     atom  113 type  2   force =     0.00000068   -0.00000068   -0.00000481
     atom  114 type  2   force =     0.00000004    0.00000051   -0.00011681
     atom  115 type  2   force =    -0.00000027   -0.00000011    0.00149035
     atom  116 type  2   force =    -0.00000134    0.00000089    0.00000266
     atom  117 type  2   force =     0.00000001    0.00000021   -0.00006466
     atom  118 type  1   force =     0.00000046   -0.00000354   -0.00010594
     atom  119 type  1   force =    -0.00000033   -0.00000065    0.00189165
     atom  120 type  1   force =    -0.00001767   -0.00000335   -0.00003458
     atom  121 type  2   force =     0.00000019   -0.00000008   -0.00328915
     atom  122 type  2   force =    -0.00000007    0.00000154   -0.00000409
     atom  123 type  2   force =    -0.00024500    0.00001947    0.00004728
     atom  124 type  2   force =    -0.00000050    0.00000032    0.00149046
     atom  125 type  2   force =    -0.00000019   -0.00000088    0.00000188
     atom  126 type  2   force =     0.00005769   -0.00006998   -0.00011696
     atom  127 type  1   force =    -0.00004570   -0.00002630   -0.00009704
     atom  128 type  1   force =     0.00000099   -0.00000338    0.00189597
     atom  129 type  1   force =    -0.00001211   -0.00000970    0.00000643
     atom  130 type  2   force =     0.00000036    0.00000024   -0.00328972
     atom  131 type  2   force =    -0.00000986   -0.00001108   -0.00000878
     atom  132 type  2   force =    -0.00042608   -0.00024610    0.00020847
     atom  133 type  2   force =    -0.00000638   -0.00000534    0.00148110
     atom  134 type  2   force =    -0.00001085    0.00000939   -0.00001472
     atom  135 type  2   force =    -0.00003290   -0.00001914    0.00007244
     atom  136 type  1   force =    -0.00000268    0.00000186   -0.00010738
     atom  137 type  1   force =    -0.00000241    0.00000272    0.00189597
     atom  138 type  1   force =    -0.00000943   -0.00001413   -0.00003540
     atom  139 type  2   force =     0.00000063   -0.00000024   -0.00328973
     atom  140 type  2   force =    -0.00001447   -0.00000310   -0.00000860
     atom  141 type  2   force =    -0.00010561   -0.00022218    0.00004756
     atom  142 type  2   force =    -0.00000804   -0.00000245    0.00148100
     atom  143 type  2   force =     0.00000247   -0.00001478   -0.00001463
     atom  144 type  2   force =    -0.00003178    0.00008546   -0.00011749
     atom  145 type  3   force =     0.00000196   -0.00000026   -0.00053739
     atom  146 type  4   force =     0.00000050   -0.00000034    0.00084356

     Total force =     0.002017     Total SCF correction =     0.000885
     SCF correction compared to forces is large: reduce conv_thr to get better values
     Energy error            =      6.8E-06 Ry
     Gradient error          =      8.4E-04 Ry/Bohr

     bfgs converged in  11 scf cycles and  10 bfgs steps
     (criteria: energy <  1.0E-04 Ry, force <  1.0E-03 Ry/Bohr)

     End of BFGS Geometry Optimization

     Final energy             =  -26031.6692403494 Ry

     File ./outdir/pwscf.bfgs deleted, as requested
Begin final coordinates

ATOMIC_POSITIONS (angstrom)
Mo               1.5749519705        2.7177219181        6.0826394975
Mo               1.5769197498        0.9104407117       -6.0872367793    0   0   0
Mo               0.0001787880        1.8210501862       -0.0004249234
S                0.0000044503        0.0000077495       -7.6506323570    0   0   0
S                1.5763803551        0.9107613768       -1.5669423585
S                0.0031504371        1.8224059263        4.5061608066
S                0.0000053241        0.0000068460       -4.5222282367    0   0   0
S                1.5774320162        0.9101046394        1.5653688405
S               -0.0105287630        1.8092405098        7.6456968729
Mo              -0.0127415329        5.4676887120        6.0826423573
Mo               0.0000011799        3.6417399547       -6.0872367793    0   0   0
Mo              -1.5766780949        4.5522514769       -0.0004233937
S               -1.5769141197        2.7313069925       -7.6506323570    0   0   0
S               -0.0000224929        3.6417347662       -1.5658856087
S               -1.5740081781        4.5541261589        4.5061623881
S               -1.5769132459        2.7313060890       -4.5222282367    0   0   0
S                0.0012246962        3.6424537341        1.5672952374
S               -1.5922530044        4.5488613605        7.6456974528
Mo              -1.5790930932        8.1951326470        6.0739067562
Mo              -1.5769173901        6.3730391977       -6.0872367793    0   0   0
Mo              -3.1538578689        7.2833733048       -0.0019876038
S               -3.1538326896        5.4626062355       -7.6506323570    0   0   0
S               -1.5769135639        6.3724287126       -1.5669388955
S               -3.1538543771        7.2850725121        4.5065663825
S               -3.1538318159        5.4626053320       -4.5222282367    0   0   0
S               -1.5769582546        6.3736662829        1.5653703473
S               -3.1538546397        7.2834198363        7.6421740159
Mo               3.1538164469       -0.0024976352        6.0739061166
Mo              -3.1538359601        9.1043384407       -6.0872367793    0   0   0
Mo              -4.7308607799       10.0148142619       -0.0019881094
S               -4.7307512596        8.1939054785       -7.6506323570    0   0   0
S               -3.1538620456        9.1043320962       -1.5673383306
S               -4.7293733589       10.0139456921        4.5065661093
S               -4.7307503859        8.1939045750       -4.5222282367    0   0   0
S               -3.1538640694        9.1043322212        1.5646176396
S               -4.7308037190       10.0147719033        7.6421732011
Mo               4.7326742589        2.7177200012        6.0826359435
Mo               4.7307503218        0.9104407117       -6.0872367793    0   0   0
Mo               3.1538007341        1.8208647561       -0.0019565788
S                3.1538350223        0.0000077495       -7.6506323570    0   0   0
S                4.7312278600        0.9107583513       -1.5669399245
S                3.1538131324        1.8199325316        4.5101117964
S                3.1538358961        0.0000068460       -4.5222282367    0   0   0
S                4.7301759551        0.9101055432        1.5653670300
S                3.1538146418        1.8098306195        7.6503337797
Mo               3.1538087858        5.4625913575        6.1579895045
Mo               3.1538317519        3.6417399547       -6.0872367793    0   0   0
Mo               1.5771898053        4.5523422648       -0.0010814541
S                1.5769164523        2.7313069925       -7.6506323570    0   0   0
S                3.1538017758        3.6419478428       -1.5668656786
S                1.6010331250        4.5660919820        4.5571990765
S                1.5769173261        2.7313060890       -4.5222282367    0   0   0
S                3.1538019657        3.6413519508        1.5658321213
S                1.4877035782        4.5006589678        7.6937755743
Mo               1.5661105907        8.2023600510        6.0826353332
Mo               1.5769131819        6.3730391977       -6.0872367793    0   0   0
Mo              -0.0000305162        7.2834646505       -0.0019519449
S               -0.0000021176        5.4626062355       -7.6506323570    0   0   0
S                1.5770702764        6.3729256833       -1.5668639064
S               -0.0008240637        7.2839164120        4.5101118559
S               -0.0000012439        5.4626053320       -4.5222282367    0   0   0
S                1.5765569867        6.3732209005        1.5658335318
S               -0.0095706849        7.2889700350        7.6503357966
Mo               6.3077747635        0.0000660559        6.0699162306
Mo              -0.0000053881        9.1043384407       -6.0872367793    0   0   0
Mo              -1.5768671779       10.0148098287       -0.0019856954
S               -1.5769206876        8.1939054785       -7.6506323570    0   0   0
S                0.0005049339        9.1046065190       -1.5669380035
S               -1.5783397471       10.0139467000        4.5065644634
S               -1.5769198139        8.1939045750       -4.5222282367    0   0   0
S               -0.0005889673        9.1040244006        1.5653712281
S               -1.5769091502       10.0147733208        7.6421713767
Mo               7.8844911665        2.7313298048        6.0716961434
Mo               7.8845808939        0.9104407117       -6.0872367793    0   0   0
Mo               6.3074324747        1.8210465259       -0.0004272350
S                6.3076655943        0.0000077495       -7.6506323570    0   0   0
S                7.8846662853        0.9104963473       -1.5656334894
S                6.3044776720        1.8224072549        4.5061583269
S                6.3076664681        0.0000068460       -4.5222282367    0   0   0
S                7.8842004705        0.9102296662        1.5663591119
S                6.3181557038        1.8092426184        7.6456955660
Mo               6.3203611202        5.4676883864        6.0826421572
Mo               6.3076623239        3.6417399547       -6.0872367793    0   0   0
Mo               4.7304135926        4.5523428239       -0.0010812599
S                4.7307470244        2.7313069925       -7.6506323570    0   0   0
S                6.3076325522        3.6417343519       -1.5658843840
S                4.7065870845        4.5660932976        4.5571965227
S                4.7307478981        2.7313060890       -4.5222282367    0   0   0
S                6.3063853521        3.6424538521        1.5672916225
S                4.8199078278        4.5006611077        7.6937659086
Mo               4.7414999833        8.2023593319        6.0826388761
Mo               4.7307437539        6.3730391977       -6.0872367793    0   0   0
Mo               3.1537989764        7.2831167806       -0.0010807600
S                3.1538284544        5.4626062355       -7.6506323570    0   0   0
S                4.7305290430        6.3729268432       -1.5668648713
S                3.1538078187        7.2555855725        4.5571962148
S                3.1538293281        5.4626053320       -4.5222282367    0   0   0
S                4.7310476294        6.3732247058        1.5658285448
S                3.1538037317        7.3864455489        7.6937591569
Mo               9.4614774650       -0.0000854218        6.0716961436
Mo               3.1538251839        9.1043384407       -6.0872367793    0   0   0
Mo               1.5769399340       10.0144942381       -0.0004215375
S                1.5769098844        8.1939054785       -7.6506323570    0   0   0
S                3.1537981862        9.1043291126       -1.5658843998
S                1.5766476541       10.0112393913        4.5061585478
S                1.5769107581        8.1939045750       -4.5222282367    0   0   0
S                3.1537991160        9.1028885492        1.5672949132
S                1.5720852438       10.0296668251        7.6456963902
Mo              -1.5768664288        2.7313289264        6.0716972232
Mo              11.0384114659        0.9104407117       -6.0872367793    0   0   0
Mo               9.4614687668        1.8208677550       -0.0002230136
S                9.4614961663        0.0000077495       -7.6506323570    0   0   0
S               11.0382720354        0.9105008335       -1.5656353920
S                9.4614747656        1.8208574231        4.5062697861
S                9.4614970401        0.0000068460       -4.5222282367    0   0   0
S               11.0387374004        0.9102317889        1.5663605171
S                9.4614739296        1.8208571747        7.6396523445
Mo              -3.1538527798        5.4624436418        6.0699182931
Mo               9.4614928959        3.6417399547       -6.0872367793    0   0   0
Mo               7.8842918550        4.5522518277       -0.0004259925
S                7.8845775964        2.7313069925       -7.6506323570    0   0   0
S                9.4614690295        3.6416043568       -1.5656353190
S                7.8816268226        4.5541267884        4.5061620732
S                7.8845784701        2.7313060890       -4.5222282367    0   0   0
S                9.4614674246        3.6421415321        1.5663597707
S                7.8998713398        4.5488607172        7.6456978223
Mo              -4.7286169618        8.1951316263        6.0739062615
Mo               7.8845743259        6.3730391977       -6.0872367793    0   0   0
Mo               6.3076318897        7.2834726415       -0.0019598127
S                6.3076590264        5.4626062355       -7.6506323570    0   0   0
S                7.8845206971        6.3724311097       -1.5669414846
S                6.3084364955        7.2839164087        4.5101125138
S                6.3076599001        5.4626053320       -4.5222282367    0   0   0
S                7.8845585716        6.3736698789        1.5653652193
S                6.3171851186        7.2889689638        7.6503354223
Mo              -0.0001419871        0.0000638722        6.0699195957
Mo               6.3076557559        9.1043384407       -6.0872367793    0   0   0
Mo               4.7306541518       10.0145023093       -0.0004238834
S                4.7307404564        8.1939054785       -7.6506323570    0   0   0
S                6.3070904395        9.1046152578       -1.5669430234
S                4.7309611792       10.0112369218        4.5061608414
S                4.7307413301        8.1939045750       -4.5222282367    0   0   0
S                6.3081845950        9.1040292705        1.5653672720
S                4.7355227827       10.0296664089        7.6456985569
Pd               3.1538195070        5.4626212738        9.0607180672
Pt               3.1541273663        5.4629524186       11.4984021726
End final coordinates



     Writing all to output data dir ./outdir/pwscf.save/ :
     XML data file, charge density, pseudopotentials, collected wavefunctions
 
     init_run     :     96.12s CPU     98.43s WALL (       1 calls)
     electrons    :  57877.02s CPU  58795.08s WALL (      11 calls)
     update_pot   :     13.19s CPU     13.63s WALL (      10 calls)
     forces       :    797.74s CPU    815.34s WALL (      11 calls)
     force_dftd3  :      4.18s CPU      4.37s WALL (      11 calls)

     Called by init_run:
     wfcinit      :     78.00s CPU     79.04s WALL (       1 calls)
     potinit      :      1.12s CPU      1.22s WALL (       1 calls)
     hinit0       :      9.20s CPU      9.27s WALL (       1 calls)

     Called by electrons:
     c_bands      :  49400.54s CPU  49920.32s WALL (     195 calls)
     sum_band     :   7249.57s CPU   7452.30s WALL (     195 calls)
     v_of_rho     :     57.58s CPU     64.38s WALL (     201 calls)
     newd         :   1025.03s CPU   1215.61s WALL (     201 calls)
     PAW_pot      :    161.47s CPU    162.75s WALL (     211 calls)
     mix_rho      :     17.34s CPU     19.41s WALL (     195 calls)
     energy_dftd3 :      2.35s CPU      2.36s WALL (      11 calls)

     Called by c_bands:
     init_us_2    :    268.74s CPU    270.25s WALL (    1648 calls)
     init_us_2:cp :    268.73s CPU    270.24s WALL (    1648 calls)
     cegterg      :  48243.49s CPU  48758.26s WALL (     792 calls)

     Called by *egterg:
     cdiaghg      :   2535.64s CPU   2639.04s WALL (    8927 calls)
     h_psi        :  25475.82s CPU  25650.17s WALL (    8991 calls)
     s_psi        :   5488.23s CPU   5509.98s WALL (    8991 calls)
     g_psi        :     52.10s CPU     52.33s WALL (    8195 calls)

     Called by h_psi:
     h_psi:calbec :   5375.61s CPU   5394.87s WALL (    8991 calls)
     vloc_psi     :  14458.37s CPU  14542.04s WALL (    8991 calls)
     add_vuspsi   :   5521.59s CPU   5546.36s WALL (    8991 calls)

     General routines
     calbec       :   7752.68s CPU   7780.01s WALL (    9987 calls)
     fft          :     50.77s CPU     57.02s WALL (    2727 calls)
     ffts         :      2.55s CPU      2.61s WALL (     396 calls)
     fftw         :  11039.93s CPU  11102.71s WALL ( 3870876 calls)
     interpolate  :      4.75s CPU      5.24s WALL (     201 calls)
 
     Parallel routines
 
     PWSCF        :     16h24m CPU     16h40m WALL

 
   This run was terminated on:  22:41:27  10Mar2024            

=------------------------------------------------------------------------------=
   JOB DONE.
=------------------------------------------------------------------------------=
