
     Program PWSCF v.7.2 starts on  9Dec2023 at 12:39:47 

     This program is part of the open-source Quantum ESPRESSO suite
     for quantum simulation of materials; please cite
         "P. Giannozzi et al., J. Phys.:Condens. Matter 21 395502 (2009);
         "P. Giannozzi et al., J. Phys.:Condens. Matter 29 465901 (2017);
         "P. Giannozzi et al., J. Chem. Phys. 152 154105 (2020);
          URL http://www.quantum-espresso.org", 
     in publications or presentations arising from this work. More details at
     http://www.quantum-espresso.org/quote

     Parallel version (MPI), running on    36 processors

     MPI processes distributed on     1 nodes
     768569 MiB available memory on the printing compute node when the environment starts
 
     Waiting for input...
     Reading input from standard input
Warning: card &CELL ignored
Warning: card / ignored

     Current dimensions of program PWSCF are:
     Max number of different atomic species (ntypx) = 10
     Max number of k-points (npk) =  40000
     Max angular momentum in pseudopotentials (lmaxx) =  4
     file Mo.pbe-spn-kjpaw_psl.1.0.0.UPF: wavefunction(s)  4S 4D renormalized
     file S.pbe-n-kjpaw_psl.1.0.0.UPF: wavefunction(s)  3S 3P renormalized
     file Pd.pbe-spn-kjpaw_psl.1.0.0.UPF: wavefunction(s)  4S 5S 4D renormalized
 
     R & G space division:  proc/nbgrp/npool/nimage =      36
     Subspace diagonalization in iterative solution of the eigenvalue problem:
     one sub-group per band group will be used
     custom distributed-memory algorithm (size of sub-group:  6*  6 procs)

 
     Parallelization info
     --------------------
     sticks:   dense  smooth     PW     G-vecs:    dense   smooth      PW
     Min         585     334     89               198743    85850   11735
     Max         586     335     90               198750    85861   11748
     Sum       21073   12049   3205              7154885  3090769  422587
 
     Using Slab Decomposition
 


     bravais-lattice index     =            0
     lattice parameter (alat)  =      23.8199  a.u.
     unit-cell volume          =   33861.0370 (a.u.)^3
     number of atoms/cell      =          196
     number of atomic types    =            3
     number of electrons       =      1736.00
     number of Kohn-Sham states=         1042
     kinetic-energy cutoff     =      77.0000  Ry
     charge density cutoff     =     539.0000  Ry
     scf convergence threshold =      1.0E-06
     mixing beta               =       0.2000
     number of iterations used =            8  plain     mixing
     energy convergence thresh.=      1.0E-04
     force convergence thresh. =      1.0E-03
     Exchange-correlation= SLA  PW   PBX  PBC
                           (   1   4   3   4   0   0   0)
     nstep                     =         1000


     Effective Screening Medium Method
     =================================
     Boundary Conditions: Vacuum-Slab-Vacuum
     total charge in unit cell        =   0.0000
     grid points for fit at edges     =        4 
 

     celldm(1)=  23.819920  celldm(2)=   0.000000  celldm(3)=   0.000000
     celldm(4)=   0.000000  celldm(5)=   0.000000  celldm(6)=   0.000000

     crystal axes: (cart. coord. in units of alat)
               a(1) = (   1.000000   0.000000   0.000000 )  
               a(2) = (  -0.499999   0.866026   0.000000 )  
               a(3) = (   0.000000   0.000000   2.893000 )  

     reciprocal axes: (cart. coord. in units 2 pi/alat)
               b(1) = (  1.000000  0.577349  0.000000 )  
               b(2) = (  0.000000  1.154700  0.000000 )  
               b(3) = (  0.000000  0.000000  0.345662 )  


     PseudoPot. # 1 for Mo read from file:
     ./pseudo/Mo.pbe-spn-kjpaw_psl.1.0.0.UPF
     MD5 check sum: 317bf72632116215fd98f72de1686f13
     Pseudo is Projector augmented-wave + core cor, Zval = 14.0
     Generated using 'atomic' code by A. Dal Corso  v.7.2
     Shape of augmentation charge: PSQ
     Using radial grid of 1229 points,  6 beta functions with: 
                l(1) =   0
                l(2) =   0
                l(3) =   1
                l(4) =   1
                l(5) =   2
                l(6) =   2
     Q(r) pseudized with 0 coefficients 


     PseudoPot. # 2 for S  read from file:
     ./pseudo/S.pbe-n-kjpaw_psl.1.0.0.UPF
     MD5 check sum: 8b7b5302570d38d5e87fed6a1065abda
     Pseudo is Projector augmented-wave + core cor, Zval =  6.0
     Generated using 'atomic' code by A. Dal Corso  v.7.2
     Shape of augmentation charge: PSQ
     Using radial grid of 1151 points,  6 beta functions with: 
                l(1) =   0
                l(2) =   0
                l(3) =   1
                l(4) =   1
                l(5) =   2
                l(6) =   2
     Q(r) pseudized with 0 coefficients 


     PseudoPot. # 3 for Pd read from file:
     ./pseudo/Pd.pbe-spn-kjpaw_psl.1.0.0.UPF
     MD5 check sum: a60571a671f2502b8a6a4569d20a6edb
     Pseudo is Projector augmented-wave + core cor, Zval = 18.0
     Generated using 'atomic' code by A. Dal Corso  v.7.2
     Shape of augmentation charge: PSQ
     Using radial grid of 1235 points,  6 beta functions with: 
                l(1) =   0
                l(2) =   0
                l(3) =   1
                l(4) =   1
                l(5) =   2
                l(6) =   2
     Q(r) pseudized with 0 coefficients 


     atomic species   valence    mass     pseudopotential
        Mo            14.00    95.95000     Mo( 1.00)
        S              6.00    32.06000     S ( 1.00)
        Pd            18.00   106.42000     Pd( 1.00)

     No symmetry found



   Cartesian axes

     site n.     atom                  positions (alat units)
         1           Mo  tau(   1) = (   0.0000010   0.1443372  -0.7272732  )
         2           Mo  tau(   2) = (   0.1249995   0.0721706  -0.2424038  )
         3           S   tau(   3) = (   0.0000015   0.1443386  -0.3667807  )
         4           S   tau(   4) = (   0.1250010   0.0721682  -0.6030489  )
         5           S   tau(   5) = (   0.1250010   0.0721683  -0.8514963  )
         6           S   tau(   6) = (   0.0000015   0.1443389  -0.1180260  )
         7           Mo  tau(   7) = (  -0.0000583   0.1447254   0.2427684  )
         8           Mo  tau(   8) = (   0.1248950   0.0719039   0.7279756  )
         9           S   tau(   9) = (  -0.0004167   0.1444522   0.6036897  )
        10           S   tau(  10) = (   0.1249187   0.0725551   0.3671606  )
        11           S   tau(  11) = (   0.1249617   0.0725668   0.1183937  )
        12           S   tau(  12) = (  -0.0007198   0.1403872   0.8545041  )
        13           Mo  tau(  13) = (  -0.1249989   0.3608437  -0.7272732  )
        14           Mo  tau(  14) = (   0.0000030   0.2886752  -0.2424042  )
        15           S   tau(  15) = (  -0.1249977   0.3608450  -0.3667802  )
        16           S   tau(  16) = (   0.0000012   0.2886747  -0.6030489  )
        17           S   tau(  17) = (   0.0000012   0.2886748  -0.8514963  )
        18           S   tau(  18) = (  -0.1249977   0.3608454  -0.1180274  )
        19           Mo  tau(  19) = (  -0.1250491   0.3612206   0.2427667  )
        20           Mo  tau(  20) = (  -0.0025394   0.2881170   0.7277177  )
        21           S   tau(  21) = (  -0.1258866   0.3618011   0.6036877  )
        22           S   tau(  22) = (  -0.0000871   0.2890423   0.3672091  )
        23           S   tau(  23) = (   0.0000040   0.2890806   0.1184173  )
        24           S   tau(  24) = (  -0.1295652   0.3635864   0.8544887  )
        25           Mo  tau(  25) = (  -0.2499987   0.5773502  -0.7272732  )
        26           Mo  tau(  26) = (  -0.1249977   0.5051839  -0.2424055  )
        27           S   tau(  27) = (  -0.2499981   0.5773518  -0.3667809  )
        28           S   tau(  28) = (  -0.1249986   0.5051812  -0.6030489  )
        29           S   tau(  29) = (  -0.1249986   0.5051813  -0.8514963  )
        30           S   tau(  30) = (  -0.2499979   0.5773512  -0.1180266  )
        31           Mo  tau(  31) = (  -0.2500517   0.5777232   0.2427593  )
        32           Mo  tau(  32) = (  -0.1260830   0.5066058   0.7279656  )
        33           S   tau(  33) = (  -0.2501944   0.5782650   0.6026630  )
        34           S   tau(  34) = (  -0.1250653   0.5055450   0.3671594  )
        35           S   tau(  35) = (  -0.1250235   0.5055594   0.1183942  )
        36           S   tau(  36) = (  -0.2508999   0.5787460   0.8521187  )
        37           Mo  tau(  37) = (  -0.3749985   0.7938567  -0.7272732  )
        38           Mo  tau(  38) = (  -0.2500001   0.7216874  -0.2424031  )
        39           S   tau(  39) = (  -0.3749980   0.7938584  -0.3667800  )
        40           S   tau(  40) = (  -0.2499984   0.7216877  -0.6030489  )
        41           S   tau(  41) = (  -0.2499984   0.7216878  -0.8514963  )
        42           S   tau(  42) = (  -0.3749982   0.7938585  -0.1180264  )
        43           Mo  tau(  43) = (  -0.3750588   0.7942449   0.2427588  )
        44           Mo  tau(  44) = (  -0.2501482   0.7225066   0.7272755  )
        45           S   tau(  45) = (  -0.3750604   0.7946192   0.6026681  )
        46           S   tau(  46) = (  -0.2500610   0.7220690   0.3671248  )
        47           S   tau(  47) = (  -0.2500778   0.7220461   0.1183649  )
        48           S   tau(  48) = (  -0.3749968   0.7937615   0.8521248  )
        49           Mo  tau(  49) = (   0.2500010   0.1443372  -0.7272732  )
        50           Mo  tau(  50) = (   0.3750034   0.0721723  -0.2424032  )
        51           S   tau(  51) = (   0.2500017   0.1443391  -0.3667788  )
        52           S   tau(  52) = (   0.3750010   0.0721682  -0.6030489  )
        53           S   tau(  53) = (   0.3750010   0.0721683  -0.8514963  )
        54           S   tau(  54) = (   0.2500016   0.1443391  -0.1180271  )
        55           Mo  tau(  55) = (   0.2499409   0.1447203   0.2428165  )
        56           Mo  tau(  56) = (   0.3751872   0.0721705   0.7277089  )
        57           S   tau(  57) = (   0.2502846   0.1444556   0.6038833  )
        58           S   tau(  58) = (   0.3749787   0.0725319   0.3671375  )
        59           S   tau(  59) = (   0.3748928   0.0725411   0.1183826  )
        60           S   tau(  60) = (   0.2504099   0.1406212   0.8546000  )
        61           Mo  tau(  61) = (   0.1250012   0.3608437  -0.7272732  )
        62           Mo  tau(  62) = (   0.2500029   0.2886782  -0.2424031  )
        63           S   tau(  63) = (   0.1250024   0.3608455  -0.3667794  )
        64           S   tau(  64) = (   0.2500012   0.2886747  -0.6030489  )
        65           S   tau(  65) = (   0.2500012   0.2886748  -0.8514963  )
        66           S   tau(  66) = (   0.1250021   0.3608455  -0.1180270  )
        67           Mo  tau(  67) = (   0.1249576   0.3612317   0.2428726  )
        68           Mo  tau(  68) = (   0.2525357   0.2881885   0.7275823  )
        69           S   tau(  69) = (   0.1248964   0.3616954   0.6061277  )
        70           S   tau(  70) = (   0.2499850   0.2890508   0.3672592  )
        71           S   tau(  71) = (   0.2499246   0.2890579   0.1184579  )
        72           S   tau(  72) = (   0.1251395   0.3618048   0.8471984  )
        73           Mo  tau(  73) = (   0.0000014   0.5773502  -0.7272732  )
        74           Mo  tau(  74) = (   0.1250045   0.5051840  -0.2424036  )
        75           S   tau(  75) = (   0.0000030   0.5773520  -0.3667799  )
        76           S   tau(  76) = (   0.1250014   0.5051812  -0.6030489  )
        77           S   tau(  77) = (   0.1250014   0.5051813  -0.8514963  )
        78           S   tau(  78) = (   0.0000026   0.5773517  -0.1180274  )
        79           Mo  tau(  79) = (  -0.0000525   0.5777292   0.2428162  )
        80           Mo  tau(  80) = (   0.1250340   0.5089799   0.7275957  )
        81           S   tau(  81) = (  -0.0005395   0.5789304   0.6038953  )
        82           S   tau(  82) = (   0.1249589   0.5056077   0.3672577  )
        83           S   tau(  83) = (   0.1249415   0.5055305   0.1184554  )
        84           S   tau(  84) = (  -0.0038295   0.5809615   0.8545957  )
        85           Mo  tau(  85) = (  -0.1249984   0.7938567  -0.7272732  )
        86           Mo  tau(  86) = (   0.0000069   0.7216896  -0.2424039  )
        87           S   tau(  87) = (  -0.1249975   0.7938582  -0.3667782  )
        88           S   tau(  88) = (   0.0000016   0.7216877  -0.6030489  )
        89           S   tau(  89) = (   0.0000016   0.7216878  -0.8514963  )
        90           S   tau(  90) = (  -0.1249973   0.7938582  -0.1180279  )
        91           Mo  tau(  91) = (  -0.1250694   0.7942282   0.2427482  )
        92           Mo  tau(  92) = (  -0.0006746   0.7232489   0.7277129  )
        93           S   tau(  93) = (  -0.1250997   0.7947086   0.6028634  )
        94           S   tau(  94) = (  -0.0000525   0.7221175   0.3671375  )
        95           S   tau(  95) = (  -0.0000779   0.7220190   0.1183813  )
        96           S   tau(  96) = (  -0.1254709   0.7945013   0.8524851  )
        97           Mo  tau(  97) = (   0.5000010   0.1443372  -0.7272732  )
        98           Mo  tau(  98) = (   0.6250001   0.0721662  -0.2424040  )
        99           S   tau(  99) = (   0.5000017   0.1443386  -0.3667801  )
       100           S   tau( 100) = (   0.6250010   0.0721682  -0.6030489  )
       101           S   tau( 101) = (   0.6250010   0.0721683  -0.8514963  )
       102           S   tau( 102) = (   0.5000020   0.1443388  -0.1180261  )
       103           Mo  tau( 103) = (   0.4999367   0.1447093   0.2427179  )
       104           Mo  tau( 104) = (   0.6249127   0.0730439   0.7274039  )
       105           S   tau( 105) = (   0.4999745   0.1449368   0.6028928  )
       106           S   tau( 106) = (   0.6249228   0.0725421   0.3670836  )
       107           S   tau( 107) = (   0.6249484   0.0725452   0.1183322  )
       108           S   tau( 108) = (   0.5001020   0.1451649   0.8517735  )
       109           Mo  tau( 109) = (   0.3750012   0.3608437  -0.7272732  )
       110           Mo  tau( 110) = (   0.4999991   0.2886761  -0.2424038  )
       111           S   tau( 111) = (   0.3750012   0.3608452  -0.3667804  )
       112           S   tau( 112) = (   0.5000012   0.2886747  -0.6030489  )
       113           S   tau( 113) = (   0.5000012   0.2886748  -0.8514963  )
       114           S   tau( 114) = (   0.3750014   0.3608455  -0.1180261  )
       115           Mo  tau( 115) = (   0.3749497   0.3612158   0.2428001  )
       116           Mo  tau( 116) = (   0.5008673   0.2896575   0.7274545  )
       117           S   tau( 117) = (   0.3758228   0.3619477   0.6038549  )
       118           S   tau( 118) = (   0.4999583   0.2890110   0.3671417  )
       119           S   tau( 119) = (   0.4999339   0.2890691   0.1183718  )
       120           S   tau( 120) = (   0.3795760   0.3636698   0.8546084  )
       121           Mo  tau( 121) = (   0.2500014   0.5773502  -0.7272732  )
       122           Mo  tau( 122) = (   0.3749983   0.5051825  -0.2424043  )
       123           S   tau( 123) = (   0.2500017   0.5773519  -0.3667810  )
       124           S   tau( 124) = (   0.3750014   0.5051812  -0.6030489  )
       125           S   tau( 125) = (   0.3750014   0.5051813  -0.8514963  )
       126           S   tau( 126) = (   0.2500018   0.5773519  -0.1180256  )
       127           Mo  tau( 127) = (   0.2499405   0.5777385   0.2427951  )
       128           Mo  tau( 128) = (   0.3760943   0.5067363   0.7281545  )
       129           S   tau( 129) = (   0.2505433   0.5788740   0.6038714  )
       130           S   tau( 130) = (   0.3749622   0.5055785   0.3671482  )
       131           S   tau( 131) = (   0.3749071   0.5055298   0.1183901  )
       132           S   tau( 132) = (   0.2539134   0.5812753   0.8546147  )
       133           Mo  tau( 133) = (   0.1250016   0.7938567  -0.7272732  )
       134           Mo  tau( 134) = (   0.2499995   0.7216883  -0.2424036  )
       135           S   tau( 135) = (   0.1250024   0.7938578  -0.3667813  )
       136           S   tau( 136) = (   0.2500016   0.7216877  -0.6030489  )
       137           S   tau( 137) = (   0.2500016   0.7216878  -0.8514963  )
       138           S   tau( 138) = (   0.1250024   0.7938579  -0.1180253  )
       139           Mo  tau( 139) = (   0.1249370   0.7942364   0.2427174  )
       140           Mo  tau( 140) = (   0.2505128   0.7233226   0.7274569  )
       141           S   tau( 141) = (   0.1247484   0.7949335   0.6028930  )
       142           S   tau( 142) = (   0.2499114   0.7221059   0.3671396  )
       143           S   tau( 143) = (   0.2499587   0.7220420   0.1183681  )
       144           S   tau( 144) = (   0.1250090   0.7949402   0.8517727  )
       145           Mo  tau( 145) = (   0.7500010   0.1443372  -0.7272732  )
       146           Mo  tau( 146) = (   0.8750038   0.0721696  -0.2424038  )
       147           S   tau( 147) = (   0.7500016   0.1443382  -0.3667789  )
       148           S   tau( 148) = (   0.8750010   0.0721682  -0.6030489  )
       149           S   tau( 149) = (   0.8750010   0.0721683  -0.8514963  )
       150           S   tau( 150) = (   0.7500016   0.1443384  -0.1180279  )
       151           Mo  tau( 151) = (   0.7499378   0.1447185   0.2427395  )
       152           Mo  tau( 152) = (   0.8746132   0.0721874   0.7273701  )
       153           S   tau( 153) = (   0.7496986   0.1450682   0.6027996  )
       154           S   tau( 154) = (   0.8749245   0.0725637   0.3671344  )
       155           S   tau( 155) = (   0.8749484   0.0725469   0.1183738  )
       156           S   tau( 156) = (   0.7499060   0.1451976   0.8515910  )
       157           Mo  tau( 157) = (   0.6250012   0.3608437  -0.7272732  )
       158           Mo  tau( 158) = (   0.7500028   0.2886769  -0.2424041  )
       159           S   tau( 159) = (   0.6250015   0.3608451  -0.3667792  )
       160           S   tau( 160) = (   0.7500012   0.2886747  -0.6030489  )
       161           S   tau( 161) = (   0.7500012   0.2886748  -0.8514963  )
       162           S   tau( 162) = (   0.6250016   0.3608454  -0.1180280  )
       163           Mo  tau( 163) = (   0.6249431   0.3612111   0.2427624  )
       164           Mo  tau( 164) = (   0.7490446   0.2896895   0.7273651  )
       165           S   tau( 165) = (   0.6249403   0.3617345   0.6025421  )
       166           S   tau( 166) = (   0.7499440   0.2890445   0.3671355  )
       167           S   tau( 167) = (   0.7499485   0.2890555   0.1183722  )
       168           S   tau( 168) = (   0.6249659   0.3618594   0.8522505  )
       169           Mo  tau( 169) = (   0.5000014   0.5773502  -0.7272732  )
       170           Mo  tau( 170) = (   0.6250029   0.5051841  -0.2424047  )
       171           S   tau( 171) = (   0.5000014   0.5773518  -0.3667794  )
       172           S   tau( 172) = (   0.6250014   0.5051812  -0.6030489  )
       173           S   tau( 173) = (   0.6250014   0.5051813  -0.8514963  )
       174           S   tau( 174) = (   0.5000016   0.5773516  -0.1180277  )
       175           Mo  tau( 175) = (   0.4999344   0.5777261   0.2427288  )
       176           Mo  tau( 176) = (   0.6251049   0.5060228   0.7272904  )
       177           S   tau( 177) = (   0.5002611   0.5784037   0.6029568  )
       178           S   tau( 178) = (   0.6249225   0.5055684   0.3671057  )
       179           S   tau( 179) = (   0.6249572   0.5055378   0.1183737  )
       180           S   tau( 180) = (   0.5011614   0.5789312   0.8520435  )
       181           Mo  tau( 181) = (   0.3750016   0.7938567  -0.7272732  )
       182           Mo  tau( 182) = (   0.5000025   0.7216901  -0.2424039  )
       183           S   tau( 183) = (   0.3750019   0.7938578  -0.3667793  )
       184           S   tau( 184) = (   0.5000016   0.7216877  -0.6030489  )
       185           S   tau( 185) = (   0.5000016   0.7216878  -0.8514963  )
       186           S   tau( 186) = (   0.3750020   0.7938579  -0.1180272  )
       187           Mo  tau( 187) = (   0.3749305   0.7942455   0.2427605  )
       188           Mo  tau( 188) = (   0.5000327   0.7227205   0.7272893  )
       189           S   tau( 189) = (   0.3749936   0.7947084   0.6025429  )
       190           S   tau( 190) = (   0.4999352   0.7220570   0.3671028  )
       191           S   tau( 191) = (   0.4999361   0.7220829   0.1183737  )
       192           S   tau( 192) = (   0.3751146   0.7946671   0.8522496  )
       193           Pd  tau( 193) = (   0.1256362   0.4950616   0.9689781  )
       194           Pd  tau( 194) = (   0.2408400   0.2956709   0.9690247  )
       195           Pd  tau( 195) = (   0.0101056   0.2954608   0.9693304  )
       196           Pd  tau( 196) = (   0.1251095   0.3618417   1.0881167  )

     --------------------------------------------
     DFT-D3 Dispersion Correction (3-body terms):
     --------------------------------------------
       Reference C6 values for interpolation: 

         atom   Coordination number   C6
         S          0.000           268.01
         S          0.995           261.99
         S          1.990           251.62
         Mo         0.000          1691.79
         Mo         1.942          1004.01
         Mo        11.056           674.22
         Pd         0.000          1217.01
         Pd         1.863           573.90
         Pd         5.710           531.75

       Values used:

         atom   Coordination number  R0_AB[au]  C6      C8
         Mo        10.208            3.547    674.22  77634.20
         Mo        10.221            3.547    674.22  77634.20
         S          3.858            3.128    251.62  12327.25
         S          3.859            3.128    251.62  12327.25
         S          3.758            3.128    251.62  12327.25
         S          3.858            3.128    251.62  12327.25
         Mo        10.220            3.547    674.22  77634.20
         Mo        10.216            3.547    674.22  77634.20
         S          3.841            3.128    251.62  12327.25
         S          3.858            3.128    251.62  12327.25
         S          3.858            3.128    251.62  12327.25
         S          4.648            3.128    251.62  12327.25
         Mo        10.208            3.547    674.22  77634.20
         Mo        10.221            3.547    674.22  77634.20
         S          3.858            3.128    251.62  12327.25
         S          3.859            3.128    251.62  12327.25
         S          3.758            3.128    251.62  12327.25
         S          3.858            3.128    251.62  12327.25
         Mo        10.220            3.547    674.22  77634.20
         Mo        10.630            3.547    674.22  77634.20
         S          3.841            3.128    251.62  12327.25
         S          3.853            3.128    251.62  12327.25
         S          3.858            3.128    251.62  12327.25
         S          4.649            3.128    251.62  12327.25
         Mo        10.208            3.547    674.22  77634.20
         Mo        10.220            3.547    674.22  77634.20
         S          3.858            3.128    251.62  12327.25
         S          3.859            3.128    251.62  12327.25
         S          3.758            3.128    251.62  12327.25
         S          3.858            3.128    251.62  12327.25
         Mo        10.220            3.547    674.22  77634.20
         Mo        10.216            3.547    674.22  77634.20
         S          3.863            3.128    251.62  12327.25
         S          3.858            3.128    251.62  12327.25
         S          3.858            3.128    251.62  12327.25
         S          3.810            3.128    251.62  12327.25
         Mo        10.208            3.547    674.22  77634.20
         Mo        10.220            3.547    674.22  77634.20
         S          3.858            3.128    251.62  12327.25
         S          3.859            3.128    251.62  12327.25
         S          3.758            3.128    251.62  12327.25
         S          3.858            3.128    251.62  12327.25
         Mo        10.220            3.547    674.22  77634.20
         Mo        10.264            3.547    674.21  77634.20
         S          3.863            3.128    251.62  12327.25
         S          3.860            3.128    251.62  12327.25
         S          3.858            3.128    251.62  12327.25
         S          3.810            3.128    251.62  12327.25
         Mo        10.208            3.547    674.22  77634.20
         Mo        10.220            3.547    674.22  77634.20
         S          3.858            3.128    251.62  12327.25
         S          3.859            3.128    251.62  12327.25
         S          3.758            3.128    251.62  12327.25
         S          3.858            3.128    251.62  12327.25
         Mo        10.221            3.547    674.22  77634.20
         Mo        10.251            3.547    674.22  77634.20
         S          3.842            3.128    251.62  12327.25
         S          3.860            3.128    251.62  12327.25
         S          3.858            3.128    251.62  12327.25
         S          4.649            3.128    251.62  12327.25
         Mo        10.208            3.547    674.22  77634.20
         Mo        10.221            3.547    674.22  77634.20
         S          3.858            3.128    251.62  12327.25
         S          3.859            3.128    251.62  12327.25
         S          3.758            3.128    251.62  12327.25
         S          3.858            3.128    251.62  12327.25
         Mo        10.220            3.547    674.22  77634.20
         Mo        10.633            3.547    674.22  77634.20
         S          3.873            3.128    251.62  12327.25
         S          3.852            3.128    251.62  12327.25
         S          3.858            3.128    251.62  12327.25
         S          6.842            3.128    251.62  12327.25
         Mo        10.208            3.547    674.21  77634.20
         Mo        10.221            3.547    674.22  77634.20
         S          3.858            3.128    251.62  12327.25
         S          3.859            3.128    251.62  12327.25
         S          3.758            3.128    251.62  12327.25
         S          3.858            3.128    251.62  12327.25
         Mo        10.221            3.547    674.22  77634.20
         Mo        10.634            3.547    674.21  77634.20
         S          3.841            3.128    251.62  12327.25
         S          3.852            3.128    251.62  12327.25
         S          3.858            3.128    251.62  12327.25
         S          4.649            3.128    251.62  12327.25
         Mo        10.208            3.547    674.22  77634.20
         Mo        10.221            3.547    674.22  77634.20
         S          3.858            3.128    251.62  12327.25
         S          3.859            3.128    251.62  12327.25
         S          3.758            3.128    251.62  12327.25
         S          3.858            3.128    251.62  12327.25
         Mo        10.221            3.547    674.22  77634.20
         Mo        10.250            3.547    674.22  77634.20
         S          3.866            3.128    251.62  12327.25
         S          3.860            3.128    251.62  12327.25
         S          3.858            3.128    251.62  12327.25
         S          3.801            3.128    251.62  12327.25
         Mo        10.208            3.547    674.22  77634.20
         Mo        10.221            3.547    674.22  77634.20
         S          3.858            3.128    251.62  12327.25
         S          3.859            3.128    251.62  12327.25
         S          3.758            3.128    251.62  12327.25
         S          3.858            3.128    251.62  12327.25
         Mo        10.221            3.547    674.22  77634.20
         Mo        10.235            3.547    674.22  77634.20
         S          3.865            3.128    251.62  12327.25
         S          3.861            3.128    251.62  12327.25
         S          3.857            3.128    251.62  12327.25
         S          3.769            3.128    251.62  12327.25
         Mo        10.208            3.547    674.22  77634.20
         Mo        10.221            3.547    674.22  77634.20
         S          3.858            3.128    251.62  12327.25
         S          3.859            3.128    251.62  12327.25
         S          3.758            3.128    251.62  12327.25
         S          3.858            3.128    251.62  12327.25
         Mo        10.221            3.547    674.22  77634.20
         Mo        10.252            3.547    674.22  77634.20
         S          3.840            3.128    251.62  12327.25
         S          3.860            3.128    251.62  12327.25
         S          3.858            3.128    251.62  12327.25
         S          4.655            3.128    251.62  12327.25
         Mo        10.208            3.547    674.21  77634.20
         Mo        10.221            3.547    674.22  77634.20
         S          3.858            3.128    251.62  12327.25
         S          3.859            3.128    251.62  12327.25
         S          3.758            3.128    251.62  12327.25
         S          3.858            3.128    251.62  12327.25
         Mo        10.221            3.547    674.22  77634.20
         Mo        10.212            3.547    674.21  77634.20
         S          3.840            3.128    251.62  12327.25
         S          3.857            3.128    251.62  12327.25
         S          3.858            3.128    251.62  12327.25
         S          4.654            3.128    251.62  12327.25
         Mo        10.208            3.547    674.22  77634.20
         Mo        10.221            3.547    674.22  77634.20
         S          3.858            3.128    251.62  12327.25
         S          3.859            3.128    251.62  12327.25
         S          3.758            3.128    251.62  12327.25
         S          3.858            3.128    251.62  12327.25
         Mo        10.221            3.547    674.22  77634.20
         Mo        10.252            3.547    674.22  77634.20
         S          3.865            3.128    251.62  12327.25
         S          3.860            3.128    251.62  12327.25
         S          3.858            3.128    251.62  12327.25
         S          3.769            3.128    251.62  12327.25
         Mo        10.208            3.547    674.22  77634.20
         Mo        10.221            3.547    674.22  77634.20
         S          3.858            3.128    251.62  12327.25
         S          3.859            3.128    251.62  12327.25
         S          3.758            3.128    251.62  12327.25
         S          3.858            3.128    251.62  12327.25
         Mo        10.221            3.547    674.22  77634.20
         Mo        10.255            3.547    674.22  77634.20
         S          3.864            3.128    251.62  12327.25
         S          3.860            3.128    251.62  12327.25
         S          3.858            3.128    251.62  12327.25
         S          3.774            3.128    251.62  12327.25
         Mo        10.208            3.547    674.22  77634.20
         Mo        10.220            3.547    674.22  77634.20
         S          3.858            3.128    251.62  12327.25
         S          3.859            3.128    251.62  12327.25
         S          3.758            3.128    251.62  12327.25
         S          3.858            3.128    251.62  12327.25
         Mo        10.221            3.547    674.22  77634.20
         Mo        10.255            3.547    674.22  77634.20
         S          3.863            3.128    251.62  12327.25
         S          3.860            3.128    251.62  12327.25
         S          3.858            3.128    251.62  12327.25
         S          3.806            3.128    251.62  12327.25
         Mo        10.208            3.547    674.22  77634.20
         Mo        10.220            3.547    674.22  77634.20
         S          3.858            3.128    251.62  12327.25
         S          3.859            3.128    251.62  12327.25
         S          3.758            3.128    251.62  12327.25
         S          3.858            3.128    251.62  12327.25
         Mo        10.220            3.547    674.22  77634.20
         Mo        10.263            3.547    674.22  77634.20
         S          3.865            3.128    251.62  12327.25
         S          3.861            3.128    251.62  12327.25
         S          3.858            3.128    251.62  12327.25
         S          3.810            3.128    251.62  12327.25
         Mo        10.208            3.547    674.22  77634.20
         Mo        10.221            3.547    674.22  77634.20
         S          3.858            3.128    251.62  12327.25
         S          3.859            3.128    251.62  12327.25
         S          3.758            3.128    251.62  12327.25
         S          3.858            3.128    251.62  12327.25
         Mo        10.221            3.547    674.22  77634.20
         Mo        10.263            3.547    674.21  77634.20
         S          3.863            3.128    251.62  12327.25
         S          3.861            3.128    251.62  12327.25
         S          3.858            3.128    251.62  12327.25
         S          3.806            3.128    251.62  12327.25
         Pd         5.396            3.168    531.75  48720.73
         Pd         5.393            3.168    531.75  48720.73
         Pd         5.375            3.168    531.75  48720.73
         Pd         3.226            3.168    573.90  52583.08

         Molecular C6 ( Ry / a.u.^6 ) =  14307727.83


     number of k points=     4  Gaussian smearing, width (Ry)=  0.0100
                       cart. coord. in units 2pi/alat
        k(    1) = (   0.0000000   0.0000000   0.0000000), wk =   0.5000000
        k(    2) = (   0.0000000  -0.5773499   0.0000000), wk =   0.5000000
        k(    3) = (  -0.5000000  -0.2886744   0.0000000), wk =   0.5000000
        k(    4) = (  -0.5000000  -0.8660242   0.0000000), wk =   0.5000000

     Dense  grid:  7154885 G-vectors     FFT dimensions: ( 180, 180, 512)

     Smooth grid:  3090769 G-vectors     FFT dimensions: ( 135, 135, 400)

     Estimated max dynamical RAM per process >       3.21 GB

     Estimated total dynamical RAM >     115.61 GB

     Initial potential from superposition of free atoms

     starting charge    1735.9379, renormalised to    1736.0000

     negative rho (up, down):  1.212E-03 0.000E+00
     Starting wfcs are 1192 randomized atomic wfcs
     Checking if some PAW data can be deallocated... 

     total cpu time spent up to now is      214.0 secs

     Self-consistent Calculation

     iteration #  1     ecut=    77.00 Ry     beta= 0.20
     Davidson diagonalization with overlap
     ethr =  1.00E-02,  avg # of iterations =  2.0

     Threshold (ethr) on eigenvalues was too large:
     Diagonalizing with lowered threshold

     Davidson diagonalization with overlap
     ethr =  2.74E-04,  avg # of iterations = 16.0

     negative rho (up, down):  3.627E-04 0.000E+00

     total cpu time spent up to now is     2302.9 secs

     total energy              =  -33840.81528807 Ry
     estimated scf accuracy    <       6.86795783 Ry

     iteration #  2     ecut=    77.00 Ry     beta= 0.20
     Davidson diagonalization with overlap
     ethr =  3.96E-04,  avg # of iterations =  9.0

     negative rho (up, down):  3.278E-04 0.000E+00

     total cpu time spent up to now is     2820.9 secs

     total energy              =  -33836.68799996 Ry
     estimated scf accuracy    <      43.59454321 Ry

     iteration #  3     ecut=    77.00 Ry     beta= 0.20
     Davidson diagonalization with overlap
     ethr =  3.96E-04,  avg # of iterations = 11.2

     negative rho (up, down):  3.316E-04 0.000E+00

     total cpu time spent up to now is     3379.2 secs

     total energy              =  -33826.64510608 Ry
     estimated scf accuracy    <    1975.96740766 Ry

     iteration #  4     ecut=    77.00 Ry     beta= 0.20
     Davidson diagonalization with overlap
     ethr =  3.96E-04,  avg # of iterations =  5.0

     negative rho (up, down):  8.833E-05 0.000E+00

     total cpu time spent up to now is     3877.7 secs

     total energy              =  -33840.68599325 Ry
     estimated scf accuracy    <       6.52164608 Ry

     iteration #  5     ecut=    77.00 Ry     beta= 0.20
     Davidson diagonalization with overlap
     ethr =  3.76E-04,  avg # of iterations =  9.0

     negative rho (up, down):  3.034E-05 0.000E+00

     total cpu time spent up to now is     4382.6 secs

     total energy              =  -33840.29001959 Ry
     estimated scf accuracy    <       3.87571364 Ry

     iteration #  6     ecut=    77.00 Ry     beta= 0.20
     Davidson diagonalization with overlap
     ethr =  2.23E-04,  avg # of iterations = 12.2

     negative rho (up, down):  2.647E-05 0.000E+00

     total cpu time spent up to now is     4915.5 secs

     total energy              =  -33840.56268910 Ry
     estimated scf accuracy    <       1.07021784 Ry

     iteration #  7     ecut=    77.00 Ry     beta= 0.20
     Davidson diagonalization with overlap
     ethr =  6.16E-05,  avg # of iterations = 11.8

     negative rho (up, down):  6.988E-05 0.000E+00

     total cpu time spent up to now is     5885.8 secs

     total energy              =  -33841.11591827 Ry
     estimated scf accuracy    <       0.75182669 Ry

     iteration #  8     ecut=    77.00 Ry     beta= 0.20
     Davidson diagonalization with overlap
     ethr =  4.33E-05,  avg # of iterations = 13.0

     negative rho (up, down):  6.110E-05 0.000E+00

     total cpu time spent up to now is     6423.2 secs

     total energy              =  -33841.15029112 Ry
     estimated scf accuracy    <       0.40773190 Ry

     iteration #  9     ecut=    77.00 Ry     beta= 0.20
     Davidson diagonalization with overlap
     ethr =  2.35E-05,  avg # of iterations = 13.8

     negative rho (up, down):  8.266E-05 0.000E+00

     total cpu time spent up to now is     7138.3 secs

     total energy              =  -33841.31939063 Ry
     estimated scf accuracy    <       0.09754609 Ry

     iteration # 10     ecut=    77.00 Ry     beta= 0.20
     Davidson diagonalization with overlap
     c_bands:  1 eigenvalues not converged
     c_bands:  1 eigenvalues not converged
     c_bands:  1 eigenvalues not converged
     ethr =  5.62E-06,  avg # of iterations = 35.5

     negative rho (up, down):  1.371E-04 0.000E+00

     total cpu time spent up to now is     9294.8 secs

     total energy              =  -33841.40603597 Ry
     estimated scf accuracy    <       0.28896110 Ry

     iteration # 11     ecut=    77.00 Ry     beta= 0.20
     Davidson diagonalization with overlap
     c_bands:  1 eigenvalues not converged
     c_bands:  1 eigenvalues not converged
     c_bands:  1 eigenvalues not converged
     ethr =  5.62E-06,  avg # of iterations = 15.5

     negative rho (up, down):  3.837E-04 0.000E+00

     total cpu time spent up to now is     9824.0 secs

     total energy              =  -33841.32697117 Ry
     estimated scf accuracy    <       0.18527225 Ry

     iteration # 12     ecut=    77.00 Ry     beta= 0.20
     Davidson diagonalization with overlap
     c_bands:  1 eigenvalues not converged
     c_bands:  1 eigenvalues not converged
     c_bands:  1 eigenvalues not converged
     ethr =  5.62E-06,  avg # of iterations = 17.2

     negative rho (up, down):  5.142E-04 0.000E+00

     total cpu time spent up to now is    10678.7 secs

     total energy              =  -33841.36824202 Ry
     estimated scf accuracy    <       0.03122941 Ry

     iteration # 13     ecut=    77.00 Ry     beta= 0.20
     Davidson diagonalization with overlap
     c_bands:  1 eigenvalues not converged
     c_bands:  8 eigenvalues not converged
     c_bands:  6 eigenvalues not converged
     c_bands:  2 eigenvalues not converged
     ethr =  1.80E-06,  avg # of iterations =100.0

     negative rho (up, down):  5.484E-04 0.000E+00

     total cpu time spent up to now is    13542.8 secs

     total energy              =  -33841.38495076 Ry
     estimated scf accuracy    <       0.02007472 Ry

     iteration # 14     ecut=    77.00 Ry     beta= 0.20
     Davidson diagonalization with overlap
     c_bands:  5 eigenvalues not converged
     c_bands:  2 eigenvalues not converged
     ethr =  1.16E-06,  avg # of iterations = 13.0

     negative rho (up, down):  6.376E-04 0.000E+00

     total cpu time spent up to now is    14083.9 secs

     total energy              =  -33841.38276175 Ry
     estimated scf accuracy    <       0.00615062 Ry

     iteration # 15     ecut=    77.00 Ry     beta= 0.20
     Davidson diagonalization with overlap
     c_bands:  2 eigenvalues not converged
     c_bands:  2 eigenvalues not converged
     c_bands:  2 eigenvalues not converged
     ethr =  3.54E-07,  avg # of iterations = 29.5

     negative rho (up, down):  7.354E-04 0.000E+00

     total cpu time spent up to now is    15403.3 secs

     total energy              =  -33841.38621652 Ry
     estimated scf accuracy    <       0.01101030 Ry

     iteration # 16     ecut=    77.00 Ry     beta= 0.20
     Davidson diagonalization with overlap
     ethr =  3.54E-07,  avg # of iterations = 11.0

     negative rho (up, down):  9.058E-04 0.000E+00

     total cpu time spent up to now is    15935.4 secs

     total energy              =  -33841.38684846 Ry
     estimated scf accuracy    <       0.00121220 Ry

     iteration # 17     ecut=    77.00 Ry     beta= 0.20
     Davidson diagonalization with overlap
     c_bands:  5 eigenvalues not converged
     c_bands:  5 eigenvalues not converged
     c_bands:  5 eigenvalues not converged
     ethr =  6.98E-08,  avg # of iterations = 20.2

     negative rho (up, down):  8.830E-04 0.000E+00

     total cpu time spent up to now is    17950.1 secs

     total energy              =  -33841.38836865 Ry
     estimated scf accuracy    <       0.00483805 Ry

     iteration # 18     ecut=    77.00 Ry     beta= 0.20
     Davidson diagonalization with overlap
     ethr =  6.98E-08,  avg # of iterations =  6.0

     negative rho (up, down):  9.182E-04 0.000E+00

     total cpu time spent up to now is    18537.8 secs

     total energy              =  -33841.38802009 Ry
     estimated scf accuracy    <       0.00179504 Ry

     iteration # 19     ecut=    77.00 Ry     beta= 0.20
     Davidson diagonalization with overlap
     ethr =  6.98E-08,  avg # of iterations =  5.2

     negative rho (up, down):  9.629E-04 0.000E+00

     total cpu time spent up to now is    19256.2 secs

     total energy              =  -33841.38823275 Ry
     estimated scf accuracy    <       0.00033671 Ry

     iteration # 20     ecut=    77.00 Ry     beta= 0.20
     Davidson diagonalization with overlap
     ethr =  1.94E-08,  avg # of iterations = 17.2

     negative rho (up, down):  9.726E-04 0.000E+00

     total cpu time spent up to now is    20378.5 secs

     total energy              =  -33841.38857859 Ry
     estimated scf accuracy    <       0.00011836 Ry

     iteration # 21     ecut=    77.00 Ry     beta= 0.20
     Davidson diagonalization with overlap
     ethr =  6.82E-09,  avg # of iterations = 11.0

     negative rho (up, down):  9.979E-04 0.000E+00

     total cpu time spent up to now is    21163.4 secs

     total energy              =  -33841.38861792 Ry
     estimated scf accuracy    <       0.00002138 Ry

     iteration # 22     ecut=    77.00 Ry     beta= 0.20
     Davidson diagonalization with overlap
     c_bands:  3 eigenvalues not converged
     c_bands:  1 eigenvalues not converged
     ethr =  1.23E-09,  avg # of iterations = 19.8

     negative rho (up, down):  1.028E-03 0.000E+00

     total cpu time spent up to now is    22678.6 secs

     total energy              =  -33841.38864155 Ry
     estimated scf accuracy    <       0.00002180 Ry

     iteration # 23     ecut=    77.00 Ry     beta= 0.20
     Davidson diagonalization with overlap
     ethr =  1.23E-09,  avg # of iterations =  4.8

     negative rho (up, down):  1.038E-03 0.000E+00

     total cpu time spent up to now is    23179.2 secs

     total energy              =  -33841.38863791 Ry
     estimated scf accuracy    <       0.00000364 Ry

     iteration # 24     ecut=    77.00 Ry     beta= 0.20
     Davidson diagonalization with overlap
     c_bands:  1 eigenvalues not converged
     ethr =  2.10E-10,  avg # of iterations = 20.5

     negative rho (up, down):  1.036E-03 0.000E+00

     total cpu time spent up to now is    24802.3 secs

     total energy              =  -33841.38864508 Ry
     estimated scf accuracy    <       0.00000354 Ry

     iteration # 25     ecut=    77.00 Ry     beta= 0.20
     Davidson diagonalization with overlap
     ethr =  2.04E-10,  avg # of iterations =  1.8

     negative rho (up, down):  1.039E-03 0.000E+00

     total cpu time spent up to now is    25274.9 secs

     total energy              =  -33841.38864360 Ry
     estimated scf accuracy    <       0.00000111 Ry

     iteration # 26     ecut=    77.00 Ry     beta= 0.20
     Davidson diagonalization with overlap
     ethr =  6.39E-11,  avg # of iterations = 17.8

     negative rho (up, down):  1.045E-03 0.000E+00

     total cpu time spent up to now is    26230.0 secs

     End of self-consistent calculation

          k = 0.0000 0.0000 0.0000 (386245 PWs)   bands (ev):

   -89.0321 -89.0173 -89.0152 -87.9640 -66.5915 -66.5913 -66.5904 -66.5870
   -66.5755 -66.5703 -66.5702 -66.5702 -66.5702 -66.5702 -66.5702 -66.5702
   -66.5702 -66.5701 -66.5700 -66.5699 -66.5697 -66.5691 -66.5691 -66.5691
   -66.5691 -66.5691 -66.5691 -66.5670 -66.5663 -66.5646 -66.5646 -66.5633
   -66.5490 -66.5488 -66.5488 -66.5488 -66.5488 -66.5488 -66.5488 -66.5488
   -66.5488 -66.5488 -66.5488 -66.5488 -66.5487 -66.5487 -66.5487 -66.5485
   -66.5482 -66.5482 -66.5477 -66.5477 -66.5477 -66.5477 -66.5477 -66.5476
   -66.5476 -66.5476 -66.5476 -66.5444 -66.5441 -66.5404 -66.5372 -66.5368
   -66.5338 -66.5271 -66.5265 -66.5245 -55.1387 -55.0287 -55.0232 -54.9055
   -54.8787 -54.8775 -54.6158 -54.6096 -54.5823 -53.6955 -53.6832 -53.6812
   -40.9189 -40.9189 -40.9188 -40.9187 -40.9187 -40.9186 -40.9184 -40.9184
   -40.9184 -40.9096 -40.9048 -40.9046 -40.8435 -40.8435 -40.8435 -40.8435
   -40.8435 -40.8435 -40.8435 -40.8435 -40.8433 -40.8433 -40.8433 -40.8432
   -40.8431 -40.8430 -40.8430 -40.8430 -40.8430 -40.8430 -40.8362 -40.8345
   -40.8344 -40.8261 -40.8258 -40.8252 -40.7771 -40.7511 -40.7510 -40.7507
   -40.7449 -40.7437 -40.7368 -40.7172 -40.7172 -40.7172 -40.7172 -40.7172
   -40.7172 -40.7171 -40.7171 -40.7170 -40.7170 -40.7170 -40.7169 -40.7166
   -40.7166 -40.7166 -40.7166 -40.7166 -40.7166 -40.7133 -40.7119 -40.7118
   -40.7096 -40.7094 -40.7094 -40.7094 -40.7094 -40.7094 -40.7094 -40.7094
   -40.7093 -40.7092 -40.7091 -40.7089 -40.7089 -40.7089 -40.7089 -40.7089
   -40.7089 -40.7089 -40.7078 -40.7074 -40.7054 -40.7053 -40.7016 -40.6955
   -40.6886 -40.6885 -40.6822 -40.6822 -40.6822 -40.6822 -40.6822 -40.6822
   -40.6821 -40.6821 -40.6820 -40.6820 -40.6819 -40.6819 -40.6815 -40.6815
   -40.6815 -40.6815 -40.6815 -40.6815 -40.6774 -40.6754 -40.6725 -40.6724
   -40.6716 -40.6715 -40.6677 -40.6675 -40.6674 -40.6674 -40.6674 -40.6674
   -40.6674 -40.6674 -40.6674 -40.6674 -40.6674 -40.6674 -40.6674 -40.6673
   -40.6673 -40.6672 -40.6672 -40.6669 -40.6669 -40.6669 -40.6669 -40.6669
   -40.6669 -40.6668 -40.6668 -40.6668 -40.6668 -40.6668 -40.6656 -40.6654
   -40.6640 -40.6597 -40.6595 -40.6591 -40.6038 -40.6038 -40.6038 -40.6037
   -40.6037 -40.6036 -40.6031 -40.6031 -40.6031 -40.5891 -40.5889 -40.5884
   -40.5567 -40.5567 -40.5567 -40.5567 -40.5567 -40.5567 -40.5567 -40.5566
   -40.5566 -40.5564 -40.5564 -40.5564 -40.5559 -40.5559 -40.5559 -40.5559
   -40.5559 -40.5559 -40.5475 -40.5472 -40.5418 -40.5415 -40.5398 -40.5292
   -40.5091 -40.5091 -40.5089 -40.5089 -40.5083 -40.5083 -40.4931 -40.4930
   -20.4234 -20.0762 -19.9843 -19.8750 -19.7929 -19.2720 -19.2714 -19.2248
   -19.2247 -19.2149 -19.2055 -19.1952 -19.1952 -19.1748 -19.1746 -19.1546
   -19.1220 -19.1047 -19.1046 -19.0895 -19.0893 -19.0695 -19.0165 -19.0062
   -19.0062 -19.0010 -19.0009 -18.9930 -18.8802 -18.8190 -18.7508 -18.5929
   -18.5077 -18.5070 -18.4759 -18.4751 -18.4655 -18.4387 -18.4256 -18.3806
   -18.3803 -18.3728 -18.3726 -18.3438 -18.3291 -18.3032 -18.2504 -18.2501
   -18.2478 -18.2476 -18.2398 -18.2199 -18.1579 -18.1578 -18.1510 -18.1510
   -18.1501 -18.1425 -18.1158 -18.1151 -18.0903 -18.0900 -18.0872 -18.0864
   -18.0861 -18.0860 -18.0648 -18.0643 -18.0527 -18.0526 -18.0525 -18.0488
   -18.0445 -18.0423 -18.0420 -18.0245 -18.0244 -18.0187 -18.0155 -18.0150
   -18.0020 -18.0017 -18.0014 -17.9928 -17.9791 -17.9744 -17.9744 -17.9717
   -17.9715 -17.9567 -17.9564 -17.9541 -17.9329 -17.9300 -17.9163 -17.9155
   -17.8927 -17.8921 -17.8878 -17.8841 -17.8839 -17.8648 -17.8629 -17.8627
   -17.8547 -17.8454 -17.8398 -17.8393 -17.8361 -17.8357 -17.8266 -17.8252
   -17.8250 -17.8085 -17.8083 -17.8081 -17.8002 -17.7973 -17.7933 -17.7932
   -17.7892 -17.7888 -17.7651 -17.7647 -17.7634 -17.7633 -17.7622 -17.7620
   -12.4423 -12.2034 -12.2022 -11.9392 -11.8390 -11.7689 -11.7689 -11.7547
   -11.6608 -11.6559 -11.6559 -11.6226 -11.5333 -11.5332 -11.5197 -11.4026
   -11.4025 -11.3542 -11.2731 -11.2718 -11.2085 -11.2085 -11.2070 -11.1924
   -11.1922 -11.1883 -11.1194 -11.1057 -11.0973 -11.0972 -11.0917 -11.0916
   -11.0884 -11.0561 -11.0551 -11.0544 -11.0528 -11.0312 -11.0312 -11.0298
   -11.0167 -11.0165 -11.0142 -10.9982 -10.9956 -10.9956 -10.9650 -10.9312
   -10.9310 -10.9268 -10.9091 -10.9089 -10.8982 -10.8660 -10.8659 -10.8611
   -10.8538 -10.8533 -10.8403 -10.8375 -10.8316 -10.8312 -10.8088 -10.8084
   -10.8070 -10.8062 -10.8042 -10.7964 -10.7964 -10.7943 -10.7938 -10.7836
   -10.7836 -10.7773 -10.7771 -10.7756 -10.7499 -10.7457 -10.7457 -10.7445
   -10.7444 -10.7440 -10.7370 -10.7367 -10.7283 -10.7051 -10.7051 -10.7044
   -10.7044 -10.7033 -10.7033 -10.6860 -10.6316 -10.6315 -10.6145 -10.5727
   -10.5640 -10.5638 -10.5504 -10.5504 -10.5355 -10.3780 -10.3733 -10.1482
   -10.1463 -10.1425 -10.0536 -10.0502 -10.0440  -9.9576  -9.9386  -9.8667
    -9.8662  -9.7873  -9.7872  -9.7836  -9.7723  -9.7638  -9.7637  -9.7437
    -9.7436  -9.7426  -9.7330  -9.7327  -9.7325  -9.7213  -9.7205  -9.7202
    -9.7125  -9.7026  -9.7024  -9.6936  -9.6855  -9.6854  -9.6636  -9.6630
    -9.6081  -9.5964  -9.5963  -9.5928  -9.5926  -9.5900  -9.5852  -9.5851
    -9.5848  -9.5825  -9.5820  -9.5732  -9.5575  -9.5360  -9.5218  -9.5214
    -9.5090  -9.5090  -9.5087  -9.5085  -9.5085  -9.5082  -9.4881  -9.4880
    -9.4785  -9.4706  -9.4702  -9.4688  -9.4452  -9.4445  -9.3933  -9.3926
    -9.3400  -9.3333  -9.3299  -9.3296  -9.3234  -9.3194  -9.3191  -9.3012
    -9.3012  -9.2994  -9.2787  -9.2780  -9.2315  -9.2244  -9.2243  -9.2064
    -9.2009  -9.2008  -9.1792  -9.1754  -9.1746  -9.1499  -9.1498  -9.1496
    -9.1463  -9.1461  -9.1426  -9.1138  -9.0898  -9.0891  -9.0865  -9.0430
    -9.0306  -9.0304  -8.9495  -8.9495  -8.9468  -8.9450  -8.9262  -8.9260
    -8.9233  -8.9153  -8.9083  -8.9081  -8.8877  -8.8875  -8.8843  -8.8811
    -8.8807  -8.8691  -8.8682  -8.8624  -8.8605  -8.8597  -8.8387  -8.7883
    -8.7883  -8.7881  -8.7881  -8.7881  -8.7881  -8.7343  -8.7305  -8.7168
    -8.7145  -8.7101  -8.7088  -8.6690  -8.6660  -8.6314  -8.6308  -8.6292
    -8.6260  -8.5941  -8.5917  -8.5600  -8.5599  -8.5588  -8.5579  -8.5491
    -8.5482  -8.4912  -8.4074  -8.4050  -8.3993  -8.3447  -8.3336  -8.3336
    -8.3283  -8.3282  -8.3219  -8.3218  -8.2952  -8.2950  -8.2579  -8.2450
    -8.2448  -8.2424  -8.2424  -8.2421  -8.2384  -8.2270  -8.2264  -8.2158
    -8.2158  -8.2150  -8.2113  -8.2071  -8.2066  -8.1879  -8.1879  -8.1875
    -8.1862  -8.1856  -8.1856  -8.0833  -7.9681  -7.9669  -7.9255  -7.9228
    -7.9218  -7.8334  -7.8216  -7.8197  -7.7934  -7.7363  -7.7346  -7.7339
    -7.6657  -7.6650  -7.6637  -7.6125  -7.6117  -7.6095  -7.5874  -7.5863
    -7.5754  -7.5746  -7.5746  -7.5638  -7.5384  -7.5217  -7.5202  -7.5120
    -7.5035  -7.5035  -7.5010  -7.5010  -7.4995  -7.4963  -7.4843  -7.4839
    -7.4764  -7.4763  -7.4731  -7.4727  -7.4725  -7.4710  -7.4570  -7.4558
    -7.4495  -7.4495  -7.4489  -7.4484  -7.4438  -7.4426  -7.4373  -7.4132
    -7.4088  -7.4069  -7.3919  -7.3912  -7.3764  -7.3758  -7.3746  -7.3687
    -7.3548  -7.3338  -7.3333  -7.3131  -7.3121  -7.2895  -7.2894  -7.2768
    -7.2730  -7.2618  -7.2615  -7.2535  -7.2528  -7.2527  -7.2377  -7.2176
    -7.2176  -7.1996  -7.1995  -7.1813  -7.1812  -7.1604  -7.1602  -7.1161
    -7.1160  -7.0662  -7.0579  -7.0544  -7.0539  -7.0467  -6.9009  -6.8995
    -6.8680  -6.8645  -6.8625  -6.8187  -6.8180  -6.8157  -6.7774  -6.7461
    -6.7455  -6.7451  -6.7033  -6.7025  -6.6752  -6.6747  -6.6652  -6.6387
    -6.6380  -6.6047  -6.5894  -6.5892  -6.5889  -6.5759  -6.5694  -6.5684
    -6.5608  -6.5414  -6.5407  -6.5245  -6.5240  -6.5092  -6.4973  -6.4913
    -6.4907  -6.4810  -6.4808  -6.4744  -6.4742  -6.4736  -6.4692  -6.4684
    -6.4647  -6.4646  -6.4644  -6.4643  -6.4639  -6.4618  -6.4547  -6.4541
    -6.4167  -6.4095  -6.4093  -6.3990  -6.3786  -6.3766  -6.3762  -6.3453
    -6.3386  -6.3164  -6.3163  -6.3011  -6.3010  -6.2995  -6.2947  -6.2890
    -6.2889  -6.2688  -6.2685  -6.2637  -6.2544  -6.2501  -6.2500  -6.2380
    -6.2376  -6.2291  -6.2192  -6.2179  -6.2177  -6.2151  -6.2149  -6.2110
    -6.0500  -5.8299  -5.8297  -5.6586  -5.5080  -5.3476  -5.1935  -5.1910
    -5.1676  -5.0883  -4.8639  -4.8609  -4.3406  -3.8753  -3.8742  -3.8206
    -3.8203  -3.8176  -3.8019  -3.8015  -3.8005  -3.7971  -3.7901  -3.7898
    -3.7787  -3.7269  -3.7264  -3.6672  -3.6660  -3.6658  -3.6624  -3.6606
    -3.6592  -3.6417  -3.6406  -3.6396  -3.5912  -3.5129  -3.5125  -3.5005
    -3.4745  -3.4737  -3.4626  -3.4602  -3.4530  -3.4522  -3.4372  -3.4369
    -3.4353  -3.4323  -3.4322  -3.4289  -3.4285  -3.4125  -3.4121  -3.4095
    -3.4093  -3.4083  -3.3983  -3.3977  -3.3929  -3.3858  -3.3854  -3.3757
    -3.3756  -3.3744  -3.3743  -3.3709  -3.3708  -3.3694  -3.3615  -3.3550
    -3.3548  -3.3294  -3.3204  -3.3203  -3.3112  -3.3110  -3.3077  -3.3065
    -3.3049  -3.3047  -3.2863  -3.2847  -3.2841  -3.2562  -3.2528  -3.2527
    -3.2433  -3.2430  -3.2395  -3.1905  -3.1903  -3.1785  -3.1781  -3.1727
    -3.1615  -3.0480  -3.0477  -3.0290  -3.0275  -3.0240  -3.0239  -3.0151
    -3.0135  -3.0133  -2.9788  -2.9786  -2.9548  -2.9532  -2.9516  -2.9418
    -2.9399  -2.9393  -2.9384  -2.9354  -2.9337  -2.9332  -2.9330  -2.9305
    -2.9292  -2.9286  -2.9202  -2.9197  -2.9117  -2.9116  -2.9000  -2.8999
    -2.8998  -2.8980  -2.8958  -2.8947  -2.8945  -2.8943  -2.8939  -2.8623
    -2.8609  -2.8564  -2.8549  -2.8401  -2.8392  -2.8215  -2.8055  -2.8051
    -2.7727  -2.7717  -2.7714  -2.7707  -2.7690  -2.7688  -2.7685  -2.7683
    -2.7673  -2.7579  -2.7576  -2.7334  -2.7266  -2.7259  -2.7121  -2.7117
    -2.6965  -2.6959  -2.6817  -2.6473  -2.6467  -2.6072  -2.6069  -2.5944
    -2.5921  -2.5896  -2.5884  -2.5880  -2.5853  -2.5368  -2.5309  -2.5305
    -2.5123  -2.5122  -2.4955  -2.4215  -2.3846  -2.3827  -2.3822  -2.3764
    -2.3759  -2.3691

          k = 0.0000-0.5773 0.0000 (386352 PWs)   bands (ev):

   -89.0321 -89.0173 -89.0152 -87.9640 -66.5853 -66.5852 -66.5852 -66.5850
   -66.5841 -66.5841 -66.5834 -66.5804 -66.5746 -66.5746 -66.5745 -66.5744
   -66.5735 -66.5735 -66.5706 -66.5685 -66.5624 -66.5618 -66.5598 -66.5595
   -66.5595 -66.5595 -66.5595 -66.5594 -66.5594 -66.5593 -66.5593 -66.5584
   -66.5584 -66.5584 -66.5584 -66.5551 -66.5550 -66.5550 -66.5548 -66.5539
   -66.5539 -66.5488 -66.5488 -66.5488 -66.5488 -66.5488 -66.5488 -66.5485
   -66.5484 -66.5477 -66.5477 -66.5476 -66.5476 -66.5445 -66.5443 -66.5443
   -66.5442 -66.5442 -66.5436 -66.5432 -66.5432 -66.5426 -66.5370 -66.5355
   -66.5339 -66.5289 -66.5274 -66.5227 -55.1387 -55.0287 -55.0232 -54.9055
   -54.8787 -54.8775 -54.6158 -54.6096 -54.5823 -53.6955 -53.6832 -53.6812
   -40.8872 -40.8872 -40.8872 -40.8872 -40.8872 -40.8871 -40.8870 -40.8869
   -40.8868 -40.8868 -40.8868 -40.8868 -40.8813 -40.8772 -40.8716 -40.8691
   -40.8604 -40.8604 -40.8604 -40.8601 -40.8599 -40.8599 -40.8557 -40.8484
   -40.8483 -40.8482 -40.8481 -40.8479 -40.8479 -40.8427 -40.8341 -40.8319
   -40.7977 -40.7977 -40.7977 -40.7977 -40.7975 -40.7975 -40.7975 -40.7974
   -40.7971 -40.7971 -40.7971 -40.7971 -40.7877 -40.7846 -40.7829 -40.7805
   -40.7743 -40.7513 -40.7447 -40.7389 -40.7389 -40.7389 -40.7386 -40.7385
   -40.7385 -40.7335 -40.7294 -40.7294 -40.7292 -40.7292 -40.7287 -40.7287
   -40.7211 -40.7209 -40.7180 -40.7180 -40.7179 -40.7179 -40.7176 -40.7176
   -40.7108 -40.7090 -40.6995 -40.6884 -40.6884 -40.6884 -40.6884 -40.6884
   -40.6884 -40.6883 -40.6882 -40.6879 -40.6879 -40.6879 -40.6879 -40.6875
   -40.6838 -40.6824 -40.6797 -40.6797 -40.6797 -40.6794 -40.6792 -40.6792
   -40.6761 -40.6758 -40.6679 -40.6679 -40.6678 -40.6677 -40.6675 -40.6674
   -40.6674 -40.6674 -40.6674 -40.6674 -40.6672 -40.6672 -40.6671 -40.6670
   -40.6669 -40.6669 -40.6669 -40.6669 -40.6661 -40.6655 -40.6627 -40.6614
   -40.6587 -40.6587 -40.6586 -40.6586 -40.6582 -40.6582 -40.6551 -40.6499
   -40.6370 -40.6370 -40.6370 -40.6370 -40.6370 -40.6369 -40.6367 -40.6366
   -40.6362 -40.6362 -40.6362 -40.6362 -40.6300 -40.6241 -40.6201 -40.6181
   -40.6022 -40.6022 -40.6022 -40.6022 -40.6021 -40.6021 -40.6020 -40.6020
   -40.6015 -40.6015 -40.6015 -40.6015 -40.5931 -40.5917 -40.5901 -40.5901
   -40.5900 -40.5898 -40.5893 -40.5893 -40.5863 -40.5840 -40.5769 -40.5708
   -40.5708 -40.5707 -40.5704 -40.5700 -40.5700 -40.5689 -40.5590 -40.5538
   -40.5538 -40.5536 -40.5536 -40.5530 -40.5530 -40.5522 -40.5407 -40.5321
   -40.5231 -40.5231 -40.5230 -40.5228 -40.5223 -40.5223 -40.5091 -40.5043
   -20.3954 -19.8577 -19.8393 -19.8004 -19.7498 -19.7069 -19.6416 -19.6146
   -19.5650 -19.4391 -19.4024 -19.3828 -19.3199 -19.2899 -19.2190 -19.1929
   -19.1491 -18.7986 -18.7749 -18.7423 -18.7358 -18.7144 -18.6910 -18.6821
   -18.6807 -18.6803 -18.6621 -18.6303 -18.6244 -18.6091 -18.6060 -18.5915
   -18.5706 -18.5634 -18.5444 -18.5195 -18.5191 -18.5165 -18.5053 -18.4969
   -18.4821 -18.4583 -18.4570 -18.4439 -18.4366 -18.4056 -18.3840 -18.3765
   -18.3737 -18.3587 -18.3465 -18.3228 -18.3027 -18.2865 -18.2843 -18.2664
   -18.2470 -18.2188 -18.2149 -18.2116 -18.1764 -18.1526 -18.1504 -18.1495
   -18.1324 -18.1106 -18.0992 -18.0800 -18.0755 -18.0672 -18.0651 -18.0638
   -18.0600 -18.0443 -18.0388 -18.0383 -18.0367 -18.0364 -18.0326 -18.0252
   -18.0200 -18.0115 -18.0093 -17.9965 -17.9800 -17.9770 -17.9735 -17.9682
   -17.9679 -17.9666 -17.9623 -17.9573 -17.9549 -17.9448 -17.9225 -17.9189
   -17.9040 -17.9018 -17.9004 -17.8866 -17.8611 -17.8611 -17.8525 -17.8429
   -17.8227 -17.8212 -17.8139 -17.8115 -17.8061 -17.8049 -17.7864 -17.7861
   -17.7855 -17.7847 -17.7838 -17.7837 -17.7711 -17.7707 -17.7527 -17.7515
   -17.7284 -17.7274 -17.7097 -17.7088 -17.6939 -17.6936 -17.6856 -17.6856
   -12.4291 -12.1433 -12.1036 -11.6876 -11.6855 -11.6064 -11.5159 -11.4892
   -11.4695 -11.4682 -11.4637 -11.4511 -11.4428 -11.4364 -11.4338 -11.3930
   -11.3908 -11.3767 -11.3594 -11.3504 -11.3413 -11.3138 -11.3084 -11.2861
   -11.2723 -11.2708 -11.2531 -11.2442 -11.2382 -11.2292 -11.2260 -11.2210
   -11.2178 -11.1838 -11.1734 -11.1650 -11.1584 -11.1502 -11.1482 -11.1374
   -11.1354 -11.1247 -11.1162 -11.1158 -11.1098 -11.1069 -11.0802 -11.0658
   -11.0653 -11.0424 -11.0355 -11.0042 -10.9809 -10.9729 -10.9179 -10.9076
   -10.8969 -10.8866 -10.8865 -10.8772 -10.8689 -10.8293 -10.8290 -10.8129
   -10.8051 -10.8012 -10.7966 -10.7918 -10.7827 -10.7773 -10.7764 -10.7759
   -10.7757 -10.7674 -10.7650 -10.7634 -10.7585 -10.7583 -10.7533 -10.7495
   -10.7476 -10.7456 -10.7332 -10.7096 -10.7090 -10.7088 -10.7081 -10.6020
   -10.5125 -10.5033 -10.4975 -10.4853 -10.4778 -10.4541 -10.4138 -10.3632
   -10.3083 -10.2901 -10.2583 -10.2285 -10.2015 -10.1688 -10.1225 -10.1087
   -10.0994 -10.0858 -10.0762 -10.0672 -10.0544 -10.0208 -10.0136 -10.0051
   -10.0044  -9.9971  -9.9914  -9.9908  -9.9753  -9.9520  -9.9451  -9.9395
    -9.9078  -9.9003  -9.8866  -9.8794  -9.8688  -9.8645  -9.8574  -9.8550
    -9.8478  -9.8228  -9.8062  -9.7744  -9.7682  -9.7524  -9.7417  -9.7363
    -9.7257  -9.7101  -9.7087  -9.6946  -9.6761  -9.6579  -9.6310  -9.6305
    -9.6096  -9.5999  -9.5985  -9.5894  -9.5760  -9.5427  -9.5418  -9.5371
    -9.5288  -9.5121  -9.5111  -9.5106  -9.4981  -9.4590  -9.4574  -9.4492
    -9.4447  -9.4418  -9.4400  -9.4269  -9.4237  -9.4198  -9.4042  -9.4029
    -9.3878  -9.3715  -9.3431  -9.3316  -9.2900  -9.2878  -9.2733  -9.2312
    -9.2264  -9.2056  -9.1797  -9.1760  -9.1714  -9.1663  -9.1470  -9.1352
    -9.1308  -9.1063  -9.1044  -9.0968  -9.0711  -9.0642  -9.0618  -9.0404
    -9.0300  -9.0219  -9.0157  -9.0089  -9.0083  -8.9881  -8.9626  -8.9611
    -8.9307  -8.9301  -8.9223  -8.9221  -8.9187  -8.9114  -8.8948  -8.8731
    -8.8701  -8.8660  -8.8602  -8.8593  -8.8547  -8.8502  -8.8491  -8.8444
    -8.8355  -8.8350  -8.8337  -8.8279  -8.8227  -8.8140  -8.8067  -8.8060
    -8.8034  -8.7960  -8.7916  -8.7816  -8.7601  -8.7588  -8.7554  -8.7550
    -8.7531  -8.7527  -8.7386  -8.7299  -8.7257  -8.7068  -8.7024  -8.7007
    -8.6991  -8.6975  -8.6814  -8.6505  -8.6270  -8.6242  -8.5952  -8.5829
    -8.5578  -8.5341  -8.5205  -8.4704  -8.4680  -8.4156  -8.4054  -8.3486
    -8.3459  -8.3262  -8.3217  -8.2704  -8.2541  -8.2443  -8.1859  -8.1568
    -8.1384  -8.0937  -8.0935  -8.0851  -8.0844  -8.0738  -8.0731  -8.0624
    -8.0519  -8.0291  -8.0185  -7.9832  -7.9337  -7.9332  -7.8693  -7.8449
    -7.8166  -7.8103  -7.8042  -7.8025  -7.7903  -7.7885  -7.7792  -7.7787
    -7.7739  -7.7723  -7.7698  -7.7646  -7.7640  -7.7594  -7.7591  -7.7505
    -7.7475  -7.7467  -7.7361  -7.7360  -7.7328  -7.7320  -7.7310  -7.7294
    -7.7281  -7.7244  -7.7237  -7.7138  -7.7110  -7.7040  -7.6967  -7.6958
    -7.6887  -7.6876  -7.6860  -7.6631  -7.6628  -7.6623  -7.6610  -7.6382
    -7.6329  -7.6325  -7.6306  -7.6274  -7.6125  -7.6121  -7.5911  -7.5861
    -7.5765  -7.5742  -7.5719  -7.5700  -7.5696  -7.5626  -7.5578  -7.5516
    -7.5429  -7.5317  -7.5313  -7.5291  -7.5283  -7.5166  -7.5164  -7.4895
    -7.4402  -7.4351  -7.4262  -7.4247  -7.4204  -7.4078  -7.3937  -7.3562
    -7.3136  -7.2154  -7.1806  -7.1595  -7.1371  -7.1368  -7.1278  -7.1252
    -7.1074  -7.0877  -7.0717  -7.0701  -7.0667  -7.0558  -7.0534  -7.0389
    -7.0056  -6.9959  -6.9884  -6.9881  -6.9803  -6.9635  -6.9566  -6.9413
    -6.9341  -6.9200  -6.8850  -6.8808  -6.8731  -6.8677  -6.8499  -6.8471
    -6.8365  -6.8256  -6.8219  -6.8035  -6.7646  -6.7424  -6.7403  -6.7283
    -6.7270  -6.6802  -6.6640  -6.6607  -6.6394  -6.6272  -6.6231  -6.5931
    -6.5862  -6.5735  -6.5724  -6.5708  -6.5701  -6.5653  -6.5558  -6.5536
    -6.5528  -6.5523  -6.5459  -6.5455  -6.5448  -6.5448  -6.5438  -6.5412
    -6.5153  -6.4770  -6.4674  -6.3986  -6.3806  -6.3613  -6.3429  -6.3047
    -6.2875  -6.2847  -6.2825  -6.2761  -6.2687  -6.2558  -6.2434  -6.2422
    -6.2417  -6.2384  -6.2373  -6.2326  -6.2185  -6.2144  -6.2053  -6.1980
    -6.1832  -6.1687  -6.1686  -6.1642  -6.1562  -6.1105  -5.9819  -5.9708
    -5.9483  -5.9331  -5.9059  -5.8737  -5.8602  -5.8224  -5.8168  -5.8118
    -5.7758  -5.7615  -5.6511  -5.6196  -5.5605  -5.5506  -5.5400  -5.1737
    -5.1626  -5.1238  -4.8551  -4.8519  -4.3248  -4.0744  -4.0659  -4.0559
    -4.0361  -3.9376  -3.9251  -3.8983  -3.8846  -3.8818  -3.8394  -3.8245
    -3.8099  -3.8016  -3.7966  -3.7810  -3.7797  -3.7765  -3.7648  -3.7640
    -3.7432  -3.6823  -3.6789  -3.6547  -3.6073  -3.6044  -3.5706  -3.5688
    -3.5669  -3.5631  -3.5546  -3.5233  -3.5161  -3.5124  -3.4994  -3.4957
    -3.4936  -3.4793  -3.4732  -3.4661  -3.4590  -3.4466  -3.4463  -3.4424
    -3.4389  -3.4272  -3.4216  -3.4175  -3.4138  -3.3996  -3.3921  -3.3899
    -3.3845  -3.3805  -3.3743  -3.3478  -3.3217  -3.3179  -3.3135  -3.3124
    -3.3097  -3.3069  -3.3030  -3.2853  -3.2795  -3.2662  -3.2619  -3.2515
    -3.2496  -3.2464  -3.2444  -3.2424  -3.2402  -3.2285  -3.2135  -3.2106
    -3.2082  -3.2006  -3.1998  -3.1931  -3.1866  -3.1846  -3.1763  -3.1744
    -3.1703  -3.1606  -3.1494  -3.1448  -3.1435  -3.1363  -3.1357  -3.1305
    -3.1262  -3.1261  -3.1196  -3.0824  -3.0626  -3.0614  -3.0498  -3.0370
    -3.0318  -3.0307  -3.0255  -2.9968  -2.9917  -2.9895  -2.9887  -2.9861
    -2.9854  -2.9801  -2.9788  -2.9776  -2.9766  -2.9720  -2.9706  -2.9566
    -2.9544  -2.9512  -2.9481  -2.9430  -2.9362  -2.9327  -2.9312  -2.9294
    -2.9230  -2.9140  -2.9124  -2.9098  -2.9084  -2.9040  -2.9007  -2.8949
    -2.8946  -2.8673  -2.8604  -2.8506  -2.8490  -2.8420  -2.8401  -2.8327
    -2.8159  -2.7633  -2.7586  -2.7551  -2.7476  -2.7052  -2.6959  -2.6860
    -2.6847  -2.6009  -2.5797  -2.5558  -2.5450  -2.5404  -2.5165  -2.5137
    -2.5090  -2.5027  -2.4973  -2.4965  -2.4918  -2.4897  -2.4882  -2.4129
    -2.3814  -2.3731  -2.3664  -2.3620  -2.3588  -2.3519  -2.3428  -2.3423
    -2.3108  -2.3065

          k =-0.5000-0.2887 0.0000 (386352 PWs)   bands (ev):

   -89.0321 -89.0173 -89.0152 -87.9640 -66.5852 -66.5852 -66.5852 -66.5850
   -66.5842 -66.5841 -66.5834 -66.5805 -66.5746 -66.5746 -66.5745 -66.5744
   -66.5735 -66.5735 -66.5702 -66.5689 -66.5622 -66.5622 -66.5597 -66.5595
   -66.5595 -66.5595 -66.5595 -66.5594 -66.5593 -66.5593 -66.5593 -66.5584
   -66.5584 -66.5584 -66.5584 -66.5550 -66.5550 -66.5550 -66.5548 -66.5539
   -66.5539 -66.5488 -66.5488 -66.5488 -66.5488 -66.5488 -66.5488 -66.5485
   -66.5484 -66.5477 -66.5477 -66.5476 -66.5476 -66.5446 -66.5443 -66.5443
   -66.5442 -66.5442 -66.5434 -66.5432 -66.5432 -66.5427 -66.5366 -66.5359
   -66.5339 -66.5292 -66.5270 -66.5228 -55.1387 -55.0287 -55.0232 -54.9055
   -54.8787 -54.8775 -54.6158 -54.6096 -54.5823 -53.6955 -53.6832 -53.6812
   -40.8872 -40.8872 -40.8872 -40.8872 -40.8872 -40.8871 -40.8870 -40.8869
   -40.8868 -40.8868 -40.8868 -40.8868 -40.8813 -40.8771 -40.8721 -40.8688
   -40.8604 -40.8604 -40.8604 -40.8601 -40.8599 -40.8599 -40.8556 -40.8484
   -40.8483 -40.8482 -40.8481 -40.8479 -40.8479 -40.8427 -40.8339 -40.8319
   -40.7977 -40.7977 -40.7977 -40.7976 -40.7975 -40.7975 -40.7975 -40.7974
   -40.7971 -40.7971 -40.7971 -40.7971 -40.7875 -40.7846 -40.7830 -40.7806
   -40.7743 -40.7507 -40.7457 -40.7389 -40.7389 -40.7389 -40.7386 -40.7385
   -40.7385 -40.7331 -40.7294 -40.7294 -40.7292 -40.7292 -40.7287 -40.7287
   -40.7213 -40.7209 -40.7180 -40.7180 -40.7179 -40.7179 -40.7176 -40.7176
   -40.7108 -40.7093 -40.6994 -40.6884 -40.6884 -40.6884 -40.6884 -40.6883
   -40.6883 -40.6883 -40.6883 -40.6879 -40.6879 -40.6879 -40.6879 -40.6874
   -40.6837 -40.6825 -40.6797 -40.6797 -40.6797 -40.6794 -40.6792 -40.6792
   -40.6764 -40.6759 -40.6679 -40.6679 -40.6678 -40.6677 -40.6675 -40.6674
   -40.6674 -40.6674 -40.6674 -40.6674 -40.6672 -40.6672 -40.6671 -40.6670
   -40.6669 -40.6669 -40.6669 -40.6669 -40.6663 -40.6653 -40.6625 -40.6615
   -40.6587 -40.6587 -40.6586 -40.6586 -40.6582 -40.6582 -40.6551 -40.6499
   -40.6370 -40.6370 -40.6370 -40.6370 -40.6369 -40.6369 -40.6367 -40.6366
   -40.6363 -40.6362 -40.6362 -40.6362 -40.6298 -40.6238 -40.6205 -40.6180
   -40.6022 -40.6022 -40.6022 -40.6022 -40.6021 -40.6021 -40.6020 -40.6020
   -40.6015 -40.6015 -40.6015 -40.6015 -40.5931 -40.5920 -40.5901 -40.5901
   -40.5900 -40.5898 -40.5893 -40.5893 -40.5863 -40.5839 -40.5767 -40.5708
   -40.5707 -40.5707 -40.5704 -40.5700 -40.5700 -40.5691 -40.5591 -40.5538
   -40.5538 -40.5536 -40.5536 -40.5530 -40.5530 -40.5520 -40.5407 -40.5319
   -40.5231 -40.5231 -40.5230 -40.5228 -40.5223 -40.5223 -40.5091 -40.5045
   -20.3954 -19.8579 -19.8393 -19.8006 -19.7497 -19.7070 -19.6415 -19.6147
   -19.5642 -19.4390 -19.4024 -19.3828 -19.3200 -19.2900 -19.2192 -19.1929
   -19.1497 -18.7987 -18.7747 -18.7429 -18.7348 -18.7142 -18.6910 -18.6820
   -18.6809 -18.6801 -18.6620 -18.6303 -18.6246 -18.6088 -18.6062 -18.5912
   -18.5696 -18.5641 -18.5448 -18.5195 -18.5192 -18.5165 -18.5047 -18.4973
   -18.4820 -18.4586 -18.4577 -18.4440 -18.4364 -18.4059 -18.3841 -18.3766
   -18.3737 -18.3584 -18.3464 -18.3228 -18.3029 -18.2864 -18.2846 -18.2665
   -18.2465 -18.2189 -18.2150 -18.2119 -18.1763 -18.1521 -18.1504 -18.1498
   -18.1323 -18.1103 -18.0989 -18.0800 -18.0752 -18.0672 -18.0652 -18.0640
   -18.0601 -18.0442 -18.0387 -18.0382 -18.0365 -18.0361 -18.0325 -18.0251
   -18.0200 -18.0115 -18.0094 -17.9971 -17.9801 -17.9768 -17.9734 -17.9682
   -17.9679 -17.9666 -17.9623 -17.9572 -17.9552 -17.9446 -17.9232 -17.9183
   -17.9041 -17.9020 -17.9005 -17.8867 -17.8617 -17.8610 -17.8527 -17.8428
   -17.8228 -17.8207 -17.8140 -17.8117 -17.8063 -17.8054 -17.7864 -17.7860
   -17.7854 -17.7844 -17.7837 -17.7836 -17.7715 -17.7710 -17.7527 -17.7518
   -17.7283 -17.7276 -17.7091 -17.7085 -17.6938 -17.6935 -17.6858 -17.6857
   -12.4291 -12.1423 -12.1043 -11.6878 -11.6854 -11.6061 -11.5165 -11.4890
   -11.4700 -11.4681 -11.4637 -11.4511 -11.4431 -11.4361 -11.4338 -11.3927
   -11.3907 -11.3770 -11.3596 -11.3502 -11.3414 -11.3137 -11.3082 -11.2863
   -11.2723 -11.2709 -11.2528 -11.2442 -11.2381 -11.2291 -11.2260 -11.2210
   -11.2175 -11.1839 -11.1736 -11.1649 -11.1585 -11.1507 -11.1480 -11.1378
   -11.1354 -11.1247 -11.1163 -11.1161 -11.1096 -11.1073 -11.0810 -11.0657
   -11.0649 -11.0429 -11.0354 -11.0051 -10.9814 -10.9729 -10.9177 -10.9075
   -10.8968 -10.8866 -10.8862 -10.8769 -10.8689 -10.8302 -10.8290 -10.8139
   -10.8050 -10.8009 -10.7968 -10.7912 -10.7826 -10.7770 -10.7762 -10.7756
   -10.7754 -10.7675 -10.7649 -10.7633 -10.7587 -10.7585 -10.7534 -10.7497
   -10.7477 -10.7456 -10.7333 -10.7097 -10.7091 -10.7089 -10.7082 -10.6017
   -10.5127 -10.5027 -10.4973 -10.4854 -10.4742 -10.4540 -10.4137 -10.3632
   -10.3080 -10.2931 -10.2499 -10.2287 -10.2076 -10.1699 -10.1226 -10.1087
   -10.0993 -10.0854 -10.0762 -10.0673 -10.0544 -10.0208 -10.0129 -10.0055
   -10.0047  -9.9972  -9.9918  -9.9907  -9.9745  -9.9524  -9.9454  -9.9401
    -9.9078  -9.9003  -9.8862  -9.8793  -9.8682  -9.8645  -9.8573  -9.8543
    -9.8476  -9.8222  -9.8066  -9.7750  -9.7687  -9.7517  -9.7418  -9.7362
    -9.7253  -9.7103  -9.7091  -9.6944  -9.6767  -9.6580  -9.6315  -9.6311
    -9.6095  -9.5996  -9.5982  -9.5883  -9.5750  -9.5423  -9.5415  -9.5375
    -9.5285  -9.5127  -9.5107  -9.5104  -9.4985  -9.4590  -9.4573  -9.4488
    -9.4451  -9.4420  -9.4394  -9.4270  -9.4239  -9.4195  -9.4044  -9.4026
    -9.3880  -9.3709  -9.3429  -9.3312  -9.2911  -9.2874  -9.2723  -9.2317
    -9.2276  -9.2066  -9.1798  -9.1757  -9.1699  -9.1662  -9.1472  -9.1356
    -9.1305  -9.1071  -9.1048  -9.0972  -9.0715  -9.0645  -9.0627  -9.0409
    -9.0289  -9.0222  -9.0160  -9.0091  -9.0089  -8.9873  -8.9624  -8.9611
    -8.9307  -8.9305  -8.9226  -8.9223  -8.9186  -8.9114  -8.8947  -8.8729
    -8.8710  -8.8668  -8.8597  -8.8595  -8.8546  -8.8502  -8.8492  -8.8458
    -8.8356  -8.8350  -8.8331  -8.8280  -8.8228  -8.8137  -8.8065  -8.8059
    -8.8027  -8.7941  -8.7938  -8.7822  -8.7601  -8.7589  -8.7555  -8.7544
    -8.7530  -8.7527  -8.7386  -8.7299  -8.7256  -8.7068  -8.7028  -8.7011
    -8.6992  -8.6977  -8.6813  -8.6517  -8.6261  -8.6241  -8.5960  -8.5837
    -8.5572  -8.5293  -8.5206  -8.4707  -8.4682  -8.4155  -8.4054  -8.3505
    -8.3483  -8.3266  -8.3214  -8.2684  -8.2515  -8.2446  -8.1866  -8.1568
    -8.1366  -8.0937  -8.0935  -8.0851  -8.0843  -8.0738  -8.0731  -8.0621
    -8.0527  -8.0295  -8.0170  -7.9824  -7.9349  -7.9346  -7.8678  -7.8453
    -7.8174  -7.8105  -7.8038  -7.8029  -7.7903  -7.7889  -7.7798  -7.7794
    -7.7734  -7.7727  -7.7704  -7.7639  -7.7634  -7.7598  -7.7590  -7.7504
    -7.7475  -7.7467  -7.7361  -7.7358  -7.7327  -7.7319  -7.7309  -7.7294
    -7.7284  -7.7243  -7.7237  -7.7131  -7.7113  -7.7044  -7.6966  -7.6956
    -7.6879  -7.6878  -7.6872  -7.6632  -7.6628  -7.6623  -7.6610  -7.6389
    -7.6329  -7.6326  -7.6307  -7.6277  -7.6126  -7.6119  -7.5913  -7.5868
    -7.5765  -7.5742  -7.5731  -7.5702  -7.5695  -7.5627  -7.5578  -7.5516
    -7.5427  -7.5314  -7.5312  -7.5291  -7.5282  -7.5167  -7.5152  -7.4876
    -7.4402  -7.4354  -7.4267  -7.4249  -7.4205  -7.4083  -7.3927  -7.3558
    -7.3124  -7.2140  -7.1793  -7.1605  -7.1366  -7.1354  -7.1267  -7.1248
    -7.1087  -7.0890  -7.0717  -7.0693  -7.0665  -7.0550  -7.0512  -7.0389
    -7.0053  -6.9959  -6.9893  -6.9885  -6.9802  -6.9628  -6.9566  -6.9411
    -6.9385  -6.9203  -6.8847  -6.8807  -6.8729  -6.8678  -6.8502  -6.8479
    -6.8357  -6.8256  -6.8220  -6.8041  -6.7648  -6.7428  -6.7406  -6.7280
    -6.7273  -6.6793  -6.6630  -6.6615  -6.6404  -6.6267  -6.6241  -6.5928
    -6.5861  -6.5736  -6.5725  -6.5708  -6.5701  -6.5648  -6.5558  -6.5536
    -6.5528  -6.5521  -6.5459  -6.5455  -6.5448  -6.5446  -6.5438  -6.5415
    -6.5178  -6.4776  -6.4674  -6.3986  -6.3812  -6.3603  -6.3418  -6.3052
    -6.2872  -6.2846  -6.2824  -6.2761  -6.2685  -6.2564  -6.2431  -6.2430
    -6.2417  -6.2384  -6.2376  -6.2323  -6.2182  -6.2144  -6.2058  -6.1982
    -6.1821  -6.1688  -6.1687  -6.1643  -6.1546  -6.1102  -5.9804  -5.9720
    -5.9481  -5.9346  -5.9060  -5.8747  -5.8602  -5.8220  -5.8172  -5.8117
    -5.7760  -5.7617  -5.6509  -5.6193  -5.5607  -5.5505  -5.5389  -5.1718
    -5.1647  -5.1238  -4.8559  -4.8495  -4.3249  -4.0751  -4.0663  -4.0563
    -4.0357  -3.9378  -3.9255  -3.8986  -3.8843  -3.8826  -3.8382  -3.8247
    -3.8100  -3.8018  -3.7969  -3.7811  -3.7800  -3.7760  -3.7648  -3.7640
    -3.7425  -3.6828  -3.6788  -3.6553  -3.6061  -3.6046  -3.5703  -3.5691
    -3.5666  -3.5632  -3.5541  -3.5235  -3.5160  -3.5125  -3.4991  -3.4958
    -3.4936  -3.4797  -3.4736  -3.4657  -3.4592  -3.4468  -3.4466  -3.4427
    -3.4388  -3.4272  -3.4211  -3.4175  -3.4139  -3.3993  -3.3924  -3.3896
    -3.3857  -3.3802  -3.3751  -3.3476  -3.3222  -3.3181  -3.3133  -3.3129
    -3.3095  -3.3073  -3.3027  -3.2856  -3.2796  -3.2650  -3.2622  -3.2515
    -3.2498  -3.2468  -3.2443  -3.2422  -3.2400  -3.2286  -3.2133  -3.2109
    -3.2091  -3.2017  -3.1996  -3.1931  -3.1866  -3.1855  -3.1763  -3.1744
    -3.1698  -3.1602  -3.1495  -3.1447  -3.1432  -3.1361  -3.1357  -3.1307
    -3.1263  -3.1262  -3.1204  -3.0824  -3.0625  -3.0613  -3.0497  -3.0374
    -3.0316  -3.0305  -3.0255  -2.9964  -2.9915  -2.9897  -2.9887  -2.9864
    -2.9854  -2.9800  -2.9782  -2.9774  -2.9767  -2.9717  -2.9706  -2.9566
    -2.9545  -2.9516  -2.9485  -2.9430  -2.9359  -2.9325  -2.9312  -2.9293
    -2.9235  -2.9142  -2.9123  -2.9099  -2.9087  -2.9036  -2.9006  -2.8949
    -2.8949  -2.8673  -2.8602  -2.8498  -2.8495  -2.8420  -2.8403  -2.8323
    -2.8160  -2.7635  -2.7591  -2.7548  -2.7484  -2.7052  -2.6964  -2.6854
    -2.6840  -2.6010  -2.5794  -2.5557  -2.5448  -2.5368  -2.5159  -2.5125
    -2.5086  -2.5009  -2.4962  -2.4955  -2.4915  -2.4889  -2.4875  -2.4149
    -2.3770  -2.3723  -2.3665  -2.3615  -2.3576  -2.3511  -2.3417  -2.3414
    -2.3107  -2.3078

          k =-0.5000-0.8660 0.0000 (386352 PWs)   bands (ev):

   -89.0321 -89.0173 -89.0152 -87.9640 -66.5853 -66.5852 -66.5852 -66.5850
   -66.5842 -66.5841 -66.5834 -66.5804 -66.5746 -66.5746 -66.5745 -66.5744
   -66.5735 -66.5735 -66.5705 -66.5685 -66.5624 -66.5618 -66.5598 -66.5595
   -66.5595 -66.5595 -66.5595 -66.5594 -66.5594 -66.5593 -66.5593 -66.5584
   -66.5584 -66.5584 -66.5584 -66.5551 -66.5550 -66.5550 -66.5548 -66.5539
   -66.5539 -66.5488 -66.5488 -66.5488 -66.5488 -66.5488 -66.5488 -66.5485
   -66.5484 -66.5477 -66.5477 -66.5476 -66.5476 -66.5445 -66.5443 -66.5443
   -66.5442 -66.5442 -66.5437 -66.5432 -66.5432 -66.5426 -66.5371 -66.5355
   -66.5339 -66.5288 -66.5275 -66.5227 -55.1387 -55.0287 -55.0232 -54.9055
   -54.8787 -54.8775 -54.6158 -54.6096 -54.5823 -53.6955 -53.6832 -53.6812
   -40.8872 -40.8872 -40.8872 -40.8872 -40.8871 -40.8871 -40.8870 -40.8869
   -40.8868 -40.8868 -40.8868 -40.8868 -40.8813 -40.8772 -40.8715 -40.8691
   -40.8604 -40.8604 -40.8603 -40.8601 -40.8599 -40.8599 -40.8556 -40.8484
   -40.8484 -40.8482 -40.8481 -40.8479 -40.8479 -40.8427 -40.8342 -40.8319
   -40.7977 -40.7977 -40.7977 -40.7977 -40.7975 -40.7975 -40.7975 -40.7974
   -40.7971 -40.7971 -40.7971 -40.7971 -40.7877 -40.7846 -40.7830 -40.7805
   -40.7743 -40.7514 -40.7447 -40.7389 -40.7389 -40.7389 -40.7387 -40.7385
   -40.7385 -40.7335 -40.7294 -40.7294 -40.7292 -40.7292 -40.7287 -40.7287
   -40.7211 -40.7208 -40.7180 -40.7180 -40.7179 -40.7179 -40.7176 -40.7176
   -40.7108 -40.7090 -40.6996 -40.6884 -40.6884 -40.6884 -40.6884 -40.6884
   -40.6884 -40.6883 -40.6882 -40.6879 -40.6879 -40.6879 -40.6879 -40.6875
   -40.6838 -40.6824 -40.6797 -40.6797 -40.6797 -40.6794 -40.6792 -40.6792
   -40.6761 -40.6758 -40.6679 -40.6679 -40.6678 -40.6677 -40.6675 -40.6674
   -40.6674 -40.6674 -40.6674 -40.6674 -40.6672 -40.6672 -40.6672 -40.6670
   -40.6669 -40.6669 -40.6669 -40.6669 -40.6661 -40.6655 -40.6627 -40.6614
   -40.6587 -40.6587 -40.6586 -40.6586 -40.6582 -40.6582 -40.6551 -40.6499
   -40.6370 -40.6370 -40.6370 -40.6369 -40.6369 -40.6369 -40.6367 -40.6366
   -40.6363 -40.6363 -40.6362 -40.6362 -40.6300 -40.6241 -40.6201 -40.6182
   -40.6022 -40.6022 -40.6022 -40.6022 -40.6021 -40.6021 -40.6020 -40.6020
   -40.6015 -40.6015 -40.6015 -40.6015 -40.5932 -40.5918 -40.5901 -40.5901
   -40.5900 -40.5898 -40.5893 -40.5893 -40.5863 -40.5840 -40.5769 -40.5708
   -40.5707 -40.5707 -40.5705 -40.5700 -40.5700 -40.5689 -40.5589 -40.5538
   -40.5538 -40.5536 -40.5536 -40.5530 -40.5530 -40.5522 -40.5407 -40.5321
   -40.5231 -40.5231 -40.5230 -40.5228 -40.5223 -40.5223 -40.5090 -40.5044
   -20.3954 -19.8577 -19.8393 -19.8004 -19.7498 -19.7069 -19.6416 -19.6147
   -19.5649 -19.4391 -19.4024 -19.3828 -19.3199 -19.2899 -19.2190 -19.1929
   -19.1491 -18.7987 -18.7748 -18.7424 -18.7357 -18.7144 -18.6910 -18.6821
   -18.6808 -18.6803 -18.6621 -18.6303 -18.6244 -18.6091 -18.6061 -18.5915
   -18.5706 -18.5634 -18.5444 -18.5195 -18.5191 -18.5165 -18.5053 -18.4970
   -18.4821 -18.4584 -18.4570 -18.4438 -18.4364 -18.4057 -18.3841 -18.3765
   -18.3737 -18.3586 -18.3464 -18.3228 -18.3028 -18.2866 -18.2843 -18.2665
   -18.2470 -18.2188 -18.2149 -18.2116 -18.1763 -18.1527 -18.1504 -18.1496
   -18.1324 -18.1106 -18.0992 -18.0800 -18.0755 -18.0672 -18.0653 -18.0640
   -18.0602 -18.0442 -18.0386 -18.0382 -18.0366 -18.0363 -18.0324 -18.0252
   -18.0200 -18.0116 -18.0094 -17.9967 -17.9799 -17.9769 -17.9734 -17.9682
   -17.9679 -17.9666 -17.9622 -17.9572 -17.9549 -17.9446 -17.9225 -17.9189
   -17.9041 -17.9017 -17.9005 -17.8866 -17.8613 -17.8613 -17.8525 -17.8428
   -17.8226 -17.8213 -17.8141 -17.8117 -17.8065 -17.8051 -17.7863 -17.7860
   -17.7854 -17.7844 -17.7836 -17.7835 -17.7715 -17.7710 -17.7528 -17.7516
   -17.7284 -17.7275 -17.7092 -17.7083 -17.6939 -17.6935 -17.6858 -17.6857
   -12.4291 -12.1432 -12.1038 -11.6876 -11.6855 -11.6063 -11.5159 -11.4893
   -11.4696 -11.4682 -11.4637 -11.4511 -11.4429 -11.4364 -11.4339 -11.3929
   -11.3908 -11.3767 -11.3593 -11.3504 -11.3413 -11.3138 -11.3084 -11.2861
   -11.2723 -11.2709 -11.2531 -11.2441 -11.2381 -11.2292 -11.2260 -11.2209
   -11.2177 -11.1839 -11.1735 -11.1650 -11.1584 -11.1502 -11.1482 -11.1374
   -11.1354 -11.1247 -11.1163 -11.1160 -11.1099 -11.1069 -11.0802 -11.0657
   -11.0652 -11.0424 -11.0355 -11.0042 -10.9810 -10.9731 -10.9180 -10.9076
   -10.8969 -10.8866 -10.8865 -10.8772 -10.8688 -10.8296 -10.8291 -10.8129
   -10.8051 -10.8011 -10.7965 -10.7917 -10.7827 -10.7770 -10.7761 -10.7756
   -10.7754 -10.7674 -10.7650 -10.7634 -10.7588 -10.7585 -10.7535 -10.7497
   -10.7477 -10.7456 -10.7331 -10.7097 -10.7091 -10.7089 -10.7082 -10.6018
[...]
     atom  167 type  2   force =    -0.00000022    0.00000037   -0.00009076
     atom  168 type  2   force =    -0.00000038   -0.00007392   -0.00420220
     atom  169 type  1   force =    -0.00000014   -0.00000009    0.00255923
     atom  170 type  1   force =    -0.00000003   -0.00000003    0.00000786
     atom  171 type  2   force =    -0.00000002    0.00000000   -0.00003435
     atom  172 type  2   force =    -0.00000000    0.00000000    0.00017186
     atom  173 type  2   force =    -0.00000000    0.00000000    0.00441281
     atom  174 type  2   force =    -0.00000015    0.00000023    0.00009485
     atom  175 type  1   force =     0.00000740    0.00000421    0.00002606
     atom  176 type  1   force =    -0.00000005   -0.00007312   -0.00230237
     atom  177 type  2   force =     0.00001185    0.00000647   -0.00007703
     atom  178 type  2   force =    -0.00000007    0.00000854    0.00006065
     atom  179 type  2   force =     0.00000007    0.00000052   -0.00008987
     atom  180 type  2   force =    -0.00049436   -0.00028538   -0.00419395
     atom  181 type  1   force =    -0.00000009    0.00000004    0.00255921
     atom  182 type  1   force =     0.00000001   -0.00000011    0.00000789
     atom  183 type  2   force =    -0.00000002   -0.00000004   -0.00003434
     atom  184 type  2   force =    -0.00000000   -0.00000001    0.00017187
     atom  185 type  2   force =     0.00000000   -0.00000000    0.00441281
     atom  186 type  2   force =    -0.00000013    0.00000030    0.00009477
     atom  187 type  1   force =    -0.00000369    0.00000206    0.00002825
     atom  188 type  1   force =    -0.00006354    0.00003662   -0.00230240
     atom  189 type  2   force =    -0.00000502    0.00000206   -0.00008413
     atom  190 type  2   force =     0.00000711   -0.00000369    0.00006071
     atom  191 type  2   force =     0.00000075   -0.00000068   -0.00008991
     atom  192 type  2   force =    -0.00006429    0.00003654   -0.00420226
     atom  193 type  3   force =    -0.00000004   -0.00035364   -0.00620057
     atom  194 type  3   force =    -0.00030629    0.00017683   -0.00620056
     atom  195 type  3   force =     0.00030619    0.00017684   -0.00620060
     atom  196 type  3   force =    -0.00000018   -0.00000008   -0.00504054

     Total force =     0.001876     Total SCF correction =     0.000282
     SCF correction compared to forces is large: reduce conv_thr to get better values
     Energy error            =      1.1E-05 Ry
     Gradient error          =      6.3E-04 Ry/Bohr

     bfgs converged in  16 scf cycles and  15 bfgs steps
     (criteria: energy <  1.0E-04 Ry, force <  1.0E-03 Ry/Bohr)

     End of BFGS Geometry Optimization

     Final energy             =  -33841.5616920607 Ry

     File ./outdir/pwscf.bfgs deleted, as requested
Begin final coordinates

ATOMIC_POSITIONS (angstrom)
Mo            0.0000119917        1.8193638619       -9.1672481230    0   0   0
Mo            1.5756136568        0.9097075315       -3.0554901653    0   0   0
S             0.0000188998        1.8193822938       -4.6232556019    0   0   0
S             1.5756321638        0.9096773839       -7.6014065489    0   0   0
S             1.5756326175        0.9096785128      -10.7330757790    0   0   0
S             0.0000189190        1.8193860094       -1.4877129945    0   0   0
Mo           -0.0005557554        1.8246506487        3.0595422706
Mo            1.5754121856        0.9013194215        9.1720131116
S            -0.0001679093        1.8365953749        7.6147171405
S             1.5749332935        0.9148688086        4.6271453197
S             1.5749234110        0.9149686028        1.4915726876
S            -0.0167587262        1.7317685475       10.7748884074
Mo           -1.5756053507        4.5484193819       -9.1672481230    0   0   0
Mo            0.0000378379        3.6387394919       -3.0554952701    0   0   0
S            -1.5755913433        4.5484363582       -4.6232494962    0   0   0
S             0.0000148214        3.6387329039       -7.6014065489    0   0   0
S             0.0000152751        3.6387340328      -10.7330757790    0   0   0
S            -1.5755906502        4.5484413613       -1.4877305502    0   0   0
Mo           -1.5758682459        4.5531742836        3.0595506845
Mo           -0.0417392561        3.6258304252        9.2065190339
S            -1.5704309333        4.5563676500        7.6146963978
S            -0.0001092948        3.6439897182        4.6280177917
S            -0.0005831067        3.6435802910        1.4915923257
S            -1.6696414760        4.5945507488       10.7748771561
Mo           -3.1512226931        7.2774749019       -9.1672481230    0   0   0
Mo           -1.5755910988        6.3678216792       -3.0555115988    0   0   0
S            -3.1512162438        7.2774954350       -4.6232578178    0   0   0
S            -1.5756025210        6.3677884239       -7.6014065489    0   0   0
S            -1.5756020673        6.3677895528      -10.7330757790    0   0   0
S            -3.1512127704        7.2774877076       -1.4877200710    0   0   0
Mo           -3.1517366937        7.2822346549        3.0588782514
Mo           -1.5926526571        6.3885582835        9.1719989896
S            -3.1475700987        7.2865576207        7.5830425690
S            -1.5760929623        6.3725791655        4.6271708387
S            -1.5758564975        6.3723154723        1.4915912103
S            -3.1724509719        7.3005065139       10.7290870495
Mo           -4.7268400355       10.0065304219       -9.1672481230    0   0   0
Mo           -3.1512405618        9.0968403586       -3.0554816746    0   0   0
S            -4.7268341792       10.0065523623       -4.6232463762    0   0   0
S            -3.1512198634        9.0968439439       -7.6014065489    0   0   0
S            -3.1512194097        9.0968450728      -10.7330757790    0   0   0
S            -4.7268370797       10.0065537885       -1.4877176751    0   0   0
Mo           -4.7275363808       10.0115976787        3.0588734066
Mo           -3.1516966364        9.1077717747        9.1501283361
S            -4.7268399297       10.0218697893        7.5830598499
S            -3.1519499658        9.1017642632        4.6261653021
S            -3.1517485128        9.1017277524        1.4911788569
S            -4.7272506624        9.9934798682       10.7290969453
Mo            3.1512517547        1.8193638619       -9.1672481230    0   0   0
Mo            4.7269020221        0.9097289540       -3.0554823951    0   0   0
S             3.1512612351        1.8193882564       -4.6232320683    0   0   0
S             4.7268719268        0.9096773839       -7.6014065489    0   0   0
S             4.7268723805        0.9096785128      -10.7330757790    0   0   0
S             3.1512592485        1.8193890201       -1.4877261251    0   0   0
Mo            3.1504189341        1.8246420320        3.0595284257
Mo            4.7326986044        0.9068585598        9.1547445507
S             3.1511300953        1.8364375224        7.6148273859
S             4.7260347400        0.9148980203        4.6269504825
S             4.7259297519        0.9146612619        1.4915408973
S             3.1676049547        1.7316093450       10.7750008031
Mo            1.5756344123        4.5484193819       -9.1672481230    0   0   0
Mo            3.1512756394        3.6387769522       -3.0554814834    0   0   0
S             1.5756504879        4.5484423799       -4.6232390542    0   0   0
S             3.1512545844        3.6387329039       -7.6014065489    0   0   0
S             3.1512550381        3.6387340328      -10.7330757790    0   0   0
S             1.5756466253        4.5484431864       -1.4877251801    0   0   0
Mo            1.5749406838        4.5532689233        3.0593824803
Mo            3.1930443720        3.6257640218        9.2064330577
S             1.5756722227        4.5596396365        7.6818598763
S             3.1499864378        3.6439739617        4.6280014866
S             3.1504674008        3.6435832841        1.4915794435
S             1.5757822821        4.5598139670       10.6939869002
Mo            0.0000170699        7.2774749019       -9.1672481230    0   0   0
Mo            1.5756764447        6.3678236689       -3.0554877708    0   0   0
S             0.0000381981        7.2774979204       -4.6232454413    0   0   0
S             1.5756372420        6.3677884239       -7.6014065489    0   0   0
S             1.5756376957        6.3677895528      -10.7330757790    0   0   0
S             0.0000328088        7.2774946042       -1.4877307940    0   0   0
Mo           -0.0003796785        7.2819896230        3.0595680964
Mo            1.5755977420        6.4273127385        9.2064292269
S             0.0050669154        7.2855771597        7.6148086108
S             1.5749298229        6.3720240283        4.6280470455
S             1.5749538324        6.3724648105        1.4916074526
S            -0.0776272714        7.3524181090       10.7749949190
Mo           -1.5756002725       10.0065304219       -9.1672481230    0   0   0
Mo            0.0000873425        9.0968676911       -3.0554912329    0   0   0
S            -1.5755883952       10.0065504530       -4.6232240150    0   0   0
S             0.0000198996        9.0968439439       -7.6014065489    0   0   0
S             0.0000203533        9.0968450728      -10.7330757790    0   0   0
S            -1.5755859047       10.0065492576       -1.4877362381    0   0   0
Mo           -1.5762060556       10.0114372822        3.0591645333
Mo           -0.0092378021        9.1200952280        9.1547406055
S            -1.5760289441       10.0174551424        7.5767426378
S            -0.0005094790        9.1015024420        4.6269827396
S            -0.0006209552        9.1012968947        1.4915644963
S            -1.5800824021       10.0152014946       10.7282231919
Mo            6.3024915177        1.8193638619       -9.1672481230    0   0   0
Mo            7.8781001445        0.9096521684       -3.0554919963    0   0   0
S             6.3025008696        1.8193826232       -4.6232480596    0   0   0
S             7.8781116898        0.9096773839       -7.6014065489    0   0   0
S             7.8781121435        0.9096785128      -10.7330757790    0   0   0
S             6.3025042007        1.8193849068       -1.4877147524    0   0   0
Mo            6.3016894730        1.8242716163        3.0591473575
Mo            7.8778328998        0.9206945097        9.1506817279
S             6.3026472962        1.8299521389        7.5821233347
S             7.8774101474        0.9146123237        4.6263628078
S             7.8773851977        0.9144338715        1.4913000983
S             6.3076828131        1.8275171279       10.7200079024
Mo            4.7268741753        4.5484193819       -9.1672481230    0   0   0
Mo            6.3024679138        3.6387501714       -3.0554895197    0   0   0
S             4.7268748770        4.5484386753       -4.6232519432    0   0   0
S             6.3024943474        3.6387329039       -7.6014065489    0   0   0
S             6.3024948011        3.6387340328      -10.7330757790    0   0   0
S             4.7268770533        4.5484432419       -1.4877137856    0   0   0
Mo            4.7257484590        4.5531793038        3.0595557953
Mo            6.3175267170        3.6514870503        9.1543305661
S             4.7215618571        4.5561731881        7.6143651171
S             6.3015069543        3.6436278708        4.6269353235
S             6.3014836061        3.6436166451        1.4915332927
S             4.8210779033        4.5950158815       10.7744844256
Mo            3.1512568329        7.2774749019       -9.1672481230    0   0   0
Mo            4.7268384135        6.3678043337       -3.0554959052    0   0   0
S             3.1512606125        7.2774972547       -4.6232589675    0   0   0
S             4.7268770050        6.3677884239       -7.6014065489    0   0   0
S             4.7268774587        6.3677895528      -10.7330757790    0   0   0
S             3.1512629079        7.2774963749       -1.4877081835    0   0   0
Mo            3.1502610173        7.2819970614        3.0595907535
Mo            4.7437369531        6.3887079187        9.1712973056
S             3.1456759728        7.2857604829        7.6143737519
S             4.7259674170        6.3725738594        4.6272008797
S             4.7257604808        6.3723432629        1.4916325933
S             3.2290134138        7.3526108487       10.7745049691
Mo            1.5756394905       10.0065304219       -9.1672481230    0   0   0
Mo            3.1512330605        9.0968514907       -3.0554878870    0   0   0
S             1.5756499830       10.0065443759       -4.6232632674    0   0   0
S             3.1512596626        9.0968439439       -7.6014065489    0   0   0
S             3.1512601163        9.0968450728      -10.7330757790    0   0   0
S             1.5756503041       10.0065459699       -1.4877044377    0   0   0
Mo            1.5749297060       10.0112642943        3.0591723255
Mo            3.1601178340        9.1202718954        9.1543680722
S             1.5752192177       10.0180600283        7.5821359733
S             3.1503843314        9.1015361923        4.6269667663
S             3.1504802918        9.1012957057        1.4915597485
S             1.5755260288       10.0237747319       10.7200243405
Mo            9.4537312807        1.8193638619       -9.1672481230    0   0   0
Mo           11.0293863460        0.9096952246       -3.0554894007    0   0   0
S             9.4537395970        1.8193770750       -4.6232328036    0   0   0
S            11.0293514528        0.9096773839       -7.6014065489    0   0   0
S            11.0293519066        0.9096785128      -10.7330757790    0   0   0
S             9.4537393632        1.8193794783       -1.4877366147    0   0   0
Mo            9.4531196101        1.8242733279        3.0591074743
Mo           11.0230950576        0.9070097369        9.1545138734
S             9.4529676806        1.8300662674        7.5820982007
S            11.0287511850        0.9149121815        4.6269177528
S            11.0289039141        0.9146780997        1.4915142592
S             9.4481006837        1.8273574003       10.7199771266
Mo            7.8781139383        4.5484193819       -9.1672481230    0   0   0
Mo            9.4537539161        3.6387607911       -3.0554933032    0   0   0
S             7.8781175448        4.5484378232       -4.6232366318    0   0   0
S             9.4537341104        3.6387329039       -7.6014065489    0   0   0
S             9.4537345641        3.6387340328      -10.7330757790    0   0   0
S             7.8781194018        4.5484411585       -1.4877377057    0   0   0
Mo            7.8774239809        4.5531671881        3.0591253318
Mo            9.4385854922        3.6514425998        9.1544898703
S             7.8781592112        4.5595107832        7.5762894144
S             9.4533364386        3.6436028133        4.6269212070
S             9.4533527629        3.6436303942        1.4915135962
S             7.8780357427        4.5644953475       10.7277588759
Mo            6.3024965959        7.2774749019       -9.1672481230    0   0   0
Mo            7.8781361655        6.3678242352       -3.0555014130    0   0   0
S             6.3024973331        7.2774953556       -4.6232392528    0   0   0
S             7.8781167680        6.3677884239       -7.6014065489    0   0   0
S             7.8781172217        6.3677895528      -10.7330757790    0   0   0
S             6.3024989866        7.2774929744       -1.4877349119    0   0   0
Mo            6.3016343184        7.2822402130        3.0589320911
Mo            7.8780428250        6.3791546892        9.1496188718
S             6.2989488495        7.2865939380        7.5825662843
S             7.8774564543        6.3727265310        4.6261710978
S             7.8774059898        6.3724123854        1.4911945161
S             6.3232512788        7.3006868388       10.7285203906
Mo            4.7268792535       10.0065304219       -9.1672481230    0   0   0
Mo            6.3025111524        9.0968738021       -3.0554915260    0   0   0
S             4.7268840634       10.0065452125       -4.6232380477    0   0   0
S             6.3024994256        9.0968439439       -7.6014065489    0   0   0
S             6.3024998793        9.0968450728      -10.7330757790    0   0   0
S             4.7268847312       10.0065459141       -1.4877283294    0   0   0
Mo            4.7260826558       10.0114503011        3.0591357459
Mo            6.3025829546        9.1078931913        9.1496419307
S             4.7268162373       10.0177639974        7.5763197466
S             6.3018185277        9.1018107406        4.6261754633
S             6.3016434540        9.1017015827        1.4911960727
S             4.7310111535       10.0153014738       10.7277942656
Pd            1.5761132842        6.2829343431       12.1590011271
Pd            3.0681051589        3.6987992895       12.1590968377
Pd            0.0843817777        3.6988634217       12.1598113842
Pd            1.5769768956        4.5608948875       14.1730345499
End final coordinates



     Writing all to output data dir ./outdir/pwscf.save/
 
     init_run     :    210.02s CPU    213.69s WALL (       1 calls)
     electrons    : 159706.54s CPU 161294.15s WALL (      16 calls)
     update_pot   :     82.01s CPU     83.27s WALL (      15 calls)
     forces       :   2210.17s CPU   2259.18s WALL (      16 calls)
     force_dftd3  :     12.91s CPU     13.73s WALL (      16 calls)

     Called by init_run:
     wfcinit      :    184.59s CPU    186.76s WALL (       1 calls)
     potinit      :      2.29s CPU      2.35s WALL (       1 calls)
     hinit0       :     16.08s CPU     16.11s WALL (       1 calls)

     Called by electrons:
     c_bands      : 143712.46s CPU 144637.20s WALL (     212 calls)
     sum_band     :  15081.80s CPU  15468.43s WALL (     212 calls)
     v_of_rho     :    108.49s CPU    111.21s WALL (     216 calls)
     newd         :    592.50s CPU    882.44s WALL (     216 calls)
     PAW_pot      :    164.11s CPU    164.10s WALL (     231 calls)
     mix_rho      :     27.07s CPU     27.12s WALL (     212 calls)
     energy_dftd3 :      6.09s CPU      6.10s WALL (      16 calls)

     Called by c_bands:
     init_us_2    :    566.61s CPU    566.93s WALL (    1824 calls)
     init_us_2:cp :    566.60s CPU    566.92s WALL (    1824 calls)
     cegterg      : 141859.80s CPU 142754.40s WALL (     876 calls)

     Called by *egterg:
     cdiaghg      :   8739.62s CPU   8767.92s WALL (   11500 calls)
     h_psi        :  72402.74s CPU  72662.57s WALL (   11616 calls)
     s_psi        :  15337.99s CPU  15398.38s WALL (   11616 calls)
     g_psi        :    125.11s CPU    125.24s WALL (   10736 calls)

     Called by h_psi:
     h_psi:calbec :  17001.60s CPU  17004.44s WALL (   11616 calls)
     vloc_psi     :  39812.83s CPU  39893.06s WALL (   11616 calls)
     add_vuspsi   :  15443.63s CPU  15501.62s WALL (   11616 calls)

     General routines
     calbec       :  24204.59s CPU  24208.65s WALL (   12780 calls)
     fft          :     99.36s CPU    101.85s WALL (    2979 calls)
     ffts         :      5.42s CPU      5.56s WALL (     428 calls)
     fftw         :  32571.56s CPU  32633.61s WALL ( 6250904 calls)
     interpolate  :     11.46s CPU     11.55s WALL (     216 calls)
 
     Parallel routines
 
     PWSCF        :   1d21h14m CPU   1d21h43m WALL

 
   This run was terminated on:  10:22:50  11Dec2023            

=------------------------------------------------------------------------------=
   JOB DONE.
=------------------------------------------------------------------------------=
Application 11448927 resources: utime ~5864386s, stime ~60249s, Rss ~3535924, inblocks ~0, outblocks ~57334392
