
     Program PWSCF v.7.2 starts on  9Mar2024 at 18:50:43 

     This program is part of the open-source Quantum ESPRESSO suite
     for quantum simulation of materials; please cite
         "P. Giannozzi et al., J. Phys.:Condens. Matter 21 395502 (2009);
         "P. Giannozzi et al., J. Phys.:Condens. Matter 29 465901 (2017);
         "P. Giannozzi et al., J. Chem. Phys. 152 154105 (2020);
          URL http://www.quantum-espresso.org", 
     in publications or presentations arising from this work. More details at
     http://www.quantum-espresso.org/quote

     Parallel version (MPI), running on    64 processors

     MPI processes distributed on     1 nodes
     1293727 MiB available memory on the printing compute node when the environment starts
 
     Waiting for input...
     Reading input from standard input
Warning: card &CELL ignored
Warning: card / ignored

     Current dimensions of program PWSCF are:
     Max number of different atomic species (ntypx) = 10
     Max number of k-points (npk) =  40000
     Max angular momentum in pseudopotentials (lmaxx) =  4
     file Cl.pbe-n-kjpaw_psl.1.0.0.UPF: wavefunction(s)  3S 3P renormalized
     file C.pbe-n-kjpaw_psl.1.0.0.UPF: wavefunction(s)  2S 2P renormalized
     file N.pbe-n-kjpaw_psl.1.0.0.UPF: wavefunction(s)  2S renormalized
     file H.pbe-kjpaw_psl.1.0.0.UPF: wavefunction(s)  1S renormalized
     file O.pbe-n-kjpaw_psl.1.0.0.UPF: wavefunction(s)  2S 2P renormalized
     Found identity + ( -0.5000  0.5000  0.5000) symmetry
     This is a supercell, fractional translations are disabled
 
     R & G space division:  proc/nbgrp/npool/nimage =      64
     Subspace diagonalization in iterative solution of the eigenvalue problem:
     one sub-group per band group will be used
     ELPA distributed-memory algorithm (size of sub-group:  8*  8 procs)

 
     Parallelization info
     --------------------
     sticks:   dense  smooth     PW     G-vecs:    dense   smooth      PW
     Min         348     125     34                74014    15985    2284
     Max         349     126     35                74026    15996    2294
     Sum       22331    8051   2207              4737327  1023457  146403
 
     Using Slab Decomposition
 


     bravais-lattice index     =            0
     lattice parameter (alat)  =      57.6366  a.u.
     unit-cell volume          =   35066.7377 (a.u.)^3
     number of atoms/cell      =          372
     number of atomic types    =            5
     number of electrons       =      1616.00
     number of Kohn-Sham states=          970
     kinetic-energy cutoff     =      36.0000  Ry
     charge density cutoff     =     400.0000  Ry
     scf convergence threshold =      1.0E-06
     mixing beta               =       0.2000
     number of iterations used =            8  plain     mixing
     energy convergence thresh.=      1.0E-04
     force convergence thresh. =      1.0E-03
     Exchange-correlation= SLA  PW   PBX  PBC
                           (   1   4   3   4   0   0   0)
     nstep                     =         9999


     celldm(1)=  57.636647  celldm(2)=   0.000000  celldm(3)=   0.000000
     celldm(4)=   0.000000  celldm(5)=   0.000000  celldm(6)=   0.000000

     crystal axes: (cart. coord. in units of alat)
               a(1) = (   1.000000   0.000000   0.000000 )  
               a(2) = (   0.000000   0.211148   0.000000 )  
               a(3) = (  -0.310570   0.000000   0.867388 )  

     reciprocal axes: (cart. coord. in units 2 pi/alat)
               b(1) = (  1.000000  0.000000  0.358052 )  
               b(2) = (  0.000000  4.736025  0.000000 )  
               b(3) = (  0.000000  0.000000  1.152887 )  


     PseudoPot. # 1 for Cl read from file:
     ./pseudo/Cl.pbe-n-kjpaw_psl.1.0.0.UPF
     MD5 check sum: 8585a34133a3cfc72b769cd6a0e76983
     Pseudo is Projector augmented-wave + core cor, Zval =  7.0
     Generated using 'atomic' code by A. Dal Corso  v.7.2
     Shape of augmentation charge: PSQ
     Using radial grid of 1157 points,  6 beta functions with: 
                l(1) =   0
                l(2) =   0
                l(3) =   1
                l(4) =   1
                l(5) =   2
                l(6) =   2
     Q(r) pseudized with 0 coefficients 


     PseudoPot. # 2 for C  read from file:
     ./pseudo/C.pbe-n-kjpaw_psl.1.0.0.UPF
     MD5 check sum: 6b0792899573946bb42fe395835041da
     Pseudo is Projector augmented-wave + core cor, Zval =  4.0
     Generated using 'atomic' code by A. Dal Corso  v.7.2
     Shape of augmentation charge: PSQ
     Using radial grid of 1073 points,  4 beta functions with: 
                l(1) =   0
                l(2) =   0
                l(3) =   1
                l(4) =   1
     Q(r) pseudized with 0 coefficients 


     PseudoPot. # 3 for N  read from file:
     ./pseudo/N.pbe-n-kjpaw_psl.1.0.0.UPF
     MD5 check sum: 6654930a71f78718b13e91073ae2a058
     Pseudo is Projector augmented-wave + core cor, Zval =  5.0
     Generated using 'atomic' code by A. Dal Corso  v.7.2
     Shape of augmentation charge: PSQ
     Using radial grid of 1085 points,  4 beta functions with: 
                l(1) =   0
                l(2) =   0
                l(3) =   1
                l(4) =   1
     Q(r) pseudized with 0 coefficients 


     PseudoPot. # 4 for H  read from file:
     ./pseudo/H.pbe-kjpaw_psl.1.0.0.UPF
     MD5 check sum: b3cb3c48ee3b58cc53e4d592112d0ca6
     Pseudo is Projector augmented-wave, Zval =  1.0
     Generated using 'atomic' code by A. Dal Corso  v.7.2
     Shape of augmentation charge: PSQ
     Using radial grid of  929 points,  2 beta functions with: 
                l(1) =   0
                l(2) =   0
     Q(r) pseudized with 0 coefficients 


     PseudoPot. # 5 for O  read from file:
     ./pseudo/O.pbe-n-kjpaw_psl.1.0.0.UPF
     MD5 check sum: 54880130194cacfd11baed2e72b13d2a
     Pseudo is Projector augmented-wave + core cor, Zval =  6.0
     Generated using 'atomic' code by A. Dal Corso  v.7.2
     Shape of augmentation charge: PSQ
     Using radial grid of 1095 points,  4 beta functions with: 
                l(1) =   0
                l(2) =   0
                l(3) =   1
                l(4) =   1
     Q(r) pseudized with 0 coefficients 


     atomic species   valence    mass     pseudopotential
        Cl             7.00    35.45000     Cl( 1.00)
        C              4.00    12.01100     C ( 1.00)
        N              5.00    14.00700     N ( 1.00)
        H              1.00     1.00800     H ( 1.00)
        O              6.00    15.99900     O ( 1.00)

     No symmetry found



   Cartesian axes

     site n.     atom                  positions (alat units)
         1           Cl  tau(   1) = (   0.4500774   0.0701221   0.3145147  )
         2           Cl  tau(   2) = (   0.7393529   0.0701221   0.5528729  )
         3           Cl  tau(   3) = (  -0.2052074   0.1756959   0.7482086  )
         4           Cl  tau(   4) = (   0.3946377   0.1756959   0.1191791  )
         5           Cl  tau(   5) = (   0.2393529   0.1410254   0.5528729  )
         6           Cl  tau(   6) = (  -0.0499226   0.1410254   0.3145147  )
         7           Cl  tau(   7) = (   0.8946377   0.0354517   0.1191791  )
         8           Cl  tau(   8) = (   0.2947926   0.0354517   0.7482086  )
         9           Cl  tau(   9) = (   0.7272142   0.1542644   0.2113824  )
        10           Cl  tau(  10) = (   0.4622161   0.1542644   0.6560053  )
        11           Cl  tau(  11) = (   0.0719293   0.0486906   0.6450762  )
        12           Cl  tau(  12) = (   0.1175010   0.0486906   0.2223114  )
        13           Cl  tau(  13) = (  -0.0377839   0.0568831   0.6560053  )
        14           Cl  tau(  14) = (   0.2272142   0.0568831   0.2113824  )
        15           Cl  tau(  15) = (   0.6175010   0.1624569   0.2223114  )
        16           Cl  tau(  16) = (   0.5719293   0.1624569   0.6450762  )
        17           Cl  tau(  17) = (   0.8679033   0.0753374   0.2812071  )
        18           Cl  tau(  18) = (   0.3215270   0.0753374   0.5861806  )
        19           Cl  tau(  19) = (   0.2126184   0.1809112   0.7149009  )
        20           Cl  tau(  20) = (  -0.0231882   0.1809112   0.1524867  )
        21           Cl  tau(  21) = (  -0.1784730   0.1358101   0.5861806  )
        22           Cl  tau(  22) = (   0.3679033   0.1358101   0.2812071  )
        23           Cl  tau(  23) = (   0.4768118   0.0302363   0.1524867  )
        24           Cl  tau(  24) = (   0.7126184   0.0302363   0.7149009  )
        25           Cl  tau(  25) = (   0.4373027   0.1115281   0.4297906  )
        26           Cl  tau(  26) = (   0.7521276   0.1115281   0.4375971  )
        27           Cl  tau(  27) = (  -0.2179822   0.0059544   0.8634844  )
        28           Cl  tau(  28) = (   0.4074124   0.0059544   0.0039032  )
        29           Cl  tau(  29) = (   0.2521276   0.0996194   0.4375971  )
        30           Cl  tau(  30) = (  -0.0626973   0.0996194   0.4297906  )
        31           Cl  tau(  31) = (   0.9074124   0.2051932   0.0039032  )
        32           Cl  tau(  32) = (   0.2820178   0.2051932   0.8634844  )
        33           Cl  tau(  33) = (   0.3524079   0.1592897   0.3989983  )
        34           Cl  tau(  34) = (  -0.1629777   0.1592897   0.4683893  )
        35           Cl  tau(  35) = (   0.6971231   0.0537159   0.8326921  )
        36           Cl  tau(  36) = (   0.4923072   0.0537159   0.0346955  )
        37           Cl  tau(  37) = (   0.3370223   0.0518578   0.4683893  )
        38           Cl  tau(  38) = (   0.8524079   0.0518578   0.3989983  )
        39           Cl  tau(  39) = (  -0.0076928   0.1574316   0.0346955  )
        40           Cl  tau(  40) = (   0.1971231   0.1574316   0.8326921  )
        41           Cl  tau(  41) = (   0.3580828   0.0354517   0.3444396  )
        42           Cl  tau(  42) = (  -0.1686525   0.0354517   0.5229480  )
        43           Cl  tau(  43) = (   0.7027979   0.1410254   0.7781334  )
        44           Cl  tau(  44) = (   0.4866324   0.1410254   0.0892542  )
        45           Cl  tau(  45) = (   0.3313475   0.1756959   0.5229480  )
        46           Cl  tau(  46) = (   0.8580828   0.1756959   0.3444396  )
        47           Cl  tau(  47) = (  -0.0133676   0.0701221   0.0892542  )
        48           Cl  tau(  48) = (   0.2027979   0.0701221   0.7781334  )
        49           Cl  tau(  49) = (   0.8960102   0.2051298   0.2264749  )
        50           Cl  tau(  50) = (   0.2934200   0.2051298   0.6409127  )
        51           Cl  tau(  51) = (   0.2407254   0.0995561   0.6601687  )
        52           Cl  tau(  52) = (  -0.0512951   0.0995561   0.2072189  )
        53           Cl  tau(  53) = (  -0.2065800   0.0060177   0.6409127  )
        54           Cl  tau(  54) = (   0.3960102   0.0060177   0.2264749  )
        55           Cl  tau(  55) = (   0.4487049   0.1115915   0.2072189  )
        56           Cl  tau(  56) = (   0.7407254   0.1115915   0.6601687  )
        57           Cl  tau(  57) = (   0.8256548   0.1418067   0.1875292  )
        58           Cl  tau(  58) = (   0.3637754   0.1418067   0.6798584  )
        59           Cl  tau(  59) = (   0.1703700   0.0362329   0.6212230  )
        60           Cl  tau(  60) = (   0.0190603   0.0362329   0.2461646  )
        61           Cl  tau(  61) = (  -0.1362246   0.0693409   0.6798584  )
        62           Cl  tau(  62) = (   0.3256548   0.0693409   0.1875292  )
        63           Cl  tau(  63) = (   0.5190603   0.1749146   0.2461646  )
        64           Cl  tau(  64) = (   0.6703700   0.1749146   0.6212230  )
        65           C   tau(  65) = (   0.5309397   0.0112119   0.3520726  )
        66           C   tau(  66) = (   0.6584905   0.0112119   0.5153150  )
        67           C   tau(  67) = (  -0.1243451   0.1167857   0.7857664  )
        68           C   tau(  68) = (   0.3137754   0.1167857   0.0816212  )
        69           C   tau(  69) = (   0.1584905   0.1999356   0.5153150  )
        70           C   tau(  70) = (   0.0309397   0.1999356   0.3520726  )
        71           C   tau(  71) = (   0.8137754   0.0943618   0.0816212  )
        72           C   tau(  72) = (   0.3756549   0.0943618   0.7857664  )
        73           C   tau(  73) = (   0.6212025   0.0134501   0.4027281  )
        74           C   tau(  74) = (   0.5682278   0.0134501   0.4646595  )
        75           C   tau(  75) = (  -0.0340824   0.1190239   0.8364219  )
        76           C   tau(  76) = (   0.2235127   0.1190239   0.0309657  )
        77           C   tau(  77) = (   0.0682278   0.1976974   0.4646595  )
        78           C   tau(  78) = (   0.1212025   0.1976974   0.4027281  )
        79           C   tau(  79) = (   0.7235127   0.0921237   0.0309657  )
        80           C   tau(  80) = (   0.4659176   0.0921237   0.8364219  )
        81           C   tau(  81) = (   0.4404143   0.1575372   0.3968298  )
        82           C   tau(  82) = (   0.7490159   0.1575372   0.4705578  )
        83           C   tau(  83) = (  -0.2148705   0.0519634   0.8305236  )
        84           C   tau(  84) = (   0.4043008   0.0519634   0.0368640  )
        85           C   tau(  85) = (   0.2490159   0.0536104   0.4705578  )
        86           C   tau(  86) = (  -0.0595857   0.0536104   0.3968298  )
        87           C   tau(  87) = (   0.9043008   0.1591841   0.0368640  )
        88           C   tau(  88) = (   0.2851295   0.1591841   0.8305236  )
        89           C   tau(  89) = (   0.5256771   0.1592475   0.3941409  )
        90           C   tau(  90) = (   0.6637532   0.1592475   0.4732467  )
        91           C   tau(  91) = (  -0.1296078   0.0536737   0.8278347  )
        92           C   tau(  92) = (   0.3190380   0.0536737   0.0395529  )
        93           C   tau(  93) = (   0.1637532   0.0519001   0.4732467  )
        94           C   tau(  94) = (   0.0256771   0.0519001   0.3941409  )
        95           C   tau(  95) = (   0.8190380   0.1574738   0.0395529  )
        96           C   tau(  96) = (   0.3703922   0.1574738   0.8278347  )
        97           C   tau(  97) = (   0.4051105   0.0071368   0.3585780  )
        98           C   tau(  98) = (   0.7843198   0.0071368   0.5088096  )
        99           C   tau(  99) = (  -0.2501744   0.1127106   0.7922718  )
       100           C   tau( 100) = (   0.4396047   0.1127106   0.0751158  )
       101           C   tau( 101) = (   0.2843198   0.2040108   0.5088096  )
       102           C   tau( 102) = (  -0.0948895   0.2040108   0.3585780  )
       103           C   tau( 103) = (   0.9396047   0.0984370   0.0751158  )
       104           C   tau( 104) = (   0.2498256   0.0984370   0.7922718  )
       105           C   tau( 105) = (   0.8293458   0.0398435   0.2621245  )
       106           C   tau( 106) = (   0.3600844   0.0398435   0.6052631  )
       107           C   tau( 107) = (   0.1740610   0.1454173   0.6958183  )
       108           C   tau( 108) = (   0.0153693   0.1454173   0.1715693  )
       109           C   tau( 109) = (  -0.1399156   0.1713040   0.6052631  )
       110           C   tau( 110) = (   0.3293458   0.1713040   0.2621245  )
       111           C   tau( 111) = (   0.5153693   0.0657302   0.1715693  )
       112           C   tau( 112) = (   0.6740610   0.0657302   0.6958183  )
       113           C   tau( 113) = (   0.4807729   0.1739856   0.3838190  )
       114           C   tau( 114) = (   0.7086574   0.1739856   0.4835686  )
       115           C   tau( 115) = (  -0.1745120   0.0684118   0.8175128  )
       116           C   tau( 116) = (   0.3639422   0.0684118   0.0498748  )
       117           C   tau( 117) = (   0.2086574   0.0371620   0.4835686  )
       118           C   tau( 118) = (  -0.0192271   0.0371620   0.3838190  )
       119           C   tau( 119) = (   0.8639422   0.1427357   0.0498748  )
       120           C   tau( 120) = (   0.3254880   0.1427357   0.8175128  )
       121           N   tau( 121) = (   0.6991207   0.1375415   0.3322962  )
       122           N   tau( 122) = (   0.4903095   0.1375415   0.5350914  )
       123           N   tau( 123) = (   0.0438359   0.0319677   0.7659900  )
       124           N   tau( 124) = (   0.1455944   0.0319677   0.1013976  )
       125           N   tau( 125) = (  -0.0096905   0.0736060   0.5350914  )
       126           N   tau( 126) = (   0.1991207   0.0736060   0.3322962  )
       127           N   tau( 127) = (   0.6455944   0.1791798   0.1013976  )
       128           N   tau( 128) = (   0.5438359   0.1791798   0.7659900  )
       129           H   tau( 129) = (   0.7331255   0.1425913   0.3325287  )
       130           H   tau( 130) = (   0.4563048   0.1425913   0.5348590  )
       131           H   tau( 131) = (   0.0778406   0.0370175   0.7662225  )
       132           H   tau( 132) = (   0.1115896   0.0370175   0.1011652  )
       133           H   tau( 133) = (  -0.0436952   0.0685562   0.5348590  )
       134           H   tau( 134) = (   0.2331255   0.0685562   0.3325287  )
       135           H   tau( 135) = (   0.6115896   0.1741300   0.1011652  )
       136           H   tau( 136) = (   0.5778406   0.1741300   0.7662225  )
       137           C   tau( 137) = (   0.4827999   0.0005490   0.3594454  )
       138           C   tau( 138) = (   0.7066304   0.0005490   0.5079422  )
       139           C   tau( 139) = (  -0.1724850   0.1061228   0.7931392  )
       140           C   tau( 140) = (   0.3619152   0.1061228   0.0742484  )
       141           C   tau( 141) = (   0.2066304   0.2105986   0.5079422  )
       142           C   tau( 142) = (  -0.0172001   0.2105986   0.3594454  )
       143           C   tau( 143) = (   0.8619152   0.1050248   0.0742484  )
       144           C   tau( 144) = (   0.3275150   0.1050248   0.7931392  )
       145           O   tau( 145) = (   0.5465487   0.0407937   0.3308216  )
       146           O   tau( 146) = (   0.6428816   0.0407937   0.5365660  )
       147           O   tau( 147) = (  -0.1087362   0.1463675   0.7645154  )
       148           O   tau( 148) = (   0.2981664   0.1463675   0.1028722  )
       149           O   tau( 149) = (   0.1428816   0.1703538   0.5365660  )
       150           O   tau( 150) = (   0.0465487   0.1703538   0.3308216  )
       151           O   tau( 151) = (   0.7981664   0.0647801   0.1028722  )
       152           O   tau( 152) = (   0.3912638   0.0647801   0.7645154  )
       153           N   tau( 153) = (   0.5536308   0.1890404   0.3733236  )
       154           N   tau( 154) = (   0.6357995   0.1890404   0.4940640  )
       155           N   tau( 155) = (  -0.1016541   0.0834666   0.8070174  )
       156           N   tau( 156) = (   0.2910843   0.0834666   0.0603702  )
       157           N   tau( 157) = (   0.1357995   0.0221071   0.4940640  )
       158           N   tau( 158) = (   0.0536308   0.0221071   0.3733236  )
       159           N   tau( 159) = (   0.7910843   0.1276809   0.0603702  )
       160           N   tau( 160) = (   0.3983459   0.1276809   0.8070174  )
       161           C   tau( 161) = (   0.5947151   0.0405614   0.4336938  )
       162           C   tau( 162) = (   0.2500000   0.1461352   0.0000000  )
       163           C   tau( 163) = (   0.0947151   0.1705861   0.4336938  )
       164           C   tau( 164) = (   0.7500000   0.0650123   0.0000000  )
       165           H   tau( 165) = (   0.5735747   0.0608557   0.4156669  )
       166           H   tau( 166) = (   0.6158556   0.0608557   0.4517207  )
       167           H   tau( 167) = (  -0.0817102   0.1664294   0.8493607  )
       168           H   tau( 168) = (   0.2711404   0.1664294   0.0180269  )
       169           H   tau( 169) = (   0.1158556   0.1502919   0.4517207  )
       170           H   tau( 170) = (   0.0735747   0.1502919   0.4156669  )
       171           H   tau( 171) = (   0.7711404   0.0447181   0.0180269  )
       172           H   tau( 172) = (   0.4182898   0.0447181   0.8493607  )
       173           C   tau( 173) = (   0.7531205   0.0177997   0.2535374  )
       174           C   tau( 174) = (   0.4363098   0.0177997   0.6138502  )
       175           C   tau( 175) = (   0.0978356   0.1233735   0.6872312  )
       176           C   tau( 176) = (   0.0915947   0.1233735   0.1801564  )
       177           C   tau( 177) = (  -0.0636902   0.1933478   0.6138502  )
       178           C   tau( 178) = (   0.2531205   0.1933478   0.2535374  )
       179           C   tau( 179) = (   0.5915947   0.0877740   0.1801564  )
       180           C   tau( 180) = (   0.5978356   0.0877740   0.6872312  )
       181           O   tau( 181) = (   0.5387613   0.1278498   0.4151317  )
       182           O   tau( 182) = (   0.6506689   0.1278498   0.4522559  )
       183           O   tau( 183) = (  -0.1165235   0.0222761   0.8488255  )
       184           O   tau( 184) = (   0.3059538   0.0222761   0.0185621  )
       185           O   tau( 185) = (   0.1506689   0.0832977   0.4522559  )
       186           O   tau( 186) = (   0.0387613   0.0832977   0.4151317  )
       187           O   tau( 187) = (   0.8059538   0.1888715   0.0185621  )
       188           O   tau( 188) = (   0.3834765   0.1888715   0.8488255  )
       189           C   tau( 189) = (   0.7077582   0.0329179   0.2676758  )
       190           C   tau( 190) = (   0.4816721   0.0329179   0.5997118  )
       191           C   tau( 191) = (   0.0524733   0.1384917   0.7013696  )
       192           C   tau( 192) = (   0.1369570   0.1384917   0.1660180  )
       193           C   tau( 193) = (  -0.0183279   0.1782296   0.5997118  )
       194           C   tau( 194) = (   0.2077582   0.1782296   0.2676758  )
       195           C   tau( 195) = (   0.6369570   0.0726559   0.1660180  )
       196           C   tau( 196) = (   0.5524733   0.0726559   0.7013696  )
       197           C   tau( 197) = (   0.6098077   0.1233735   0.3292603  )
       198           C   tau( 198) = (   0.5796225   0.1233735   0.5381273  )
       199           C   tau( 199) = (  -0.0454771   0.0177997   0.7629541  )
       200           C   tau( 200) = (   0.2349074   0.0177997   0.1044335  )
       201           C   tau( 201) = (   0.0796225   0.0877740   0.5381273  )
       202           C   tau( 202) = (   0.1098077   0.0877740   0.3292603  )
       203           C   tau( 203) = (   0.7349074   0.1933478   0.1044335  )
       204           C   tau( 204) = (   0.4545229   0.1933478   0.7629541  )
       205           H   tau( 205) = (   0.5758296   0.1186634   0.3269453  )
       206           H   tau( 206) = (   0.6136006   0.1186634   0.5404423  )
       207           H   tau( 207) = (  -0.0794552   0.0130897   0.7606391  )
       208           H   tau( 208) = (   0.2688855   0.0130897   0.1067485  )
       209           H   tau( 209) = (   0.1136006   0.0924841   0.5404423  )
       210           H   tau( 210) = (   0.0758296   0.0924841   0.3269453  )
       211           H   tau( 211) = (   0.7688855   0.1980579   0.1067485  )
       212           H   tau( 212) = (   0.4205448   0.1980579   0.7606391  )
       213           C   tau( 213) = (   0.6677038   0.0198901   0.3976972  )
       214           C   tau( 214) = (   0.5217265   0.0198901   0.4696904  )
       215           C   tau( 215) = (   0.0124189   0.1254639   0.8313910  )
       216           C   tau( 216) = (   0.1770114   0.1254639   0.0359966  )
       217           C   tau( 217) = (   0.0217265   0.1912574   0.4696904  )
       218           C   tau( 218) = (   0.1677038   0.1912574   0.3976972  )
       219           C   tau( 219) = (   0.6770114   0.0856837   0.0359966  )
       220           C   tau( 220) = (   0.5124189   0.0856837   0.8313910  )
       221           H   tau( 221) = (   0.6825437   0.0468055   0.4131758  )
       222           H   tau( 222) = (   0.5068866   0.0468055   0.4542119  )
       223           H   tau( 223) = (   0.0272588   0.1523793   0.8468696  )
       224           H   tau( 224) = (   0.1621715   0.1523793   0.0205181  )
       225           H   tau( 225) = (   0.0068866   0.1643420   0.4542119  )
       226           H   tau( 226) = (   0.1825437   0.1643420   0.4131758  )
       227           H   tau( 227) = (   0.6621715   0.0587683   0.0205181  )
       228           H   tau( 228) = (   0.5272588   0.0587683   0.8468696  )
       229           O   tau( 229) = (   0.7817365   0.1146953   0.3113054  )
       230           O   tau( 230) = (   0.4076937   0.1146953   0.5560822  )
       231           O   tau( 231) = (   0.1264517   0.0091216   0.7449992  )
       232           O   tau( 232) = (   0.0629786   0.0091216   0.1223884  )
       233           O   tau( 233) = (  -0.0923063   0.0964522   0.5560822  )
       234           O   tau( 234) = (   0.2817365   0.0964522   0.3113054  )
       235           O   tau( 235) = (   0.5629786   0.2020260   0.1223884  )
       236           O   tau( 236) = (   0.6264517   0.2020260   0.7449992  )
       237           C   tau( 237) = (   0.4012313   0.1801300   0.3847731  )
       238           C   tau( 238) = (   0.7881990   0.1801300   0.4826145  )
       239           C   tau( 239) = (  -0.2540536   0.0745562   0.8184670  )
       240           C   tau( 240) = (   0.4434839   0.0745562   0.0489207  )
       241           C   tau( 241) = (   0.2881990   0.0310176   0.4826145  )
       242           C   tau( 242) = (  -0.0987687   0.0310176   0.3847731  )
       243           C   tau( 243) = (   0.9434839   0.1365913   0.0489207  )
       244           C   tau( 244) = (   0.2459464   0.1365913   0.8184670  )
       245           C   tau( 245) = (   0.6372160   0.0940240   0.3105248  )
       246           C   tau( 246) = (   0.5522142   0.0940240   0.5568628  )
       247           C   tau( 247) = (  -0.0180688   0.1995978   0.7442186  )
       248           C   tau( 248) = (   0.2074991   0.1995978   0.1231690  )
       249           C   tau( 249) = (   0.0522142   0.1171235   0.5568628  )
       250           C   tau( 250) = (   0.1372160   0.1171235   0.3105248  )
       251           C   tau( 251) = (   0.7074991   0.0115498   0.1231690  )
       252           C   tau( 252) = (   0.4819312   0.0115498   0.7442186  )
       253           H   tau( 253) = (   0.6246968   0.0657913   0.2953125  )
       254           H   tau( 254) = (   0.5647335   0.0657913   0.5720751  )
       255           H   tau( 255) = (  -0.0305881   0.1713650   0.7290063  )
       256           H   tau( 256) = (   0.2200183   0.1713650   0.1383813  )
       257           H   tau( 257) = (   0.0647335   0.1453563   0.5720751  )
       258           H   tau( 258) = (   0.1246968   0.1453563   0.2953125  )
       259           H   tau( 259) = (   0.7200183   0.0397825   0.1383813  )
       260           H   tau( 260) = (   0.4694119   0.0397825   0.7290063  )
       261           C   tau( 261) = (   0.6736602   0.1672289   0.3528533  )
       262           C   tau( 262) = (   0.5157700   0.1672289   0.5145343  )
       263           C   tau( 263) = (   0.0183754   0.0616551   0.7865471  )
       264           C   tau( 264) = (   0.1710549   0.0616551   0.0808405  )
       265           C   tau( 265) = (   0.0157700   0.0439187   0.5145343  )
       266           C   tau( 266) = (   0.1736602   0.0439187   0.3528533  )
       267           C   tau( 267) = (   0.6710549   0.1494925   0.0808405  )
       268           C   tau( 268) = (   0.5183754   0.1494925   0.7865471  )
       269           C   tau( 269) = (   0.4463001   0.0235430   0.3454805  )
       270           C   tau( 270) = (   0.7431302   0.0235430   0.5219071  )
       271           C   tau( 271) = (  -0.2089848   0.1291167   0.7791743  )
       272           C   tau( 272) = (   0.3984151   0.1291167   0.0882133  )
       273           C   tau( 273) = (   0.2431302   0.1876046   0.5219071  )
       274           C   tau( 274) = (  -0.0536999   0.1876046   0.3454805  )
       275           C   tau( 275) = (   0.8984151   0.0820308   0.0882133  )
       276           C   tau( 276) = (   0.2910152   0.0820308   0.7791743  )
       277           C   tau( 277) = (   0.7645164   0.1922498   0.2292505  )
       278           C   tau( 278) = (   0.4249138   0.1922498   0.6381371  )
       279           C   tau( 279) = (   0.1092316   0.0866761   0.6629444  )
       280           C   tau( 280) = (   0.0801987   0.0866761   0.2044433  )
       281           C   tau( 281) = (  -0.0750862   0.0188977   0.6381371  )
       282           C   tau( 282) = (   0.2645164   0.0188977   0.2292505  )
       283           C   tau( 283) = (   0.5801987   0.1244715   0.2044433  )
       284           C   tau( 284) = (   0.6092316   0.1244715   0.6629444  )
       285           C   tau( 285) = (   0.6922202   0.2041163   0.3741910  )
       286           C   tau( 286) = (   0.4972101   0.2041163   0.4931966  )
       287           C   tau( 287) = (   0.0369354   0.0985426   0.8078848  )
       288           C   tau( 288) = (   0.1524949   0.0985426   0.0595028  )
       289           C   tau( 289) = (  -0.0027899   0.0070312   0.4931966  )
       290           C   tau( 290) = (   0.1922202   0.0070312   0.3741910  )
       291           C   tau( 291) = (   0.6524949   0.1126050   0.0595028  )
       292           C   tau( 292) = (   0.5369354   0.1126050   0.8078848  )
       293           H   tau( 293) = (   0.7259044   0.2101714   0.3713529  )
       294           H   tau( 294) = (   0.4635259   0.2101714   0.4960347  )
       295           H   tau( 295) = (   0.0706195   0.1045976   0.8050467  )
       296           H   tau( 296) = (   0.1188107   0.1045976   0.0623409  )
       297           H   tau( 297) = (  -0.0364741   0.0009761   0.4960347  )
       298           H   tau( 298) = (   0.2259044   0.0009761   0.3713529  )
       299           H   tau( 299) = (   0.6188107   0.1065499   0.0623409  )
       300           H   tau( 300) = (   0.5706195   0.1065499   0.8050467  )
       301           C   tau( 301) = (   0.7854923   0.0467692   0.2689769  )
       302           C   tau( 302) = (   0.4039379   0.0467692   0.5984107  )
       303           C   tau( 303) = (   0.1302075   0.1523430   0.7026707  )
       304           C   tau( 304) = (   0.0592228   0.1523430   0.1647169  )
       305           C   tau( 305) = (  -0.0960621   0.1643784   0.5984107  )
       306           C   tau( 306) = (   0.2854923   0.1643784   0.2689769  )
       307           C   tau( 307) = (   0.5592228   0.0588046   0.1647169  )
       308           C   tau( 308) = (   0.6302075   0.0588046   0.7026707  )
       309           C   tau( 309) = (   0.8097395   0.1851975   0.2199695  )
       310           C   tau( 310) = (   0.3796908   0.1851975   0.6474181  )
       311           C   tau( 311) = (   0.1544547   0.0796237   0.6536633  )
       312           C   tau( 312) = (   0.0349756   0.0796237   0.2137243  )
       313           C   tau( 313) = (  -0.1203092   0.0259500   0.6474181  )
       314           C   tau( 314) = (   0.3097395   0.0259500   0.2199695  )
       315           C   tau( 315) = (   0.5349756   0.1315238   0.2137243  )
       316           C   tau( 316) = (   0.6544547   0.1315238   0.6536633  )
       317           O   tau( 317) = (   0.6732949   0.0151393   0.2589152  )
       318           O   tau( 318) = (   0.5161353   0.0151393   0.6084724  )
       319           O   tau( 319) = (   0.0180101   0.1207130   0.6926090  )
       320           O   tau( 320) = (   0.1714202   0.1207130   0.1747786  )
       321           O   tau( 321) = (   0.0161353   0.1960083   0.6084724  )
       322           O   tau( 322) = (   0.1732949   0.1960083   0.2589152  )
       323           O   tau( 323) = (   0.6714202   0.0904345   0.1747786  )
       324           O   tau( 324) = (   0.5180101   0.0904345   0.6926090  )
       325           C   tau( 325) = (   0.6011953   0.1912997   0.3770534  )
       326           C   tau( 326) = (   0.5882349   0.1912997   0.4903342  )
       327           C   tau( 327) = (  -0.0540895   0.0857259   0.8107472  )
       328           C   tau( 328) = (   0.2435198   0.0857259   0.0566404  )
       329           C   tau( 329) = (   0.0882349   0.0198479   0.4903342  )
       330           C   tau( 330) = (   0.1011953   0.0198479   0.3770534  )
       331           C   tau( 331) = (   0.7435198   0.1254216   0.0566404  )
       332           C   tau( 332) = (   0.4459105   0.1254216   0.8107472  )
       333           C   tau( 333) = (   0.7621827   0.0836355   0.2927433  )
       334           C   tau( 334) = (   0.4272476   0.0836355   0.5746443  )
       335           C   tau( 335) = (   0.1068979   0.1892093   0.7264371  )
       336           C   tau( 336) = (   0.0825324   0.1892093   0.1409505  )
       337           C   tau( 337) = (  -0.0727524   0.1275120   0.5746443  )
       338           C   tau( 338) = (   0.2621827   0.1275120   0.2927433  )
       339           C   tau( 339) = (   0.5825324   0.0219382   0.1409505  )
       340           C   tau( 340) = (   0.6068979   0.0219382   0.7264371  )
       341           C   tau( 341) = (   0.6836744   0.1017309   0.3114789  )
       342           C   tau( 342) = (   0.5057559   0.1017309   0.5559087  )
       343           C   tau( 343) = (   0.0283895   0.2073047   0.7451727  )
       344           C   tau( 344) = (   0.1610407   0.2073047   0.1222149  )
       345           C   tau( 345) = (   0.0057559   0.1094167   0.5559087  )
       346           C   tau( 346) = (   0.1836744   0.1094167   0.3114789  )
       347           C   tau( 347) = (   0.6610407   0.0038429   0.1222149  )
       348           C   tau( 348) = (   0.5283895   0.0038429   0.7451727  )
       349           C   tau( 349) = (   0.7157970   0.0740917   0.2907483  )
       350           C   tau( 350) = (   0.4736332   0.0740917   0.5766393  )
       351           C   tau( 351) = (   0.0605122   0.1796654   0.7244421  )
       352           C   tau( 352) = (   0.1289181   0.1796654   0.1429455  )
       353           C   tau( 353) = (  -0.0263668   0.1370559   0.5766393  )
       354           C   tau( 354) = (   0.2157970   0.1370559   0.2907483  )
       355           C   tau( 355) = (   0.6289181   0.0314821   0.1429455  )
       356           C   tau( 356) = (   0.5605122   0.0314821   0.7244421  )
       357           C   tau( 357) = (   0.6268534   0.1614434   0.3525931  )
       358           C   tau( 358) = (   0.5625769   0.1614434   0.5147946  )
       359           C   tau( 359) = (  -0.0284315   0.0558696   0.7862869  )
       360           C   tau( 360) = (   0.2178617   0.0558696   0.0811007  )
       361           C   tau( 361) = (   0.0625769   0.0497041   0.5147946  )
       362           C   tau( 362) = (   0.1268534   0.0497041   0.3525931  )
       363           C   tau( 363) = (   0.7178617   0.1552779   0.0811007  )
       364           C   tau( 364) = (   0.4715685   0.1552779   0.7862869  )
       365           C   tau( 365) = (   0.8412493   0.0025971   0.2355825  )
       366           C   tau( 366) = (   0.3481810   0.0025971   0.6318051  )
       367           C   tau( 367) = (   0.1859644   0.1081709   0.6692763  )
       368           C   tau( 368) = (   0.0034659   0.1081709   0.1981113  )
       369           C   tau( 369) = (  -0.1518190   0.2085504   0.6318051  )
       370           C   tau( 370) = (   0.3412493   0.2085504   0.2355825  )
       371           C   tau( 371) = (   0.5034659   0.1029767   0.1981113  )
       372           C   tau( 372) = (   0.6859644   0.1029767   0.6692763  )

     --------------------------------------------
     DFT-D3 Dispersion Correction (3-body terms):
     --------------------------------------------
       Reference C6 values for interpolation: 

         atom   Coordination number   C6
         H          0.912             6.05
         H          0.000            15.18
         C          0.000            98.23
         C          0.987            86.49
         C          1.998            58.72
         C          2.999            51.56
         C          3.984            36.41
         N          0.000            50.54
         N          0.994            44.25
         N          2.014            39.35
         N          2.990            31.16
         O          0.000            31.01
         O          0.993            25.63
         O          1.989            20.74
         Cl         0.000           184.69
         Cl         0.997           180.80

       Values used:

         atom   Coordination number  R0_AB[au]  C6      C8
         Cl         1.359            2.933    180.80   7543.66
         Cl         1.359            2.933    180.80   7543.66
         Cl         1.359            2.933    180.80   7543.66
         Cl         1.359            2.933    180.80   7543.66
         Cl         1.359            2.933    180.80   7543.66
         Cl         1.359            2.933    180.80   7543.66
         Cl         1.359            2.933    180.80   7543.66
         Cl         1.359            2.933    180.80   7543.66
         Cl         1.374            2.933    180.80   7543.64
         Cl         1.374            2.933    180.80   7543.64
         Cl         1.374            2.933    180.80   7543.64
         Cl         1.374            2.933    180.80   7543.64
         Cl         1.374            2.933    180.80   7543.64
         Cl         1.374            2.933    180.80   7543.64
         Cl         1.374            2.933    180.80   7543.64
         Cl         1.374            2.933    180.80   7543.64
         Cl         1.398            2.933    180.80   7543.62
         Cl         1.398            2.933    180.80   7543.62
         Cl         1.398            2.933    180.80   7543.62
         Cl         1.398            2.933    180.80   7543.62
         Cl         1.398            2.933    180.80   7543.62
         Cl         1.398            2.933    180.80   7543.62
         Cl         1.398            2.933    180.80   7543.62
         Cl         1.398            2.933    180.80   7543.62
         Cl         1.314            2.933    180.80   7543.74
         Cl         1.314            2.933    180.80   7543.74
         Cl         1.314            2.933    180.80   7543.74
         Cl         1.314            2.933    180.80   7543.74
         Cl         1.314            2.933    180.80   7543.74
         Cl         1.314            2.933    180.80   7543.74
         Cl         1.314            2.933    180.80   7543.74
         Cl         1.314            2.933    180.80   7543.74
         Cl         1.400            2.933    180.80   7543.62
         Cl         1.400            2.933    180.80   7543.62
         Cl         1.400            2.933    180.80   7543.62
         Cl         1.400            2.933    180.80   7543.62
         Cl         1.400            2.933    180.80   7543.62
         Cl         1.400            2.933    180.80   7543.62
         Cl         1.400            2.933    180.80   7543.62
         Cl         1.400            2.933    180.80   7543.62
         Cl         1.389            2.933    180.80   7543.63
         Cl         1.389            2.933    180.80   7543.63
         Cl         1.389            2.933    180.80   7543.63
         Cl         1.389            2.933    180.80   7543.63
         Cl         1.389            2.933    180.80   7543.63
         Cl         1.389            2.933    180.80   7543.63
         Cl         1.389            2.933    180.80   7543.63
         Cl         1.389            2.933    180.80   7543.63
         Cl         1.451            2.933    180.80   7543.58
         Cl         1.451            2.933    180.80   7543.58
         Cl         1.451            2.933    180.80   7543.58
         Cl         1.451            2.933    180.80   7543.58
         Cl         1.451            2.933    180.80   7543.58
         Cl         1.451            2.933    180.80   7543.58
         Cl         1.451            2.933    180.80   7543.58
         Cl         1.451            2.933    180.80   7543.58
         Cl         1.389            2.933    180.80   7543.63
         Cl         1.389            2.933    180.80   7543.63
         Cl         1.389            2.933    180.80   7543.63
         Cl         1.389            2.933    180.80   7543.63
         Cl         1.389            2.933    180.80   7543.63
         Cl         1.389            2.933    180.80   7543.63
         Cl         1.389            2.933    180.80   7543.63
         Cl         1.389            2.933    180.80   7543.63
         C          3.283            2.750     48.87   1413.48
         C          3.283            2.750     48.87   1413.48
         C          3.283            2.750     48.87   1413.48
         C          3.283            2.750     48.87   1413.48
         C          3.283            2.750     48.87   1413.48
         C          3.283            2.750     48.87   1413.48
         C          3.283            2.750     48.87   1413.48
         C          3.283            2.750     48.87   1413.48
         C          3.222            2.750     49.79   1440.11
         C          3.222            2.750     49.79   1440.11
         C          3.222            2.750     49.79   1440.11
         C          3.222            2.750     49.79   1440.11
         C          3.222            2.750     49.79   1440.11
         C          3.222            2.750     49.79   1440.11
         C          3.222            2.750     49.79   1440.11
         C          3.222            2.750     49.79   1440.11
         C          3.266            2.750     49.17   1422.14
         C          3.266            2.750     49.17   1422.14
         C          3.266            2.750     49.17   1422.14
         C          3.266            2.750     49.17   1422.14
         C          3.266            2.750     49.17   1422.14
         C          3.266            2.750     49.17   1422.14
         C          3.266            2.750     49.17   1422.14
         C          3.266            2.750     49.17   1422.14
         C          3.279            2.750     48.94   1415.53
         C          3.279            2.750     48.94   1415.53
         C          3.279            2.750     48.94   1415.53
         C          3.279            2.750     48.94   1415.53
         C          3.279            2.750     48.94   1415.53
         C          3.279            2.750     48.94   1415.53
         C          3.279            2.750     48.94   1415.53
         C          3.279            2.750     48.94   1415.53
         C          3.324            2.750     48.08   1390.42
         C          3.324            2.750     48.08   1390.42
         C          3.324            2.750     48.08   1390.42
         C          3.324            2.750     48.08   1390.42
         C          3.324            2.750     48.08   1390.42
         C          3.324            2.750     48.08   1390.42
         C          3.324            2.750     48.08   1390.42
         C          3.324            2.750     48.08   1390.42
         C          3.243            2.750     49.52   1432.08
         C          3.243            2.750     49.52   1432.08
         C          3.243            2.750     49.52   1432.08
         C          3.243            2.750     49.52   1432.08
         C          3.243            2.750     49.52   1432.08
         C          3.243            2.750     49.52   1432.08
         C          3.243            2.750     49.52   1432.08
         C          3.243            2.750     49.52   1432.08
         C          3.414            2.750     45.82   1325.15
         C          3.414            2.750     45.82   1325.15
         C          3.414            2.750     45.82   1325.15
         C          3.414            2.750     45.82   1325.15
         C          3.414            2.750     45.82   1325.15
         C          3.414            2.750     45.82   1325.15
         C          3.414            2.750     45.82   1325.15
         C          3.414            2.750     45.82   1325.15
         N          3.217            2.478     31.19    688.12
         N          3.217            2.478     31.19    688.12
         N          3.217            2.478     31.19    688.12
         N          3.217            2.478     31.19    688.12
         N          3.217            2.478     31.19    688.12
         N          3.217            2.478     31.19    688.12
         N          3.217            2.478     31.19    688.12
         N          3.217            2.478     31.19    688.12
         H          1.022            2.062      6.16     74.49
         H          1.022            2.062      6.16     74.49
         H          1.022            2.062      6.16     74.49
         H          1.022            2.062      6.16     74.49
         H          1.022            2.062      6.16     74.49
         H          1.022            2.062      6.16     74.49
         H          1.022            2.062      6.16     74.49
         H          1.022            2.062      6.16     74.49
         C          3.440            2.750     45.06   1303.29
         C          3.440            2.750     45.06   1303.29
         C          3.440            2.750     45.06   1303.29
         C          3.440            2.750     45.06   1303.29
         C          3.440            2.750     45.06   1303.29
         C          3.440            2.750     45.06   1303.29
         C          3.440            2.750     45.06   1303.29
         C          3.440            2.750     45.06   1303.29
         O          1.066            2.345     25.51    514.88
         O          1.066            2.345     25.51    514.88
         O          1.066            2.345     25.51    514.88
         O          1.066            2.345     25.51    514.88
         O          1.066            2.345     25.51    514.88
         O          1.066            2.345     25.51    514.88
         O          1.066            2.345     25.51    514.88
         O          1.066            2.345     25.51    514.88
         N          3.287            2.478     31.18    687.86
         N          3.287            2.478     31.18    687.86
         N          3.287            2.478     31.18    687.86
         N          3.287            2.478     31.18    687.86
         N          3.287            2.478     31.18    687.86
         N          3.287            2.478     31.18    687.86
         N          3.287            2.478     31.18    687.86
         N          3.287            2.478     31.18    687.86
         C          4.139            2.750     36.49   1055.47
         C          4.139            2.750     36.49   1055.47
         C          4.139            2.750     36.49   1055.47
         C          4.139            2.750     36.49   1055.47
         H          1.016            2.062      6.17     74.56
         H          1.016            2.062      6.17     74.56
         H          1.016            2.062      6.17     74.56
         H          1.016            2.062      6.17     74.56
         H          1.016            2.062      6.17     74.56
         H          1.016            2.062      6.17     74.56
         H          1.016            2.062      6.17     74.56
         H          1.016            2.062      6.17     74.56
         C          3.398            2.750     46.25   1337.76
         C          3.398            2.750     46.25   1337.76
         C          3.398            2.750     46.25   1337.76
         C          3.398            2.750     46.25   1337.76
         C          3.398            2.750     46.25   1337.76
         C          3.398            2.750     46.25   1337.76
         C          3.398            2.750     46.25   1337.76
         C          3.398            2.750     46.25   1337.76
         O          1.069            2.345     25.51    514.79
         O          1.069            2.345     25.51    514.79
         O          1.069            2.345     25.51    514.79
         O          1.069            2.345     25.51    514.79
         O          1.069            2.345     25.51    514.79
         O          1.069            2.345     25.51    514.79
         O          1.069            2.345     25.51    514.79
         O          1.069            2.345     25.51    514.79
         C          3.194            2.750     50.13   1449.76
         C          3.194            2.750     50.13   1449.76
         C          3.194            2.750     50.13   1449.76
         C          3.194            2.750     50.13   1449.76
         C          3.194            2.750     50.13   1449.76
         C          3.194            2.750     50.13   1449.76
         C          3.194            2.750     50.13   1449.76
         C          3.194            2.750     50.13   1449.76
         C          3.171            2.750     50.35   1456.14
         C          3.171            2.750     50.35   1456.14
         C          3.171            2.750     50.35   1456.14
         C          3.171            2.750     50.35   1456.14
         C          3.171            2.750     50.35   1456.14
         C          3.171            2.750     50.35   1456.14
         C          3.171            2.750     50.35   1456.14
         C          3.171            2.750     50.35   1456.14
         H          1.013            2.062      6.17     74.59
         H          1.013            2.062      6.17     74.59
         H          1.013            2.062      6.17     74.59
         H          1.013            2.062      6.17     74.59
         H          1.013            2.062      6.17     74.59
         H          1.013            2.062      6.17     74.59
         H          1.013            2.062      6.17     74.59
         H          1.013            2.062      6.17     74.59
         C          3.184            2.750     50.23   1452.62
         C          3.184            2.750     50.23   1452.62
         C          3.184            2.750     50.23   1452.62
         C          3.184            2.750     50.23   1452.62
         C          3.184            2.750     50.23   1452.62
         C          3.184            2.750     50.23   1452.62
         C          3.184            2.750     50.23   1452.62
         C          3.184            2.750     50.23   1452.62
         H          1.014            2.062      6.17     74.57
         H          1.014            2.062      6.17     74.57
         H          1.014            2.062      6.17     74.57
         H          1.014            2.062      6.17     74.57
         H          1.014            2.062      6.17     74.57
         H          1.014            2.062      6.17     74.57
         H          1.014            2.062      6.17     74.57
         H          1.014            2.062      6.17     74.57
         O          1.079            2.345     25.49    514.41
         O          1.079            2.345     25.49    514.41
         O          1.079            2.345     25.49    514.41
         O          1.079            2.345     25.49    514.41
         O          1.079            2.345     25.49    514.41
         O          1.079            2.345     25.49    514.41
         O          1.079            2.345     25.49    514.41
         O          1.079            2.345     25.49    514.41
         C          3.292            2.750     48.72   1408.96
         C          3.292            2.750     48.72   1408.96
         C          3.292            2.750     48.72   1408.96
         C          3.292            2.750     48.72   1408.96
         C          3.292            2.750     48.72   1408.96
         C          3.292            2.750     48.72   1408.96
         C          3.292            2.750     48.72   1408.96
         C          3.292            2.750     48.72   1408.96
         C          3.163            2.750     50.43   1458.38
         C          3.163            2.750     50.43   1458.38
         C          3.163            2.750     50.43   1458.38
         C          3.163            2.750     50.43   1458.38
         C          3.163            2.750     50.43   1458.38
         C          3.163            2.750     50.43   1458.38
         C          3.163            2.750     50.43   1458.38
         C          3.163            2.750     50.43   1458.38
         H          1.012            2.062      6.17     74.59
         H          1.012            2.062      6.17     74.59
         H          1.012            2.062      6.17     74.59
         H          1.012            2.062      6.17     74.59
         H          1.012            2.062      6.17     74.59
         H          1.012            2.062      6.17     74.59
         H          1.012            2.062      6.17     74.59
         H          1.012            2.062      6.17     74.59
         C          3.280            2.750     48.92   1414.89
         C          3.280            2.750     48.92   1414.89
         C          3.280            2.750     48.92   1414.89
         C          3.280            2.750     48.92   1414.89
         C          3.280            2.750     48.92   1414.89
         C          3.280            2.750     48.92   1414.89
         C          3.280            2.750     48.92   1414.89
         C          3.280            2.750     48.92   1414.89
         C          3.232            2.750     49.66   1436.28
         C          3.232            2.750     49.66   1436.28
         C          3.232            2.750     49.66   1436.28
         C          3.232            2.750     49.66   1436.28
         C          3.232            2.750     49.66   1436.28
         C          3.232            2.750     49.66   1436.28
         C          3.232            2.750     49.66   1436.28
         C          3.232            2.750     49.66   1436.28
         C          3.231            2.750     49.68   1436.98
         C          3.231            2.750     49.68   1436.98
         C          3.231            2.750     49.68   1436.98
         C          3.231            2.750     49.68   1436.98
         C          3.231            2.750     49.68   1436.98
         C          3.231            2.750     49.68   1436.98
         C          3.231            2.750     49.68   1436.98
         C          3.231            2.750     49.68   1436.98
         C          3.181            2.750     50.25   1453.37
         C          3.181            2.750     50.25   1453.37
         C          3.181            2.750     50.25   1453.37
         C          3.181            2.750     50.25   1453.37
         C          3.181            2.750     50.25   1453.37
         C          3.181            2.750     50.25   1453.37
         C          3.181            2.750     50.25   1453.37
         C          3.181            2.750     50.25   1453.37
         H          1.014            2.062      6.17     74.58
         H          1.014            2.062      6.17     74.58
         H          1.014            2.062      6.17     74.58
         H          1.014            2.062      6.17     74.58
         H          1.014            2.062      6.17     74.58
         H          1.014            2.062      6.17     74.58
         H          1.014            2.062      6.17     74.58
         H          1.014            2.062      6.17     74.58
         C          3.395            2.750     46.34   1340.32
         C          3.395            2.750     46.34   1340.32
         C          3.395            2.750     46.34   1340.32
         C          3.395            2.750     46.34   1340.32
         C          3.395            2.750     46.34   1340.32
         C          3.395            2.750     46.34   1340.32
         C          3.395            2.750     46.34   1340.32
         C          3.395            2.750     46.34   1340.32
         C          3.313            2.750     48.31   1397.11
         C          3.313            2.750     48.31   1397.11
         C          3.313            2.750     48.31   1397.11
         C          3.313            2.750     48.31   1397.11
         C          3.313            2.750     48.31   1397.11
         C          3.313            2.750     48.31   1397.11
         C          3.313            2.750     48.31   1397.11
         C          3.313            2.750     48.31   1397.11
         O          1.085            2.345     25.48    514.18
         O          1.085            2.345     25.48    514.18
         O          1.085            2.345     25.48    514.18
         O          1.085            2.345     25.48    514.18
         O          1.085            2.345     25.48    514.18
         O          1.085            2.345     25.48    514.18
         O          1.085            2.345     25.48    514.18
         O          1.085            2.345     25.48    514.18
         C          3.271            2.750     49.08   1419.36
         C          3.271            2.750     49.08   1419.36
         C          3.271            2.750     49.08   1419.36
         C          3.271            2.750     49.08   1419.36
         C          3.271            2.750     49.08   1419.36
         C          3.271            2.750     49.08   1419.36
         C          3.271            2.750     49.08   1419.36
         C          3.271            2.750     49.08   1419.36
         C          3.235            2.750     49.62   1435.23
         C          3.235            2.750     49.62   1435.23
         C          3.235            2.750     49.62   1435.23
         C          3.235            2.750     49.62   1435.23
         C          3.235            2.750     49.62   1435.23
         C          3.235            2.750     49.62   1435.23
         C          3.235            2.750     49.62   1435.23
         C          3.235            2.750     49.62   1435.23
         C          3.228            2.750     49.72   1437.89
         C          3.228            2.750     49.72   1437.89
         C          3.228            2.750     49.72   1437.89
         C          3.228            2.750     49.72   1437.89
         C          3.228            2.750     49.72   1437.89
         C          3.228            2.750     49.72   1437.89
         C          3.228            2.750     49.72   1437.89
         C          3.228            2.750     49.72   1437.89
         C          3.294            2.750     48.67   1407.59
         C          3.294            2.750     48.67   1407.59
         C          3.294            2.750     48.67   1407.59
         C          3.294            2.750     48.67   1407.59
         C          3.294            2.750     48.67   1407.59
         C          3.294            2.750     48.67   1407.59
         C          3.294            2.750     48.67   1407.59
         C          3.294            2.750     48.67   1407.59
         C          3.255            2.750     49.34   1427.09
         C          3.255            2.750     49.34   1427.09
         C          3.255            2.750     49.34   1427.09
         C          3.255            2.750     49.34   1427.09
         C          3.255            2.750     49.34   1427.09
         C          3.255            2.750     49.34   1427.09
         C          3.255            2.750     49.34   1427.09
         C          3.255            2.750     49.34   1427.09
         C          3.321            2.750     48.14   1392.25
         C          3.321            2.750     48.14   1392.25
         C          3.321            2.750     48.14   1392.25
         C          3.321            2.750     48.14   1392.25
         C          3.321            2.750     48.14   1392.25
         C          3.321            2.750     48.14   1392.25
         C          3.321            2.750     48.14   1392.25
         C          3.321            2.750     48.14   1392.25

         Molecular C6 ( Ry / a.u.^6 ) =   7310658.90


     number of k points=     8  Gaussian smearing, width (Ry)=  0.0100
                       cart. coord. in units 2pi/alat
        k(    1) = (   0.0000000   0.0000000   0.0000000), wk =   0.2500000
        k(    2) = (   0.0000000   0.0000000  -0.5764436), wk =   0.2500000
        k(    3) = (   0.0000000  -2.3680124   0.0000000), wk =   0.2500000
        k(    4) = (   0.0000000  -2.3680124  -0.5764436), wk =   0.2500000
        k(    5) = (  -0.5000000   0.0000000  -0.1790259), wk =   0.2500000
        k(    6) = (  -0.5000000   0.0000000  -0.7554695), wk =   0.2500000
        k(    7) = (  -0.5000000  -2.3680124  -0.1790259), wk =   0.2500000
        k(    8) = (  -0.5000000  -2.3680124  -0.7554695), wk =   0.2500000

     Dense  grid:  4737327 G-vectors     FFT dimensions: ( 375,  80, 360)

     Smooth grid:  1023457 G-vectors     FFT dimensions: ( 225,  48, 216)

     Estimated max dynamical RAM per process >       1.32 GB

     Estimated total dynamical RAM >      84.68 GB

     Check: negative core charge=   -0.000004

     Initial potential from superposition of free atoms

     starting charge    1615.9900, renormalised to    1616.0000
     Starting wfcs are 1344 randomized atomic wfcs
     Checking if some PAW data can be deallocated... 

     total cpu time spent up to now is       72.9 secs

     Self-consistent Calculation

     iteration #  1     ecut=    36.00 Ry     beta= 0.20
     PPCG style diagonalization
     ethr =  1.00E-02,  avg # of iterations =  8.9

     total cpu time spent up to now is      707.1 secs

     total energy              =  -10830.95445551 Ry
     estimated scf accuracy    <      40.09245386 Ry

     iteration #  2     ecut=    36.00 Ry     beta= 0.20
     PPCG style diagonalization
     ethr =  2.48E-03,  avg # of iterations =  9.8

     total cpu time spent up to now is     1387.8 secs

     total energy              =  -10828.09014056 Ry
     estimated scf accuracy    <      13.46332035 Ry

     iteration #  3     ecut=    36.00 Ry     beta= 0.20
     PPCG style diagonalization
     ethr =  8.33E-04,  avg # of iterations =  9.7

     total cpu time spent up to now is     2074.5 secs

     total energy              =  -10827.84115380 Ry
     estimated scf accuracy    <       3.08269055 Ry

     iteration #  4     ecut=    36.00 Ry     beta= 0.20
     PPCG style diagonalization
     ethr =  1.91E-04,  avg # of iterations =  9.7

     total cpu time spent up to now is     2736.4 secs

     total energy              =  -10827.93299715 Ry
     estimated scf accuracy    <       0.49504079 Ry

     iteration #  5     ecut=    36.00 Ry     beta= 0.20
     PPCG style diagonalization
     ethr =  3.06E-05,  avg # of iterations =  9.5

     total cpu time spent up to now is     3397.8 secs

     total energy              =  -10827.93642645 Ry
     estimated scf accuracy    <       0.10270812 Ry

     iteration #  6     ecut=    36.00 Ry     beta= 0.20
     PPCG style diagonalization
     ethr =  6.36E-06,  avg # of iterations =  9.6

     total cpu time spent up to now is     4051.7 secs

     total energy              =  -10827.94059836 Ry
     estimated scf accuracy    <       0.01536302 Ry

     iteration #  7     ecut=    36.00 Ry     beta= 0.20
     PPCG style diagonalization
     ethr =  9.51E-07,  avg # of iterations =  9.5

     total cpu time spent up to now is     4704.4 secs

     total energy              =  -10827.94182633 Ry
     estimated scf accuracy    <       0.00255672 Ry

     iteration #  8     ecut=    36.00 Ry     beta= 0.20
     PPCG style diagonalization
     ethr =  1.58E-07,  avg # of iterations =  8.1

     total cpu time spent up to now is     5258.8 secs

     total energy              =  -10827.94211956 Ry
     estimated scf accuracy    <       0.00060055 Ry

     iteration #  9     ecut=    36.00 Ry     beta= 0.20
     PPCG style diagonalization
     ethr =  3.72E-08,  avg # of iterations =  8.2

     total cpu time spent up to now is     5828.9 secs

     total energy              =  -10827.94232352 Ry
     estimated scf accuracy    <       0.00008814 Ry

     iteration # 10     ecut=    36.00 Ry     beta= 0.20
     PPCG style diagonalization
     ethr =  5.45E-09,  avg # of iterations =  8.0

     total cpu time spent up to now is     6379.0 secs

     total energy              =  -10827.94244462 Ry
     estimated scf accuracy    <       0.00001068 Ry

     iteration # 11     ecut=    36.00 Ry     beta= 0.20
     PPCG style diagonalization
     ethr =  6.61E-10,  avg # of iterations =  7.9

     total cpu time spent up to now is     6918.3 secs

     total energy              =  -10827.94251930 Ry
     estimated scf accuracy    <       0.00000205 Ry

     iteration # 12     ecut=    36.00 Ry     beta= 0.20
     PPCG style diagonalization
     ethr =  1.27E-10,  avg # of iterations =  7.9

     total cpu time spent up to now is     7458.1 secs

     End of self-consistent calculation

          k = 0.0000 0.0000 0.0000 (127953 PWs)   bands (ev):

   -19.9105 -19.9105 -19.9105 -19.9105 -19.8980 -19.8980 -19.8980 -19.8980
   -19.3396 -19.3396 -19.3396 -19.3396 -19.3343 -19.3343 -19.3343 -19.3342
   -18.4542 -18.4542 -18.4542 -18.4542 -18.4251 -18.4251 -18.4251 -18.4250
   -18.2524 -18.2523 -18.2523 -18.2523 -18.2468 -18.2468 -18.2467 -18.2467
   -17.6221 -17.6220 -17.6219 -17.6219 -17.6213 -17.6213 -17.6212 -17.6211
   -17.2188 -17.2188 -17.2184 -17.2184 -17.1978 -17.1978 -17.1977 -17.1976
   -16.5582 -16.5578 -16.5535 -16.5531 -16.5377 -16.5373 -16.5323 -16.5319
   -15.9376 -15.9375 -15.9370 -15.9368 -15.9140 -15.9139 -15.9132 -15.9132
   -15.4775 -15.4766 -15.4764 -15.4756 -15.4672 -15.4664 -15.4663 -15.4656
   -15.0713 -15.0710 -15.0580 -15.0578 -15.0453 -15.0450 -15.0348 -15.0344
   -14.8573 -14.8571 -14.8513 -14.8511 -14.8404 -14.8401 -14.8326 -14.8325
   -14.6212 -14.6209 -14.6202 -14.6195 -14.4415 -14.4372 -14.4360 -14.4346
   -14.4064 -14.4027 -14.3994 -14.3977 -14.3962 -14.3914 -14.3897 -14.3882
   -14.2162 -14.2161 -14.2153 -14.2147 -14.2022 -14.2016 -14.2006 -14.2004
   -13.8712 -13.8672 -13.8653 -13.8649 -13.8602 -13.8520 -13.8462 -13.8424
   -13.7334 -13.7301 -13.7237 -13.7191 -13.7076 -13.7052 -13.7044 -13.7015
   -13.5607 -13.5477 -13.5452 -13.5317 -13.5139 -13.5123 -13.5032 -13.5014
   -13.1572 -13.1571 -13.1472 -13.1447 -13.1373 -13.1344 -13.1241 -13.1176
   -12.9302 -12.9250 -12.9248 -12.9227 -12.4671 -12.4516 -12.4494 -12.4346
   -12.3561 -12.3415 -12.3407 -12.3404 -12.2737 -12.2714 -12.2603 -12.2585
   -12.0921 -12.0822 -12.0802 -12.0488 -11.7730 -11.7664 -11.7491 -11.7429
   -11.4764 -11.4763 -11.4711 -11.4663 -11.2659 -11.2653 -11.2645 -11.2641
   -11.2489 -11.2483 -11.2385 -11.2373 -11.1843 -11.1837 -11.1669 -11.1664
   -10.8395 -10.8350 -10.8324 -10.8309 -10.4736 -10.4719 -10.4630 -10.4522
   -10.4215 -10.4209 -10.4110 -10.4028 -10.3289 -10.3236 -10.3066 -10.3020
    -9.9436  -9.9370  -9.9342  -9.9244  -9.5575  -9.5569  -9.5558  -9.5554
    -9.5546  -9.5542  -9.5508  -9.5507  -9.3382  -9.3361  -9.3298  -9.3277
    -9.2736  -9.2724  -9.2718  -9.2695  -9.1108  -9.1061  -9.1059  -9.1036
    -8.9538  -8.9537  -8.9511  -8.9502  -8.8970  -8.8957  -8.8949  -8.8941
    -8.3507  -8.3336  -8.3306  -8.3227  -8.3030  -8.2859  -8.2819  -8.2817
    -8.2804  -8.2764  -8.2653  -8.2648  -8.2286  -8.2238  -8.2153  -8.2112
    -8.2109  -8.2097  -8.2069  -8.2064  -8.1633  -8.1614  -8.1556  -8.1498
    -8.1287  -8.1286  -8.1263  -8.1262  -7.6326  -7.6221  -7.6204  -7.6005
    -7.4750  -7.4686  -7.4664  -7.4559  -7.1810  -7.1647  -7.1528  -7.1521
    -7.1366  -7.1319  -7.1186  -7.1053  -6.6577  -6.6398  -6.6288  -6.6167
    -6.6008  -6.5823  -6.5701  -6.5647  -6.4166  -6.4061  -6.3936  -6.3881
    -6.3733  -6.3625  -6.3504  -6.3293  -6.1945  -6.1639  -6.1528  -6.1509
    -6.1375  -6.1313  -6.1145  -6.0983  -6.0606  -6.0391  -6.0229  -6.0106
    -5.9908  -5.9700  -5.9671  -5.9640  -5.8832  -5.8762  -5.8687  -5.8578
    -5.8334  -5.8061  -5.8011  -5.8002  -5.6251  -5.6237  -5.6036  -5.6028
    -5.5898  -5.5893  -5.5519  -5.5511  -5.4153  -5.4123  -5.3802  -5.3661
    -5.3497  -5.3388  -5.3279  -5.3103  -5.1833  -5.1818  -5.1600  -5.1506
    -5.1369  -5.1351  -5.1110  -5.1027  -5.0439  -5.0370  -5.0298  -5.0263
    -5.0244  -5.0209  -4.9873  -4.9783  -4.8656  -4.8649  -4.8526  -4.8282
    -4.6592  -4.6586  -4.6283  -4.6112  -4.5982  -4.5953  -4.5819  -4.5570
    -4.5456  -4.5361  -4.5354  -4.5297  -4.5167  -4.4979  -4.4802  -4.4755
    -4.4748  -4.4618  -4.4525  -4.4488  -4.4455  -4.4297  -4.4246  -4.4107
    -4.4045  -4.3997  -4.3800  -4.3688  -4.2892  -4.2741  -4.2662  -4.2567
    -4.2555  -4.2482  -4.2435  -4.2387  -4.2070  -4.2060  -4.1838  -4.1834
    -4.1668  -4.1293  -4.0980  -4.0933  -4.0806  -4.0307  -3.9620  -3.9399
    -3.8750  -3.8680  -3.8676  -3.8647  -3.8474  -3.8434  -3.8406  -3.8366
    -3.8311  -3.8287  -3.8199  -3.8174  -3.8040  -3.7951  -3.7666  -3.7635
    -3.7546  -3.7504  -3.7451  -3.7316  -3.7313  -3.7144  -3.6744  -3.6728
    -3.6688  -3.6670  -3.6630  -3.6530  -3.6456  -3.6420  -3.6262  -3.6244
    -3.6230  -3.6179  -3.5861  -3.5678  -3.5616  -3.5560  -3.5494  -3.5294
    -3.5250  -3.5229  -3.5194  -3.5169  -3.5155  -3.5119  -3.4957  -3.4940
    -3.4854  -3.4727  -3.4605  -3.4585  -3.4255  -3.4123  -3.4066  -3.3986
    -3.3927  -3.3811  -3.3619  -3.3609  -3.3438  -3.3313  -3.3298  -3.3058
    -3.2707  -3.2353  -3.2049  -3.1998  -3.1830  -3.1807  -3.1774  -3.1572
    -3.1502  -3.1483  -3.1451  -3.1424  -3.1417  -3.1051  -3.0757  -3.0751
    -3.0750  -3.0663  -3.0470  -3.0257  -3.0060  -2.9989  -2.9949  -2.9935
    -2.9625  -2.9607  -2.9547  -2.9305  -2.9123  -2.8856  -2.8827  -2.8683
    -2.8646  -2.8303  -2.8135  -2.8019  -2.7890  -2.7887  -2.7859  -2.7636
    -2.7595  -2.7572  -2.7522  -2.7504  -2.7138  -2.7035  -2.6903  -2.6729
    -2.6614  -2.6374  -2.6269  -2.6267  -2.6107  -2.5897  -2.5641  -2.5455
    -2.5207  -2.5065  -2.5051  -2.5015  -2.4928  -2.4720  -2.4601  -2.4552
    -2.4396  -2.4297  -2.4216  -2.4160  -2.4018  -2.3917  -2.3849  -2.3789
    -2.3326  -2.3297  -2.3284  -2.3251  -2.2499  -2.2442  -2.2399  -2.2313
    -2.1735  -2.1730  -2.1667  -2.1665  -2.1648  -2.1548  -2.1535  -2.1339
    -2.0177  -2.0145  -1.9978  -1.9949  -1.9916  -1.9778  -1.9584  -1.9512
    -1.9162  -1.9103  -1.9077  -1.8956  -1.8060  -1.7908  -1.7875  -1.7446
    -1.6982  -1.6710  -1.6474  -1.6304  -1.6057  -1.6052  -1.5972  -1.5802
    -1.5739  -1.5661  -1.5448  -1.5225  -1.5187  -1.5124  -1.4728  -1.4718
    -1.4626  -1.4479  -1.4412  -1.4408  -1.4139  -1.4112  -1.3982  -1.3712
    -1.3573  -1.2979  -1.2931  -1.2849  -1.2841  -1.2529  -1.2517  -1.2338
    -1.2175  -1.2160  -1.1722  -1.1717  -1.1604  -1.1544  -1.1535  -1.1496
    -1.1422  -1.1125  -1.1078  -1.0750  -1.0555  -1.0521  -1.0385  -0.9842
    -0.9779  -0.9574  -0.9481  -0.9305  -0.9303  -0.9236  -0.9200  -0.9180
    -0.8944  -0.8897  -0.8591  -0.8586  -0.8574  -0.8465  -0.8218  -0.8157
    -0.7967  -0.7908  -0.7825  -0.7694  -0.7134  -0.7079  -0.7053  -0.7019
    -0.6973  -0.6797  -0.6763  -0.6728  -0.6591  -0.6480  -0.6464  -0.6316
    -0.6228  -0.6191  -0.6149  -0.5732  -0.5083  -0.4917  -0.4765  -0.4690
    -0.4644  -0.4628  -0.4550  -0.4458  -0.4440  -0.4431  -0.4367  -0.4300
    -0.4170  -0.4030  -0.3808  -0.3670  -0.3393  -0.3371  -0.3367  -0.3295
    -0.3181  -0.3162  -0.3135  -0.2877  -0.1986  -0.1867  -0.1759  -0.1705
    -0.0206  -0.0091  -0.0033  -0.0031   0.0014   0.0047   0.0087   0.0130
     0.0143   0.0217   0.0305   0.0509   0.0575   0.0625   0.0764   0.0812
     0.0833   0.1180   0.1318   0.1347   0.1440   0.1501   0.1685   0.1693
     0.1911   0.2179   0.2326   0.2355   0.2484   0.2533   0.2595   0.2612
     0.2910   0.2922   0.2945   0.2948   0.3583   0.3610   0.4094   0.4160
     0.5525   0.5623   0.5655   0.5712   0.6967   0.7003   0.7057   0.7203
     0.7498   0.7566   0.7662   0.7672   0.7738   0.7893   0.7903   0.7954
     0.7955   0.8068   0.8322   0.8468   0.8532   0.8565   0.9570   0.9650
     1.0217   1.0235   1.0277   1.0292   1.0300   1.0358   1.0362   1.0407
     1.0506   1.0523   1.0560   1.0567   1.0736   1.0938   1.1130   1.1293
     1.1504   1.1546   1.1952   1.1995   1.2293   1.2729   1.2909   1.2963
     1.2994   1.3069   1.3135   1.3604   1.3631   1.3706   1.3804   1.3915
     1.4116   1.4127   1.4260   1.4318   1.4641   1.4644   1.4742   1.4759
     1.6824   1.6851   1.7009   1.7081   1.7748   1.7804   1.7888   1.8030
     2.0935   2.0963   2.1003   2.1029   2.1777   2.1787   2.1821   2.1827
     2.3965   2.4049   2.4451   2.4548   2.4741   2.4821   2.5110   2.5207
     3.9138   3.9145   3.9163   3.9208   3.9335   3.9343   3.9346   3.9361
     4.4323   4.4460   4.4484   4.4509   4.5285   4.5336   4.5404   4.5452
     4.6826   4.6900   4.6918   4.6940   4.7159   4.7160   4.7197   4.7282
     4.7306   4.7314   4.7482   4.7561   4.7938   4.8019   4.8049   4.8149
     5.3387   5.3540   5.3734   5.3920   5.4819   5.5038   5.5102   5.5170
     5.5210   5.5263   5.5269   5.5493   5.7295   5.7385   5.7395   5.7878
     5.8526   5.8576   5.8713   5.8750   5.9360   5.9362   5.9375   5.9602
     6.0950   6.1237   6.1421   6.1424   6.2110   6.2121   6.2278   6.2573
     6.2667   6.2673   6.2719   6.2767   6.3096   6.3192   6.3223   6.3313
     6.3517   6.3685   6.3943   6.3962   6.4036   6.4217   6.4239   6.4809
     6.6503   6.6559   6.6565   6.6612   6.7189   6.7219   6.7309   6.7391
     6.9620   6.9624   6.9789   6.9806   7.0180   7.0262   7.0271   7.0624
     7.1232   7.1523   7.2412   7.2420   7.3237   7.3637   7.3917   7.4047
     7.4441   7.4872   7.4910   7.5038   7.5075   7.5173   7.5626   7.5754
     7.6213   7.6245   7.6309   7.6382   7.6629   7.6709   7.7287   7.7337
     7.7565   7.7872   7.7962   7.8087   7.8709   7.8748   7.8826   7.8935
     7.8936   7.8962   7.9041   7.9174   7.9436   7.9535   7.9868   7.9876
     7.9938   7.9956   7.9965   8.0313   8.0341   8.0697   8.0709   8.0825
     8.1263   8.1469   8.1688   8.1882   8.2148   8.2310   8.2979   8.3006
     8.3202   8.3520   8.3578   8.3833   8.4153   8.4199   8.4340   8.4700
     8.4783   8.5304

          k = 0.0000 0.0000-0.5764 (127978 PWs)   bands (ev):

   -19.9105 -19.9105 -19.9105 -19.9105 -19.8980 -19.8980 -19.8980 -19.8980
   -19.3396 -19.3396 -19.3396 -19.3396 -19.3343 -19.3343 -19.3343 -19.3343
   -18.4542 -18.4542 -18.4542 -18.4542 -18.4251 -18.4251 -18.4251 -18.4251
   -18.2523 -18.2523 -18.2523 -18.2523 -18.2467 -18.2467 -18.2467 -18.2467
   -17.6220 -17.6220 -17.6220 -17.6220 -17.6213 -17.6213 -17.6212 -17.6212
   -17.2188 -17.2188 -17.2184 -17.2184 -17.1978 -17.1978 -17.1977 -17.1977
   -16.5580 -16.5580 -16.5533 -16.5533 -16.5375 -16.5375 -16.5321 -16.5321
   -15.9375 -15.9375 -15.9369 -15.9369 -15.9139 -15.9139 -15.9132 -15.9132
   -15.4771 -15.4771 -15.4760 -15.4760 -15.4668 -15.4668 -15.4659 -15.4659
   -15.0712 -15.0712 -15.0579 -15.0579 -15.0451 -15.0451 -15.0346 -15.0346
   -14.8572 -14.8572 -14.8512 -14.8512 -14.8402 -14.8402 -14.8325 -14.8325
   -14.6210 -14.6210 -14.6198 -14.6198 -14.4394 -14.4394 -14.4353 -14.4353
   -14.4041 -14.4041 -14.4003 -14.4003 -14.3910 -14.3910 -14.3904 -14.3904
   -14.2157 -14.2157 -14.2155 -14.2155 -14.2013 -14.2013 -14.2010 -14.2010
   -13.8692 -13.8692 -13.8661 -13.8661 -13.8552 -13.8552 -13.8442 -13.8442
   -13.7319 -13.7319 -13.7216 -13.7216 -13.7058 -13.7058 -13.7033 -13.7033
   -13.5549 -13.5549 -13.5396 -13.5396 -13.5074 -13.5074 -13.5061 -13.5061
   -13.1535 -13.1535 -13.1528 -13.1528 -13.1293 -13.1293 -13.1242 -13.1242
   -12.9265 -12.9265 -12.9249 -12.9249 -12.4516 -12.4516 -12.4507 -12.4507
   -12.3481 -12.3481 -12.3408 -12.3408 -12.2725 -12.2725 -12.2595 -12.2595
   -12.0811 -12.0811 -12.0707 -12.0707 -11.7579 -11.7579 -11.7573 -11.7573
   -11.4736 -11.4736 -11.4712 -11.4712 -11.2656 -11.2656 -11.2643 -11.2643
   -11.2486 -11.2486 -11.2379 -11.2379 -11.1840 -11.1840 -11.1666 -11.1666
   -10.8359 -10.8359 -10.8330 -10.8330 -10.4728 -10.4728 -10.4581 -10.4581
   -10.4211 -10.4211 -10.4073 -10.4073 -10.3152 -10.3152 -10.3148 -10.3148
    -9.9356  -9.9356  -9.9338  -9.9338  -9.5572  -9.5572  -9.5555  -9.5555
    -9.5545  -9.5545  -9.5508  -9.5508  -9.3372  -9.3372  -9.3287  -9.3287
    -9.2727  -9.2727  -9.2710  -9.2710  -9.1072  -9.1072  -9.1060  -9.1060
    -8.9524  -8.9524  -8.9519  -8.9519  -8.8964  -8.8964  -8.8945  -8.8945
    -8.3424  -8.3424  -8.3286  -8.3286  -8.2913  -8.2913  -8.2825  -8.2825
    -8.2793  -8.2793  -8.2643  -8.2643  -8.2263  -8.2263  -8.2132  -8.2132
    -8.2104  -8.2104  -8.2066  -8.2066  -8.1623  -8.1623  -8.1528  -8.1528
    -8.1275  -8.1275  -8.1273  -8.1273  -7.6275  -7.6275  -7.6109  -7.6109
    -7.4717  -7.4717  -7.4607  -7.4607  -7.1762  -7.1762  -7.1482  -7.1482
    -7.1320  -7.1320  -7.1151  -7.1151  -6.6468  -6.6468  -6.6303  -6.6303
    -6.5818  -6.5818  -6.5714  -6.5714  -6.4113  -6.4113  -6.3821  -6.3821
    -6.3808  -6.3808  -6.3357  -6.3357  -6.1798  -6.1798  -6.1595  -6.1595
    -6.1220  -6.1220  -6.1111  -6.1111  -6.0512  -6.0512  -6.0166  -6.0166
    -5.9789  -5.9789  -5.9656  -5.9656  -5.8806  -5.8806  -5.8640  -5.8640
    -5.8162  -5.8162  -5.8023  -5.8023  -5.6246  -5.6246  -5.6032  -5.6032
    -5.5895  -5.5895  -5.5513  -5.5513  -5.4003  -5.4003  -5.3957  -5.3957
    -5.3314  -5.3314  -5.3234  -5.3234  -5.1764  -5.1764  -5.1662  -5.1662
    -5.1261  -5.1261  -5.1113  -5.1113  -5.0407  -5.0407  -5.0348  -5.0348
    -5.0157  -5.0157  -4.9839  -4.9839  -4.8644  -4.8644  -4.8409  -4.8409
    -4.6406  -4.6406  -4.6400  -4.6400  -4.5961  -4.5961  -4.5675  -4.5675
    -4.5415  -4.5415  -4.5369  -4.5369  -4.5063  -4.5063  -4.4781  -4.4781
    -4.4665  -4.4665  -4.4503  -4.4503  -4.4357  -4.4357  -4.4200  -4.4200
    -4.4004  -4.4004  -4.3737  -4.3737  -4.2737  -4.2737  -4.2696  -4.2696
    -4.2524  -4.2524  -4.2425  -4.2425  -4.2022  -4.2022  -4.1834  -4.1834
    -4.1416  -4.1416  -4.1266  -4.1266  -4.0105  -4.0105  -3.9813  -3.9813
    -3.8705  -3.8705  -3.8608  -3.8608  -3.8467  -3.8467  -3.8358  -3.8358
    -3.8356  -3.8356  -3.8256  -3.8256  -3.7909  -3.7909  -3.7535  -3.7535
    -3.7519  -3.7519  -3.7492  -3.7492  -3.6965  -3.6965  -3.6962  -3.6962
    -3.6732  -3.6732  -3.6503  -3.6503  -3.6428  -3.6428  -3.6329  -3.6329
    -3.6130  -3.6130  -3.5751  -3.5751  -3.5625  -3.5625  -3.5451  -3.5451
    -3.5313  -3.5313  -3.5157  -3.5157  -3.5031  -3.5031  -3.4969  -3.4969
    -3.4833  -3.4833  -3.4583  -3.4583  -3.4158  -3.4158  -3.4019  -3.4019
    -3.3996  -3.3996  -3.3506  -3.3506  -3.3381  -3.3381  -3.3273  -3.3273
    -3.2434  -3.2434  -3.2003  -3.2003  -3.1832  -3.1832  -3.1670  -3.1670
    -3.1510  -3.1510  -3.1473  -3.1473  -3.1180  -3.1180  -3.0869  -3.0869
    -3.0557  -3.0557  -3.0359  -3.0359  -2.9912  -2.9912  -2.9839  -2.9839
    -2.9699  -2.9699  -2.9604  -2.9604  -2.9103  -2.9103  -2.8717  -2.8717
    -2.8506  -2.8506  -2.8238  -2.8238  -2.7847  -2.7846  -2.7587  -2.7587
    -2.7483  -2.7483  -2.7457  -2.7457  -2.7043  -2.7043  -2.7003  -2.7003
    -2.6463  -2.6463  -2.6252  -2.6252  -2.6028  -2.6028  -2.5526  -2.5526
    -2.5099  -2.5099  -2.5085  -2.5085  -2.4732  -2.4732  -2.4679  -2.4679
    -2.4404  -2.4404  -2.4004  -2.4004  -2.4001  -2.4001  -2.3874  -2.3874
    -2.3341  -2.3341  -2.3260  -2.3260  -2.2468  -2.2468  -2.2359  -2.2359
    -2.1739  -2.1739  -2.1669  -2.1669  -2.1592  -2.1592  -2.1427  -2.1427
    -2.0113  -2.0113  -2.0102  -2.0102  -1.9700  -1.9700  -1.9610  -1.9610
    -1.9132  -1.9132  -1.9018  -1.9018  -1.7971  -1.7971  -1.7729  -1.7729
    -1.6637  -1.6637  -1.6551  -1.6551  -1.5987  -1.5987  -1.5830  -1.5830
    -1.5758  -1.5758  -1.5474  -1.5474  -1.5049  -1.5049  -1.4897  -1.4897
    -1.4626  -1.4626  -1.4235  -1.4235  -1.4078  -1.4078  -1.3835  -1.3835
    -1.3290  -1.3290  -1.2889  -1.2889  -1.2761  -1.2761  -1.2459  -1.2459
[...]
     8.6392   8.6393

     the Fermi energy is     3.1789 ev

!    total energy              =  -10828.29000073 Ry
     total all-electron energy =    -81852.949154 Ry
     estimated scf accuracy    <       0.00000036 Ry
     smearing contrib. (-TS)   =      -0.00000000 Ry
     internal energy E=F+TS    =  -10828.29000073 Ry

     The total energy is F=E-TS. E is the sum of the following terms:
     one-electron contribution =   -4227.49402454 Ry
     hartree contribution      =    2783.14302059 Ry
     xc contribution           =   -2033.85026374 Ry
     ewald contribution        =   -2697.21209573 Ry
     DFT-D3 Dispersion         =      -2.78132915 Ry
     one-center paw contrib.   =   -4650.09530817 Ry

     convergence has been achieved in   7 iterations

===================================================================================
=   BAD TERMINATION OF ONE OF YOUR APPLICATION PROCESSES
=   RANK 0 PID 137886 RUNNING AT usagi2
=   KILLED BY SIGNAL: 9 (Killed)
===================================================================================

===================================================================================
=   BAD TERMINATION OF ONE OF YOUR APPLICATION PROCESSES
=   RANK 1 PID 137887 RUNNING AT usagi2
=   KILLED BY SIGNAL: 9 (Killed)
===================================================================================

===================================================================================
=   BAD TERMINATION OF ONE OF YOUR APPLICATION PROCESSES
=   RANK 2 PID 137888 RUNNING AT usagi2
=   KILLED BY SIGNAL: 9 (Killed)
===================================================================================

===================================================================================
=   BAD TERMINATION OF ONE OF YOUR APPLICATION PROCESSES
=   RANK 3 PID 137889 RUNNING AT usagi2
=   KILLED BY SIGNAL: 9 (Killed)
===================================================================================

===================================================================================
=   BAD TERMINATION OF ONE OF YOUR APPLICATION PROCESSES
=   RANK 4 PID 137890 RUNNING AT usagi2
=   KILLED BY SIGNAL: 9 (Killed)
===================================================================================

===================================================================================
=   BAD TERMINATION OF ONE OF YOUR APPLICATION PROCESSES
=   RANK 5 PID 137892 RUNNING AT usagi2
=   KILLED BY SIGNAL: 9 (Killed)
===================================================================================

===================================================================================
=   BAD TERMINATION OF ONE OF YOUR APPLICATION PROCESSES
=   RANK 6 PID 137893 RUNNING AT usagi2
=   KILLED BY SIGNAL: 9 (Killed)
===================================================================================

===================================================================================
=   BAD TERMINATION OF ONE OF YOUR APPLICATION PROCESSES
=   RANK 7 PID 137894 RUNNING AT usagi2
=   KILLED BY SIGNAL: 9 (Killed)
===================================================================================

===================================================================================
=   BAD TERMINATION OF ONE OF YOUR APPLICATION PROCESSES
=   RANK 8 PID 137895 RUNNING AT usagi2
=   KILLED BY SIGNAL: 9 (Killed)
===================================================================================

===================================================================================
=   BAD TERMINATION OF ONE OF YOUR APPLICATION PROCESSES
=   RANK 9 PID 137896 RUNNING AT usagi2
=   KILLED BY SIGNAL: 9 (Killed)
===================================================================================

===================================================================================
=   BAD TERMINATION OF ONE OF YOUR APPLICATION PROCESSES
=   RANK 10 PID 137897 RUNNING AT usagi2
=   KILLED BY SIGNAL: 9 (Killed)
===================================================================================

===================================================================================
=   BAD TERMINATION OF ONE OF YOUR APPLICATION PROCESSES
=   RANK 11 PID 137899 RUNNING AT usagi2
=   KILLED BY SIGNAL: 9 (Killed)
===================================================================================

===================================================================================
=   BAD TERMINATION OF ONE OF YOUR APPLICATION PROCESSES
=   RANK 12 PID 137900 RUNNING AT usagi2
=   KILLED BY SIGNAL: 9 (Killed)
===================================================================================

===================================================================================
=   BAD TERMINATION OF ONE OF YOUR APPLICATION PROCESSES
=   RANK 13 PID 137901 RUNNING AT usagi2
=   KILLED BY SIGNAL: 9 (Killed)
===================================================================================

===================================================================================
=   BAD TERMINATION OF ONE OF YOUR APPLICATION PROCESSES
=   RANK 14 PID 137902 RUNNING AT usagi2
=   KILLED BY SIGNAL: 9 (Killed)
===================================================================================

===================================================================================
=   BAD TERMINATION OF ONE OF YOUR APPLICATION PROCESSES
=   RANK 15 PID 137903 RUNNING AT usagi2
=   KILLED BY SIGNAL: 9 (Killed)
===================================================================================

===================================================================================
=   BAD TERMINATION OF ONE OF YOUR APPLICATION PROCESSES
=   RANK 16 PID 137904 RUNNING AT usagi2
=   KILLED BY SIGNAL: 9 (Killed)
===================================================================================

===================================================================================
=   BAD TERMINATION OF ONE OF YOUR APPLICATION PROCESSES
=   RANK 17 PID 137905 RUNNING AT usagi2
=   KILLED BY SIGNAL: 9 (Killed)
===================================================================================

===================================================================================
=   BAD TERMINATION OF ONE OF YOUR APPLICATION PROCESSES
=   RANK 18 PID 137906 RUNNING AT usagi2
=   KILLED BY SIGNAL: 9 (Killed)
===================================================================================

===================================================================================
=   BAD TERMINATION OF ONE OF YOUR APPLICATION PROCESSES
=   RANK 19 PID 137908 RUNNING AT usagi2
=   KILLED BY SIGNAL: 9 (Killed)
===================================================================================

===================================================================================
=   BAD TERMINATION OF ONE OF YOUR APPLICATION PROCESSES
=   RANK 20 PID 137909 RUNNING AT usagi2
=   KILLED BY SIGNAL: 9 (Killed)
===================================================================================

===================================================================================
=   BAD TERMINATION OF ONE OF YOUR APPLICATION PROCESSES
=   RANK 21 PID 137910 RUNNING AT usagi2
=   KILLED BY SIGNAL: 9 (Killed)
===================================================================================

===================================================================================
=   BAD TERMINATION OF ONE OF YOUR APPLICATION PROCESSES
=   RANK 22 PID 137911 RUNNING AT usagi2
=   KILLED BY SIGNAL: 9 (Killed)
===================================================================================

===================================================================================
=   BAD TERMINATION OF ONE OF YOUR APPLICATION PROCESSES
=   RANK 23 PID 137912 RUNNING AT usagi2
=   KILLED BY SIGNAL: 9 (Killed)
===================================================================================

===================================================================================
=   BAD TERMINATION OF ONE OF YOUR APPLICATION PROCESSES
=   RANK 24 PID 137913 RUNNING AT usagi2
=   KILLED BY SIGNAL: 9 (Killed)
===================================================================================

===================================================================================
=   BAD TERMINATION OF ONE OF YOUR APPLICATION PROCESSES
=   RANK 25 PID 137914 RUNNING AT usagi2
=   KILLED BY SIGNAL: 9 (Killed)
===================================================================================

===================================================================================
=   BAD TERMINATION OF ONE OF YOUR APPLICATION PROCESSES
=   RANK 26 PID 137915 RUNNING AT usagi2
=   KILLED BY SIGNAL: 9 (Killed)
===================================================================================

===================================================================================
=   BAD TERMINATION OF ONE OF YOUR APPLICATION PROCESSES
=   RANK 27 PID 137916 RUNNING AT usagi2
=   KILLED BY SIGNAL: 9 (Killed)
===================================================================================

===================================================================================
=   BAD TERMINATION OF ONE OF YOUR APPLICATION PROCESSES
=   RANK 28 PID 137917 RUNNING AT usagi2
=   KILLED BY SIGNAL: 9 (Killed)
===================================================================================

===================================================================================
=   BAD TERMINATION OF ONE OF YOUR APPLICATION PROCESSES
=   RANK 29 PID 137918 RUNNING AT usagi2
=   KILLED BY SIGNAL: 9 (Killed)
===================================================================================

===================================================================================
=   BAD TERMINATION OF ONE OF YOUR APPLICATION PROCESSES
=   RANK 30 PID 137919 RUNNING AT usagi2
=   KILLED BY SIGNAL: 9 (Killed)
===================================================================================

===================================================================================
=   BAD TERMINATION OF ONE OF YOUR APPLICATION PROCESSES
=   RANK 31 PID 137920 RUNNING AT usagi2
=   KILLED BY SIGNAL: 9 (Killed)
===================================================================================

===================================================================================
=   BAD TERMINATION OF ONE OF YOUR APPLICATION PROCESSES
=   RANK 32 PID 137921 RUNNING AT usagi2
=   KILLED BY SIGNAL: 9 (Killed)
===================================================================================

===================================================================================
=   BAD TERMINATION OF ONE OF YOUR APPLICATION PROCESSES
=   RANK 33 PID 137923 RUNNING AT usagi2
=   KILLED BY SIGNAL: 9 (Killed)
===================================================================================

===================================================================================
=   BAD TERMINATION OF ONE OF YOUR APPLICATION PROCESSES
=   RANK 34 PID 137924 RUNNING AT usagi2
=   KILLED BY SIGNAL: 9 (Killed)
===================================================================================

===================================================================================
=   BAD TERMINATION OF ONE OF YOUR APPLICATION PROCESSES
=   RANK 35 PID 137925 RUNNING AT usagi2
=   KILLED BY SIGNAL: 9 (Killed)
===================================================================================

===================================================================================
=   BAD TERMINATION OF ONE OF YOUR APPLICATION PROCESSES
=   RANK 36 PID 137926 RUNNING AT usagi2
=   KILLED BY SIGNAL: 9 (Killed)
===================================================================================

===================================================================================
=   BAD TERMINATION OF ONE OF YOUR APPLICATION PROCESSES
=   RANK 37 PID 137927 RUNNING AT usagi2
=   KILLED BY SIGNAL: 9 (Killed)
===================================================================================

===================================================================================
=   BAD TERMINATION OF ONE OF YOUR APPLICATION PROCESSES
=   RANK 38 PID 137928 RUNNING AT usagi2
=   KILLED BY SIGNAL: 9 (Killed)
===================================================================================

===================================================================================
=   BAD TERMINATION OF ONE OF YOUR APPLICATION PROCESSES
=   RANK 39 PID 137929 RUNNING AT usagi2
=   KILLED BY SIGNAL: 9 (Killed)
===================================================================================

===================================================================================
=   BAD TERMINATION OF ONE OF YOUR APPLICATION PROCESSES
=   RANK 40 PID 137930 RUNNING AT usagi2
=   KILLED BY SIGNAL: 9 (Killed)
===================================================================================

===================================================================================
=   BAD TERMINATION OF ONE OF YOUR APPLICATION PROCESSES
=   RANK 41 PID 137931 RUNNING AT usagi2
=   KILLED BY SIGNAL: 9 (Killed)
===================================================================================

===================================================================================
=   BAD TERMINATION OF ONE OF YOUR APPLICATION PROCESSES
=   RANK 42 PID 137932 RUNNING AT usagi2
=   KILLED BY SIGNAL: 9 (Killed)
===================================================================================

===================================================================================
=   BAD TERMINATION OF ONE OF YOUR APPLICATION PROCESSES
=   RANK 43 PID 137933 RUNNING AT usagi2
=   KILLED BY SIGNAL: 9 (Killed)
===================================================================================

===================================================================================
=   BAD TERMINATION OF ONE OF YOUR APPLICATION PROCESSES
=   RANK 44 PID 137934 RUNNING AT usagi2
=   KILLED BY SIGNAL: 9 (Killed)
===================================================================================

===================================================================================
=   BAD TERMINATION OF ONE OF YOUR APPLICATION PROCESSES
=   RANK 45 PID 137935 RUNNING AT usagi2
=   KILLED BY SIGNAL: 9 (Killed)
===================================================================================

===================================================================================
=   BAD TERMINATION OF ONE OF YOUR APPLICATION PROCESSES
=   RANK 46 PID 137937 RUNNING AT usagi2
=   KILLED BY SIGNAL: 9 (Killed)
===================================================================================

===================================================================================
=   BAD TERMINATION OF ONE OF YOUR APPLICATION PROCESSES
=   RANK 47 PID 137938 RUNNING AT usagi2
=   KILLED BY SIGNAL: 9 (Killed)
===================================================================================

===================================================================================
=   BAD TERMINATION OF ONE OF YOUR APPLICATION PROCESSES
=   RANK 48 PID 137939 RUNNING AT usagi2
=   KILLED BY SIGNAL: 9 (Killed)
===================================================================================

===================================================================================
=   BAD TERMINATION OF ONE OF YOUR APPLICATION PROCESSES
=   RANK 49 PID 137940 RUNNING AT usagi2
=   KILLED BY SIGNAL: 9 (Killed)
===================================================================================

===================================================================================
=   BAD TERMINATION OF ONE OF YOUR APPLICATION PROCESSES
=   RANK 50 PID 137941 RUNNING AT usagi2
=   KILLED BY SIGNAL: 9 (Killed)
===================================================================================

===================================================================================
=   BAD TERMINATION OF ONE OF YOUR APPLICATION PROCESSES
=   RANK 51 PID 137942 RUNNING AT usagi2
=   KILLED BY SIGNAL: 9 (Killed)
===================================================================================

===================================================================================
=   BAD TERMINATION OF ONE OF YOUR APPLICATION PROCESSES
=   RANK 52 PID 137943 RUNNING AT usagi2
=   KILLED BY SIGNAL: 9 (Killed)
===================================================================================

===================================================================================
=   BAD TERMINATION OF ONE OF YOUR APPLICATION PROCESSES
=   RANK 53 PID 137944 RUNNING AT usagi2
=   KILLED BY SIGNAL: 9 (Killed)
===================================================================================

===================================================================================
=   BAD TERMINATION OF ONE OF YOUR APPLICATION PROCESSES
=   RANK 54 PID 137945 RUNNING AT usagi2
=   KILLED BY SIGNAL: 9 (Killed)
===================================================================================

===================================================================================
=   BAD TERMINATION OF ONE OF YOUR APPLICATION PROCESSES
=   RANK 55 PID 137946 RUNNING AT usagi2
=   KILLED BY SIGNAL: 9 (Killed)
===================================================================================

===================================================================================
=   BAD TERMINATION OF ONE OF YOUR APPLICATION PROCESSES
=   RANK 56 PID 137947 RUNNING AT usagi2
=   KILLED BY SIGNAL: 9 (Killed)
===================================================================================

===================================================================================
=   BAD TERMINATION OF ONE OF YOUR APPLICATION PROCESSES
=   RANK 57 PID 137948 RUNNING AT usagi2
=   KILLED BY SIGNAL: 9 (Killed)
===================================================================================

===================================================================================
=   BAD TERMINATION OF ONE OF YOUR APPLICATION PROCESSES
=   RANK 58 PID 137949 RUNNING AT usagi2
=   KILLED BY SIGNAL: 9 (Killed)
===================================================================================

===================================================================================
=   BAD TERMINATION OF ONE OF YOUR APPLICATION PROCESSES
=   RANK 59 PID 137951 RUNNING AT usagi2
=   KILLED BY SIGNAL: 9 (Killed)
===================================================================================

===================================================================================
=   BAD TERMINATION OF ONE OF YOUR APPLICATION PROCESSES
=   RANK 60 PID 137952 RUNNING AT usagi2
=   KILLED BY SIGNAL: 9 (Killed)
===================================================================================

===================================================================================
=   BAD TERMINATION OF ONE OF YOUR APPLICATION PROCESSES
=   RANK 61 PID 137953 RUNNING AT usagi2
=   KILLED BY SIGNAL: 9 (Killed)
===================================================================================

===================================================================================
=   BAD TERMINATION OF ONE OF YOUR APPLICATION PROCESSES
=   RANK 62 PID 137954 RUNNING AT usagi2
=   KILLED BY SIGNAL: 9 (Killed)
===================================================================================

===================================================================================
=   BAD TERMINATION OF ONE OF YOUR APPLICATION PROCESSES
=   RANK 63 PID 137955 RUNNING AT usagi2
=   KILLED BY SIGNAL: 9 (Killed)
===================================================================================
