
     Program PWSCF v.7.2 starts on 10Mar2024 at  8:46:20 

     This program is part of the open-source Quantum ESPRESSO suite
     for quantum simulation of materials; please cite
         "P. Giannozzi et al., J. Phys.:Condens. Matter 21 395502 (2009);
         "P. Giannozzi et al., J. Phys.:Condens. Matter 29 465901 (2017);
         "P. Giannozzi et al., J. Chem. Phys. 152 154105 (2020);
          URL http://www.quantum-espresso.org", 
     in publications or presentations arising from this work. More details at
     http://www.quantum-espresso.org/quote

     Parallel version (MPI), running on    64 processors

     MPI processes distributed on     1 nodes
     1400523 MiB available memory on the printing compute node when the environment starts
 
     Waiting for input...
     Reading input from standard input
Warning: card &CELL ignored
Warning: card / ignored

     Current dimensions of program PWSCF are:
     Max number of different atomic species (ntypx) = 10
     Max number of k-points (npk) =  40000
     Max angular momentum in pseudopotentials (lmaxx) =  4
     file Cl.pbe-n-kjpaw_psl.1.0.0.UPF: wavefunction(s)  3S 3P renormalized
     file C.pbe-n-kjpaw_psl.1.0.0.UPF: wavefunction(s)  2S 2P renormalized
     file N.pbe-n-kjpaw_psl.1.0.0.UPF: wavefunction(s)  2S renormalized
     file H.pbe-kjpaw_psl.1.0.0.UPF: wavefunction(s)  1S renormalized
     file O.pbe-n-kjpaw_psl.1.0.0.UPF: wavefunction(s)  2S 2P renormalized
     Found identity + ( -0.5000  0.5000  0.5000) symmetry
     This is a supercell, fractional translations are disabled
 
     R & G space division:  proc/nbgrp/npool/nimage =      64
     Subspace diagonalization in iterative solution of the eigenvalue problem:
     one sub-group per band group will be used
     ELPA distributed-memory algorithm (size of sub-group:  8*  8 procs)

 
     Parallelization info
     --------------------
     sticks:   dense  smooth     PW     G-vecs:    dense   smooth      PW
     Min         348     125     34                74014    15985    2284
     Max         349     126     35                74026    15996    2294
     Sum       22331    8051   2207              4737327  1023457  146403
 
     Using Slab Decomposition
 


     bravais-lattice index     =            0
     lattice parameter (alat)  =      57.6366  a.u.
     unit-cell volume          =   35066.7377 (a.u.)^3
     number of atoms/cell      =          372
     number of atomic types    =            5
     number of electrons       =      1616.00
     number of Kohn-Sham states=          970
     kinetic-energy cutoff     =      36.0000  Ry
     charge density cutoff     =     400.0000  Ry
     scf convergence threshold =      1.0E-06
     mixing beta               =       0.2000
     number of iterations used =            8  plain     mixing
     energy convergence thresh.=      1.0E-04
     force convergence thresh. =      1.0E-03
     Exchange-correlation= SLA  PW   PBX  PBC
                           (   1   4   3   4   0   0   0)
     nstep                     =         9999


     celldm(1)=  57.636647  celldm(2)=   0.000000  celldm(3)=   0.000000
     celldm(4)=   0.000000  celldm(5)=   0.000000  celldm(6)=   0.000000

     crystal axes: (cart. coord. in units of alat)
               a(1) = (   1.000000   0.000000   0.000000 )  
               a(2) = (   0.000000   0.211148   0.000000 )  
               a(3) = (  -0.310570   0.000000   0.867388 )  

     reciprocal axes: (cart. coord. in units 2 pi/alat)
               b(1) = (  1.000000  0.000000  0.358052 )  
               b(2) = (  0.000000  4.736025  0.000000 )  
               b(3) = (  0.000000  0.000000  1.152887 )  


     PseudoPot. # 1 for Cl read from file:
     ./pseudo/Cl.pbe-n-kjpaw_psl.1.0.0.UPF
     MD5 check sum: 8585a34133a3cfc72b769cd6a0e76983
     Pseudo is Projector augmented-wave + core cor, Zval =  7.0
     Generated using 'atomic' code by A. Dal Corso  v.7.2
     Shape of augmentation charge: PSQ
     Using radial grid of 1157 points,  6 beta functions with: 
                l(1) =   0
                l(2) =   0
                l(3) =   1
                l(4) =   1
                l(5) =   2
                l(6) =   2
     Q(r) pseudized with 0 coefficients 


     PseudoPot. # 2 for C  read from file:
     ./pseudo/C.pbe-n-kjpaw_psl.1.0.0.UPF
     MD5 check sum: 6b0792899573946bb42fe395835041da
     Pseudo is Projector augmented-wave + core cor, Zval =  4.0
     Generated using 'atomic' code by A. Dal Corso  v.7.2
     Shape of augmentation charge: PSQ
     Using radial grid of 1073 points,  4 beta functions with: 
                l(1) =   0
                l(2) =   0
                l(3) =   1
                l(4) =   1
     Q(r) pseudized with 0 coefficients 


     PseudoPot. # 3 for N  read from file:
     ./pseudo/N.pbe-n-kjpaw_psl.1.0.0.UPF
     MD5 check sum: 6654930a71f78718b13e91073ae2a058
     Pseudo is Projector augmented-wave + core cor, Zval =  5.0
     Generated using 'atomic' code by A. Dal Corso  v.7.2
     Shape of augmentation charge: PSQ
     Using radial grid of 1085 points,  4 beta functions with: 
                l(1) =   0
                l(2) =   0
                l(3) =   1
                l(4) =   1
     Q(r) pseudized with 0 coefficients 


     PseudoPot. # 4 for H  read from file:
     ./pseudo/H.pbe-kjpaw_psl.1.0.0.UPF
     MD5 check sum: b3cb3c48ee3b58cc53e4d592112d0ca6
     Pseudo is Projector augmented-wave, Zval =  1.0
     Generated using 'atomic' code by A. Dal Corso  v.7.2
     Shape of augmentation charge: PSQ
     Using radial grid of  929 points,  2 beta functions with: 
                l(1) =   0
                l(2) =   0
     Q(r) pseudized with 0 coefficients 


     PseudoPot. # 5 for O  read from file:
     ./pseudo/O.pbe-n-kjpaw_psl.1.0.0.UPF
     MD5 check sum: 54880130194cacfd11baed2e72b13d2a
     Pseudo is Projector augmented-wave + core cor, Zval =  6.0
     Generated using 'atomic' code by A. Dal Corso  v.7.2
     Shape of augmentation charge: PSQ
     Using radial grid of 1095 points,  4 beta functions with: 
                l(1) =   0
                l(2) =   0
                l(3) =   1
                l(4) =   1
     Q(r) pseudized with 0 coefficients 


     atomic species   valence    mass     pseudopotential
        Cl             7.00    35.45000     Cl( 1.00)
        C              4.00    12.01100     C ( 1.00)
        N              5.00    14.00700     N ( 1.00)
        H              1.00     1.00800     H ( 1.00)
        O              6.00    15.99900     O ( 1.00)

     No symmetry found



   Cartesian axes

     site n.     atom                  positions (alat units)
         1           Cl  tau(   1) = (   0.4500774   0.0701221   0.3145147  )
         2           Cl  tau(   2) = (   0.7393529   0.0701221   0.5528729  )
         3           Cl  tau(   3) = (  -0.2052074   0.1756959   0.7482086  )
         4           Cl  tau(   4) = (   0.3946377   0.1756959   0.1191791  )
         5           Cl  tau(   5) = (   0.2393529   0.1410254   0.5528729  )
         6           Cl  tau(   6) = (  -0.0499226   0.1410254   0.3145147  )
         7           Cl  tau(   7) = (   0.8946377   0.0354517   0.1191791  )
         8           Cl  tau(   8) = (   0.2947926   0.0354517   0.7482086  )
         9           Cl  tau(   9) = (   0.7272142   0.1542644   0.2113824  )
        10           Cl  tau(  10) = (   0.4622161   0.1542644   0.6560053  )
        11           Cl  tau(  11) = (   0.0719293   0.0486906   0.6450762  )
        12           Cl  tau(  12) = (   0.1175010   0.0486906   0.2223114  )
        13           Cl  tau(  13) = (  -0.0377839   0.0568831   0.6560053  )
        14           Cl  tau(  14) = (   0.2272142   0.0568831   0.2113824  )
        15           Cl  tau(  15) = (   0.6175010   0.1624569   0.2223114  )
        16           Cl  tau(  16) = (   0.5719293   0.1624569   0.6450762  )
        17           Cl  tau(  17) = (   0.8679033   0.0753374   0.2812071  )
        18           Cl  tau(  18) = (   0.3215270   0.0753374   0.5861806  )
        19           Cl  tau(  19) = (   0.2126184   0.1809112   0.7149009  )
        20           Cl  tau(  20) = (  -0.0231882   0.1809112   0.1524867  )
        21           Cl  tau(  21) = (  -0.1784730   0.1358101   0.5861806  )
        22           Cl  tau(  22) = (   0.3679033   0.1358101   0.2812071  )
        23           Cl  tau(  23) = (   0.4768118   0.0302363   0.1524867  )
        24           Cl  tau(  24) = (   0.7126184   0.0302363   0.7149009  )
        25           Cl  tau(  25) = (   0.4373027   0.1115281   0.4297906  )
        26           Cl  tau(  26) = (   0.7521276   0.1115281   0.4375971  )
        27           Cl  tau(  27) = (  -0.2179822   0.0059544   0.8634844  )
        28           Cl  tau(  28) = (   0.4074124   0.0059544   0.0039032  )
        29           Cl  tau(  29) = (   0.2521276   0.0996194   0.4375971  )
        30           Cl  tau(  30) = (  -0.0626973   0.0996194   0.4297906  )
        31           Cl  tau(  31) = (   0.9074124   0.2051932   0.0039032  )
        32           Cl  tau(  32) = (   0.2820178   0.2051932   0.8634844  )
        33           Cl  tau(  33) = (   0.3524079   0.1592897   0.3989983  )
        34           Cl  tau(  34) = (  -0.1629777   0.1592897   0.4683893  )
        35           Cl  tau(  35) = (   0.6971231   0.0537159   0.8326921  )
        36           Cl  tau(  36) = (   0.4923072   0.0537159   0.0346955  )
        37           Cl  tau(  37) = (   0.3370223   0.0518578   0.4683893  )
        38           Cl  tau(  38) = (   0.8524079   0.0518578   0.3989983  )
        39           Cl  tau(  39) = (  -0.0076928   0.1574316   0.0346955  )
        40           Cl  tau(  40) = (   0.1971231   0.1574316   0.8326921  )
        41           Cl  tau(  41) = (   0.3580828   0.0354517   0.3444396  )
        42           Cl  tau(  42) = (  -0.1686525   0.0354517   0.5229480  )
        43           Cl  tau(  43) = (   0.7027979   0.1410254   0.7781334  )
        44           Cl  tau(  44) = (   0.4866324   0.1410254   0.0892542  )
        45           Cl  tau(  45) = (   0.3313475   0.1756959   0.5229480  )
        46           Cl  tau(  46) = (   0.8580828   0.1756959   0.3444396  )
        47           Cl  tau(  47) = (  -0.0133676   0.0701221   0.0892542  )
        48           Cl  tau(  48) = (   0.2027979   0.0701221   0.7781334  )
        49           Cl  tau(  49) = (   0.8960102   0.2051298   0.2264749  )
        50           Cl  tau(  50) = (   0.2934200   0.2051298   0.6409127  )
        51           Cl  tau(  51) = (   0.2407254   0.0995561   0.6601687  )
        52           Cl  tau(  52) = (  -0.0512951   0.0995561   0.2072189  )
        53           Cl  tau(  53) = (  -0.2065800   0.0060177   0.6409127  )
        54           Cl  tau(  54) = (   0.3960102   0.0060177   0.2264749  )
        55           Cl  tau(  55) = (   0.4487049   0.1115915   0.2072189  )
        56           Cl  tau(  56) = (   0.7407254   0.1115915   0.6601687  )
        57           Cl  tau(  57) = (   0.8256548   0.1418067   0.1875292  )
        58           Cl  tau(  58) = (   0.3637754   0.1418067   0.6798584  )
        59           Cl  tau(  59) = (   0.1703700   0.0362329   0.6212230  )
        60           Cl  tau(  60) = (   0.0190603   0.0362329   0.2461646  )
        61           Cl  tau(  61) = (  -0.1362246   0.0693409   0.6798584  )
        62           Cl  tau(  62) = (   0.3256548   0.0693409   0.1875292  )
        63           Cl  tau(  63) = (   0.5190603   0.1749146   0.2461646  )
        64           Cl  tau(  64) = (   0.6703700   0.1749146   0.6212230  )
        65           C   tau(  65) = (   0.5309397   0.0112119   0.3520726  )
        66           C   tau(  66) = (   0.6584905   0.0112119   0.5153150  )
        67           C   tau(  67) = (  -0.1243451   0.1167857   0.7857664  )
        68           C   tau(  68) = (   0.3137754   0.1167857   0.0816212  )
        69           C   tau(  69) = (   0.1584905   0.1999356   0.5153150  )
        70           C   tau(  70) = (   0.0309397   0.1999356   0.3520726  )
        71           C   tau(  71) = (   0.8137754   0.0943618   0.0816212  )
        72           C   tau(  72) = (   0.3756549   0.0943618   0.7857664  )
        73           C   tau(  73) = (   0.6212025   0.0134501   0.4027281  )
        74           C   tau(  74) = (   0.5682278   0.0134501   0.4646595  )
        75           C   tau(  75) = (  -0.0340824   0.1190239   0.8364219  )
        76           C   tau(  76) = (   0.2235127   0.1190239   0.0309657  )
        77           C   tau(  77) = (   0.0682278   0.1976974   0.4646595  )
        78           C   tau(  78) = (   0.1212025   0.1976974   0.4027281  )
        79           C   tau(  79) = (   0.7235127   0.0921237   0.0309657  )
        80           C   tau(  80) = (   0.4659176   0.0921237   0.8364219  )
        81           C   tau(  81) = (   0.4404143   0.1575372   0.3968298  )
        82           C   tau(  82) = (   0.7490159   0.1575372   0.4705578  )
        83           C   tau(  83) = (  -0.2148705   0.0519634   0.8305236  )
        84           C   tau(  84) = (   0.4043008   0.0519634   0.0368640  )
        85           C   tau(  85) = (   0.2490159   0.0536104   0.4705578  )
        86           C   tau(  86) = (  -0.0595857   0.0536104   0.3968298  )
        87           C   tau(  87) = (   0.9043008   0.1591841   0.0368640  )
        88           C   tau(  88) = (   0.2851295   0.1591841   0.8305236  )
        89           C   tau(  89) = (   0.5256771   0.1592475   0.3941409  )
        90           C   tau(  90) = (   0.6637532   0.1592475   0.4732467  )
        91           C   tau(  91) = (  -0.1296078   0.0536737   0.8278347  )
        92           C   tau(  92) = (   0.3190380   0.0536737   0.0395529  )
        93           C   tau(  93) = (   0.1637532   0.0519001   0.4732467  )
        94           C   tau(  94) = (   0.0256771   0.0519001   0.3941409  )
        95           C   tau(  95) = (   0.8190380   0.1574738   0.0395529  )
        96           C   tau(  96) = (   0.3703922   0.1574738   0.8278347  )
        97           C   tau(  97) = (   0.4051105   0.0071368   0.3585780  )
        98           C   tau(  98) = (   0.7843198   0.0071368   0.5088096  )
        99           C   tau(  99) = (  -0.2501744   0.1127106   0.7922718  )
       100           C   tau( 100) = (   0.4396047   0.1127106   0.0751158  )
       101           C   tau( 101) = (   0.2843198   0.2040108   0.5088096  )
       102           C   tau( 102) = (  -0.0948895   0.2040108   0.3585780  )
       103           C   tau( 103) = (   0.9396047   0.0984370   0.0751158  )
       104           C   tau( 104) = (   0.2498256   0.0984370   0.7922718  )
       105           C   tau( 105) = (   0.8293458   0.0398435   0.2621245  )
       106           C   tau( 106) = (   0.3600844   0.0398435   0.6052631  )
       107           C   tau( 107) = (   0.1740610   0.1454173   0.6958183  )
       108           C   tau( 108) = (   0.0153693   0.1454173   0.1715693  )
       109           C   tau( 109) = (  -0.1399156   0.1713040   0.6052631  )
       110           C   tau( 110) = (   0.3293458   0.1713040   0.2621245  )
       111           C   tau( 111) = (   0.5153693   0.0657302   0.1715693  )
       112           C   tau( 112) = (   0.6740610   0.0657302   0.6958183  )
       113           C   tau( 113) = (   0.4807729   0.1739856   0.3838190  )
       114           C   tau( 114) = (   0.7086574   0.1739856   0.4835686  )
       115           C   tau( 115) = (  -0.1745120   0.0684118   0.8175128  )
       116           C   tau( 116) = (   0.3639422   0.0684118   0.0498748  )
       117           C   tau( 117) = (   0.2086574   0.0371620   0.4835686  )
       118           C   tau( 118) = (  -0.0192271   0.0371620   0.3838190  )
       119           C   tau( 119) = (   0.8639422   0.1427357   0.0498748  )
       120           C   tau( 120) = (   0.3254880   0.1427357   0.8175128  )
       121           N   tau( 121) = (   0.6991207   0.1375415   0.3322962  )
       122           N   tau( 122) = (   0.4903095   0.1375415   0.5350914  )
       123           N   tau( 123) = (   0.0438359   0.0319677   0.7659900  )
       124           N   tau( 124) = (   0.1455944   0.0319677   0.1013976  )
       125           N   tau( 125) = (  -0.0096905   0.0736060   0.5350914  )
       126           N   tau( 126) = (   0.1991207   0.0736060   0.3322962  )
       127           N   tau( 127) = (   0.6455944   0.1791798   0.1013976  )
       128           N   tau( 128) = (   0.5438359   0.1791798   0.7659900  )
       129           H   tau( 129) = (   0.7331255   0.1425913   0.3325287  )
       130           H   tau( 130) = (   0.4563048   0.1425913   0.5348590  )
       131           H   tau( 131) = (   0.0778406   0.0370175   0.7662225  )
       132           H   tau( 132) = (   0.1115896   0.0370175   0.1011652  )
       133           H   tau( 133) = (  -0.0436952   0.0685562   0.5348590  )
       134           H   tau( 134) = (   0.2331255   0.0685562   0.3325287  )
       135           H   tau( 135) = (   0.6115896   0.1741300   0.1011652  )
       136           H   tau( 136) = (   0.5778406   0.1741300   0.7662225  )
       137           C   tau( 137) = (   0.4827999   0.0005490   0.3594454  )
       138           C   tau( 138) = (   0.7066304   0.0005490   0.5079422  )
       139           C   tau( 139) = (  -0.1724850   0.1061228   0.7931392  )
       140           C   tau( 140) = (   0.3619152   0.1061228   0.0742484  )
       141           C   tau( 141) = (   0.2066304   0.2105986   0.5079422  )
       142           C   tau( 142) = (  -0.0172001   0.2105986   0.3594454  )
       143           C   tau( 143) = (   0.8619152   0.1050248   0.0742484  )
       144           C   tau( 144) = (   0.3275150   0.1050248   0.7931392  )
       145           O   tau( 145) = (   0.5465487   0.0407937   0.3308216  )
       146           O   tau( 146) = (   0.6428816   0.0407937   0.5365660  )
       147           O   tau( 147) = (  -0.1087362   0.1463675   0.7645154  )
       148           O   tau( 148) = (   0.2981664   0.1463675   0.1028722  )
       149           O   tau( 149) = (   0.1428816   0.1703538   0.5365660  )
       150           O   tau( 150) = (   0.0465487   0.1703538   0.3308216  )
       151           O   tau( 151) = (   0.7981664   0.0647801   0.1028722  )
       152           O   tau( 152) = (   0.3912638   0.0647801   0.7645154  )
       153           N   tau( 153) = (   0.5536308   0.1890404   0.3733236  )
       154           N   tau( 154) = (   0.6357995   0.1890404   0.4940640  )
       155           N   tau( 155) = (  -0.1016541   0.0834666   0.8070174  )
       156           N   tau( 156) = (   0.2910843   0.0834666   0.0603702  )
       157           N   tau( 157) = (   0.1357995   0.0221071   0.4940640  )
       158           N   tau( 158) = (   0.0536308   0.0221071   0.3733236  )
       159           N   tau( 159) = (   0.7910843   0.1276809   0.0603702  )
       160           N   tau( 160) = (   0.3983459   0.1276809   0.8070174  )
       161           C   tau( 161) = (   0.5947151   0.0405614   0.4336938  )
       162           C   tau( 162) = (   0.2500000   0.1461352   0.0000000  )
       163           C   tau( 163) = (   0.0947151   0.1705861   0.4336938  )
       164           C   tau( 164) = (   0.7500000   0.0650123   0.0000000  )
       165           H   tau( 165) = (   0.5735747   0.0608557   0.4156669  )
       166           H   tau( 166) = (   0.6158556   0.0608557   0.4517207  )
       167           H   tau( 167) = (  -0.0817102   0.1664294   0.8493607  )
       168           H   tau( 168) = (   0.2711404   0.1664294   0.0180269  )
       169           H   tau( 169) = (   0.1158556   0.1502919   0.4517207  )
       170           H   tau( 170) = (   0.0735747   0.1502919   0.4156669  )
       171           H   tau( 171) = (   0.7711404   0.0447181   0.0180269  )
       172           H   tau( 172) = (   0.4182898   0.0447181   0.8493607  )
       173           C   tau( 173) = (   0.7531205   0.0177997   0.2535374  )
       174           C   tau( 174) = (   0.4363098   0.0177997   0.6138502  )
       175           C   tau( 175) = (   0.0978356   0.1233735   0.6872312  )
       176           C   tau( 176) = (   0.0915947   0.1233735   0.1801564  )
       177           C   tau( 177) = (  -0.0636902   0.1933478   0.6138502  )
       178           C   tau( 178) = (   0.2531205   0.1933478   0.2535374  )
       179           C   tau( 179) = (   0.5915947   0.0877740   0.1801564  )
       180           C   tau( 180) = (   0.5978356   0.0877740   0.6872312  )
       181           O   tau( 181) = (   0.5387613   0.1278498   0.4151317  )
       182           O   tau( 182) = (   0.6506689   0.1278498   0.4522559  )
       183           O   tau( 183) = (  -0.1165235   0.0222761   0.8488255  )
       184           O   tau( 184) = (   0.3059538   0.0222761   0.0185621  )
       185           O   tau( 185) = (   0.1506689   0.0832977   0.4522559  )
       186           O   tau( 186) = (   0.0387613   0.0832977   0.4151317  )
       187           O   tau( 187) = (   0.8059538   0.1888715   0.0185621  )
       188           O   tau( 188) = (   0.3834765   0.1888715   0.8488255  )
       189           C   tau( 189) = (   0.7077582   0.0329179   0.2676758  )
       190           C   tau( 190) = (   0.4816721   0.0329179   0.5997118  )
       191           C   tau( 191) = (   0.0524733   0.1384917   0.7013696  )
       192           C   tau( 192) = (   0.1369570   0.1384917   0.1660180  )
       193           C   tau( 193) = (  -0.0183279   0.1782296   0.5997118  )
       194           C   tau( 194) = (   0.2077582   0.1782296   0.2676758  )
       195           C   tau( 195) = (   0.6369570   0.0726559   0.1660180  )
       196           C   tau( 196) = (   0.5524733   0.0726559   0.7013696  )
       197           C   tau( 197) = (   0.6098077   0.1233735   0.3292603  )
       198           C   tau( 198) = (   0.5796225   0.1233735   0.5381273  )
       199           C   tau( 199) = (  -0.0454771   0.0177997   0.7629541  )
       200           C   tau( 200) = (   0.2349074   0.0177997   0.1044335  )
       201           C   tau( 201) = (   0.0796225   0.0877740   0.5381273  )
       202           C   tau( 202) = (   0.1098077   0.0877740   0.3292603  )
       203           C   tau( 203) = (   0.7349074   0.1933478   0.1044335  )
       204           C   tau( 204) = (   0.4545229   0.1933478   0.7629541  )
       205           H   tau( 205) = (   0.5758296   0.1186634   0.3269453  )
       206           H   tau( 206) = (   0.6136006   0.1186634   0.5404423  )
       207           H   tau( 207) = (  -0.0794552   0.0130897   0.7606391  )
       208           H   tau( 208) = (   0.2688855   0.0130897   0.1067485  )
       209           H   tau( 209) = (   0.1136006   0.0924841   0.5404423  )
       210           H   tau( 210) = (   0.0758296   0.0924841   0.3269453  )
       211           H   tau( 211) = (   0.7688855   0.1980579   0.1067485  )
       212           H   tau( 212) = (   0.4205448   0.1980579   0.7606391  )
       213           C   tau( 213) = (   0.6677038   0.0198901   0.3976972  )
       214           C   tau( 214) = (   0.5217265   0.0198901   0.4696904  )
       215           C   tau( 215) = (   0.0124189   0.1254639   0.8313910  )
       216           C   tau( 216) = (   0.1770114   0.1254639   0.0359966  )
       217           C   tau( 217) = (   0.0217265   0.1912574   0.4696904  )
       218           C   tau( 218) = (   0.1677038   0.1912574   0.3976972  )
       219           C   tau( 219) = (   0.6770114   0.0856837   0.0359966  )
       220           C   tau( 220) = (   0.5124189   0.0856837   0.8313910  )
       221           H   tau( 221) = (   0.6825437   0.0468055   0.4131758  )
       222           H   tau( 222) = (   0.5068866   0.0468055   0.4542119  )
       223           H   tau( 223) = (   0.0272588   0.1523793   0.8468696  )
       224           H   tau( 224) = (   0.1621715   0.1523793   0.0205181  )
       225           H   tau( 225) = (   0.0068866   0.1643420   0.4542119  )
       226           H   tau( 226) = (   0.1825437   0.1643420   0.4131758  )
       227           H   tau( 227) = (   0.6621715   0.0587683   0.0205181  )
       228           H   tau( 228) = (   0.5272588   0.0587683   0.8468696  )
       229           O   tau( 229) = (   0.7817365   0.1146953   0.3113054  )
       230           O   tau( 230) = (   0.4076937   0.1146953   0.5560822  )
       231           O   tau( 231) = (   0.1264517   0.0091216   0.7449992  )
       232           O   tau( 232) = (   0.0629786   0.0091216   0.1223884  )
       233           O   tau( 233) = (  -0.0923063   0.0964522   0.5560822  )
       234           O   tau( 234) = (   0.2817365   0.0964522   0.3113054  )
       235           O   tau( 235) = (   0.5629786   0.2020260   0.1223884  )
       236           O   tau( 236) = (   0.6264517   0.2020260   0.7449992  )
       237           C   tau( 237) = (   0.4012313   0.1801300   0.3847731  )
       238           C   tau( 238) = (   0.7881990   0.1801300   0.4826145  )
       239           C   tau( 239) = (  -0.2540536   0.0745562   0.8184670  )
       240           C   tau( 240) = (   0.4434839   0.0745562   0.0489207  )
       241           C   tau( 241) = (   0.2881990   0.0310176   0.4826145  )
       242           C   tau( 242) = (  -0.0987687   0.0310176   0.3847731  )
       243           C   tau( 243) = (   0.9434839   0.1365913   0.0489207  )
       244           C   tau( 244) = (   0.2459464   0.1365913   0.8184670  )
       245           C   tau( 245) = (   0.6372160   0.0940240   0.3105248  )
       246           C   tau( 246) = (   0.5522142   0.0940240   0.5568628  )
       247           C   tau( 247) = (  -0.0180688   0.1995978   0.7442186  )
       248           C   tau( 248) = (   0.2074991   0.1995978   0.1231690  )
       249           C   tau( 249) = (   0.0522142   0.1171235   0.5568628  )
       250           C   tau( 250) = (   0.1372160   0.1171235   0.3105248  )
       251           C   tau( 251) = (   0.7074991   0.0115498   0.1231690  )
       252           C   tau( 252) = (   0.4819312   0.0115498   0.7442186  )
       253           H   tau( 253) = (   0.6246968   0.0657913   0.2953125  )
       254           H   tau( 254) = (   0.5647335   0.0657913   0.5720751  )
       255           H   tau( 255) = (  -0.0305881   0.1713650   0.7290063  )
       256           H   tau( 256) = (   0.2200183   0.1713650   0.1383813  )
       257           H   tau( 257) = (   0.0647335   0.1453563   0.5720751  )
       258           H   tau( 258) = (   0.1246968   0.1453563   0.2953125  )
       259           H   tau( 259) = (   0.7200183   0.0397825   0.1383813  )
       260           H   tau( 260) = (   0.4694119   0.0397825   0.7290063  )
       261           C   tau( 261) = (   0.6736602   0.1672289   0.3528533  )
       262           C   tau( 262) = (   0.5157700   0.1672289   0.5145343  )
       263           C   tau( 263) = (   0.0183754   0.0616551   0.7865471  )
       264           C   tau( 264) = (   0.1710549   0.0616551   0.0808405  )
       265           C   tau( 265) = (   0.0157700   0.0439187   0.5145343  )
       266           C   tau( 266) = (   0.1736602   0.0439187   0.3528533  )
       267           C   tau( 267) = (   0.6710549   0.1494925   0.0808405  )
       268           C   tau( 268) = (   0.5183754   0.1494925   0.7865471  )
       269           C   tau( 269) = (   0.4463001   0.0235430   0.3454805  )
       270           C   tau( 270) = (   0.7431302   0.0235430   0.5219071  )
       271           C   tau( 271) = (  -0.2089848   0.1291167   0.7791743  )
       272           C   tau( 272) = (   0.3984151   0.1291167   0.0882133  )
       273           C   tau( 273) = (   0.2431302   0.1876046   0.5219071  )
       274           C   tau( 274) = (  -0.0536999   0.1876046   0.3454805  )
       275           C   tau( 275) = (   0.8984151   0.0820308   0.0882133  )
       276           C   tau( 276) = (   0.2910152   0.0820308   0.7791743  )
       277           C   tau( 277) = (   0.7645164   0.1922498   0.2292505  )
       278           C   tau( 278) = (   0.4249138   0.1922498   0.6381371  )
       279           C   tau( 279) = (   0.1092316   0.0866761   0.6629444  )
       280           C   tau( 280) = (   0.0801987   0.0866761   0.2044433  )
       281           C   tau( 281) = (  -0.0750862   0.0188977   0.6381371  )
       282           C   tau( 282) = (   0.2645164   0.0188977   0.2292505  )
       283           C   tau( 283) = (   0.5801987   0.1244715   0.2044433  )
       284           C   tau( 284) = (   0.6092316   0.1244715   0.6629444  )
       285           C   tau( 285) = (   0.6922202   0.2041163   0.3741910  )
       286           C   tau( 286) = (   0.4972101   0.2041163   0.4931966  )
       287           C   tau( 287) = (   0.0369354   0.0985426   0.8078848  )
       288           C   tau( 288) = (   0.1524949   0.0985426   0.0595028  )
       289           C   tau( 289) = (  -0.0027899   0.0070312   0.4931966  )
       290           C   tau( 290) = (   0.1922202   0.0070312   0.3741910  )
       291           C   tau( 291) = (   0.6524949   0.1126050   0.0595028  )
       292           C   tau( 292) = (   0.5369354   0.1126050   0.8078848  )
       293           H   tau( 293) = (   0.7259044   0.2101714   0.3713529  )
       294           H   tau( 294) = (   0.4635259   0.2101714   0.4960347  )
       295           H   tau( 295) = (   0.0706195   0.1045976   0.8050467  )
       296           H   tau( 296) = (   0.1188107   0.1045976   0.0623409  )
       297           H   tau( 297) = (  -0.0364741   0.0009761   0.4960347  )
       298           H   tau( 298) = (   0.2259044   0.0009761   0.3713529  )
       299           H   tau( 299) = (   0.6188107   0.1065499   0.0623409  )
       300           H   tau( 300) = (   0.5706195   0.1065499   0.8050467  )
       301           C   tau( 301) = (   0.7854923   0.0467692   0.2689769  )
       302           C   tau( 302) = (   0.4039379   0.0467692   0.5984107  )
       303           C   tau( 303) = (   0.1302075   0.1523430   0.7026707  )
       304           C   tau( 304) = (   0.0592228   0.1523430   0.1647169  )
       305           C   tau( 305) = (  -0.0960621   0.1643784   0.5984107  )
       306           C   tau( 306) = (   0.2854923   0.1643784   0.2689769  )
       307           C   tau( 307) = (   0.5592228   0.0588046   0.1647169  )
       308           C   tau( 308) = (   0.6302075   0.0588046   0.7026707  )
       309           C   tau( 309) = (   0.8097395   0.1851975   0.2199695  )
       310           C   tau( 310) = (   0.3796908   0.1851975   0.6474181  )
       311           C   tau( 311) = (   0.1544547   0.0796237   0.6536633  )
       312           C   tau( 312) = (   0.0349756   0.0796237   0.2137243  )
       313           C   tau( 313) = (  -0.1203092   0.0259500   0.6474181  )
       314           C   tau( 314) = (   0.3097395   0.0259500   0.2199695  )
       315           C   tau( 315) = (   0.5349756   0.1315238   0.2137243  )
       316           C   tau( 316) = (   0.6544547   0.1315238   0.6536633  )
       317           O   tau( 317) = (   0.6732949   0.0151393   0.2589152  )
       318           O   tau( 318) = (   0.5161353   0.0151393   0.6084724  )
       319           O   tau( 319) = (   0.0180101   0.1207130   0.6926090  )
       320           O   tau( 320) = (   0.1714202   0.1207130   0.1747786  )
       321           O   tau( 321) = (   0.0161353   0.1960083   0.6084724  )
       322           O   tau( 322) = (   0.1732949   0.1960083   0.2589152  )
       323           O   tau( 323) = (   0.6714202   0.0904345   0.1747786  )
       324           O   tau( 324) = (   0.5180101   0.0904345   0.6926090  )
       325           C   tau( 325) = (   0.6011953   0.1912997   0.3770534  )
       326           C   tau( 326) = (   0.5882349   0.1912997   0.4903342  )
       327           C   tau( 327) = (  -0.0540895   0.0857259   0.8107472  )
       328           C   tau( 328) = (   0.2435198   0.0857259   0.0566404  )
       329           C   tau( 329) = (   0.0882349   0.0198479   0.4903342  )
       330           C   tau( 330) = (   0.1011953   0.0198479   0.3770534  )
       331           C   tau( 331) = (   0.7435198   0.1254216   0.0566404  )
       332           C   tau( 332) = (   0.4459105   0.1254216   0.8107472  )
       333           C   tau( 333) = (   0.7621827   0.0836355   0.2927433  )
       334           C   tau( 334) = (   0.4272476   0.0836355   0.5746443  )
       335           C   tau( 335) = (   0.1068979   0.1892093   0.7264371  )
       336           C   tau( 336) = (   0.0825324   0.1892093   0.1409505  )
       337           C   tau( 337) = (  -0.0727524   0.1275120   0.5746443  )
       338           C   tau( 338) = (   0.2621827   0.1275120   0.2927433  )
       339           C   tau( 339) = (   0.5825324   0.0219382   0.1409505  )
       340           C   tau( 340) = (   0.6068979   0.0219382   0.7264371  )
       341           C   tau( 341) = (   0.6836744   0.1017309   0.3114789  )
       342           C   tau( 342) = (   0.5057559   0.1017309   0.5559087  )
       343           C   tau( 343) = (   0.0283895   0.2073047   0.7451727  )
       344           C   tau( 344) = (   0.1610407   0.2073047   0.1222149  )
       345           C   tau( 345) = (   0.0057559   0.1094167   0.5559087  )
       346           C   tau( 346) = (   0.1836744   0.1094167   0.3114789  )
       347           C   tau( 347) = (   0.6610407   0.0038429   0.1222149  )
       348           C   tau( 348) = (   0.5283895   0.0038429   0.7451727  )
       349           C   tau( 349) = (   0.7157970   0.0740917   0.2907483  )
       350           C   tau( 350) = (   0.4736332   0.0740917   0.5766393  )
       351           C   tau( 351) = (   0.0605122   0.1796654   0.7244421  )
       352           C   tau( 352) = (   0.1289181   0.1796654   0.1429455  )
       353           C   tau( 353) = (  -0.0263668   0.1370559   0.5766393  )
       354           C   tau( 354) = (   0.2157970   0.1370559   0.2907483  )
       355           C   tau( 355) = (   0.6289181   0.0314821   0.1429455  )
       356           C   tau( 356) = (   0.5605122   0.0314821   0.7244421  )
       357           C   tau( 357) = (   0.6268534   0.1614434   0.3525931  )
       358           C   tau( 358) = (   0.5625769   0.1614434   0.5147946  )
       359           C   tau( 359) = (  -0.0284315   0.0558696   0.7862869  )
       360           C   tau( 360) = (   0.2178617   0.0558696   0.0811007  )
       361           C   tau( 361) = (   0.0625769   0.0497041   0.5147946  )
       362           C   tau( 362) = (   0.1268534   0.0497041   0.3525931  )
       363           C   tau( 363) = (   0.7178617   0.1552779   0.0811007  )
       364           C   tau( 364) = (   0.4715685   0.1552779   0.7862869  )
       365           C   tau( 365) = (   0.8412493   0.0025971   0.2355825  )
       366           C   tau( 366) = (   0.3481810   0.0025971   0.6318051  )
       367           C   tau( 367) = (   0.1859644   0.1081709   0.6692763  )
       368           C   tau( 368) = (   0.0034659   0.1081709   0.1981113  )
       369           C   tau( 369) = (  -0.1518190   0.2085504   0.6318051  )
       370           C   tau( 370) = (   0.3412493   0.2085504   0.2355825  )
       371           C   tau( 371) = (   0.5034659   0.1029767   0.1981113  )
       372           C   tau( 372) = (   0.6859644   0.1029767   0.6692763  )

     --------------------------------------------
     DFT-D3 Dispersion Correction (3-body terms):
     --------------------------------------------
       Reference C6 values for interpolation: 

         atom   Coordination number   C6
         H          0.912             6.05
         H          0.000            15.18
         C          0.000            98.23
         C          0.987            86.49
         C          1.998            58.72
         C          2.999            51.56
         C          3.984            36.41
         N          0.000            50.54
         N          0.994            44.25
         N          2.014            39.35
         N          2.990            31.16
         O          0.000            31.01
         O          0.993            25.63
         O          1.989            20.74
         Cl         0.000           184.69
         Cl         0.997           180.80

       Values used:

         atom   Coordination number  R0_AB[au]  C6      C8
         Cl         1.359            2.933    180.80   7543.66
         Cl         1.359            2.933    180.80   7543.66
         Cl         1.359            2.933    180.80   7543.66
         Cl         1.359            2.933    180.80   7543.66
         Cl         1.359            2.933    180.80   7543.66
         Cl         1.359            2.933    180.80   7543.66
         Cl         1.359            2.933    180.80   7543.66
         Cl         1.359            2.933    180.80   7543.66
         Cl         1.374            2.933    180.80   7543.64
         Cl         1.374            2.933    180.80   7543.64
         Cl         1.374            2.933    180.80   7543.64
         Cl         1.374            2.933    180.80   7543.64
         Cl         1.374            2.933    180.80   7543.64
         Cl         1.374            2.933    180.80   7543.64
         Cl         1.374            2.933    180.80   7543.64
         Cl         1.374            2.933    180.80   7543.64
         Cl         1.398            2.933    180.80   7543.62
         Cl         1.398            2.933    180.80   7543.62
         Cl         1.398            2.933    180.80   7543.62
         Cl         1.398            2.933    180.80   7543.62
         Cl         1.398            2.933    180.80   7543.62
         Cl         1.398            2.933    180.80   7543.62
         Cl         1.398            2.933    180.80   7543.62
         Cl         1.398            2.933    180.80   7543.62
         Cl         1.314            2.933    180.80   7543.74
         Cl         1.314            2.933    180.80   7543.74
         Cl         1.314            2.933    180.80   7543.74
         Cl         1.314            2.933    180.80   7543.74
         Cl         1.314            2.933    180.80   7543.74
         Cl         1.314            2.933    180.80   7543.74
         Cl         1.314            2.933    180.80   7543.74
         Cl         1.314            2.933    180.80   7543.74
         Cl         1.400            2.933    180.80   7543.62
         Cl         1.400            2.933    180.80   7543.62
         Cl         1.400            2.933    180.80   7543.62
         Cl         1.400            2.933    180.80   7543.62
         Cl         1.400            2.933    180.80   7543.62
         Cl         1.400            2.933    180.80   7543.62
         Cl         1.400            2.933    180.80   7543.62
         Cl         1.400            2.933    180.80   7543.62
         Cl         1.389            2.933    180.80   7543.63
         Cl         1.389            2.933    180.80   7543.63
         Cl         1.389            2.933    180.80   7543.63
         Cl         1.389            2.933    180.80   7543.63
         Cl         1.389            2.933    180.80   7543.63
         Cl         1.389            2.933    180.80   7543.63
         Cl         1.389            2.933    180.80   7543.63
         Cl         1.389            2.933    180.80   7543.63
         Cl         1.451            2.933    180.80   7543.58
         Cl         1.451            2.933    180.80   7543.58
         Cl         1.451            2.933    180.80   7543.58
         Cl         1.451            2.933    180.80   7543.58
         Cl         1.451            2.933    180.80   7543.58
         Cl         1.451            2.933    180.80   7543.58
         Cl         1.451            2.933    180.80   7543.58
         Cl         1.451            2.933    180.80   7543.58
         Cl         1.389            2.933    180.80   7543.63
         Cl         1.389            2.933    180.80   7543.63
         Cl         1.389            2.933    180.80   7543.63
         Cl         1.389            2.933    180.80   7543.63
         Cl         1.389            2.933    180.80   7543.63
         Cl         1.389            2.933    180.80   7543.63
         Cl         1.389            2.933    180.80   7543.63
         Cl         1.389            2.933    180.80   7543.63
         C          3.283            2.750     48.87   1413.48
         C          3.283            2.750     48.87   1413.48
         C          3.283            2.750     48.87   1413.48
         C          3.283            2.750     48.87   1413.48
         C          3.283            2.750     48.87   1413.48
         C          3.283            2.750     48.87   1413.48
         C          3.283            2.750     48.87   1413.48
         C          3.283            2.750     48.87   1413.48
         C          3.222            2.750     49.79   1440.11
         C          3.222            2.750     49.79   1440.11
         C          3.222            2.750     49.79   1440.11
         C          3.222            2.750     49.79   1440.11
         C          3.222            2.750     49.79   1440.11
         C          3.222            2.750     49.79   1440.11
         C          3.222            2.750     49.79   1440.11
         C          3.222            2.750     49.79   1440.11
         C          3.266            2.750     49.17   1422.14
         C          3.266            2.750     49.17   1422.14
         C          3.266            2.750     49.17   1422.14
         C          3.266            2.750     49.17   1422.14
         C          3.266            2.750     49.17   1422.14
         C          3.266            2.750     49.17   1422.14
         C          3.266            2.750     49.17   1422.14
         C          3.266            2.750     49.17   1422.14
         C          3.279            2.750     48.94   1415.53
         C          3.279            2.750     48.94   1415.53
         C          3.279            2.750     48.94   1415.53
         C          3.279            2.750     48.94   1415.53
         C          3.279            2.750     48.94   1415.53
         C          3.279            2.750     48.94   1415.53
         C          3.279            2.750     48.94   1415.53
         C          3.279            2.750     48.94   1415.53
         C          3.324            2.750     48.08   1390.42
         C          3.324            2.750     48.08   1390.42
         C          3.324            2.750     48.08   1390.42
         C          3.324            2.750     48.08   1390.42
         C          3.324            2.750     48.08   1390.42
         C          3.324            2.750     48.08   1390.42
         C          3.324            2.750     48.08   1390.42
         C          3.324            2.750     48.08   1390.42
         C          3.243            2.750     49.52   1432.08
         C          3.243            2.750     49.52   1432.08
         C          3.243            2.750     49.52   1432.08
         C          3.243            2.750     49.52   1432.08
         C          3.243            2.750     49.52   1432.08
         C          3.243            2.750     49.52   1432.08
         C          3.243            2.750     49.52   1432.08
         C          3.243            2.750     49.52   1432.08
         C          3.414            2.750     45.82   1325.15
         C          3.414            2.750     45.82   1325.15
         C          3.414            2.750     45.82   1325.15
         C          3.414            2.750     45.82   1325.15
         C          3.414            2.750     45.82   1325.15
         C          3.414            2.750     45.82   1325.15
         C          3.414            2.750     45.82   1325.15
         C          3.414            2.750     45.82   1325.15
         N          3.217            2.478     31.19    688.12
         N          3.217            2.478     31.19    688.12
         N          3.217            2.478     31.19    688.12
         N          3.217            2.478     31.19    688.12
         N          3.217            2.478     31.19    688.12
         N          3.217            2.478     31.19    688.12
         N          3.217            2.478     31.19    688.12
         N          3.217            2.478     31.19    688.12
         H          1.022            2.062      6.16     74.49
         H          1.022            2.062      6.16     74.49
         H          1.022            2.062      6.16     74.49
         H          1.022            2.062      6.16     74.49
         H          1.022            2.062      6.16     74.49
         H          1.022            2.062      6.16     74.49
         H          1.022            2.062      6.16     74.49
         H          1.022            2.062      6.16     74.49
         C          3.440            2.750     45.06   1303.29
         C          3.440            2.750     45.06   1303.29
         C          3.440            2.750     45.06   1303.29
         C          3.440            2.750     45.06   1303.29
         C          3.440            2.750     45.06   1303.29
         C          3.440            2.750     45.06   1303.29
         C          3.440            2.750     45.06   1303.29
         C          3.440            2.750     45.06   1303.29
         O          1.066            2.345     25.51    514.88
         O          1.066            2.345     25.51    514.88
         O          1.066            2.345     25.51    514.88
         O          1.066            2.345     25.51    514.88
         O          1.066            2.345     25.51    514.88
         O          1.066            2.345     25.51    514.88
         O          1.066            2.345     25.51    514.88
         O          1.066            2.345     25.51    514.88
         N          3.287            2.478     31.18    687.86
         N          3.287            2.478     31.18    687.86
         N          3.287            2.478     31.18    687.86
         N          3.287            2.478     31.18    687.86
         N          3.287            2.478     31.18    687.86
         N          3.287            2.478     31.18    687.86
         N          3.287            2.478     31.18    687.86
         N          3.287            2.478     31.18    687.86
         C          4.139            2.750     36.49   1055.47
         C          4.139            2.750     36.49   1055.47
         C          4.139            2.750     36.49   1055.47
         C          4.139            2.750     36.49   1055.47
         H          1.016            2.062      6.17     74.56
         H          1.016            2.062      6.17     74.56
         H          1.016            2.062      6.17     74.56
         H          1.016            2.062      6.17     74.56
         H          1.016            2.062      6.17     74.56
         H          1.016            2.062      6.17     74.56
         H          1.016            2.062      6.17     74.56
         H          1.016            2.062      6.17     74.56
         C          3.398            2.750     46.25   1337.76
         C          3.398            2.750     46.25   1337.76
         C          3.398            2.750     46.25   1337.76
         C          3.398            2.750     46.25   1337.76
         C          3.398            2.750     46.25   1337.76
         C          3.398            2.750     46.25   1337.76
         C          3.398            2.750     46.25   1337.76
         C          3.398            2.750     46.25   1337.76
         O          1.069            2.345     25.51    514.79
         O          1.069            2.345     25.51    514.79
         O          1.069            2.345     25.51    514.79
         O          1.069            2.345     25.51    514.79
         O          1.069            2.345     25.51    514.79
         O          1.069            2.345     25.51    514.79
         O          1.069            2.345     25.51    514.79
         O          1.069            2.345     25.51    514.79
         C          3.194            2.750     50.13   1449.76
         C          3.194            2.750     50.13   1449.76
         C          3.194            2.750     50.13   1449.76
         C          3.194            2.750     50.13   1449.76
         C          3.194            2.750     50.13   1449.76
         C          3.194            2.750     50.13   1449.76
         C          3.194            2.750     50.13   1449.76
         C          3.194            2.750     50.13   1449.76
         C          3.171            2.750     50.35   1456.14
         C          3.171            2.750     50.35   1456.14
         C          3.171            2.750     50.35   1456.14
         C          3.171            2.750     50.35   1456.14
         C          3.171            2.750     50.35   1456.14
         C          3.171            2.750     50.35   1456.14
         C          3.171            2.750     50.35   1456.14
         C          3.171            2.750     50.35   1456.14
         H          1.013            2.062      6.17     74.59
         H          1.013            2.062      6.17     74.59
         H          1.013            2.062      6.17     74.59
         H          1.013            2.062      6.17     74.59
         H          1.013            2.062      6.17     74.59
         H          1.013            2.062      6.17     74.59
         H          1.013            2.062      6.17     74.59
         H          1.013            2.062      6.17     74.59
         C          3.184            2.750     50.23   1452.62
         C          3.184            2.750     50.23   1452.62
         C          3.184            2.750     50.23   1452.62
         C          3.184            2.750     50.23   1452.62
         C          3.184            2.750     50.23   1452.62
         C          3.184            2.750     50.23   1452.62
         C          3.184            2.750     50.23   1452.62
         C          3.184            2.750     50.23   1452.62
         H          1.014            2.062      6.17     74.57
         H          1.014            2.062      6.17     74.57
         H          1.014            2.062      6.17     74.57
         H          1.014            2.062      6.17     74.57
         H          1.014            2.062      6.17     74.57
         H          1.014            2.062      6.17     74.57
         H          1.014            2.062      6.17     74.57
         H          1.014            2.062      6.17     74.57
         O          1.079            2.345     25.49    514.41
         O          1.079            2.345     25.49    514.41
         O          1.079            2.345     25.49    514.41
         O          1.079            2.345     25.49    514.41
         O          1.079            2.345     25.49    514.41
         O          1.079            2.345     25.49    514.41
         O          1.079            2.345     25.49    514.41
         O          1.079            2.345     25.49    514.41
         C          3.292            2.750     48.72   1408.96
         C          3.292            2.750     48.72   1408.96
         C          3.292            2.750     48.72   1408.96
         C          3.292            2.750     48.72   1408.96
         C          3.292            2.750     48.72   1408.96
         C          3.292            2.750     48.72   1408.96
         C          3.292            2.750     48.72   1408.96
         C          3.292            2.750     48.72   1408.96
         C          3.163            2.750     50.43   1458.38
         C          3.163            2.750     50.43   1458.38
         C          3.163            2.750     50.43   1458.38
         C          3.163            2.750     50.43   1458.38
         C          3.163            2.750     50.43   1458.38
         C          3.163            2.750     50.43   1458.38
         C          3.163            2.750     50.43   1458.38
         C          3.163            2.750     50.43   1458.38
         H          1.012            2.062      6.17     74.59
         H          1.012            2.062      6.17     74.59
         H          1.012            2.062      6.17     74.59
         H          1.012            2.062      6.17     74.59
         H          1.012            2.062      6.17     74.59
         H          1.012            2.062      6.17     74.59
         H          1.012            2.062      6.17     74.59
         H          1.012            2.062      6.17     74.59
         C          3.280            2.750     48.92   1414.89
         C          3.280            2.750     48.92   1414.89
         C          3.280            2.750     48.92   1414.89
         C          3.280            2.750     48.92   1414.89
         C          3.280            2.750     48.92   1414.89
         C          3.280            2.750     48.92   1414.89
         C          3.280            2.750     48.92   1414.89
         C          3.280            2.750     48.92   1414.89
         C          3.232            2.750     49.66   1436.28
         C          3.232            2.750     49.66   1436.28
         C          3.232            2.750     49.66   1436.28
         C          3.232            2.750     49.66   1436.28
         C          3.232            2.750     49.66   1436.28
         C          3.232            2.750     49.66   1436.28
         C          3.232            2.750     49.66   1436.28
         C          3.232            2.750     49.66   1436.28
         C          3.231            2.750     49.68   1436.98
         C          3.231            2.750     49.68   1436.98
         C          3.231            2.750     49.68   1436.98
         C          3.231            2.750     49.68   1436.98
         C          3.231            2.750     49.68   1436.98
         C          3.231            2.750     49.68   1436.98
         C          3.231            2.750     49.68   1436.98
         C          3.231            2.750     49.68   1436.98
         C          3.181            2.750     50.25   1453.37
         C          3.181            2.750     50.25   1453.37
         C          3.181            2.750     50.25   1453.37
         C          3.181            2.750     50.25   1453.37
         C          3.181            2.750     50.25   1453.37
         C          3.181            2.750     50.25   1453.37
         C          3.181            2.750     50.25   1453.37
         C          3.181            2.750     50.25   1453.37
         H          1.014            2.062      6.17     74.58
         H          1.014            2.062      6.17     74.58
         H          1.014            2.062      6.17     74.58
         H          1.014            2.062      6.17     74.58
         H          1.014            2.062      6.17     74.58
         H          1.014            2.062      6.17     74.58
         H          1.014            2.062      6.17     74.58
         H          1.014            2.062      6.17     74.58
         C          3.395            2.750     46.34   1340.32
         C          3.395            2.750     46.34   1340.32
         C          3.395            2.750     46.34   1340.32
         C          3.395            2.750     46.34   1340.32
         C          3.395            2.750     46.34   1340.32
         C          3.395            2.750     46.34   1340.32
         C          3.395            2.750     46.34   1340.32
         C          3.395            2.750     46.34   1340.32
         C          3.313            2.750     48.31   1397.11
         C          3.313            2.750     48.31   1397.11
         C          3.313            2.750     48.31   1397.11
         C          3.313            2.750     48.31   1397.11
         C          3.313            2.750     48.31   1397.11
         C          3.313            2.750     48.31   1397.11
         C          3.313            2.750     48.31   1397.11
         C          3.313            2.750     48.31   1397.11
         O          1.085            2.345     25.48    514.18
         O          1.085            2.345     25.48    514.18
         O          1.085            2.345     25.48    514.18
         O          1.085            2.345     25.48    514.18
         O          1.085            2.345     25.48    514.18
         O          1.085            2.345     25.48    514.18
         O          1.085            2.345     25.48    514.18
         O          1.085            2.345     25.48    514.18
         C          3.271            2.750     49.08   1419.36
         C          3.271            2.750     49.08   1419.36
         C          3.271            2.750     49.08   1419.36
         C          3.271            2.750     49.08   1419.36
         C          3.271            2.750     49.08   1419.36
         C          3.271            2.750     49.08   1419.36
         C          3.271            2.750     49.08   1419.36
         C          3.271            2.750     49.08   1419.36
         C          3.235            2.750     49.62   1435.23
         C          3.235            2.750     49.62   1435.23
         C          3.235            2.750     49.62   1435.23
         C          3.235            2.750     49.62   1435.23
         C          3.235            2.750     49.62   1435.23
         C          3.235            2.750     49.62   1435.23
         C          3.235            2.750     49.62   1435.23
         C          3.235            2.750     49.62   1435.23
         C          3.228            2.750     49.72   1437.89
         C          3.228            2.750     49.72   1437.89
         C          3.228            2.750     49.72   1437.89
         C          3.228            2.750     49.72   1437.89
         C          3.228            2.750     49.72   1437.89
         C          3.228            2.750     49.72   1437.89
         C          3.228            2.750     49.72   1437.89
         C          3.228            2.750     49.72   1437.89
         C          3.294            2.750     48.67   1407.59
         C          3.294            2.750     48.67   1407.59
         C          3.294            2.750     48.67   1407.59
         C          3.294            2.750     48.67   1407.59
         C          3.294            2.750     48.67   1407.59
         C          3.294            2.750     48.67   1407.59
         C          3.294            2.750     48.67   1407.59
         C          3.294            2.750     48.67   1407.59
         C          3.255            2.750     49.34   1427.09
         C          3.255            2.750     49.34   1427.09
         C          3.255            2.750     49.34   1427.09
         C          3.255            2.750     49.34   1427.09
         C          3.255            2.750     49.34   1427.09
         C          3.255            2.750     49.34   1427.09
         C          3.255            2.750     49.34   1427.09
         C          3.255            2.750     49.34   1427.09
         C          3.321            2.750     48.14   1392.25
         C          3.321            2.750     48.14   1392.25
         C          3.321            2.750     48.14   1392.25
         C          3.321            2.750     48.14   1392.25
         C          3.321            2.750     48.14   1392.25
         C          3.321            2.750     48.14   1392.25
         C          3.321            2.750     48.14   1392.25
         C          3.321            2.750     48.14   1392.25

         Molecular C6 ( Ry / a.u.^6 ) =   7310658.90


     number of k points=     8  Gaussian smearing, width (Ry)=  0.0100
                       cart. coord. in units 2pi/alat
        k(    1) = (   0.0000000   0.0000000   0.0000000), wk =   0.2500000
        k(    2) = (   0.0000000   0.0000000  -0.5764436), wk =   0.2500000
        k(    3) = (   0.0000000  -2.3680124   0.0000000), wk =   0.2500000
        k(    4) = (   0.0000000  -2.3680124  -0.5764436), wk =   0.2500000
        k(    5) = (  -0.5000000   0.0000000  -0.1790259), wk =   0.2500000
        k(    6) = (  -0.5000000   0.0000000  -0.7554695), wk =   0.2500000
        k(    7) = (  -0.5000000  -2.3680124  -0.1790259), wk =   0.2500000
        k(    8) = (  -0.5000000  -2.3680124  -0.7554695), wk =   0.2500000

     Dense  grid:  4737327 G-vectors     FFT dimensions: ( 375,  80, 360)

     Smooth grid:  1023457 G-vectors     FFT dimensions: ( 225,  48, 216)

     Estimated max dynamical RAM per process >       1.32 GB

     Estimated total dynamical RAM >      84.68 GB

     Atomic positions and unit cell read from directory:
     /scratch/calc/bqoutdir/pwscf.save/
     Atomic positions from file used, from input discarded
 

     Check: negative core charge=   -0.000004

     The initial density is read from file :
     /scratch/calc/bqoutdir/pwscf.save/charge-density

     Cannot read wfcs: file not found
     Starting wfcs are 1344 randomized atomic wfcs
     Checking if some PAW data can be deallocated... 

     total cpu time spent up to now is       73.6 secs

     Self-consistent Calculation

     iteration #  1     ecut=    36.00 Ry     beta= 0.20
     PPCG style diagonalization
     ethr =  1.00E-05,  avg # of iterations = 16.0

     Threshold (ethr) on eigenvalues was too large:
     Diagonalizing with lowered threshold

     PPCG style diagonalization
     ethr =  3.13E-11,  avg # of iterations = 12.4

     total cpu time spent up to now is     2149.7 secs

     End of self-consistent calculation

          k = 0.0000 0.0000 0.0000 (127953 PWs)   bands (ev):

   -19.8206 -19.8205 -19.8205 -19.8205 -19.8070 -19.8070 -19.8070 -19.8070
   -19.3182 -19.3182 -19.3181 -19.3181 -19.3135 -19.3135 -19.3135 -19.3134
   -18.3326 -18.3325 -18.3325 -18.3325 -18.3290 -18.3289 -18.3289 -18.3289
   -18.0215 -18.0215 -18.0215 -18.0215 -17.9876 -17.9876 -17.9876 -17.9875
   -17.4291 -17.4290 -17.4290 -17.4290 -17.4289 -17.4288 -17.4288 -17.4288
   -17.1157 -17.1157 -17.1152 -17.1152 -17.0873 -17.0873 -17.0872 -17.0872
   -16.5164 -16.5159 -16.5105 -16.5099 -16.4984 -16.4978 -16.4915 -16.4909
   -15.9564 -15.9563 -15.9552 -15.9551 -15.9330 -15.9329 -15.9315 -15.9315
   -15.4580 -15.4579 -15.4573 -15.4572 -15.4513 -15.4512 -15.4506 -15.4506
   -15.0304 -15.0302 -15.0119 -15.0115 -15.0016 -15.0012 -14.9861 -14.9860
   -14.8454 -14.8452 -14.8394 -14.8393 -14.8227 -14.8224 -14.8146 -14.8142
   -14.5927 -14.5924 -14.5918 -14.5909 -14.4523 -14.4468 -14.4461 -14.4455
   -14.4268 -14.4201 -14.4191 -14.4148 -14.4088 -14.4022 -14.3976 -14.3973
   -14.2210 -14.2207 -14.2203 -14.2196 -14.2067 -14.2058 -14.2050 -14.2049
   -13.8220 -13.8192 -13.8108 -13.8077 -13.8062 -13.8021 -13.7929 -13.7862
   -13.7402 -13.7355 -13.7213 -13.7167 -13.7087 -13.7060 -13.7051 -13.7020
   -13.6059 -13.5893 -13.5893 -13.5727 -13.5522 -13.5495 -13.5395 -13.5369
   -13.0992 -13.0987 -13.0858 -13.0850 -13.0764 -13.0741 -13.0556 -13.0494
   -12.9159 -12.9133 -12.9100 -12.9079 -12.5252 -12.5061 -12.5034 -12.4872
   -12.3076 -12.2938 -12.2882 -12.2872 -12.2482 -12.2436 -12.2336 -12.2238
   -12.0906 -12.0840 -12.0818 -12.0493 -11.8125 -11.8055 -11.7912 -11.7802
   -11.3207 -11.3206 -11.3157 -11.3137 -11.2741 -11.2741 -11.2706 -11.2673
   -11.2655 -11.2654 -11.2634 -11.2622 -11.0949 -11.0947 -11.0866 -11.0865
   -10.7949 -10.7932 -10.7881 -10.7868 -10.5372 -10.5369 -10.5173 -10.5146
   -10.4888 -10.4843 -10.4628 -10.4628 -10.3891 -10.3882 -10.3797 -10.3751
    -9.8927  -9.8879  -9.8878  -9.8779  -9.5211  -9.5210  -9.5196  -9.5184
    -9.5178  -9.5177  -9.5148  -9.5139  -9.3494  -9.3465  -9.3394  -9.3364
    -9.2612  -9.2598  -9.2592  -9.2568  -9.0674  -9.0633  -9.0628  -9.0623
    -8.9353  -8.9346  -8.9328  -8.9326  -8.8302  -8.8292  -8.8276  -8.8273
    -8.4332  -8.4299  -8.4190  -8.4183  -8.4080  -8.4071  -8.4039  -8.4030
    -8.2892  -8.2857  -8.2839  -8.2835  -8.1576  -8.1568  -8.1553  -8.1548
    -8.1542  -8.1540  -8.1537  -8.1536  -8.0895  -8.0887  -8.0797  -8.0773
    -8.0768  -8.0749  -8.0715  -8.0662  -7.5969  -7.5884  -7.5857  -7.5664
    -7.4073  -7.4008  -7.3984  -7.3878  -7.1410  -7.1173  -7.1155  -7.1114
    -7.0981  -7.0821  -7.0641  -7.0495  -6.6784  -6.6646  -6.6575  -6.6499
    -6.6155  -6.5982  -6.5951  -6.5872  -6.3924  -6.3622  -6.3560  -6.3409
    -6.3345  -6.3097  -6.3046  -6.2722  -6.1664  -6.1252  -6.1201  -6.0944
    -6.0882  -6.0680  -6.0492  -6.0360  -6.0265  -6.0098  -6.0052  -6.0023
    -5.9496  -5.9457  -5.9446  -5.9342  -5.8350  -5.8342  -5.8229  -5.8172
    -5.8054  -5.7943  -5.7886  -5.7846  -5.6506  -5.6489  -5.6312  -5.6308
    -5.6063  -5.6060  -5.5794  -5.5785  -5.4235  -5.3928  -5.3839  -5.3767
    -5.3567  -5.3523  -5.3369  -5.3070  -5.0936  -5.0934  -5.0820  -5.0637
    -5.0580  -5.0489  -5.0342  -5.0194  -5.0083  -5.0081  -4.9654  -4.9587
    -4.9582  -4.9521  -4.9460  -4.9439  -4.8188  -4.8121  -4.7998  -4.7686
    -4.6451  -4.6426  -4.6208  -4.6095  -4.5918  -4.5834  -4.5704  -4.5640
    -4.5326  -4.5162  -4.5094  -4.4845  -4.4674  -4.4651  -4.4648  -4.4474
    -4.4306  -4.4251  -4.4205  -4.4104  -4.4014  -4.3999  -4.3948  -4.3869
    -4.3836  -4.3814  -4.3792  -4.3620  -4.2930  -4.2602  -4.2512  -4.2479
    -4.2390  -4.2341  -4.2167  -4.2159  -4.1973  -4.1672  -4.1596  -4.1197
    -4.1142  -4.1097  -4.1012  -4.0928  -3.9602  -3.9050  -3.8975  -3.8870
    -3.8745  -3.8562  -3.8429  -3.8419  -3.8182  -3.8090  -3.8022  -3.7886
    -3.7831  -3.7724  -3.7672  -3.7656  -3.7649  -3.7645  -3.7533  -3.7254
    -3.7085  -3.7073  -3.7021  -3.7013  -3.6653  -3.6593  -3.6582  -3.6405
    -3.6214  -3.6182  -3.6159  -3.6156  -3.6130  -3.6103  -3.5892  -3.5873
    -3.5786  -3.5744  -3.5739  -3.5655  -3.5368  -3.5355  -3.5329  -3.5319
    -3.5082  -3.4890  -3.4847  -3.4741  -3.4560  -3.4504  -3.4292  -3.4188
    -3.4137  -3.4069  -3.4001  -3.3917  -3.3699  -3.3594  -3.3584  -3.3531
    -3.3296  -3.3100  -3.3043  -3.2953  -3.2775  -3.2569  -3.2511  -3.2285
    -3.2217  -3.2116  -3.2095  -3.2022  -3.1997  -3.1990  -3.1967  -3.1880
    -3.1564  -3.1513  -3.1429  -3.1386  -3.1383  -3.1230  -3.0842  -3.0549
    -3.0507  -3.0468  -3.0431  -3.0082  -2.9947  -2.9926  -2.9839  -2.9604
    -2.9584  -2.9330  -2.9262  -2.9054  -2.8803  -2.8800  -2.8763  -2.8519
    -2.8354  -2.8328  -2.8203  -2.7785  -2.7743  -2.7716  -2.7674  -2.7618
    -2.7575  -2.7551  -2.7333  -2.6966  -2.6875  -2.6772  -2.6747  -2.6711
    -2.6531  -2.6060  -2.5853  -2.5768  -2.5605  -2.5400  -2.5276  -2.5259
    -2.4715  -2.4664  -2.4482  -2.4451  -2.4176  -2.4029  -2.4012  -2.4008
    -2.4003  -2.3911  -2.3879  -2.3821  -2.3763  -2.3752  -2.3587  -2.3549
    -2.3514  -2.3511  -2.3318  -2.3169  -2.2010  -2.2007  -2.1918  -2.1903
    -2.1636  -2.1623  -2.1598  -2.1553  -2.1254  -2.1141  -2.1131  -2.0808
    -1.9839  -1.9790  -1.9747  -1.9700  -1.9507  -1.9271  -1.9222  -1.9101
    -1.8377  -1.8356  -1.8284  -1.8194  -1.7599  -1.7394  -1.7212  -1.6699
    -1.6681  -1.6427  -1.5889  -1.5724  -1.5614  -1.5421  -1.5168  -1.5079
    -1.5067  -1.4729  -1.4661  -1.4495  -1.4488  -1.4415  -1.4321  -1.4315
    -1.4130  -1.4023  -1.3987  -1.3978  -1.3668  -1.3562  -1.3532  -1.3082
    -1.3055  -1.3052  -1.2963  -1.2947  -1.2868  -1.2392  -1.2204  -1.1969
    -1.1967  -1.1866  -1.1864  -1.1771  -1.1646  -1.1489  -1.1370  -1.1326
    -1.1084  -1.0918  -1.0737  -1.0406  -0.9882  -0.9846  -0.9757  -0.9530
    -0.9496  -0.9493  -0.9469  -0.9466  -0.9328  -0.9290  -0.9207  -0.9174
    -0.9034  -0.8800  -0.8729  -0.8664  -0.8662  -0.8556  -0.8260  -0.8233
    -0.7907  -0.7712  -0.7702  -0.7644  -0.7482  -0.7398  -0.7379  -0.7327
    -0.6721  -0.6582  -0.6525  -0.6501  -0.6339  -0.6150  -0.6126  -0.5792
    -0.5743  -0.5617  -0.5611  -0.5161  -0.5129  -0.4998  -0.4774  -0.4743
    -0.4706  -0.4561  -0.4463  -0.4427  -0.4326  -0.4322  -0.4275  -0.4265
    -0.3977  -0.3973  -0.3852  -0.3756  -0.3498  -0.3459  -0.3404  -0.3332
    -0.3326  -0.3323  -0.3291  -0.2999  -0.2328  -0.2170  -0.2100  -0.2029
    -0.0282  -0.0230  -0.0157  -0.0151  -0.0029   0.0057   0.0133   0.0182
     0.0191   0.0216   0.0243   0.0548   0.0554   0.0737   0.0821   0.0838
     0.1057   0.1228   0.1231   0.1414   0.1595   0.1614   0.1760   0.1799
     0.1990   0.2191   0.2214   0.2356   0.2448   0.2500   0.2590   0.2595
     0.2890   0.2916   0.2930   0.2942   0.3400   0.3424   0.3934   0.4001
     0.5314   0.5353   0.5368   0.5412   0.7191   0.7196   0.7201   0.7274
     0.7427   0.7453   0.7540   0.7666   0.7689   0.7750   0.7777   0.7854
     0.7951   0.7998   0.8462   0.8517   0.8770   0.8833   0.9347   0.9370
     0.9881   0.9885   0.9944   0.9963   0.9964   0.9971   1.0101   1.0128
     1.0179   1.0229   1.0483   1.0486   1.0535   1.0742   1.0809   1.1016
     1.2362   1.2458   1.2478   1.2503   1.2594   1.2646   1.2945   1.3055
     1.3100   1.3298   1.3343   1.3350   1.3857   1.3909   1.3919   1.3921
     1.4011   1.4038   1.4133   1.4197   1.4364   1.4365   1.4428   1.4470
     1.6324   1.6370   1.6472   1.6531   1.7288   1.7296   1.7356   1.7509
     2.1080   2.1088   2.1128   2.1138   2.1995   2.1996   2.2011   2.2024
     2.3553   2.3652   2.4102   2.4216   2.4241   2.4330   2.4672   2.4785
     3.8512   3.8515   3.8547   3.8587   3.8718   3.8721   3.8732   3.8736
     4.3844   4.3952   4.4027   4.4032   4.4815   4.4845   4.4951   4.4964
     4.5505   4.5576   4.5583   4.5683   4.6142   4.6184   4.6212   4.6364
     4.7103   4.7111   4.7181   4.7195   4.7839   4.7943   4.7959   4.7980
     5.3518   5.3792   5.3916   5.4068   5.4344   5.4406   5.4456   5.4463
     5.4653   5.4903   5.5051   5.5316   5.7793   5.7823   5.8104   5.8157
     5.8235   5.8619   5.8744   5.8755   6.0276   6.0376   6.0480   6.0596
     6.0623   6.0776   6.0987   6.1024   6.1812   6.1965   6.2145   6.2432
     6.2483   6.2568   6.2620   6.2653   6.2678   6.2753   6.2895   6.3057
     6.3081   6.3539   6.3603   6.3938   6.3939   6.3951   6.4274   6.4654
     6.6331   6.6357   6.6409   6.6428   6.6980   6.6982   6.7073   6.7186
     6.8822   6.8889   6.8970   6.9131   6.9511   6.9596   6.9648   6.9974
     7.0787   7.0962   7.1704   7.1758   7.3234   7.3239   7.3332   7.3812
     7.4417   7.4633   7.4684   7.4710   7.4820   7.4886   7.4994   7.5262
     7.5449   7.5492   7.5642   7.5818   7.5850   7.5998   7.6109   7.6295
     7.7401   7.7793   7.7813   7.7883   7.8088   7.8269   7.8331   7.8358
     7.8498   7.8560   7.8690   7.8802   7.8841   7.8882   7.8985   7.9157
     7.9392   7.9461   7.9543   7.9725   7.9965   8.0044   8.0346   8.0464
     8.0475   8.0531   8.1024   8.1784   8.2636   8.2855   8.3034   8.3170
     8.3204   8.3547   8.3662   8.3947   8.4063   8.4692   8.5227   8.5880
     8.6216   8.6712

          k = 0.0000 0.0000-0.5764 (127978 PWs)   bands (ev):

   -19.8205 -19.8205 -19.8205 -19.8205 -19.8070 -19.8070 -19.8070 -19.8070
   -19.3182 -19.3182 -19.3181 -19.3181 -19.3135 -19.3135 -19.3135 -19.3135
   -18.3326 -18.3326 -18.3325 -18.3325 -18.3289 -18.3289 -18.3289 -18.3289
   -18.0216 -18.0216 -18.0215 -18.0215 -17.9876 -17.9876 -17.9876 -17.9876
   -17.4291 -17.4291 -17.4290 -17.4290 -17.4289 -17.4289 -17.4288 -17.4288
   -17.1157 -17.1157 -17.1152 -17.1152 -17.0873 -17.0873 -17.0872 -17.0872
   -16.5162 -16.5162 -16.5102 -16.5102 -16.4981 -16.4981 -16.4912 -16.4912
   -15.9564 -15.9564 -15.9551 -15.9551 -15.9330 -15.9330 -15.9315 -15.9315
   -15.4577 -15.4577 -15.4576 -15.4576 -15.4510 -15.4510 -15.4509 -15.4509
   -15.0303 -15.0303 -15.0117 -15.0117 -15.0014 -15.0014 -14.9861 -14.9861
   -14.8453 -14.8453 -14.8393 -14.8393 -14.8226 -14.8226 -14.8144 -14.8144
   -14.5923 -14.5923 -14.5916 -14.5916 -14.4497 -14.4497 -14.4458 -14.4458
   -14.4226 -14.4226 -14.4197 -14.4197 -14.4013 -14.4013 -14.3997 -14.3997
   -14.2205 -14.2205 -14.2203 -14.2203 -14.2058 -14.2058 -14.2053 -14.2053
   -13.8208 -13.8208 -13.8089 -13.8089 -13.8047 -13.8047 -13.7892 -13.7892
   -13.7381 -13.7381 -13.7192 -13.7192 -13.7066 -13.7066 -13.7038 -13.7038
   -13.5986 -13.5986 -13.5823 -13.5823 -13.5449 -13.5449 -13.5418 -13.5418
   -13.0946 -13.0946 -13.0945 -13.0945 -13.0637 -13.0637 -13.0594 -13.0594
   -12.9131 -12.9131 -12.9105 -12.9105 -12.5070 -12.5070 -12.5048 -12.5048
   -12.2986 -12.2986 -12.2897 -12.2897 -12.2458 -12.2458 -12.2282 -12.2282
   -12.0828 -12.0828 -12.0709 -12.0709 -11.7984 -11.7984 -11.7954 -11.7954
   -11.3181 -11.3181 -11.3172 -11.3172 -11.2741 -11.2741 -11.2692 -11.2692
   -11.2652 -11.2652 -11.2628 -11.2628 -11.0948 -11.0948 -11.0866 -11.0866
   -10.7916 -10.7916 -10.7900 -10.7900 -10.5371 -10.5371 -10.5161 -10.5161
   -10.4863 -10.4863 -10.4628 -10.4628 -10.3843 -10.3843 -10.3818 -10.3818
    -9.8879  -9.8879  -9.8852  -9.8852  -9.5210  -9.5210  -9.5191  -9.5191
    -9.5176  -9.5176  -9.5144  -9.5144  -9.3479  -9.3479  -9.3379  -9.3379
    -9.2602  -9.2602  -9.2584  -9.2584  -9.0649  -9.0649  -9.0630  -9.0630
    -8.9340  -8.9340  -8.9336  -8.9336  -8.8297  -8.8297  -8.8275  -8.8275
    -8.4316  -8.4316  -8.4187  -8.4187  -8.4076  -8.4076  -8.4034  -8.4034
    -8.2874  -8.2874  -8.2837  -8.2837  -8.1571  -8.1571  -8.1546  -8.1546
    -8.1543  -8.1543  -8.1538  -8.1538  -8.0892  -8.0892  -8.0785  -8.0785
    -8.0758  -8.0758  -8.0687  -8.0687  -7.5914  -7.5914  -7.5778  -7.5778
    -7.4039  -7.4039  -7.3927  -7.3927  -7.1351  -7.1351  -7.1099  -7.1099
    -7.0819  -7.0819  -7.0628  -7.0628  -6.6695  -6.6695  -6.6580  -6.6580
    -6.6037  -6.6037  -6.5920  -6.5920  -6.3766  -6.3766  -6.3433  -6.3433
    -6.3353  -6.3353  -6.2808  -6.2808  -6.1510  -6.1510  -6.1111  -6.1111
    -6.0642  -6.0642  -6.0485  -6.0485  -6.0182  -6.0182  -6.0031  -6.0031
    -5.9454  -5.9454  -5.9412  -5.9412  -5.8345  -5.8345  -5.8204  -5.8204
    -5.8001  -5.8001  -5.7860  -5.7860  -5.6499  -5.6499  -5.6310  -5.6310
    -5.6061  -5.6061  -5.5789  -5.5789  -5.4070  -5.4070  -5.3859  -5.3859
    -5.3537  -5.3537  -5.3185  -5.3185  -5.0901  -5.0901  -5.0810  -5.0810
    -5.0452  -5.0452  -5.0276  -5.0276  -5.0115  -5.0115  -4.9638  -4.9638
    -4.9552  -4.9552  -4.9433  -4.9433  -4.8099  -4.8099  -4.7921  -4.7921
    -4.6254  -4.6254  -4.6171  -4.6171  -4.6024  -4.6024  -4.5639  -4.5639
    -4.5297  -4.5297  -4.4963  -4.4963  -4.4701  -4.4701  -4.4454  -4.4454
    -4.4360  -4.4360  -4.4168  -4.4168  -4.3980  -4.3980  -4.3909  -4.3909
    -4.3843  -4.3843  -4.3683  -4.3683  -4.2638  -4.2638  -4.2499  -4.2499
    -4.2383  -4.2383  -4.2361  -4.2361  -4.1722  -4.1722  -4.1386  -4.1386
    -4.1062  -4.1062  -4.1036  -4.1036  -3.9346  -3.9346  -3.8908  -3.8908
    -3.8647  -3.8647  -3.8460  -3.8460  -3.8125  -3.8125  -3.7973  -3.7973
    -3.7846  -3.7846  -3.7736  -3.7736  -3.7512  -3.7512  -3.7173  -3.7173
    -3.7141  -3.7141  -3.7139  -3.7139  -3.6665  -3.6665  -3.6390  -3.6390
    -3.6281  -3.6281  -3.6265  -3.6265  -3.5887  -3.5887  -3.5851  -3.5851
    -3.5793  -3.5793  -3.5553  -3.5553  -3.5455  -3.5455  -3.5407  -3.5407
    -3.5003  -3.5003  -3.4856  -3.4856  -3.4510  -3.4510  -3.4265  -3.4265
    -3.4069  -3.4069  -3.4038  -3.4038  -3.3696  -3.3696  -3.3515  -3.3515
    -3.3107  -3.3107  -3.3069  -3.3069  -3.2498  -3.2498  -3.2455  -3.2455
    -3.2388  -3.2388  -3.2043  -3.2043  -3.2009  -3.2009  -3.1919  -3.1919
    -3.1510  -3.1510  -3.1405  -3.1405  -3.1008  -3.1008  -3.0959  -3.0959
    -3.0317  -3.0317  -3.0237  -3.0237  -2.9787  -2.9787  -2.9711  -2.9711
    -2.9559  -2.9559  -2.9357  -2.9357  -2.8789  -2.8789  -2.8592  -2.8592
    -2.8402  -2.8402  -2.8212  -2.8212  -2.7723  -2.7723  -2.7579  -2.7579
    -2.7468  -2.7468  -2.7081  -2.7081  -2.6914  -2.6914  -2.6751  -2.6751
    -2.6040  -2.6040  -2.5925  -2.5925  -2.5444  -2.5444  -2.5316  -2.5316
    -2.4624  -2.4624  -2.4575  -2.4575  -2.4140  -2.4140  -2.4132  -2.4132
    -2.3833  -2.3833  -2.3752  -2.3752  -2.3703  -2.3703  -2.3670  -2.3670
    -2.3397  -2.3397  -2.3367  -2.3367  -2.1972  -2.1972  -2.1960  -2.1960
    -2.1642  -2.1642  -2.1584  -2.1584  -2.1177  -2.1177  -2.0949  -2.0949
    -1.9804  -1.9804  -1.9765  -1.9765  -1.9348  -1.9348  -1.9187  -1.9187
    -1.8366  -1.8366  -1.8238  -1.8238  -1.7430  -1.7430  -1.7189  -1.7189
    -1.6085  -1.6085  -1.6049  -1.6049  -1.5470  -1.5470  -1.5354  -1.5354
    -1.4830  -1.4830  -1.4748  -1.4748  -1.4440  -1.4440  -1.4160  -1.4160
    -1.4037  -1.4037  -1.3894  -1.3894  -1.3724  -1.3724  -1.3290  -1.3290
    -1.3061  -1.3061  -1.2939  -1.2939  -1.2538  -1.2538  -1.2200  -1.2200
    -1.2018  -1.2018  -1.1706  -1.1706  -1.1456  -1.1456  -1.1409  -1.1409
    -1.0931  -1.0931  -1.0763  -1.0763  -0.9812  -0.9812  -0.9541  -0.9541
    -0.9538  -0.9538  -0.9412  -0.9412  -0.9236  -0.9236  -0.9235  -0.9235
    -0.9042  -0.9042  -0.8821  -0.8821  -0.8391  -0.8391  -0.8350  -0.8350
    -0.7716  -0.7716  -0.7688  -0.7688  -0.7434  -0.7434  -0.7413  -0.7413
    -0.6613  -0.6613  -0.6536  -0.6536  -0.6263  -0.6263  -0.6035  -0.6035
    -0.5628  -0.5628  -0.5353  -0.5353  -0.5079  -0.5079  -0.4773  -0.4773
    -0.4560  -0.4560  -0.4385  -0.4385  -0.4367  -0.4367  -0.4324  -0.4324
    -0.3997  -0.3997  -0.3839  -0.3839  -0.3430  -0.3430  -0.3388  -0.3388
    -0.3276  -0.3276  -0.3171  -0.3171  -0.2211  -0.2211  -0.2104  -0.2104
    -0.0322  -0.0322  -0.0148  -0.0148   0.0094   0.0094   0.0184   0.0184
     0.0266   0.0266   0.0278   0.0278   0.0600   0.0600   0.0934   0.0934
     0.1131   0.1131   0.1168   0.1168   0.1719   0.1719   0.1903   0.1903
     0.1970   0.1970   0.2245   0.2245   0.2539   0.2539   0.2560   0.2560
     0.2909   0.2909   0.2929   0.2929   0.3412   0.3412   0.3968   0.3968
     0.5343   0.5343   0.5382   0.5382   0.7192   0.7192   0.7233   0.7233
     0.7520   0.7520   0.7560   0.7560   0.7710   0.7710   0.7765   0.7765
     0.7992   0.7992   0.8479   0.8479   0.8818   0.8818   0.9359   0.9359
     0.9879   0.9879   0.9965   0.9965   1.0005   1.0005   1.0073   1.0073
     1.0222   1.0222   1.0475   1.0475   1.0620   1.0620   1.0890   1.0890
     1.2429   1.2429   1.2599   1.2599   1.2734   1.2734   1.2766   1.2766
     1.3211   1.3211   1.3328   1.3328   1.3867   1.3867   1.3997   1.3997
     1.4057   1.4057   1.4100   1.4100   1.4366   1.4366   1.4452   1.4452
     1.6348   1.6348   1.6501   1.6501   1.7291   1.7291   1.7434   1.7434
     2.1083   2.1083   2.1134   2.1134   2.1993   2.1993   2.2019   2.2019
     2.3764   2.3764   2.3820   2.3820   2.4556   2.4556   2.4631   2.4631
     3.8511   3.8511   3.8564   3.8564   3.8726   3.8726   3.8728   3.8728
     4.3929   4.3929   4.3989   4.3989   4.4902   4.4902   4.4902   4.4902
     4.5534   4.5534   4.5619   4.5619   4.6185   4.6185   4.6280   4.6280
     4.7106   4.7106   4.7186   4.7186   4.7901   4.7901   4.7962   4.7962
     5.3758   5.3758   5.3846   5.3846   5.4361   5.4361   5.4415   5.4415
     5.4971   5.4971   5.5088   5.5088   5.7809   5.7809   5.8122   5.8122
     5.8429   5.8429   5.8750   5.8750   6.0394   6.0394   6.0420   6.0420
     6.0814   6.0814   6.0937   6.0937   6.1890   6.1890   6.2322   6.2322
     6.2505   6.2505   6.2601   6.2601   6.2742   6.2742   6.2944   6.2944
     6.3388   6.3388   6.3541   6.3541   6.4142   6.4142   6.4454   6.4454
     6.6367   6.6367   6.6395   6.6395   6.7034   6.7034   6.7069   6.7069
     6.8844   6.8844   6.9059   6.9059   6.9544   6.9544   6.9793   6.9794
     7.1222   7.1222   7.1300   7.1300   7.3526   7.3526   7.3788   7.3788
     7.4235   7.4235   7.4335   7.4335   7.4763   7.4763   7.4910   7.4910
[...]

     total energy              =  -10828.31763260 Ry
     estimated scf accuracy    <       0.00000189 Ry

     iteration #  5     ecut=    36.00 Ry     beta= 0.20
     PPCG style diagonalization
     ethr =  1.17E-10,  avg # of iterations =  6.5

     total cpu time spent up to now is    31749.6 secs

     total energy              =  -10828.31763276 Ry
     estimated scf accuracy    <       0.00000049 Ry

     iteration #  6     ecut=    36.00 Ry     beta= 0.20
     PPCG style diagonalization
     ethr =  3.01E-11,  avg # of iterations =  6.7

     total cpu time spent up to now is    32334.1 secs

     total energy              =  -10828.31763286 Ry
     estimated scf accuracy    <       0.00000009 Ry

     iteration #  7     ecut=    36.00 Ry     beta= 0.20
     PPCG style diagonalization

===================================================================================
=   BAD TERMINATION OF ONE OF YOUR APPLICATION PROCESSES
=   RANK 0 PID 318161 RUNNING AT usagi2
=   KILLED BY SIGNAL: 9 (Killed)
===================================================================================

===================================================================================
=   BAD TERMINATION OF ONE OF YOUR APPLICATION PROCESSES
=   RANK 1 PID 318162 RUNNING AT usagi2
=   KILLED BY SIGNAL: 9 (Killed)
===================================================================================

===================================================================================
=   BAD TERMINATION OF ONE OF YOUR APPLICATION PROCESSES
=   RANK 2 PID 318163 RUNNING AT usagi2
=   KILLED BY SIGNAL: 9 (Killed)
===================================================================================

===================================================================================
=   BAD TERMINATION OF ONE OF YOUR APPLICATION PROCESSES
=   RANK 3 PID 318164 RUNNING AT usagi2
=   KILLED BY SIGNAL: 9 (Killed)
===================================================================================

===================================================================================
=   BAD TERMINATION OF ONE OF YOUR APPLICATION PROCESSES
=   RANK 4 PID 318165 RUNNING AT usagi2
=   KILLED BY SIGNAL: 9 (Killed)
===================================================================================

===================================================================================
=   BAD TERMINATION OF ONE OF YOUR APPLICATION PROCESSES
=   RANK 5 PID 318166 RUNNING AT usagi2
=   KILLED BY SIGNAL: 9 (Killed)
===================================================================================

===================================================================================
=   BAD TERMINATION OF ONE OF YOUR APPLICATION PROCESSES
=   RANK 6 PID 318167 RUNNING AT usagi2
=   KILLED BY SIGNAL: 9 (Killed)
===================================================================================

===================================================================================
=   BAD TERMINATION OF ONE OF YOUR APPLICATION PROCESSES
=   RANK 7 PID 318168 RUNNING AT usagi2
=   KILLED BY SIGNAL: 9 (Killed)
===================================================================================

===================================================================================
=   BAD TERMINATION OF ONE OF YOUR APPLICATION PROCESSES
=   RANK 8 PID 318169 RUNNING AT usagi2
=   KILLED BY SIGNAL: 9 (Killed)
===================================================================================

===================================================================================
=   BAD TERMINATION OF ONE OF YOUR APPLICATION PROCESSES
=   RANK 9 PID 318170 RUNNING AT usagi2
=   KILLED BY SIGNAL: 9 (Killed)
===================================================================================

===================================================================================
=   BAD TERMINATION OF ONE OF YOUR APPLICATION PROCESSES
=   RANK 10 PID 318171 RUNNING AT usagi2
=   KILLED BY SIGNAL: 9 (Killed)
===================================================================================

===================================================================================
=   BAD TERMINATION OF ONE OF YOUR APPLICATION PROCESSES
=   RANK 11 PID 318172 RUNNING AT usagi2
=   KILLED BY SIGNAL: 9 (Killed)
===================================================================================

===================================================================================
=   BAD TERMINATION OF ONE OF YOUR APPLICATION PROCESSES
=   RANK 12 PID 318173 RUNNING AT usagi2
=   KILLED BY SIGNAL: 9 (Killed)
===================================================================================

===================================================================================
=   BAD TERMINATION OF ONE OF YOUR APPLICATION PROCESSES
=   RANK 13 PID 318174 RUNNING AT usagi2
=   KILLED BY SIGNAL: 9 (Killed)
===================================================================================

===================================================================================
=   BAD TERMINATION OF ONE OF YOUR APPLICATION PROCESSES
=   RANK 14 PID 318175 RUNNING AT usagi2
=   KILLED BY SIGNAL: 9 (Killed)
===================================================================================

===================================================================================
=   BAD TERMINATION OF ONE OF YOUR APPLICATION PROCESSES
=   RANK 15 PID 318176 RUNNING AT usagi2
=   KILLED BY SIGNAL: 9 (Killed)
===================================================================================

===================================================================================
=   BAD TERMINATION OF ONE OF YOUR APPLICATION PROCESSES
=   RANK 16 PID 318177 RUNNING AT usagi2
=   KILLED BY SIGNAL: 9 (Killed)
===================================================================================

===================================================================================
=   BAD TERMINATION OF ONE OF YOUR APPLICATION PROCESSES
=   RANK 17 PID 318178 RUNNING AT usagi2
=   KILLED BY SIGNAL: 9 (Killed)
===================================================================================

===================================================================================
=   BAD TERMINATION OF ONE OF YOUR APPLICATION PROCESSES
=   RANK 18 PID 318179 RUNNING AT usagi2
=   KILLED BY SIGNAL: 9 (Killed)
===================================================================================

===================================================================================
=   BAD TERMINATION OF ONE OF YOUR APPLICATION PROCESSES
=   RANK 19 PID 318180 RUNNING AT usagi2
=   KILLED BY SIGNAL: 9 (Killed)
===================================================================================

===================================================================================
=   BAD TERMINATION OF ONE OF YOUR APPLICATION PROCESSES
=   RANK 20 PID 318181 RUNNING AT usagi2
=   KILLED BY SIGNAL: 9 (Killed)
===================================================================================

===================================================================================
=   BAD TERMINATION OF ONE OF YOUR APPLICATION PROCESSES
=   RANK 21 PID 318182 RUNNING AT usagi2
=   KILLED BY SIGNAL: 9 (Killed)
===================================================================================

===================================================================================
=   BAD TERMINATION OF ONE OF YOUR APPLICATION PROCESSES
=   RANK 22 PID 318183 RUNNING AT usagi2
=   KILLED BY SIGNAL: 9 (Killed)
===================================================================================

===================================================================================
=   BAD TERMINATION OF ONE OF YOUR APPLICATION PROCESSES
=   RANK 23 PID 318184 RUNNING AT usagi2
=   KILLED BY SIGNAL: 9 (Killed)
===================================================================================

===================================================================================
=   BAD TERMINATION OF ONE OF YOUR APPLICATION PROCESSES
=   RANK 24 PID 318185 RUNNING AT usagi2
=   KILLED BY SIGNAL: 9 (Killed)
===================================================================================

===================================================================================
=   BAD TERMINATION OF ONE OF YOUR APPLICATION PROCESSES
=   RANK 25 PID 318186 RUNNING AT usagi2
=   KILLED BY SIGNAL: 9 (Killed)
===================================================================================

===================================================================================
=   BAD TERMINATION OF ONE OF YOUR APPLICATION PROCESSES
=   RANK 26 PID 318187 RUNNING AT usagi2
=   KILLED BY SIGNAL: 9 (Killed)
===================================================================================

===================================================================================
=   BAD TERMINATION OF ONE OF YOUR APPLICATION PROCESSES
=   RANK 27 PID 318188 RUNNING AT usagi2
=   KILLED BY SIGNAL: 9 (Killed)
===================================================================================

===================================================================================
=   BAD TERMINATION OF ONE OF YOUR APPLICATION PROCESSES
=   RANK 28 PID 318189 RUNNING AT usagi2
=   KILLED BY SIGNAL: 9 (Killed)
===================================================================================

===================================================================================
=   BAD TERMINATION OF ONE OF YOUR APPLICATION PROCESSES
=   RANK 29 PID 318190 RUNNING AT usagi2
=   KILLED BY SIGNAL: 9 (Killed)
===================================================================================

===================================================================================
=   BAD TERMINATION OF ONE OF YOUR APPLICATION PROCESSES
=   RANK 30 PID 318191 RUNNING AT usagi2
=   KILLED BY SIGNAL: 9 (Killed)
===================================================================================

===================================================================================
=   BAD TERMINATION OF ONE OF YOUR APPLICATION PROCESSES
=   RANK 31 PID 318192 RUNNING AT usagi2
=   KILLED BY SIGNAL: 9 (Killed)
===================================================================================

===================================================================================
=   BAD TERMINATION OF ONE OF YOUR APPLICATION PROCESSES
=   RANK 32 PID 318193 RUNNING AT usagi2
=   KILLED BY SIGNAL: 9 (Killed)
===================================================================================

===================================================================================
=   BAD TERMINATION OF ONE OF YOUR APPLICATION PROCESSES
=   RANK 33 PID 318194 RUNNING AT usagi2
=   KILLED BY SIGNAL: 9 (Killed)
===================================================================================

===================================================================================
=   BAD TERMINATION OF ONE OF YOUR APPLICATION PROCESSES
=   RANK 34 PID 318195 RUNNING AT usagi2
=   KILLED BY SIGNAL: 9 (Killed)
===================================================================================

===================================================================================
=   BAD TERMINATION OF ONE OF YOUR APPLICATION PROCESSES
=   RANK 35 PID 318196 RUNNING AT usagi2
=   KILLED BY SIGNAL: 9 (Killed)
===================================================================================

===================================================================================
=   BAD TERMINATION OF ONE OF YOUR APPLICATION PROCESSES
=   RANK 36 PID 318197 RUNNING AT usagi2
=   KILLED BY SIGNAL: 9 (Killed)
===================================================================================

===================================================================================
=   BAD TERMINATION OF ONE OF YOUR APPLICATION PROCESSES
=   RANK 37 PID 318198 RUNNING AT usagi2
=   KILLED BY SIGNAL: 9 (Killed)
===================================================================================

===================================================================================
=   BAD TERMINATION OF ONE OF YOUR APPLICATION PROCESSES
=   RANK 38 PID 318199 RUNNING AT usagi2
=   KILLED BY SIGNAL: 9 (Killed)
===================================================================================

===================================================================================
=   BAD TERMINATION OF ONE OF YOUR APPLICATION PROCESSES
=   RANK 39 PID 318200 RUNNING AT usagi2
=   KILLED BY SIGNAL: 9 (Killed)
===================================================================================

===================================================================================
=   BAD TERMINATION OF ONE OF YOUR APPLICATION PROCESSES
=   RANK 40 PID 318201 RUNNING AT usagi2
=   KILLED BY SIGNAL: 9 (Killed)
===================================================================================

===================================================================================
=   BAD TERMINATION OF ONE OF YOUR APPLICATION PROCESSES
=   RANK 41 PID 318202 RUNNING AT usagi2
=   KILLED BY SIGNAL: 9 (Killed)
===================================================================================

===================================================================================
=   BAD TERMINATION OF ONE OF YOUR APPLICATION PROCESSES
=   RANK 42 PID 318203 RUNNING AT usagi2
=   KILLED BY SIGNAL: 9 (Killed)
===================================================================================

===================================================================================
=   BAD TERMINATION OF ONE OF YOUR APPLICATION PROCESSES
=   RANK 43 PID 318204 RUNNING AT usagi2
=   KILLED BY SIGNAL: 9 (Killed)
===================================================================================

===================================================================================
=   BAD TERMINATION OF ONE OF YOUR APPLICATION PROCESSES
=   RANK 44 PID 318205 RUNNING AT usagi2
=   KILLED BY SIGNAL: 9 (Killed)
===================================================================================

===================================================================================
=   BAD TERMINATION OF ONE OF YOUR APPLICATION PROCESSES
=   RANK 45 PID 318206 RUNNING AT usagi2
=   KILLED BY SIGNAL: 9 (Killed)
===================================================================================

===================================================================================
=   BAD TERMINATION OF ONE OF YOUR APPLICATION PROCESSES
=   RANK 46 PID 318207 RUNNING AT usagi2
=   KILLED BY SIGNAL: 9 (Killed)
===================================================================================

===================================================================================
=   BAD TERMINATION OF ONE OF YOUR APPLICATION PROCESSES
=   RANK 47 PID 318208 RUNNING AT usagi2
=   KILLED BY SIGNAL: 9 (Killed)
===================================================================================

===================================================================================
=   BAD TERMINATION OF ONE OF YOUR APPLICATION PROCESSES
=   RANK 48 PID 318209 RUNNING AT usagi2
=   KILLED BY SIGNAL: 9 (Killed)
===================================================================================

===================================================================================
=   BAD TERMINATION OF ONE OF YOUR APPLICATION PROCESSES
=   RANK 49 PID 318210 RUNNING AT usagi2
=   KILLED BY SIGNAL: 9 (Killed)
===================================================================================

===================================================================================
=   BAD TERMINATION OF ONE OF YOUR APPLICATION PROCESSES
=   RANK 50 PID 318211 RUNNING AT usagi2
=   KILLED BY SIGNAL: 9 (Killed)
===================================================================================

===================================================================================
=   BAD TERMINATION OF ONE OF YOUR APPLICATION PROCESSES
=   RANK 51 PID 318212 RUNNING AT usagi2
=   KILLED BY SIGNAL: 9 (Killed)
===================================================================================

===================================================================================
=   BAD TERMINATION OF ONE OF YOUR APPLICATION PROCESSES
=   RANK 52 PID 318213 RUNNING AT usagi2
=   KILLED BY SIGNAL: 9 (Killed)
===================================================================================

===================================================================================
=   BAD TERMINATION OF ONE OF YOUR APPLICATION PROCESSES
=   RANK 53 PID 318214 RUNNING AT usagi2
=   KILLED BY SIGNAL: 9 (Killed)
===================================================================================

===================================================================================
=   BAD TERMINATION OF ONE OF YOUR APPLICATION PROCESSES
=   RANK 54 PID 318215 RUNNING AT usagi2
=   KILLED BY SIGNAL: 9 (Killed)
===================================================================================

===================================================================================
=   BAD TERMINATION OF ONE OF YOUR APPLICATION PROCESSES
=   RANK 55 PID 318216 RUNNING AT usagi2
=   KILLED BY SIGNAL: 9 (Killed)
===================================================================================

===================================================================================
=   BAD TERMINATION OF ONE OF YOUR APPLICATION PROCESSES
=   RANK 56 PID 318217 RUNNING AT usagi2
=   KILLED BY SIGNAL: 9 (Killed)
===================================================================================

===================================================================================
=   BAD TERMINATION OF ONE OF YOUR APPLICATION PROCESSES
=   RANK 57 PID 318218 RUNNING AT usagi2
=   KILLED BY SIGNAL: 9 (Killed)
===================================================================================

===================================================================================
=   BAD TERMINATION OF ONE OF YOUR APPLICATION PROCESSES
=   RANK 58 PID 318219 RUNNING AT usagi2
=   KILLED BY SIGNAL: 9 (Killed)
===================================================================================

===================================================================================
=   BAD TERMINATION OF ONE OF YOUR APPLICATION PROCESSES
=   RANK 59 PID 318220 RUNNING AT usagi2
=   KILLED BY SIGNAL: 9 (Killed)
===================================================================================

===================================================================================
=   BAD TERMINATION OF ONE OF YOUR APPLICATION PROCESSES
=   RANK 60 PID 318221 RUNNING AT usagi2
=   KILLED BY SIGNAL: 9 (Killed)
===================================================================================

===================================================================================
=   BAD TERMINATION OF ONE OF YOUR APPLICATION PROCESSES
=   RANK 61 PID 318222 RUNNING AT usagi2
=   KILLED BY SIGNAL: 9 (Killed)
===================================================================================

===================================================================================
=   BAD TERMINATION OF ONE OF YOUR APPLICATION PROCESSES
=   RANK 62 PID 318223 RUNNING AT usagi2
=   KILLED BY SIGNAL: 9 (Killed)
===================================================================================

===================================================================================
=   BAD TERMINATION OF ONE OF YOUR APPLICATION PROCESSES
=   RANK 63 PID 318224 RUNNING AT usagi2
=   KILLED BY SIGNAL: 9 (Killed)
===================================================================================
