
     Program PWSCF v.7.2 starts on 10Mar2024 at 18:21:49 

     This program is part of the open-source Quantum ESPRESSO suite
     for quantum simulation of materials; please cite
         "P. Giannozzi et al., J. Phys.:Condens. Matter 21 395502 (2009);
         "P. Giannozzi et al., J. Phys.:Condens. Matter 29 465901 (2017);
         "P. Giannozzi et al., J. Chem. Phys. 152 154105 (2020);
          URL http://www.quantum-espresso.org", 
     in publications or presentations arising from this work. More details at
     http://www.quantum-espresso.org/quote

     Parallel version (MPI), running on    64 processors

     MPI processes distributed on     1 nodes
     1400540 MiB available memory on the printing compute node when the environment starts
 
     Waiting for input...
     Reading input from standard input
Warning: card &CELL ignored
Warning: card / ignored

     Current dimensions of program PWSCF are:
     Max number of different atomic species (ntypx) = 10
     Max number of k-points (npk) =  40000
     Max angular momentum in pseudopotentials (lmaxx) =  4
     file Cl.pbe-n-kjpaw_psl.1.0.0.UPF: wavefunction(s)  3S 3P renormalized
     file C.pbe-n-kjpaw_psl.1.0.0.UPF: wavefunction(s)  2S 2P renormalized
     file N.pbe-n-kjpaw_psl.1.0.0.UPF: wavefunction(s)  2S renormalized
     file H.pbe-kjpaw_psl.1.0.0.UPF: wavefunction(s)  1S renormalized
     file O.pbe-n-kjpaw_psl.1.0.0.UPF: wavefunction(s)  2S 2P renormalized
     Found identity + ( -0.5000  0.5000  0.5000) symmetry
     This is a supercell, fractional translations are disabled
 
     R & G space division:  proc/nbgrp/npool/nimage =      64
     Subspace diagonalization in iterative solution of the eigenvalue problem:
     one sub-group per band group will be used
     ELPA distributed-memory algorithm (size of sub-group:  8*  8 procs)

 
     Parallelization info
     --------------------
     sticks:   dense  smooth     PW     G-vecs:    dense   smooth      PW
     Min         348     125     34                74014    15985    2284
     Max         349     126     35                74026    15996    2294
     Sum       22331    8051   2207              4737327  1023457  146403
 
     Using Slab Decomposition
 


     bravais-lattice index     =            0
     lattice parameter (alat)  =      57.6366  a.u.
     unit-cell volume          =   35066.7377 (a.u.)^3
     number of atoms/cell      =          372
     number of atomic types    =            5
     number of electrons       =      1616.00
     number of Kohn-Sham states=          970
     kinetic-energy cutoff     =      36.0000  Ry
     charge density cutoff     =     400.0000  Ry
     scf convergence threshold =      1.0E-06
     mixing beta               =       0.2000
     number of iterations used =            8  plain     mixing
     energy convergence thresh.=      1.0E-04
     force convergence thresh. =      1.0E-03
     Exchange-correlation= SLA  PW   PBX  PBC
                           (   1   4   3   4   0   0   0)
     nstep                     =         9999


     celldm(1)=  57.636647  celldm(2)=   0.000000  celldm(3)=   0.000000
     celldm(4)=   0.000000  celldm(5)=   0.000000  celldm(6)=   0.000000

     crystal axes: (cart. coord. in units of alat)
               a(1) = (   1.000000   0.000000   0.000000 )  
               a(2) = (   0.000000   0.211148   0.000000 )  
               a(3) = (  -0.310570   0.000000   0.867388 )  

     reciprocal axes: (cart. coord. in units 2 pi/alat)
               b(1) = (  1.000000  0.000000  0.358052 )  
               b(2) = (  0.000000  4.736025  0.000000 )  
               b(3) = (  0.000000  0.000000  1.152887 )  


     PseudoPot. # 1 for Cl read from file:
     ./pseudo/Cl.pbe-n-kjpaw_psl.1.0.0.UPF
     MD5 check sum: 8585a34133a3cfc72b769cd6a0e76983
     Pseudo is Projector augmented-wave + core cor, Zval =  7.0
     Generated using 'atomic' code by A. Dal Corso  v.7.2
     Shape of augmentation charge: PSQ
     Using radial grid of 1157 points,  6 beta functions with: 
                l(1) =   0
                l(2) =   0
                l(3) =   1
                l(4) =   1
                l(5) =   2
                l(6) =   2
     Q(r) pseudized with 0 coefficients 


     PseudoPot. # 2 for C  read from file:
     ./pseudo/C.pbe-n-kjpaw_psl.1.0.0.UPF
     MD5 check sum: 6b0792899573946bb42fe395835041da
     Pseudo is Projector augmented-wave + core cor, Zval =  4.0
     Generated using 'atomic' code by A. Dal Corso  v.7.2
     Shape of augmentation charge: PSQ
     Using radial grid of 1073 points,  4 beta functions with: 
                l(1) =   0
                l(2) =   0
                l(3) =   1
                l(4) =   1
     Q(r) pseudized with 0 coefficients 


     PseudoPot. # 3 for N  read from file:
     ./pseudo/N.pbe-n-kjpaw_psl.1.0.0.UPF
     MD5 check sum: 6654930a71f78718b13e91073ae2a058
     Pseudo is Projector augmented-wave + core cor, Zval =  5.0
     Generated using 'atomic' code by A. Dal Corso  v.7.2
     Shape of augmentation charge: PSQ
     Using radial grid of 1085 points,  4 beta functions with: 
                l(1) =   0
                l(2) =   0
                l(3) =   1
                l(4) =   1
     Q(r) pseudized with 0 coefficients 


     PseudoPot. # 4 for H  read from file:
     ./pseudo/H.pbe-kjpaw_psl.1.0.0.UPF
     MD5 check sum: b3cb3c48ee3b58cc53e4d592112d0ca6
     Pseudo is Projector augmented-wave, Zval =  1.0
     Generated using 'atomic' code by A. Dal Corso  v.7.2
     Shape of augmentation charge: PSQ
     Using radial grid of  929 points,  2 beta functions with: 
                l(1) =   0
                l(2) =   0
     Q(r) pseudized with 0 coefficients 


     PseudoPot. # 5 for O  read from file:
     ./pseudo/O.pbe-n-kjpaw_psl.1.0.0.UPF
     MD5 check sum: 54880130194cacfd11baed2e72b13d2a
     Pseudo is Projector augmented-wave + core cor, Zval =  6.0
     Generated using 'atomic' code by A. Dal Corso  v.7.2
     Shape of augmentation charge: PSQ
     Using radial grid of 1095 points,  4 beta functions with: 
                l(1) =   0
                l(2) =   0
                l(3) =   1
                l(4) =   1
     Q(r) pseudized with 0 coefficients 


     atomic species   valence    mass     pseudopotential
        Cl             7.00    35.45000     Cl( 1.00)
        C              4.00    12.01100     C ( 1.00)
        N              5.00    14.00700     N ( 1.00)
        H              1.00     1.00800     H ( 1.00)
        O              6.00    15.99900     O ( 1.00)

     No symmetry found



   Cartesian axes

     site n.     atom                  positions (alat units)
         1           Cl  tau(   1) = (   0.4500774   0.0701221   0.3145147  )
         2           Cl  tau(   2) = (   0.7393529   0.0701221   0.5528729  )
         3           Cl  tau(   3) = (  -0.2052074   0.1756959   0.7482086  )
         4           Cl  tau(   4) = (   0.3946377   0.1756959   0.1191791  )
         5           Cl  tau(   5) = (   0.2393529   0.1410254   0.5528729  )
         6           Cl  tau(   6) = (  -0.0499226   0.1410254   0.3145147  )
         7           Cl  tau(   7) = (   0.8946377   0.0354517   0.1191791  )
         8           Cl  tau(   8) = (   0.2947926   0.0354517   0.7482086  )
         9           Cl  tau(   9) = (   0.7272142   0.1542644   0.2113824  )
        10           Cl  tau(  10) = (   0.4622161   0.1542644   0.6560053  )
        11           Cl  tau(  11) = (   0.0719293   0.0486906   0.6450762  )
        12           Cl  tau(  12) = (   0.1175010   0.0486906   0.2223114  )
        13           Cl  tau(  13) = (  -0.0377839   0.0568831   0.6560053  )
        14           Cl  tau(  14) = (   0.2272142   0.0568831   0.2113824  )
        15           Cl  tau(  15) = (   0.6175010   0.1624569   0.2223114  )
        16           Cl  tau(  16) = (   0.5719293   0.1624569   0.6450762  )
        17           Cl  tau(  17) = (   0.8679033   0.0753374   0.2812071  )
        18           Cl  tau(  18) = (   0.3215270   0.0753374   0.5861806  )
        19           Cl  tau(  19) = (   0.2126184   0.1809112   0.7149009  )
        20           Cl  tau(  20) = (  -0.0231882   0.1809112   0.1524867  )
        21           Cl  tau(  21) = (  -0.1784730   0.1358101   0.5861806  )
        22           Cl  tau(  22) = (   0.3679033   0.1358101   0.2812071  )
        23           Cl  tau(  23) = (   0.4768118   0.0302363   0.1524867  )
        24           Cl  tau(  24) = (   0.7126184   0.0302363   0.7149009  )
        25           Cl  tau(  25) = (   0.4373027   0.1115281   0.4297906  )
        26           Cl  tau(  26) = (   0.7521276   0.1115281   0.4375971  )
        27           Cl  tau(  27) = (  -0.2179822   0.0059544   0.8634844  )
        28           Cl  tau(  28) = (   0.4074124   0.0059544   0.0039032  )
        29           Cl  tau(  29) = (   0.2521276   0.0996194   0.4375971  )
        30           Cl  tau(  30) = (  -0.0626973   0.0996194   0.4297906  )
        31           Cl  tau(  31) = (   0.9074124   0.2051932   0.0039032  )
        32           Cl  tau(  32) = (   0.2820178   0.2051932   0.8634844  )
        33           Cl  tau(  33) = (   0.3524079   0.1592897   0.3989983  )
        34           Cl  tau(  34) = (  -0.1629777   0.1592897   0.4683893  )
        35           Cl  tau(  35) = (   0.6971231   0.0537159   0.8326921  )
        36           Cl  tau(  36) = (   0.4923072   0.0537159   0.0346955  )
        37           Cl  tau(  37) = (   0.3370223   0.0518578   0.4683893  )
        38           Cl  tau(  38) = (   0.8524079   0.0518578   0.3989983  )
        39           Cl  tau(  39) = (  -0.0076928   0.1574316   0.0346955  )
        40           Cl  tau(  40) = (   0.1971231   0.1574316   0.8326921  )
        41           Cl  tau(  41) = (   0.3580828   0.0354517   0.3444396  )
        42           Cl  tau(  42) = (  -0.1686525   0.0354517   0.5229480  )
        43           Cl  tau(  43) = (   0.7027979   0.1410254   0.7781334  )
        44           Cl  tau(  44) = (   0.4866324   0.1410254   0.0892542  )
        45           Cl  tau(  45) = (   0.3313475   0.1756959   0.5229480  )
        46           Cl  tau(  46) = (   0.8580828   0.1756959   0.3444396  )
        47           Cl  tau(  47) = (  -0.0133676   0.0701221   0.0892542  )
        48           Cl  tau(  48) = (   0.2027979   0.0701221   0.7781334  )
        49           Cl  tau(  49) = (   0.8960102   0.2051298   0.2264749  )
        50           Cl  tau(  50) = (   0.2934200   0.2051298   0.6409127  )
        51           Cl  tau(  51) = (   0.2407254   0.0995561   0.6601687  )
        52           Cl  tau(  52) = (  -0.0512951   0.0995561   0.2072189  )
        53           Cl  tau(  53) = (  -0.2065800   0.0060177   0.6409127  )
        54           Cl  tau(  54) = (   0.3960102   0.0060177   0.2264749  )
        55           Cl  tau(  55) = (   0.4487049   0.1115915   0.2072189  )
        56           Cl  tau(  56) = (   0.7407254   0.1115915   0.6601687  )
        57           Cl  tau(  57) = (   0.8256548   0.1418067   0.1875292  )
        58           Cl  tau(  58) = (   0.3637754   0.1418067   0.6798584  )
        59           Cl  tau(  59) = (   0.1703700   0.0362329   0.6212230  )
        60           Cl  tau(  60) = (   0.0190603   0.0362329   0.2461646  )
        61           Cl  tau(  61) = (  -0.1362246   0.0693409   0.6798584  )
        62           Cl  tau(  62) = (   0.3256548   0.0693409   0.1875292  )
        63           Cl  tau(  63) = (   0.5190603   0.1749146   0.2461646  )
        64           Cl  tau(  64) = (   0.6703700   0.1749146   0.6212230  )
        65           C   tau(  65) = (   0.5309397   0.0112119   0.3520726  )
        66           C   tau(  66) = (   0.6584905   0.0112119   0.5153150  )
        67           C   tau(  67) = (  -0.1243451   0.1167857   0.7857664  )
        68           C   tau(  68) = (   0.3137754   0.1167857   0.0816212  )
        69           C   tau(  69) = (   0.1584905   0.1999356   0.5153150  )
        70           C   tau(  70) = (   0.0309397   0.1999356   0.3520726  )
        71           C   tau(  71) = (   0.8137754   0.0943618   0.0816212  )
        72           C   tau(  72) = (   0.3756549   0.0943618   0.7857664  )
        73           C   tau(  73) = (   0.6212025   0.0134501   0.4027281  )
        74           C   tau(  74) = (   0.5682278   0.0134501   0.4646595  )
        75           C   tau(  75) = (  -0.0340824   0.1190239   0.8364219  )
        76           C   tau(  76) = (   0.2235127   0.1190239   0.0309657  )
        77           C   tau(  77) = (   0.0682278   0.1976974   0.4646595  )
        78           C   tau(  78) = (   0.1212025   0.1976974   0.4027281  )
        79           C   tau(  79) = (   0.7235127   0.0921237   0.0309657  )
        80           C   tau(  80) = (   0.4659176   0.0921237   0.8364219  )
        81           C   tau(  81) = (   0.4404143   0.1575372   0.3968298  )
        82           C   tau(  82) = (   0.7490159   0.1575372   0.4705578  )
        83           C   tau(  83) = (  -0.2148705   0.0519634   0.8305236  )
        84           C   tau(  84) = (   0.4043008   0.0519634   0.0368640  )
        85           C   tau(  85) = (   0.2490159   0.0536104   0.4705578  )
        86           C   tau(  86) = (  -0.0595857   0.0536104   0.3968298  )
        87           C   tau(  87) = (   0.9043008   0.1591841   0.0368640  )
        88           C   tau(  88) = (   0.2851295   0.1591841   0.8305236  )
        89           C   tau(  89) = (   0.5256771   0.1592475   0.3941409  )
        90           C   tau(  90) = (   0.6637532   0.1592475   0.4732467  )
        91           C   tau(  91) = (  -0.1296078   0.0536737   0.8278347  )
        92           C   tau(  92) = (   0.3190380   0.0536737   0.0395529  )
        93           C   tau(  93) = (   0.1637532   0.0519001   0.4732467  )
        94           C   tau(  94) = (   0.0256771   0.0519001   0.3941409  )
        95           C   tau(  95) = (   0.8190380   0.1574738   0.0395529  )
        96           C   tau(  96) = (   0.3703922   0.1574738   0.8278347  )
        97           C   tau(  97) = (   0.4051105   0.0071368   0.3585780  )
        98           C   tau(  98) = (   0.7843198   0.0071368   0.5088096  )
        99           C   tau(  99) = (  -0.2501744   0.1127106   0.7922718  )
       100           C   tau( 100) = (   0.4396047   0.1127106   0.0751158  )
       101           C   tau( 101) = (   0.2843198   0.2040108   0.5088096  )
       102           C   tau( 102) = (  -0.0948895   0.2040108   0.3585780  )
       103           C   tau( 103) = (   0.9396047   0.0984370   0.0751158  )
       104           C   tau( 104) = (   0.2498256   0.0984370   0.7922718  )
       105           C   tau( 105) = (   0.8293458   0.0398435   0.2621245  )
       106           C   tau( 106) = (   0.3600844   0.0398435   0.6052631  )
       107           C   tau( 107) = (   0.1740610   0.1454173   0.6958183  )
       108           C   tau( 108) = (   0.0153693   0.1454173   0.1715693  )
       109           C   tau( 109) = (  -0.1399156   0.1713040   0.6052631  )
       110           C   tau( 110) = (   0.3293458   0.1713040   0.2621245  )
       111           C   tau( 111) = (   0.5153693   0.0657302   0.1715693  )
       112           C   tau( 112) = (   0.6740610   0.0657302   0.6958183  )
       113           C   tau( 113) = (   0.4807729   0.1739856   0.3838190  )
       114           C   tau( 114) = (   0.7086574   0.1739856   0.4835686  )
       115           C   tau( 115) = (  -0.1745120   0.0684118   0.8175128  )
       116           C   tau( 116) = (   0.3639422   0.0684118   0.0498748  )
       117           C   tau( 117) = (   0.2086574   0.0371620   0.4835686  )
       118           C   tau( 118) = (  -0.0192271   0.0371620   0.3838190  )
       119           C   tau( 119) = (   0.8639422   0.1427357   0.0498748  )
       120           C   tau( 120) = (   0.3254880   0.1427357   0.8175128  )
       121           N   tau( 121) = (   0.6991207   0.1375415   0.3322962  )
       122           N   tau( 122) = (   0.4903095   0.1375415   0.5350914  )
       123           N   tau( 123) = (   0.0438359   0.0319677   0.7659900  )
       124           N   tau( 124) = (   0.1455944   0.0319677   0.1013976  )
       125           N   tau( 125) = (  -0.0096905   0.0736060   0.5350914  )
       126           N   tau( 126) = (   0.1991207   0.0736060   0.3322962  )
       127           N   tau( 127) = (   0.6455944   0.1791798   0.1013976  )
       128           N   tau( 128) = (   0.5438359   0.1791798   0.7659900  )
       129           H   tau( 129) = (   0.7331255   0.1425913   0.3325287  )
       130           H   tau( 130) = (   0.4563048   0.1425913   0.5348590  )
       131           H   tau( 131) = (   0.0778406   0.0370175   0.7662225  )
       132           H   tau( 132) = (   0.1115896   0.0370175   0.1011652  )
       133           H   tau( 133) = (  -0.0436952   0.0685562   0.5348590  )
       134           H   tau( 134) = (   0.2331255   0.0685562   0.3325287  )
       135           H   tau( 135) = (   0.6115896   0.1741300   0.1011652  )
       136           H   tau( 136) = (   0.5778406   0.1741300   0.7662225  )
       137           C   tau( 137) = (   0.4827999   0.0005490   0.3594454  )
       138           C   tau( 138) = (   0.7066304   0.0005490   0.5079422  )
       139           C   tau( 139) = (  -0.1724850   0.1061228   0.7931392  )
       140           C   tau( 140) = (   0.3619152   0.1061228   0.0742484  )
       141           C   tau( 141) = (   0.2066304   0.2105986   0.5079422  )
       142           C   tau( 142) = (  -0.0172001   0.2105986   0.3594454  )
       143           C   tau( 143) = (   0.8619152   0.1050248   0.0742484  )
       144           C   tau( 144) = (   0.3275150   0.1050248   0.7931392  )
       145           O   tau( 145) = (   0.5465487   0.0407937   0.3308216  )
       146           O   tau( 146) = (   0.6428816   0.0407937   0.5365660  )
       147           O   tau( 147) = (  -0.1087362   0.1463675   0.7645154  )
       148           O   tau( 148) = (   0.2981664   0.1463675   0.1028722  )
       149           O   tau( 149) = (   0.1428816   0.1703538   0.5365660  )
       150           O   tau( 150) = (   0.0465487   0.1703538   0.3308216  )
       151           O   tau( 151) = (   0.7981664   0.0647801   0.1028722  )
       152           O   tau( 152) = (   0.3912638   0.0647801   0.7645154  )
       153           N   tau( 153) = (   0.5536308   0.1890404   0.3733236  )
       154           N   tau( 154) = (   0.6357995   0.1890404   0.4940640  )
       155           N   tau( 155) = (  -0.1016541   0.0834666   0.8070174  )
       156           N   tau( 156) = (   0.2910843   0.0834666   0.0603702  )
       157           N   tau( 157) = (   0.1357995   0.0221071   0.4940640  )
       158           N   tau( 158) = (   0.0536308   0.0221071   0.3733236  )
       159           N   tau( 159) = (   0.7910843   0.1276809   0.0603702  )
       160           N   tau( 160) = (   0.3983459   0.1276809   0.8070174  )
       161           C   tau( 161) = (   0.5947151   0.0405614   0.4336938  )
       162           C   tau( 162) = (   0.2500000   0.1461352   0.0000000  )
       163           C   tau( 163) = (   0.0947151   0.1705861   0.4336938  )
       164           C   tau( 164) = (   0.7500000   0.0650123   0.0000000  )
       165           H   tau( 165) = (   0.5735747   0.0608557   0.4156669  )
       166           H   tau( 166) = (   0.6158556   0.0608557   0.4517207  )
       167           H   tau( 167) = (  -0.0817102   0.1664294   0.8493607  )
       168           H   tau( 168) = (   0.2711404   0.1664294   0.0180269  )
       169           H   tau( 169) = (   0.1158556   0.1502919   0.4517207  )
       170           H   tau( 170) = (   0.0735747   0.1502919   0.4156669  )
       171           H   tau( 171) = (   0.7711404   0.0447181   0.0180269  )
       172           H   tau( 172) = (   0.4182898   0.0447181   0.8493607  )
       173           C   tau( 173) = (   0.7531205   0.0177997   0.2535374  )
       174           C   tau( 174) = (   0.4363098   0.0177997   0.6138502  )
       175           C   tau( 175) = (   0.0978356   0.1233735   0.6872312  )
       176           C   tau( 176) = (   0.0915947   0.1233735   0.1801564  )
       177           C   tau( 177) = (  -0.0636902   0.1933478   0.6138502  )
       178           C   tau( 178) = (   0.2531205   0.1933478   0.2535374  )
       179           C   tau( 179) = (   0.5915947   0.0877740   0.1801564  )
       180           C   tau( 180) = (   0.5978356   0.0877740   0.6872312  )
       181           O   tau( 181) = (   0.5387613   0.1278498   0.4151317  )
       182           O   tau( 182) = (   0.6506689   0.1278498   0.4522559  )
       183           O   tau( 183) = (  -0.1165235   0.0222761   0.8488255  )
       184           O   tau( 184) = (   0.3059538   0.0222761   0.0185621  )
       185           O   tau( 185) = (   0.1506689   0.0832977   0.4522559  )
       186           O   tau( 186) = (   0.0387613   0.0832977   0.4151317  )
       187           O   tau( 187) = (   0.8059538   0.1888715   0.0185621  )
       188           O   tau( 188) = (   0.3834765   0.1888715   0.8488255  )
       189           C   tau( 189) = (   0.7077582   0.0329179   0.2676758  )
       190           C   tau( 190) = (   0.4816721   0.0329179   0.5997118  )
       191           C   tau( 191) = (   0.0524733   0.1384917   0.7013696  )
       192           C   tau( 192) = (   0.1369570   0.1384917   0.1660180  )
       193           C   tau( 193) = (  -0.0183279   0.1782296   0.5997118  )
       194           C   tau( 194) = (   0.2077582   0.1782296   0.2676758  )
       195           C   tau( 195) = (   0.6369570   0.0726559   0.1660180  )
       196           C   tau( 196) = (   0.5524733   0.0726559   0.7013696  )
       197           C   tau( 197) = (   0.6098077   0.1233735   0.3292603  )
       198           C   tau( 198) = (   0.5796225   0.1233735   0.5381273  )
       199           C   tau( 199) = (  -0.0454771   0.0177997   0.7629541  )
       200           C   tau( 200) = (   0.2349074   0.0177997   0.1044335  )
       201           C   tau( 201) = (   0.0796225   0.0877740   0.5381273  )
       202           C   tau( 202) = (   0.1098077   0.0877740   0.3292603  )
       203           C   tau( 203) = (   0.7349074   0.1933478   0.1044335  )
       204           C   tau( 204) = (   0.4545229   0.1933478   0.7629541  )
       205           H   tau( 205) = (   0.5758296   0.1186634   0.3269453  )
       206           H   tau( 206) = (   0.6136006   0.1186634   0.5404423  )
       207           H   tau( 207) = (  -0.0794552   0.0130897   0.7606391  )
       208           H   tau( 208) = (   0.2688855   0.0130897   0.1067485  )
       209           H   tau( 209) = (   0.1136006   0.0924841   0.5404423  )
       210           H   tau( 210) = (   0.0758296   0.0924841   0.3269453  )
       211           H   tau( 211) = (   0.7688855   0.1980579   0.1067485  )
       212           H   tau( 212) = (   0.4205448   0.1980579   0.7606391  )
       213           C   tau( 213) = (   0.6677038   0.0198901   0.3976972  )
       214           C   tau( 214) = (   0.5217265   0.0198901   0.4696904  )
       215           C   tau( 215) = (   0.0124189   0.1254639   0.8313910  )
       216           C   tau( 216) = (   0.1770114   0.1254639   0.0359966  )
       217           C   tau( 217) = (   0.0217265   0.1912574   0.4696904  )
       218           C   tau( 218) = (   0.1677038   0.1912574   0.3976972  )
       219           C   tau( 219) = (   0.6770114   0.0856837   0.0359966  )
       220           C   tau( 220) = (   0.5124189   0.0856837   0.8313910  )
       221           H   tau( 221) = (   0.6825437   0.0468055   0.4131758  )
       222           H   tau( 222) = (   0.5068866   0.0468055   0.4542119  )
       223           H   tau( 223) = (   0.0272588   0.1523793   0.8468696  )
       224           H   tau( 224) = (   0.1621715   0.1523793   0.0205181  )
       225           H   tau( 225) = (   0.0068866   0.1643420   0.4542119  )
       226           H   tau( 226) = (   0.1825437   0.1643420   0.4131758  )
       227           H   tau( 227) = (   0.6621715   0.0587683   0.0205181  )
       228           H   tau( 228) = (   0.5272588   0.0587683   0.8468696  )
       229           O   tau( 229) = (   0.7817365   0.1146953   0.3113054  )
       230           O   tau( 230) = (   0.4076937   0.1146953   0.5560822  )
       231           O   tau( 231) = (   0.1264517   0.0091216   0.7449992  )
       232           O   tau( 232) = (   0.0629786   0.0091216   0.1223884  )
       233           O   tau( 233) = (  -0.0923063   0.0964522   0.5560822  )
       234           O   tau( 234) = (   0.2817365   0.0964522   0.3113054  )
       235           O   tau( 235) = (   0.5629786   0.2020260   0.1223884  )
       236           O   tau( 236) = (   0.6264517   0.2020260   0.7449992  )
       237           C   tau( 237) = (   0.4012313   0.1801300   0.3847731  )
       238           C   tau( 238) = (   0.7881990   0.1801300   0.4826145  )
       239           C   tau( 239) = (  -0.2540536   0.0745562   0.8184670  )
       240           C   tau( 240) = (   0.4434839   0.0745562   0.0489207  )
       241           C   tau( 241) = (   0.2881990   0.0310176   0.4826145  )
       242           C   tau( 242) = (  -0.0987687   0.0310176   0.3847731  )
       243           C   tau( 243) = (   0.9434839   0.1365913   0.0489207  )
       244           C   tau( 244) = (   0.2459464   0.1365913   0.8184670  )
       245           C   tau( 245) = (   0.6372160   0.0940240   0.3105248  )
       246           C   tau( 246) = (   0.5522142   0.0940240   0.5568628  )
       247           C   tau( 247) = (  -0.0180688   0.1995978   0.7442186  )
       248           C   tau( 248) = (   0.2074991   0.1995978   0.1231690  )
       249           C   tau( 249) = (   0.0522142   0.1171235   0.5568628  )
       250           C   tau( 250) = (   0.1372160   0.1171235   0.3105248  )
       251           C   tau( 251) = (   0.7074991   0.0115498   0.1231690  )
       252           C   tau( 252) = (   0.4819312   0.0115498   0.7442186  )
       253           H   tau( 253) = (   0.6246968   0.0657913   0.2953125  )
       254           H   tau( 254) = (   0.5647335   0.0657913   0.5720751  )
       255           H   tau( 255) = (  -0.0305881   0.1713650   0.7290063  )
       256           H   tau( 256) = (   0.2200183   0.1713650   0.1383813  )
       257           H   tau( 257) = (   0.0647335   0.1453563   0.5720751  )
       258           H   tau( 258) = (   0.1246968   0.1453563   0.2953125  )
       259           H   tau( 259) = (   0.7200183   0.0397825   0.1383813  )
       260           H   tau( 260) = (   0.4694119   0.0397825   0.7290063  )
       261           C   tau( 261) = (   0.6736602   0.1672289   0.3528533  )
       262           C   tau( 262) = (   0.5157700   0.1672289   0.5145343  )
       263           C   tau( 263) = (   0.0183754   0.0616551   0.7865471  )
       264           C   tau( 264) = (   0.1710549   0.0616551   0.0808405  )
       265           C   tau( 265) = (   0.0157700   0.0439187   0.5145343  )
       266           C   tau( 266) = (   0.1736602   0.0439187   0.3528533  )
       267           C   tau( 267) = (   0.6710549   0.1494925   0.0808405  )
       268           C   tau( 268) = (   0.5183754   0.1494925   0.7865471  )
       269           C   tau( 269) = (   0.4463001   0.0235430   0.3454805  )
       270           C   tau( 270) = (   0.7431302   0.0235430   0.5219071  )
       271           C   tau( 271) = (  -0.2089848   0.1291167   0.7791743  )
       272           C   tau( 272) = (   0.3984151   0.1291167   0.0882133  )
       273           C   tau( 273) = (   0.2431302   0.1876046   0.5219071  )
       274           C   tau( 274) = (  -0.0536999   0.1876046   0.3454805  )
       275           C   tau( 275) = (   0.8984151   0.0820308   0.0882133  )
       276           C   tau( 276) = (   0.2910152   0.0820308   0.7791743  )
       277           C   tau( 277) = (   0.7645164   0.1922498   0.2292505  )
       278           C   tau( 278) = (   0.4249138   0.1922498   0.6381371  )
       279           C   tau( 279) = (   0.1092316   0.0866761   0.6629444  )
       280           C   tau( 280) = (   0.0801987   0.0866761   0.2044433  )
       281           C   tau( 281) = (  -0.0750862   0.0188977   0.6381371  )
       282           C   tau( 282) = (   0.2645164   0.0188977   0.2292505  )
       283           C   tau( 283) = (   0.5801987   0.1244715   0.2044433  )
       284           C   tau( 284) = (   0.6092316   0.1244715   0.6629444  )
       285           C   tau( 285) = (   0.6922202   0.2041163   0.3741910  )
       286           C   tau( 286) = (   0.4972101   0.2041163   0.4931966  )
       287           C   tau( 287) = (   0.0369354   0.0985426   0.8078848  )
       288           C   tau( 288) = (   0.1524949   0.0985426   0.0595028  )
       289           C   tau( 289) = (  -0.0027899   0.0070312   0.4931966  )
       290           C   tau( 290) = (   0.1922202   0.0070312   0.3741910  )
       291           C   tau( 291) = (   0.6524949   0.1126050   0.0595028  )
       292           C   tau( 292) = (   0.5369354   0.1126050   0.8078848  )
       293           H   tau( 293) = (   0.7259044   0.2101714   0.3713529  )
       294           H   tau( 294) = (   0.4635259   0.2101714   0.4960347  )
       295           H   tau( 295) = (   0.0706195   0.1045976   0.8050467  )
       296           H   tau( 296) = (   0.1188107   0.1045976   0.0623409  )
       297           H   tau( 297) = (  -0.0364741   0.0009761   0.4960347  )
       298           H   tau( 298) = (   0.2259044   0.0009761   0.3713529  )
       299           H   tau( 299) = (   0.6188107   0.1065499   0.0623409  )
       300           H   tau( 300) = (   0.5706195   0.1065499   0.8050467  )
       301           C   tau( 301) = (   0.7854923   0.0467692   0.2689769  )
       302           C   tau( 302) = (   0.4039379   0.0467692   0.5984107  )
       303           C   tau( 303) = (   0.1302075   0.1523430   0.7026707  )
       304           C   tau( 304) = (   0.0592228   0.1523430   0.1647169  )
       305           C   tau( 305) = (  -0.0960621   0.1643784   0.5984107  )
       306           C   tau( 306) = (   0.2854923   0.1643784   0.2689769  )
       307           C   tau( 307) = (   0.5592228   0.0588046   0.1647169  )
       308           C   tau( 308) = (   0.6302075   0.0588046   0.7026707  )
       309           C   tau( 309) = (   0.8097395   0.1851975   0.2199695  )
       310           C   tau( 310) = (   0.3796908   0.1851975   0.6474181  )
       311           C   tau( 311) = (   0.1544547   0.0796237   0.6536633  )
       312           C   tau( 312) = (   0.0349756   0.0796237   0.2137243  )
       313           C   tau( 313) = (  -0.1203092   0.0259500   0.6474181  )
       314           C   tau( 314) = (   0.3097395   0.0259500   0.2199695  )
       315           C   tau( 315) = (   0.5349756   0.1315238   0.2137243  )
       316           C   tau( 316) = (   0.6544547   0.1315238   0.6536633  )
       317           O   tau( 317) = (   0.6732949   0.0151393   0.2589152  )
       318           O   tau( 318) = (   0.5161353   0.0151393   0.6084724  )
       319           O   tau( 319) = (   0.0180101   0.1207130   0.6926090  )
       320           O   tau( 320) = (   0.1714202   0.1207130   0.1747786  )
       321           O   tau( 321) = (   0.0161353   0.1960083   0.6084724  )
       322           O   tau( 322) = (   0.1732949   0.1960083   0.2589152  )
       323           O   tau( 323) = (   0.6714202   0.0904345   0.1747786  )
       324           O   tau( 324) = (   0.5180101   0.0904345   0.6926090  )
       325           C   tau( 325) = (   0.6011953   0.1912997   0.3770534  )
       326           C   tau( 326) = (   0.5882349   0.1912997   0.4903342  )
       327           C   tau( 327) = (  -0.0540895   0.0857259   0.8107472  )
       328           C   tau( 328) = (   0.2435198   0.0857259   0.0566404  )
       329           C   tau( 329) = (   0.0882349   0.0198479   0.4903342  )
       330           C   tau( 330) = (   0.1011953   0.0198479   0.3770534  )
       331           C   tau( 331) = (   0.7435198   0.1254216   0.0566404  )
       332           C   tau( 332) = (   0.4459105   0.1254216   0.8107472  )
       333           C   tau( 333) = (   0.7621827   0.0836355   0.2927433  )
       334           C   tau( 334) = (   0.4272476   0.0836355   0.5746443  )
       335           C   tau( 335) = (   0.1068979   0.1892093   0.7264371  )
       336           C   tau( 336) = (   0.0825324   0.1892093   0.1409505  )
       337           C   tau( 337) = (  -0.0727524   0.1275120   0.5746443  )
       338           C   tau( 338) = (   0.2621827   0.1275120   0.2927433  )
       339           C   tau( 339) = (   0.5825324   0.0219382   0.1409505  )
       340           C   tau( 340) = (   0.6068979   0.0219382   0.7264371  )
       341           C   tau( 341) = (   0.6836744   0.1017309   0.3114789  )
       342           C   tau( 342) = (   0.5057559   0.1017309   0.5559087  )
       343           C   tau( 343) = (   0.0283895   0.2073047   0.7451727  )
       344           C   tau( 344) = (   0.1610407   0.2073047   0.1222149  )
       345           C   tau( 345) = (   0.0057559   0.1094167   0.5559087  )
       346           C   tau( 346) = (   0.1836744   0.1094167   0.3114789  )
       347           C   tau( 347) = (   0.6610407   0.0038429   0.1222149  )
       348           C   tau( 348) = (   0.5283895   0.0038429   0.7451727  )
       349           C   tau( 349) = (   0.7157970   0.0740917   0.2907483  )
       350           C   tau( 350) = (   0.4736332   0.0740917   0.5766393  )
       351           C   tau( 351) = (   0.0605122   0.1796654   0.7244421  )
       352           C   tau( 352) = (   0.1289181   0.1796654   0.1429455  )
       353           C   tau( 353) = (  -0.0263668   0.1370559   0.5766393  )
       354           C   tau( 354) = (   0.2157970   0.1370559   0.2907483  )
       355           C   tau( 355) = (   0.6289181   0.0314821   0.1429455  )
       356           C   tau( 356) = (   0.5605122   0.0314821   0.7244421  )
       357           C   tau( 357) = (   0.6268534   0.1614434   0.3525931  )
       358           C   tau( 358) = (   0.5625769   0.1614434   0.5147946  )
       359           C   tau( 359) = (  -0.0284315   0.0558696   0.7862869  )
       360           C   tau( 360) = (   0.2178617   0.0558696   0.0811007  )
       361           C   tau( 361) = (   0.0625769   0.0497041   0.5147946  )
       362           C   tau( 362) = (   0.1268534   0.0497041   0.3525931  )
       363           C   tau( 363) = (   0.7178617   0.1552779   0.0811007  )
       364           C   tau( 364) = (   0.4715685   0.1552779   0.7862869  )
       365           C   tau( 365) = (   0.8412493   0.0025971   0.2355825  )
       366           C   tau( 366) = (   0.3481810   0.0025971   0.6318051  )
       367           C   tau( 367) = (   0.1859644   0.1081709   0.6692763  )
       368           C   tau( 368) = (   0.0034659   0.1081709   0.1981113  )
       369           C   tau( 369) = (  -0.1518190   0.2085504   0.6318051  )
       370           C   tau( 370) = (   0.3412493   0.2085504   0.2355825  )
       371           C   tau( 371) = (   0.5034659   0.1029767   0.1981113  )
       372           C   tau( 372) = (   0.6859644   0.1029767   0.6692763  )

     --------------------------------------------
     DFT-D3 Dispersion Correction (3-body terms):
     --------------------------------------------
       Reference C6 values for interpolation: 

         atom   Coordination number   C6
         H          0.912             6.05
         H          0.000            15.18
         C          0.000            98.23
         C          0.987            86.49
         C          1.998            58.72
         C          2.999            51.56
         C          3.984            36.41
         N          0.000            50.54
         N          0.994            44.25
         N          2.014            39.35
         N          2.990            31.16
         O          0.000            31.01
         O          0.993            25.63
         O          1.989            20.74
         Cl         0.000           184.69
         Cl         0.997           180.80

       Values used:

         atom   Coordination number  R0_AB[au]  C6      C8
         Cl         1.359            2.933    180.80   7543.66
         Cl         1.359            2.933    180.80   7543.66
         Cl         1.359            2.933    180.80   7543.66
         Cl         1.359            2.933    180.80   7543.66
         Cl         1.359            2.933    180.80   7543.66
         Cl         1.359            2.933    180.80   7543.66
         Cl         1.359            2.933    180.80   7543.66
         Cl         1.359            2.933    180.80   7543.66
         Cl         1.374            2.933    180.80   7543.64
         Cl         1.374            2.933    180.80   7543.64
         Cl         1.374            2.933    180.80   7543.64
         Cl         1.374            2.933    180.80   7543.64
         Cl         1.374            2.933    180.80   7543.64
         Cl         1.374            2.933    180.80   7543.64
         Cl         1.374            2.933    180.80   7543.64
         Cl         1.374            2.933    180.80   7543.64
         Cl         1.398            2.933    180.80   7543.62
         Cl         1.398            2.933    180.80   7543.62
         Cl         1.398            2.933    180.80   7543.62
         Cl         1.398            2.933    180.80   7543.62
         Cl         1.398            2.933    180.80   7543.62
         Cl         1.398            2.933    180.80   7543.62
         Cl         1.398            2.933    180.80   7543.62
         Cl         1.398            2.933    180.80   7543.62
         Cl         1.314            2.933    180.80   7543.74
         Cl         1.314            2.933    180.80   7543.74
         Cl         1.314            2.933    180.80   7543.74
         Cl         1.314            2.933    180.80   7543.74
         Cl         1.314            2.933    180.80   7543.74
         Cl         1.314            2.933    180.80   7543.74
         Cl         1.314            2.933    180.80   7543.74
         Cl         1.314            2.933    180.80   7543.74
         Cl         1.400            2.933    180.80   7543.62
         Cl         1.400            2.933    180.80   7543.62
         Cl         1.400            2.933    180.80   7543.62
         Cl         1.400            2.933    180.80   7543.62
         Cl         1.400            2.933    180.80   7543.62
         Cl         1.400            2.933    180.80   7543.62
         Cl         1.400            2.933    180.80   7543.62
         Cl         1.400            2.933    180.80   7543.62
         Cl         1.389            2.933    180.80   7543.63
         Cl         1.389            2.933    180.80   7543.63
         Cl         1.389            2.933    180.80   7543.63
         Cl         1.389            2.933    180.80   7543.63
         Cl         1.389            2.933    180.80   7543.63
         Cl         1.389            2.933    180.80   7543.63
         Cl         1.389            2.933    180.80   7543.63
         Cl         1.389            2.933    180.80   7543.63
         Cl         1.451            2.933    180.80   7543.58
         Cl         1.451            2.933    180.80   7543.58
         Cl         1.451            2.933    180.80   7543.58
         Cl         1.451            2.933    180.80   7543.58
         Cl         1.451            2.933    180.80   7543.58
         Cl         1.451            2.933    180.80   7543.58
         Cl         1.451            2.933    180.80   7543.58
         Cl         1.451            2.933    180.80   7543.58
         Cl         1.389            2.933    180.80   7543.63
         Cl         1.389            2.933    180.80   7543.63
         Cl         1.389            2.933    180.80   7543.63
         Cl         1.389            2.933    180.80   7543.63
         Cl         1.389            2.933    180.80   7543.63
         Cl         1.389            2.933    180.80   7543.63
         Cl         1.389            2.933    180.80   7543.63
         Cl         1.389            2.933    180.80   7543.63
         C          3.283            2.750     48.87   1413.48
         C          3.283            2.750     48.87   1413.48
         C          3.283            2.750     48.87   1413.48
         C          3.283            2.750     48.87   1413.48
         C          3.283            2.750     48.87   1413.48
         C          3.283            2.750     48.87   1413.48
         C          3.283            2.750     48.87   1413.48
         C          3.283            2.750     48.87   1413.48
         C          3.222            2.750     49.79   1440.11
         C          3.222            2.750     49.79   1440.11
         C          3.222            2.750     49.79   1440.11
         C          3.222            2.750     49.79   1440.11
         C          3.222            2.750     49.79   1440.11
         C          3.222            2.750     49.79   1440.11
         C          3.222            2.750     49.79   1440.11
         C          3.222            2.750     49.79   1440.11
         C          3.266            2.750     49.17   1422.14
         C          3.266            2.750     49.17   1422.14
         C          3.266            2.750     49.17   1422.14
         C          3.266            2.750     49.17   1422.14
         C          3.266            2.750     49.17   1422.14
         C          3.266            2.750     49.17   1422.14
         C          3.266            2.750     49.17   1422.14
         C          3.266            2.750     49.17   1422.14
         C          3.279            2.750     48.94   1415.53
         C          3.279            2.750     48.94   1415.53
         C          3.279            2.750     48.94   1415.53
         C          3.279            2.750     48.94   1415.53
         C          3.279            2.750     48.94   1415.53
         C          3.279            2.750     48.94   1415.53
         C          3.279            2.750     48.94   1415.53
         C          3.279            2.750     48.94   1415.53
         C          3.324            2.750     48.08   1390.42
         C          3.324            2.750     48.08   1390.42
         C          3.324            2.750     48.08   1390.42
         C          3.324            2.750     48.08   1390.42
         C          3.324            2.750     48.08   1390.42
         C          3.324            2.750     48.08   1390.42
         C          3.324            2.750     48.08   1390.42
         C          3.324            2.750     48.08   1390.42
         C          3.243            2.750     49.52   1432.08
         C          3.243            2.750     49.52   1432.08
         C          3.243            2.750     49.52   1432.08
         C          3.243            2.750     49.52   1432.08
         C          3.243            2.750     49.52   1432.08
         C          3.243            2.750     49.52   1432.08
         C          3.243            2.750     49.52   1432.08
         C          3.243            2.750     49.52   1432.08
         C          3.414            2.750     45.82   1325.15
         C          3.414            2.750     45.82   1325.15
         C          3.414            2.750     45.82   1325.15
         C          3.414            2.750     45.82   1325.15
         C          3.414            2.750     45.82   1325.15
         C          3.414            2.750     45.82   1325.15
         C          3.414            2.750     45.82   1325.15
         C          3.414            2.750     45.82   1325.15
         N          3.217            2.478     31.19    688.12
         N          3.217            2.478     31.19    688.12
         N          3.217            2.478     31.19    688.12
         N          3.217            2.478     31.19    688.12
         N          3.217            2.478     31.19    688.12
         N          3.217            2.478     31.19    688.12
         N          3.217            2.478     31.19    688.12
         N          3.217            2.478     31.19    688.12
         H          1.022            2.062      6.16     74.49
         H          1.022            2.062      6.16     74.49
         H          1.022            2.062      6.16     74.49
         H          1.022            2.062      6.16     74.49
         H          1.022            2.062      6.16     74.49
         H          1.022            2.062      6.16     74.49
         H          1.022            2.062      6.16     74.49
         H          1.022            2.062      6.16     74.49
         C          3.440            2.750     45.06   1303.29
         C          3.440            2.750     45.06   1303.29
         C          3.440            2.750     45.06   1303.29
         C          3.440            2.750     45.06   1303.29
         C          3.440            2.750     45.06   1303.29
         C          3.440            2.750     45.06   1303.29
         C          3.440            2.750     45.06   1303.29
         C          3.440            2.750     45.06   1303.29
         O          1.066            2.345     25.51    514.88
         O          1.066            2.345     25.51    514.88
         O          1.066            2.345     25.51    514.88
         O          1.066            2.345     25.51    514.88
         O          1.066            2.345     25.51    514.88
         O          1.066            2.345     25.51    514.88
         O          1.066            2.345     25.51    514.88
         O          1.066            2.345     25.51    514.88
         N          3.287            2.478     31.18    687.86
         N          3.287            2.478     31.18    687.86
         N          3.287            2.478     31.18    687.86
         N          3.287            2.478     31.18    687.86
         N          3.287            2.478     31.18    687.86
         N          3.287            2.478     31.18    687.86
         N          3.287            2.478     31.18    687.86
         N          3.287            2.478     31.18    687.86
         C          4.139            2.750     36.49   1055.47
         C          4.139            2.750     36.49   1055.47
         C          4.139            2.750     36.49   1055.47
         C          4.139            2.750     36.49   1055.47
         H          1.016            2.062      6.17     74.56
         H          1.016            2.062      6.17     74.56
         H          1.016            2.062      6.17     74.56
         H          1.016            2.062      6.17     74.56
         H          1.016            2.062      6.17     74.56
         H          1.016            2.062      6.17     74.56
         H          1.016            2.062      6.17     74.56
         H          1.016            2.062      6.17     74.56
         C          3.398            2.750     46.25   1337.76
         C          3.398            2.750     46.25   1337.76
         C          3.398            2.750     46.25   1337.76
         C          3.398            2.750     46.25   1337.76
         C          3.398            2.750     46.25   1337.76
         C          3.398            2.750     46.25   1337.76
         C          3.398            2.750     46.25   1337.76
         C          3.398            2.750     46.25   1337.76
         O          1.069            2.345     25.51    514.79
         O          1.069            2.345     25.51    514.79
         O          1.069            2.345     25.51    514.79
         O          1.069            2.345     25.51    514.79
         O          1.069            2.345     25.51    514.79
         O          1.069            2.345     25.51    514.79
         O          1.069            2.345     25.51    514.79
         O          1.069            2.345     25.51    514.79
         C          3.194            2.750     50.13   1449.76
         C          3.194            2.750     50.13   1449.76
         C          3.194            2.750     50.13   1449.76
         C          3.194            2.750     50.13   1449.76
         C          3.194            2.750     50.13   1449.76
         C          3.194            2.750     50.13   1449.76
         C          3.194            2.750     50.13   1449.76
         C          3.194            2.750     50.13   1449.76
         C          3.171            2.750     50.35   1456.14
         C          3.171            2.750     50.35   1456.14
         C          3.171            2.750     50.35   1456.14
         C          3.171            2.750     50.35   1456.14
         C          3.171            2.750     50.35   1456.14
         C          3.171            2.750     50.35   1456.14
         C          3.171            2.750     50.35   1456.14
         C          3.171            2.750     50.35   1456.14
         H          1.013            2.062      6.17     74.59
         H          1.013            2.062      6.17     74.59
         H          1.013            2.062      6.17     74.59
         H          1.013            2.062      6.17     74.59
         H          1.013            2.062      6.17     74.59
         H          1.013            2.062      6.17     74.59
         H          1.013            2.062      6.17     74.59
         H          1.013            2.062      6.17     74.59
         C          3.184            2.750     50.23   1452.62
         C          3.184            2.750     50.23   1452.62
         C          3.184            2.750     50.23   1452.62
         C          3.184            2.750     50.23   1452.62
         C          3.184            2.750     50.23   1452.62
         C          3.184            2.750     50.23   1452.62
         C          3.184            2.750     50.23   1452.62
         C          3.184            2.750     50.23   1452.62
         H          1.014            2.062      6.17     74.57
         H          1.014            2.062      6.17     74.57
         H          1.014            2.062      6.17     74.57
         H          1.014            2.062      6.17     74.57
         H          1.014            2.062      6.17     74.57
         H          1.014            2.062      6.17     74.57
         H          1.014            2.062      6.17     74.57
         H          1.014            2.062      6.17     74.57
         O          1.079            2.345     25.49    514.41
         O          1.079            2.345     25.49    514.41
         O          1.079            2.345     25.49    514.41
         O          1.079            2.345     25.49    514.41
         O          1.079            2.345     25.49    514.41
         O          1.079            2.345     25.49    514.41
         O          1.079            2.345     25.49    514.41
         O          1.079            2.345     25.49    514.41
         C          3.292            2.750     48.72   1408.96
         C          3.292            2.750     48.72   1408.96
         C          3.292            2.750     48.72   1408.96
         C          3.292            2.750     48.72   1408.96
         C          3.292            2.750     48.72   1408.96
         C          3.292            2.750     48.72   1408.96
         C          3.292            2.750     48.72   1408.96
         C          3.292            2.750     48.72   1408.96
         C          3.163            2.750     50.43   1458.38
         C          3.163            2.750     50.43   1458.38
         C          3.163            2.750     50.43   1458.38
         C          3.163            2.750     50.43   1458.38
         C          3.163            2.750     50.43   1458.38
         C          3.163            2.750     50.43   1458.38
         C          3.163            2.750     50.43   1458.38
         C          3.163            2.750     50.43   1458.38
         H          1.012            2.062      6.17     74.59
         H          1.012            2.062      6.17     74.59
         H          1.012            2.062      6.17     74.59
         H          1.012            2.062      6.17     74.59
         H          1.012            2.062      6.17     74.59
         H          1.012            2.062      6.17     74.59
         H          1.012            2.062      6.17     74.59
         H          1.012            2.062      6.17     74.59
         C          3.280            2.750     48.92   1414.89
         C          3.280            2.750     48.92   1414.89
         C          3.280            2.750     48.92   1414.89
         C          3.280            2.750     48.92   1414.89
         C          3.280            2.750     48.92   1414.89
         C          3.280            2.750     48.92   1414.89
         C          3.280            2.750     48.92   1414.89
         C          3.280            2.750     48.92   1414.89
         C          3.232            2.750     49.66   1436.28
         C          3.232            2.750     49.66   1436.28
         C          3.232            2.750     49.66   1436.28
         C          3.232            2.750     49.66   1436.28
         C          3.232            2.750     49.66   1436.28
         C          3.232            2.750     49.66   1436.28
         C          3.232            2.750     49.66   1436.28
         C          3.232            2.750     49.66   1436.28
         C          3.231            2.750     49.68   1436.98
         C          3.231            2.750     49.68   1436.98
         C          3.231            2.750     49.68   1436.98
         C          3.231            2.750     49.68   1436.98
         C          3.231            2.750     49.68   1436.98
         C          3.231            2.750     49.68   1436.98
         C          3.231            2.750     49.68   1436.98
         C          3.231            2.750     49.68   1436.98
         C          3.181            2.750     50.25   1453.37
         C          3.181            2.750     50.25   1453.37
         C          3.181            2.750     50.25   1453.37
         C          3.181            2.750     50.25   1453.37
         C          3.181            2.750     50.25   1453.37
         C          3.181            2.750     50.25   1453.37
         C          3.181            2.750     50.25   1453.37
         C          3.181            2.750     50.25   1453.37
         H          1.014            2.062      6.17     74.58
         H          1.014            2.062      6.17     74.58
         H          1.014            2.062      6.17     74.58
         H          1.014            2.062      6.17     74.58
         H          1.014            2.062      6.17     74.58
         H          1.014            2.062      6.17     74.58
         H          1.014            2.062      6.17     74.58
         H          1.014            2.062      6.17     74.58
         C          3.395            2.750     46.34   1340.32
         C          3.395            2.750     46.34   1340.32
         C          3.395            2.750     46.34   1340.32
         C          3.395            2.750     46.34   1340.32
         C          3.395            2.750     46.34   1340.32
         C          3.395            2.750     46.34   1340.32
         C          3.395            2.750     46.34   1340.32
         C          3.395            2.750     46.34   1340.32
         C          3.313            2.750     48.31   1397.11
         C          3.313            2.750     48.31   1397.11
         C          3.313            2.750     48.31   1397.11
         C          3.313            2.750     48.31   1397.11
         C          3.313            2.750     48.31   1397.11
         C          3.313            2.750     48.31   1397.11
         C          3.313            2.750     48.31   1397.11
         C          3.313            2.750     48.31   1397.11
         O          1.085            2.345     25.48    514.18
         O          1.085            2.345     25.48    514.18
         O          1.085            2.345     25.48    514.18
         O          1.085            2.345     25.48    514.18
         O          1.085            2.345     25.48    514.18
         O          1.085            2.345     25.48    514.18
         O          1.085            2.345     25.48    514.18
         O          1.085            2.345     25.48    514.18
         C          3.271            2.750     49.08   1419.36
         C          3.271            2.750     49.08   1419.36
         C          3.271            2.750     49.08   1419.36
         C          3.271            2.750     49.08   1419.36
         C          3.271            2.750     49.08   1419.36
         C          3.271            2.750     49.08   1419.36
         C          3.271            2.750     49.08   1419.36
         C          3.271            2.750     49.08   1419.36
         C          3.235            2.750     49.62   1435.23
         C          3.235            2.750     49.62   1435.23
         C          3.235            2.750     49.62   1435.23
         C          3.235            2.750     49.62   1435.23
         C          3.235            2.750     49.62   1435.23
         C          3.235            2.750     49.62   1435.23
         C          3.235            2.750     49.62   1435.23
         C          3.235            2.750     49.62   1435.23
         C          3.228            2.750     49.72   1437.89
         C          3.228            2.750     49.72   1437.89
         C          3.228            2.750     49.72   1437.89
         C          3.228            2.750     49.72   1437.89
         C          3.228            2.750     49.72   1437.89
         C          3.228            2.750     49.72   1437.89
         C          3.228            2.750     49.72   1437.89
         C          3.228            2.750     49.72   1437.89
         C          3.294            2.750     48.67   1407.59
         C          3.294            2.750     48.67   1407.59
         C          3.294            2.750     48.67   1407.59
         C          3.294            2.750     48.67   1407.59
         C          3.294            2.750     48.67   1407.59
         C          3.294            2.750     48.67   1407.59
         C          3.294            2.750     48.67   1407.59
         C          3.294            2.750     48.67   1407.59
         C          3.255            2.750     49.34   1427.09
         C          3.255            2.750     49.34   1427.09
         C          3.255            2.750     49.34   1427.09
         C          3.255            2.750     49.34   1427.09
         C          3.255            2.750     49.34   1427.09
         C          3.255            2.750     49.34   1427.09
         C          3.255            2.750     49.34   1427.09
         C          3.255            2.750     49.34   1427.09
         C          3.321            2.750     48.14   1392.25
         C          3.321            2.750     48.14   1392.25
         C          3.321            2.750     48.14   1392.25
         C          3.321            2.750     48.14   1392.25
         C          3.321            2.750     48.14   1392.25
         C          3.321            2.750     48.14   1392.25
         C          3.321            2.750     48.14   1392.25
         C          3.321            2.750     48.14   1392.25

         Molecular C6 ( Ry / a.u.^6 ) =   7310658.90


     number of k points=     8  Gaussian smearing, width (Ry)=  0.0100
                       cart. coord. in units 2pi/alat
        k(    1) = (   0.0000000   0.0000000   0.0000000), wk =   0.2500000
        k(    2) = (   0.0000000   0.0000000  -0.5764436), wk =   0.2500000
        k(    3) = (   0.0000000  -2.3680124   0.0000000), wk =   0.2500000
        k(    4) = (   0.0000000  -2.3680124  -0.5764436), wk =   0.2500000
        k(    5) = (  -0.5000000   0.0000000  -0.1790259), wk =   0.2500000
        k(    6) = (  -0.5000000   0.0000000  -0.7554695), wk =   0.2500000
        k(    7) = (  -0.5000000  -2.3680124  -0.1790259), wk =   0.2500000
        k(    8) = (  -0.5000000  -2.3680124  -0.7554695), wk =   0.2500000

     Dense  grid:  4737327 G-vectors     FFT dimensions: ( 375,  80, 360)

     Smooth grid:  1023457 G-vectors     FFT dimensions: ( 225,  48, 216)

     Estimated max dynamical RAM per process >       1.32 GB

     Estimated total dynamical RAM >      84.68 GB

     Atomic positions and unit cell read from directory:
     /scratch/calc/bqoutdir/pwscf.save/
     Atomic positions from file used, from input discarded
 

     Check: negative core charge=   -0.000004

     The initial density is read from file :
     /scratch/calc/bqoutdir/pwscf.save/charge-density

     Cannot read wfcs: file not found
     Starting wfcs are 1344 randomized atomic wfcs
     Checking if some PAW data can be deallocated... 

     total cpu time spent up to now is       72.7 secs

     Self-consistent Calculation

     iteration #  1     ecut=    36.00 Ry     beta= 0.20
     PPCG style diagonalization
     ethr =  1.00E-05,  avg # of iterations = 16.0

     Threshold (ethr) on eigenvalues was too large:
     Diagonalizing with lowered threshold

     PPCG style diagonalization
     ethr =  7.43E-07,  avg # of iterations =  5.7

     total cpu time spent up to now is     1640.4 secs

     total energy              =  -10828.31883994 Ry
     estimated scf accuracy    <       0.01199630 Ry

     iteration #  2     ecut=    36.00 Ry     beta= 0.20
     PPCG style diagonalization
     ethr =  7.42E-07,  avg # of iterations =  8.7

     total cpu time spent up to now is     2248.7 secs

     total energy              =  -10828.31735507 Ry
     estimated scf accuracy    <       0.00398005 Ry

     iteration #  3     ecut=    36.00 Ry     beta= 0.20
     PPCG style diagonalization
     ethr =  2.46E-07,  avg # of iterations =  9.0

     total cpu time spent up to now is     2878.0 secs

     total energy              =  -10828.31759773 Ry
     estimated scf accuracy    <       0.00046191 Ry

     iteration #  4     ecut=    36.00 Ry     beta= 0.20
     PPCG style diagonalization
     ethr =  2.86E-08,  avg # of iterations =  8.2

     total cpu time spent up to now is     3449.6 secs

     total energy              =  -10828.31763031 Ry
     estimated scf accuracy    <       0.00004512 Ry

     iteration #  5     ecut=    36.00 Ry     beta= 0.20
     PPCG style diagonalization
     ethr =  2.79E-09,  avg # of iterations =  8.0

     total cpu time spent up to now is     4009.1 secs

     total energy              =  -10828.31763200 Ry
     estimated scf accuracy    <       0.00000799 Ry

     iteration #  6     ecut=    36.00 Ry     beta= 0.20
     PPCG style diagonalization
     ethr =  4.95E-10,  avg # of iterations =  7.9

     total cpu time spent up to now is     4574.2 secs

     total energy              =  -10828.31763221 Ry
     estimated scf accuracy    <       0.00000196 Ry

     iteration #  7     ecut=    36.00 Ry     beta= 0.20
     PPCG style diagonalization
     ethr =  1.21E-10,  avg # of iterations =  7.9

     total cpu time spent up to now is     5134.7 secs

     End of self-consistent calculation

          k = 0.0000 0.0000 0.0000 (127953 PWs)   bands (ev):

   -19.7775 -19.7774 -19.7774 -19.7774 -19.7635 -19.7634 -19.7634 -19.7634
   -19.2745 -19.2745 -19.2745 -19.2744 -19.2709 -19.2708 -19.2708 -19.2708
   -18.3863 -18.3863 -18.3863 -18.3863 -18.3831 -18.3830 -18.3830 -18.3830
   -18.0639 -18.0639 -18.0638 -18.0638 -18.0306 -18.0306 -18.0306 -18.0305
   -17.3835 -17.3834 -17.3834 -17.3833 -17.3832 -17.3832 -17.3831 -17.3831
   -17.0899 -17.0899 -17.0893 -17.0893 -17.0624 -17.0623 -17.0622 -17.0622
   -16.5173 -16.5168 -16.5113 -16.5108 -16.4994 -16.4988 -16.4924 -16.4919
   -15.9589 -15.9588 -15.9579 -15.9577 -15.9349 -15.9348 -15.9336 -15.9335
   -15.4547 -15.4546 -15.4540 -15.4539 -15.4482 -15.4481 -15.4475 -15.4474
   -15.0243 -15.0241 -15.0057 -15.0052 -14.9973 -14.9969 -14.9818 -14.9817
   -14.8490 -14.8487 -14.8428 -14.8427 -14.8254 -14.8251 -14.8172 -14.8168
   -14.5737 -14.5734 -14.5725 -14.5715 -14.4505 -14.4447 -14.4447 -14.4437
   -14.4329 -14.4265 -14.4250 -14.4213 -14.4059 -14.4012 -14.3965 -14.3960
   -14.2103 -14.2099 -14.2096 -14.2089 -14.1956 -14.1947 -14.1941 -14.1939
   -13.8187 -13.8163 -13.8056 -13.8023 -13.8004 -13.7968 -13.7876 -13.7804
   -13.7459 -13.7404 -13.7249 -13.7202 -13.7132 -13.7106 -13.7095 -13.7062
   -13.6093 -13.5928 -13.5921 -13.5756 -13.5555 -13.5529 -13.5430 -13.5404
   -13.0575 -13.0568 -13.0450 -13.0445 -13.0346 -13.0324 -13.0150 -13.0087
   -12.8959 -12.8931 -12.8893 -12.8876 -12.5217 -12.5021 -12.4990 -12.4827
   -12.2995 -12.2847 -12.2797 -12.2779 -12.2455 -12.2411 -12.2314 -12.2205
   -12.0880 -12.0802 -12.0788 -12.0462 -11.8148 -11.8077 -11.7936 -11.7826
   -11.2996 -11.2992 -11.2954 -11.2884 -11.2835 -11.2835 -11.2747 -11.2746
   -11.2655 -11.2623 -11.2609 -11.2573 -11.0749 -11.0747 -11.0670 -11.0668
   -10.7861 -10.7847 -10.7793 -10.7785 -10.5364 -10.5363 -10.5169 -10.5131
   -10.4891 -10.4852 -10.4634 -10.4632 -10.3936 -10.3932 -10.3836 -10.3784
    -9.8873  -9.8825  -9.8825  -9.8725  -9.5205  -9.5204  -9.5182  -9.5172
    -9.5170  -9.5169  -9.5132  -9.5123  -9.3468  -9.3434  -9.3368  -9.3330
    -9.2509  -9.2495  -9.2489  -9.2467  -9.0398  -9.0366  -9.0361  -9.0348
    -8.9138  -8.9124  -8.9120  -8.9111  -8.8207  -8.8199  -8.8184  -8.8181
    -8.4407  -8.4390  -8.4281  -8.4278  -8.4174  -8.4160  -8.4133  -8.4125
    -8.2862  -8.2823  -8.2820  -8.2808  -8.1399  -8.1393  -8.1391  -8.1389
    -8.1366  -8.1361  -8.1358  -8.1347  -8.0593  -8.0589  -8.0571  -8.0526
    -8.0469  -8.0454  -8.0453  -8.0422  -7.5798  -7.5739  -7.5663  -7.5476
    -7.3827  -7.3740  -7.3732  -7.3588  -7.1364  -7.1208  -7.1156  -7.1121
    -7.0964  -7.0913  -7.0765  -7.0608  -6.6825  -6.6691  -6.6638  -6.6566
    -6.6193  -6.6017  -6.6016  -6.5927  -6.3841  -6.3529  -6.3453  -6.3324
    -6.3240  -6.2998  -6.2922  -6.2604  -6.1742  -6.1337  -6.1290  -6.1025
    -6.0933  -6.0726  -6.0537  -6.0401  -6.0123  -5.9954  -5.9922  -5.9855
    -5.9551  -5.9507  -5.9496  -5.9400  -5.8265  -5.8250  -5.8147  -5.8114
    -5.7924  -5.7851  -5.7773  -5.7762  -5.6448  -5.6428  -5.6252  -5.6247
    -5.6010  -5.6008  -5.5739  -5.5731  -5.4206  -5.3864  -5.3859  -5.3729
    -5.3571  -5.3534  -5.3281  -5.3053  -5.0633  -5.0619  -5.0617  -5.0314
    -5.0270  -5.0171  -5.0102  -5.0012  -4.9882  -4.9783  -4.9435  -4.9390
    -4.9256  -4.9208  -4.9021  -4.8988  -4.8258  -4.8144  -4.8034  -4.7736
    -4.6394  -4.6385  -4.6198  -4.6174  -4.6053  -4.5852  -4.5778  -4.5755
    -4.5420  -4.5234  -4.5020  -4.4718  -4.4639  -4.4600  -4.4550  -4.4471
    -4.4253  -4.4237  -4.4200  -4.4082  -4.3793  -4.3781  -4.3712  -4.3686
    -4.3536  -4.3506  -4.3449  -4.3230  -4.2961  -4.2588  -4.2542  -4.2452
    -4.2326  -4.2318  -4.2110  -4.1729  -4.1716  -4.1698  -4.1303  -4.1116
    -4.1112  -4.1057  -4.1046  -4.0746  -3.9309  -3.8949  -3.8891  -3.8787
    -3.8694  -3.8534  -3.8413  -3.8371  -3.8111  -3.8027  -3.7966  -3.7847
    -3.7814  -3.7671  -3.7646  -3.7631  -3.7585  -3.7537  -3.7472  -3.7142
    -3.6975  -3.6920  -3.6907  -3.6818  -3.6500  -3.6498  -3.6478  -3.6394
    -3.6242  -3.6149  -3.6118  -3.6109  -3.6080  -3.5920  -3.5907  -3.5798
    -3.5754  -3.5681  -3.5617  -3.5580  -3.5359  -3.5304  -3.5279  -3.5149
    -3.4942  -3.4912  -3.4898  -3.4597  -3.4426  -3.4368  -3.4279  -3.4111
    -3.4045  -3.4012  -3.3943  -3.3903  -3.3636  -3.3559  -3.3527  -3.3503
    -3.3142  -3.3091  -3.3021  -3.2917  -3.2813  -3.2777  -3.2619  -3.2503
    -3.2466  -3.2463  -3.2201  -3.2133  -3.2018  -3.1956  -3.1907  -3.1840
    -3.1531  -3.1415  -3.1331  -3.1321  -3.1279  -3.1163  -3.0729  -3.0582
    -3.0522  -3.0479  -3.0473  -3.0249  -2.9969  -2.9888  -2.9797  -2.9649
    -2.9572  -2.9321  -2.9321  -2.9046  -2.8819  -2.8810  -2.8706  -2.8584
    -2.8443  -2.8383  -2.8247  -2.7929  -2.7856  -2.7742  -2.7704  -2.7678
    -2.7666  -2.7464  -2.7327  -2.7070  -2.6866  -2.6781  -2.6675  -2.6639
    -2.6473  -2.6215  -2.6042  -2.5873  -2.5508  -2.5359  -2.5220  -2.5130
    -2.4649  -2.4638  -2.4408  -2.4399  -2.4123  -2.4094  -2.4030  -2.4026
    -2.3904  -2.3879  -2.3870  -2.3806  -2.3694  -2.3408  -2.3367  -2.3299
    -2.3274  -2.3180  -2.2991  -2.2874  -2.2080  -2.2044  -2.2013  -2.1943
    -2.1820  -2.1694  -2.1631  -2.1592  -2.1316  -2.1157  -2.1099  -2.0827
    -1.9677  -1.9588  -1.9566  -1.9532  -1.9253  -1.9078  -1.8953  -1.8831
    -1.8541  -1.8496  -1.8408  -1.8361  -1.7527  -1.7287  -1.7168  -1.6753
    -1.6598  -1.6393  -1.5998  -1.5780  -1.5380  -1.5203  -1.5200  -1.5004
    -1.4914  -1.4829  -1.4596  -1.4486  -1.4466  -1.4409  -1.4216  -1.4177
    -1.4177  -1.4048  -1.4023  -1.3839  -1.3672  -1.3640  -1.3478  -1.3256
    -1.3235  -1.2950  -1.2804  -1.2706  -1.2683  -1.2489  -1.2233  -1.2044
    -1.1970  -1.1907  -1.1880  -1.1829  -1.1590  -1.1584  -1.1444  -1.1362
    -1.1116  -1.1067  -1.0819  -1.0500  -0.9844  -0.9762  -0.9709  -0.9479
    -0.9468  -0.9431  -0.9416  -0.9379  -0.9319  -0.9243  -0.9217  -0.9188
    -0.8887  -0.8762  -0.8746  -0.8709  -0.8674  -0.8584  -0.8265  -0.8264
    -0.7869  -0.7760  -0.7684  -0.7613  -0.7558  -0.7500  -0.7459  -0.7347
    -0.6673  -0.6532  -0.6477  -0.6441  -0.6223  -0.6047  -0.6024  -0.5687
    -0.5672  -0.5587  -0.5515  -0.5144  -0.5122  -0.5022  -0.4782  -0.4770
    -0.4752  -0.4562  -0.4455  -0.4404  -0.4299  -0.4296  -0.4284  -0.4256
    -0.4024  -0.3983  -0.3893  -0.3790  -0.3570  -0.3474  -0.3460  -0.3371
    -0.3346  -0.3344  -0.3302  -0.3040  -0.2310  -0.2144  -0.2092  -0.2027
    -0.0274  -0.0186  -0.0132  -0.0088  -0.0073   0.0083   0.0099   0.0183
     0.0211   0.0263   0.0280   0.0508   0.0620   0.0767   0.0816   0.0930
     0.1025   0.1152   0.1305   0.1333   0.1557   0.1677   0.1786   0.1879
     0.1965   0.2212   0.2238   0.2304   0.2585   0.2665   0.2672   0.2747
     0.2981   0.3088   0.3102   0.3106   0.3284   0.3308   0.3771   0.3847
     0.5254   0.5284   0.5307   0.5347   0.7181   0.7197   0.7210   0.7273
     0.7422   0.7483   0.7484   0.7660   0.7722   0.7735   0.7760   0.7844
     0.7933   0.7978   0.8385   0.8462   0.8781   0.8846   0.9287   0.9299
     0.9943   0.9949   1.0032   1.0034   1.0036   1.0050   1.0074   1.0179
     1.0189   1.0275   1.0432   1.0452   1.0491   1.0720   1.0769   1.0976
     1.2360   1.2431   1.2433   1.2480   1.2526   1.2536   1.2961   1.2995
     1.3067   1.3170   1.3181   1.3185   1.3354   1.3424   1.3518   1.3548
     1.3794   1.3803   1.3865   1.3888   1.3996   1.4073   1.4148   1.4202
     1.6244   1.6297   1.6404   1.6458   1.7225   1.7228   1.7292   1.7451
     2.0840   2.0851   2.0891   2.0902   2.1760   2.1761   2.1781   2.1792
     2.3517   2.3622   2.4018   2.4133   2.4190   2.4284   2.4576   2.4694
     3.8394   3.8396   3.8433   3.8473   3.8596   3.8603   3.8610   3.8620
     4.3746   4.3850   4.3932   4.3933   4.4767   4.4795   4.4905   4.4909
     4.5355   4.5415   4.5435   4.5538   4.5988   4.6026   4.6069   4.6209
     4.7073   4.7087   4.7148   4.7156   4.7796   4.7891   4.7915   4.7933
     5.3613   5.3908   5.4009   5.4080   5.4275   5.4343   5.4392   5.4488
     5.4704   5.4939   5.5120   5.5376   5.7794   5.7821   5.8077   5.8135
     5.8165   5.8554   5.8658   5.8680   6.0268   6.0278   6.0437   6.0670
     6.0690   6.0690   6.0989   6.1020   6.1779   6.1962   6.2151   6.2417
     6.2485   6.2560   6.2567   6.2637   6.2708   6.2747   6.2865   6.2984
     6.3100   6.3461   6.3601   6.3886   6.3994   6.4037   6.4337   6.4675
     6.6475   6.6506   6.6556   6.6575   6.6974   6.6980   6.7099   6.7177
     6.8704   6.8762   6.8820   6.8980   6.9356   6.9444   6.9470   6.9794
     7.0717   7.0900   7.1638   7.1695   7.3167   7.3260   7.3272   7.3813
     7.4480   7.4632   7.4651   7.4698   7.4725   7.4800   7.4906   7.5159
     7.5347   7.5369   7.5540   7.5749   7.5760   7.5977   7.6046   7.6271
     7.7321   7.7679   7.7692   7.7759   7.8054   7.8252   7.8287   7.8296
     7.8467   7.8535   7.8724   7.8815   7.8858   7.8884   7.8966   7.9065
     7.9332   7.9419   7.9681   7.9881   7.9901   8.0011   8.0356   8.0413
     8.0539   8.0558   8.0837   8.1678   8.2198   8.2366   8.2514   8.2732
     8.3001   8.3067   8.3140   8.3306   8.3319   8.3497   8.3624   8.4363
     8.4544   8.5070

          k = 0.0000 0.0000-0.5764 (127978 PWs)   bands (ev):

   -19.7774 -19.7774 -19.7774 -19.7774 -19.7634 -19.7634 -19.7634 -19.7634
   -19.2745 -19.2745 -19.2744 -19.2744 -19.2708 -19.2708 -19.2708 -19.2708
   -18.3863 -18.3863 -18.3863 -18.3863 -18.3830 -18.3830 -18.3830 -18.3830
   -18.0639 -18.0639 -18.0639 -18.0639 -18.0306 -18.0306 -18.0305 -18.0305
   -17.3835 -17.3835 -17.3834 -17.3834 -17.3831 -17.3831 -17.3831 -17.3831
   -17.0899 -17.0899 -17.0893 -17.0893 -17.0623 -17.0623 -17.0622 -17.0622
   -16.5171 -16.5171 -16.5110 -16.5110 -16.4991 -16.4991 -16.4921 -16.4921
   -15.9589 -15.9589 -15.9578 -15.9578 -15.9349 -15.9349 -15.9335 -15.9335
   -15.4544 -15.4544 -15.4542 -15.4542 -15.4478 -15.4478 -15.4477 -15.4477
   -15.0242 -15.0242 -15.0055 -15.0055 -14.9971 -14.9971 -14.9817 -14.9817
   -14.8489 -14.8489 -14.8428 -14.8428 -14.8253 -14.8253 -14.8170 -14.8170
   -14.5731 -14.5731 -14.5725 -14.5725 -14.4477 -14.4477 -14.4443 -14.4443
   -14.4280 -14.4280 -14.4259 -14.4259 -14.4003 -14.4003 -14.3984 -14.3984
   -14.2098 -14.2098 -14.2096 -14.2096 -14.1948 -14.1948 -14.1943 -14.1943
   -13.8176 -13.8176 -13.8035 -13.8035 -13.7994 -13.7994 -13.7835 -13.7835
   -13.7434 -13.7434 -13.7228 -13.7228 -13.7111 -13.7111 -13.7081 -13.7081
   -13.6020 -13.6020 -13.5852 -13.5852 -13.5483 -13.5483 -13.5453 -13.5453
   -13.0531 -13.0531 -13.0529 -13.0529 -13.0227 -13.0227 -13.0186 -13.0186
   -12.8928 -12.8928 -12.8902 -12.8902 -12.5029 -12.5029 -12.5006 -12.5006
   -12.2904 -12.2904 -12.2805 -12.2805 -12.2433 -12.2433 -12.2252 -12.2252
   -12.0794 -12.0794 -12.0681 -12.0681 -11.8007 -11.8007 -11.7977 -11.7977
   -11.2994 -11.2994 -11.2921 -11.2921 -11.2834 -11.2834 -11.2748 -11.2748
   -11.2616 -11.2616 -11.2612 -11.2612 -11.0748 -11.0748 -11.0669 -11.0669
   -10.7827 -10.7827 -10.7817 -10.7817 -10.5363 -10.5363 -10.5153 -10.5153
   -10.4869 -10.4869 -10.4633 -10.4633 -10.3886 -10.3886 -10.3859 -10.3859
    -9.8826  -9.8826  -9.8799  -9.8799  -9.5204  -9.5204  -9.5179  -9.5179
    -9.5168  -9.5168  -9.5128  -9.5128  -9.3451  -9.3451  -9.3349  -9.3349
    -9.2499  -9.2499  -9.2482  -9.2482  -9.0379  -9.0379  -9.0358  -9.0358
    -8.9129  -8.9129  -8.9117  -8.9117  -8.8203  -8.8203  -8.8183  -8.8183
    -8.4398  -8.4398  -8.4280  -8.4280  -8.4167  -8.4167  -8.4129  -8.4129
    -8.2843  -8.2843  -8.2814  -8.2814  -8.1394  -8.1394  -8.1391  -8.1391
    -8.1362  -8.1362  -8.1355  -8.1355  -8.0592  -8.0592  -8.0550  -8.0550
    -8.0452  -8.0452  -8.0445  -8.0445  -7.5732  -7.5732  -7.5614  -7.5614
    -7.3782  -7.3782  -7.3653  -7.3653  -7.1328  -7.1328  -7.1079  -7.1079
    -7.0919  -7.0919  -7.0724  -7.0724  -6.6744  -6.6744  -6.6633  -6.6633
    -6.6093  -6.6093  -6.5967  -6.5967  -6.3677  -6.3677  -6.3333  -6.3333
    -6.3252  -6.3252  -6.2691  -6.2691  -6.1589  -6.1589  -6.1197  -6.1197
    -6.0690  -6.0690  -6.0524  -6.0524  -6.0044  -6.0044  -5.9886  -5.9886
    -5.9503  -5.9503  -5.9466  -5.9466  -5.8257  -5.8257  -5.8132  -5.8132
    -5.7890  -5.7890  -5.7765  -5.7765  -5.6439  -5.6439  -5.6249  -5.6249
    -5.6009  -5.6009  -5.5734  -5.5734  -5.4055  -5.4055  -5.3806  -5.3806
    -5.3546  -5.3546  -5.3144  -5.3144  -5.0632  -5.0632  -5.0511  -5.0511
    -5.0119  -5.0119  -5.0029  -5.0029  -4.9924  -4.9924  -4.9437  -4.9437
    -4.9222  -4.9222  -4.8983  -4.8983  -4.8158  -4.8158  -4.7954  -4.7954
    -4.6216  -4.6216  -4.6159  -4.6159  -4.6103  -4.6103  -4.5736  -4.5736
    -4.5365  -4.5365  -4.4972  -4.4972  -4.4587  -4.4587  -4.4453  -4.4453
    -4.4286  -4.4286  -4.4146  -4.4146  -4.3770  -4.3770  -4.3702  -4.3702
    -4.3514  -4.3514  -4.3367  -4.3367  -4.2608  -4.2608  -4.2425  -4.2425
    -4.2343  -4.2343  -4.2283  -4.2283  -4.1441  -4.1441  -4.1246  -4.1246
    -4.1104  -4.1104  -4.0900  -4.0900  -3.9161  -3.9161  -3.8866  -3.8866
    -3.8564  -3.8564  -3.8406  -3.8406  -3.8067  -3.8067  -3.7957  -3.7957
    -3.7793  -3.7793  -3.7669  -3.7669  -3.7458  -3.7458  -3.7108  -3.7108
    -3.7010  -3.7010  -3.7002  -3.7002  -3.6562  -3.6562  -3.6316  -3.6316
    -3.6205  -3.6205  -3.6192  -3.6192  -3.5815  -3.5815  -3.5801  -3.5801
    -3.5746  -3.5746  -3.5528  -3.5528  -3.5429  -3.5429  -3.5278  -3.5278
    -3.4930  -3.4930  -3.4816  -3.4816  -3.4362  -3.4362  -3.4232  -3.4232
    -3.4069  -3.4069  -3.3929  -3.3929  -3.3565  -3.3565  -3.3537  -3.3537
    -3.3046  -3.3046  -3.2985  -3.2985  -3.2853  -3.2853  -3.2485  -3.2485
    -3.2375  -3.2375  -3.2340  -3.2340  -3.1963  -3.1963  -3.1950  -3.1950
    -3.1460  -3.1460  -3.1316  -3.1316  -3.0962  -3.0962  -3.0845  -3.0845
    -3.0427  -3.0427  -3.0300  -3.0300  -2.9780  -2.9780  -2.9706  -2.9706
    -2.9542  -2.9542  -2.9382  -2.9382  -2.8795  -2.8795  -2.8598  -2.8598
    -2.8495  -2.8495  -2.8255  -2.8255  -2.7821  -2.7821  -2.7690  -2.7690
    -2.7448  -2.7448  -2.7093  -2.7093  -2.6834  -2.6834  -2.6715  -2.6715
    -2.6123  -2.6123  -2.6080  -2.6080  -2.5388  -2.5388  -2.5234  -2.5234
    -2.4542  -2.4542  -2.4526  -2.4526  -2.4176  -2.4176  -2.4132  -2.4132
    -2.3859  -2.3859  -2.3741  -2.3741  -2.3347  -2.3347  -2.3293  -2.3293
    -2.3220  -2.3220  -2.3163  -2.3163  -2.2057  -2.2057  -2.1999  -2.1999
    -2.1719  -2.1719  -2.1643  -2.1643  -2.1219  -2.1219  -2.0946  -2.0946
    -1.9643  -1.9643  -1.9562  -1.9562  -1.9098  -1.9098  -1.8962  -1.8962
    -1.8515  -1.8515  -1.8376  -1.8376  -1.7368  -1.7368  -1.7108  -1.7108
    -1.6126  -1.6126  -1.6105  -1.6105  -1.5335  -1.5335  -1.5165  -1.5165
    -1.4809  -1.4809  -1.4725  -1.4725  -1.4373  -1.4373  -1.4124  -1.4124
    -1.4089  -1.4089  -1.3963  -1.3963  -1.3666  -1.3666  -1.3299  -1.3299
    -1.2930  -1.2930  -1.2773  -1.2773  -1.2669  -1.2669  -1.2247  -1.2247
    -1.2071  -1.2071  -1.1778  -1.1778  -1.1416  -1.1416  -1.1387  -1.1387
    -1.1043  -1.1043  -1.0871  -1.0871  -0.9770  -0.9770  -0.9540  -0.9540
    -0.9490  -0.9490  -0.9322  -0.9322  -0.9202  -0.9202  -0.9138  -0.9138
    -0.9084  -0.9084  -0.8807  -0.8807  -0.8422  -0.8422  -0.8359  -0.8359
    -0.7706  -0.7706  -0.7659  -0.7659  -0.7525  -0.7525  -0.7479  -0.7479
    -0.6561  -0.6561  -0.6486  -0.6486  -0.6156  -0.6156  -0.5921  -0.5921
    -0.5585  -0.5585  -0.5285  -0.5285  -0.5097  -0.5097  -0.4799  -0.4799
    -0.4574  -0.4574  -0.4378  -0.4378  -0.4366  -0.4366  -0.4297  -0.4297
    -0.4027  -0.4027  -0.3875  -0.3875  -0.3492  -0.3492  -0.3401  -0.3401
    -0.3291  -0.3291  -0.3213  -0.3213  -0.2199  -0.2199  -0.2087  -0.2087
    -0.0324  -0.0324  -0.0105  -0.0105   0.0075   0.0075   0.0193   0.0193
     0.0298   0.0298   0.0339   0.0339   0.0609   0.0609   0.0936   0.0936
     0.1127   0.1127   0.1151   0.1151   0.1724   0.1724   0.1928   0.1928
     0.2015   0.2015   0.2228   0.2228   0.2635   0.2635   0.2713   0.2713
     0.3039   0.3039   0.3097   0.3097   0.3299   0.3299   0.3810   0.3810
[...]

     total energy              =  -10828.31967578 Ry
     estimated scf accuracy    <       0.00000315 Ry

     iteration #  4     ecut=    36.00 Ry     beta= 0.20
     PPCG style diagonalization
     ethr =  1.95E-10,  avg # of iterations =  5.3

     total cpu time spent up to now is    30921.3 secs

     total energy              =  -10828.31967592 Ry
     estimated scf accuracy    <       0.00000067 Ry

     iteration #  5     ecut=    36.00 Ry     beta= 0.20
     PPCG style diagonalization
     ethr =  4.15E-11,  avg # of iterations =  7.0

     total cpu time spent up to now is    31576.2 secs

     total energy              =  -10828.31967597 Ry
     estimated scf accuracy    <       0.00000013 Ry

     iteration #  6     ecut=    36.00 Ry     beta= 0.20
     PPCG style diagonalization

===================================================================================
=   BAD TERMINATION OF ONE OF YOUR APPLICATION PROCESSES
=   RANK 0 PID 411870 RUNNING AT usagi2
=   KILLED BY SIGNAL: 9 (Killed)
===================================================================================

===================================================================================
=   BAD TERMINATION OF ONE OF YOUR APPLICATION PROCESSES
=   RANK 1 PID 411871 RUNNING AT usagi2
=   KILLED BY SIGNAL: 9 (Killed)
===================================================================================

===================================================================================
=   BAD TERMINATION OF ONE OF YOUR APPLICATION PROCESSES
=   RANK 2 PID 411872 RUNNING AT usagi2
=   KILLED BY SIGNAL: 9 (Killed)
===================================================================================

===================================================================================
=   BAD TERMINATION OF ONE OF YOUR APPLICATION PROCESSES
=   RANK 3 PID 411873 RUNNING AT usagi2
=   KILLED BY SIGNAL: 9 (Killed)
===================================================================================

===================================================================================
=   BAD TERMINATION OF ONE OF YOUR APPLICATION PROCESSES
=   RANK 4 PID 411874 RUNNING AT usagi2
=   KILLED BY SIGNAL: 9 (Killed)
===================================================================================

===================================================================================
=   BAD TERMINATION OF ONE OF YOUR APPLICATION PROCESSES
=   RANK 5 PID 411875 RUNNING AT usagi2
=   KILLED BY SIGNAL: 9 (Killed)
===================================================================================

===================================================================================
=   BAD TERMINATION OF ONE OF YOUR APPLICATION PROCESSES
=   RANK 6 PID 411876 RUNNING AT usagi2
=   KILLED BY SIGNAL: 9 (Killed)
===================================================================================

===================================================================================
=   BAD TERMINATION OF ONE OF YOUR APPLICATION PROCESSES
=   RANK 7 PID 411877 RUNNING AT usagi2
=   KILLED BY SIGNAL: 9 (Killed)
===================================================================================

===================================================================================
=   BAD TERMINATION OF ONE OF YOUR APPLICATION PROCESSES
=   RANK 8 PID 411878 RUNNING AT usagi2
=   KILLED BY SIGNAL: 9 (Killed)
===================================================================================

===================================================================================
=   BAD TERMINATION OF ONE OF YOUR APPLICATION PROCESSES
=   RANK 9 PID 411879 RUNNING AT usagi2
=   KILLED BY SIGNAL: 9 (Killed)
===================================================================================

===================================================================================
=   BAD TERMINATION OF ONE OF YOUR APPLICATION PROCESSES
=   RANK 10 PID 411880 RUNNING AT usagi2
=   KILLED BY SIGNAL: 9 (Killed)
===================================================================================

===================================================================================
=   BAD TERMINATION OF ONE OF YOUR APPLICATION PROCESSES
=   RANK 11 PID 411881 RUNNING AT usagi2
=   KILLED BY SIGNAL: 9 (Killed)
===================================================================================

===================================================================================
=   BAD TERMINATION OF ONE OF YOUR APPLICATION PROCESSES
=   RANK 12 PID 411882 RUNNING AT usagi2
=   KILLED BY SIGNAL: 9 (Killed)
===================================================================================

===================================================================================
=   BAD TERMINATION OF ONE OF YOUR APPLICATION PROCESSES
=   RANK 13 PID 411884 RUNNING AT usagi2
=   KILLED BY SIGNAL: 9 (Killed)
===================================================================================

===================================================================================
=   BAD TERMINATION OF ONE OF YOUR APPLICATION PROCESSES
=   RANK 14 PID 411885 RUNNING AT usagi2
=   KILLED BY SIGNAL: 9 (Killed)
===================================================================================

===================================================================================
=   BAD TERMINATION OF ONE OF YOUR APPLICATION PROCESSES
=   RANK 15 PID 411886 RUNNING AT usagi2
=   KILLED BY SIGNAL: 9 (Killed)
===================================================================================

===================================================================================
=   BAD TERMINATION OF ONE OF YOUR APPLICATION PROCESSES
=   RANK 16 PID 411887 RUNNING AT usagi2
=   KILLED BY SIGNAL: 9 (Killed)
===================================================================================

===================================================================================
=   BAD TERMINATION OF ONE OF YOUR APPLICATION PROCESSES
=   RANK 17 PID 411888 RUNNING AT usagi2
=   KILLED BY SIGNAL: 9 (Killed)
===================================================================================

===================================================================================
=   BAD TERMINATION OF ONE OF YOUR APPLICATION PROCESSES
=   RANK 18 PID 411889 RUNNING AT usagi2
=   KILLED BY SIGNAL: 9 (Killed)
===================================================================================

===================================================================================
=   BAD TERMINATION OF ONE OF YOUR APPLICATION PROCESSES
=   RANK 19 PID 411890 RUNNING AT usagi2
=   KILLED BY SIGNAL: 9 (Killed)
===================================================================================

===================================================================================
=   BAD TERMINATION OF ONE OF YOUR APPLICATION PROCESSES
=   RANK 20 PID 411891 RUNNING AT usagi2
=   KILLED BY SIGNAL: 9 (Killed)
===================================================================================

===================================================================================
=   BAD TERMINATION OF ONE OF YOUR APPLICATION PROCESSES
=   RANK 21 PID 411892 RUNNING AT usagi2
=   KILLED BY SIGNAL: 9 (Killed)
===================================================================================

===================================================================================
=   BAD TERMINATION OF ONE OF YOUR APPLICATION PROCESSES
=   RANK 22 PID 411893 RUNNING AT usagi2
=   KILLED BY SIGNAL: 9 (Killed)
===================================================================================

===================================================================================
=   BAD TERMINATION OF ONE OF YOUR APPLICATION PROCESSES
=   RANK 23 PID 411894 RUNNING AT usagi2
=   KILLED BY SIGNAL: 9 (Killed)
===================================================================================

===================================================================================
=   BAD TERMINATION OF ONE OF YOUR APPLICATION PROCESSES
=   RANK 24 PID 411895 RUNNING AT usagi2
=   KILLED BY SIGNAL: 9 (Killed)
===================================================================================

===================================================================================
=   BAD TERMINATION OF ONE OF YOUR APPLICATION PROCESSES
=   RANK 25 PID 411896 RUNNING AT usagi2
=   KILLED BY SIGNAL: 9 (Killed)
===================================================================================

===================================================================================
=   BAD TERMINATION OF ONE OF YOUR APPLICATION PROCESSES
=   RANK 26 PID 411897 RUNNING AT usagi2
=   KILLED BY SIGNAL: 9 (Killed)
===================================================================================

===================================================================================
=   BAD TERMINATION OF ONE OF YOUR APPLICATION PROCESSES
=   RANK 27 PID 411898 RUNNING AT usagi2
=   KILLED BY SIGNAL: 9 (Killed)
===================================================================================

===================================================================================
=   BAD TERMINATION OF ONE OF YOUR APPLICATION PROCESSES
=   RANK 28 PID 411899 RUNNING AT usagi2
=   KILLED BY SIGNAL: 9 (Killed)
===================================================================================

===================================================================================
=   BAD TERMINATION OF ONE OF YOUR APPLICATION PROCESSES
=   RANK 29 PID 411900 RUNNING AT usagi2
=   KILLED BY SIGNAL: 9 (Killed)
===================================================================================

===================================================================================
=   BAD TERMINATION OF ONE OF YOUR APPLICATION PROCESSES
=   RANK 30 PID 411901 RUNNING AT usagi2
=   KILLED BY SIGNAL: 9 (Killed)
===================================================================================

===================================================================================
=   BAD TERMINATION OF ONE OF YOUR APPLICATION PROCESSES
=   RANK 31 PID 411903 RUNNING AT usagi2
=   KILLED BY SIGNAL: 9 (Killed)
===================================================================================

===================================================================================
=   BAD TERMINATION OF ONE OF YOUR APPLICATION PROCESSES
=   RANK 32 PID 411904 RUNNING AT usagi2
=   KILLED BY SIGNAL: 9 (Killed)
===================================================================================

===================================================================================
=   BAD TERMINATION OF ONE OF YOUR APPLICATION PROCESSES
=   RANK 33 PID 411905 RUNNING AT usagi2
=   KILLED BY SIGNAL: 9 (Killed)
===================================================================================

===================================================================================
=   BAD TERMINATION OF ONE OF YOUR APPLICATION PROCESSES
=   RANK 34 PID 411906 RUNNING AT usagi2
=   KILLED BY SIGNAL: 9 (Killed)
===================================================================================

===================================================================================
=   BAD TERMINATION OF ONE OF YOUR APPLICATION PROCESSES
=   RANK 35 PID 411907 RUNNING AT usagi2
=   KILLED BY SIGNAL: 9 (Killed)
===================================================================================

===================================================================================
=   BAD TERMINATION OF ONE OF YOUR APPLICATION PROCESSES
=   RANK 36 PID 411908 RUNNING AT usagi2
=   KILLED BY SIGNAL: 9 (Killed)
===================================================================================

===================================================================================
=   BAD TERMINATION OF ONE OF YOUR APPLICATION PROCESSES
=   RANK 37 PID 411909 RUNNING AT usagi2
=   KILLED BY SIGNAL: 9 (Killed)
===================================================================================

===================================================================================
=   BAD TERMINATION OF ONE OF YOUR APPLICATION PROCESSES
=   RANK 38 PID 411910 RUNNING AT usagi2
=   KILLED BY SIGNAL: 9 (Killed)
===================================================================================

===================================================================================
=   BAD TERMINATION OF ONE OF YOUR APPLICATION PROCESSES
=   RANK 39 PID 411911 RUNNING AT usagi2
=   KILLED BY SIGNAL: 9 (Killed)
===================================================================================

===================================================================================
=   BAD TERMINATION OF ONE OF YOUR APPLICATION PROCESSES
=   RANK 40 PID 411912 RUNNING AT usagi2
=   KILLED BY SIGNAL: 9 (Killed)
===================================================================================

===================================================================================
=   BAD TERMINATION OF ONE OF YOUR APPLICATION PROCESSES
=   RANK 41 PID 411913 RUNNING AT usagi2
=   KILLED BY SIGNAL: 9 (Killed)
===================================================================================

===================================================================================
=   BAD TERMINATION OF ONE OF YOUR APPLICATION PROCESSES
=   RANK 42 PID 411914 RUNNING AT usagi2
=   KILLED BY SIGNAL: 9 (Killed)
===================================================================================

===================================================================================
=   BAD TERMINATION OF ONE OF YOUR APPLICATION PROCESSES
=   RANK 43 PID 411915 RUNNING AT usagi2
=   KILLED BY SIGNAL: 9 (Killed)
===================================================================================

===================================================================================
=   BAD TERMINATION OF ONE OF YOUR APPLICATION PROCESSES
=   RANK 44 PID 411916 RUNNING AT usagi2
=   KILLED BY SIGNAL: 9 (Killed)
===================================================================================

===================================================================================
=   BAD TERMINATION OF ONE OF YOUR APPLICATION PROCESSES
=   RANK 45 PID 411918 RUNNING AT usagi2
=   KILLED BY SIGNAL: 9 (Killed)
===================================================================================

===================================================================================
=   BAD TERMINATION OF ONE OF YOUR APPLICATION PROCESSES
=   RANK 46 PID 411919 RUNNING AT usagi2
=   KILLED BY SIGNAL: 9 (Killed)
===================================================================================

===================================================================================
=   BAD TERMINATION OF ONE OF YOUR APPLICATION PROCESSES
=   RANK 47 PID 411920 RUNNING AT usagi2
=   KILLED BY SIGNAL: 9 (Killed)
===================================================================================

===================================================================================
=   BAD TERMINATION OF ONE OF YOUR APPLICATION PROCESSES
=   RANK 48 PID 411921 RUNNING AT usagi2
=   KILLED BY SIGNAL: 9 (Killed)
===================================================================================

===================================================================================
=   BAD TERMINATION OF ONE OF YOUR APPLICATION PROCESSES
=   RANK 49 PID 411922 RUNNING AT usagi2
=   KILLED BY SIGNAL: 9 (Killed)
===================================================================================

===================================================================================
=   BAD TERMINATION OF ONE OF YOUR APPLICATION PROCESSES
=   RANK 50 PID 411923 RUNNING AT usagi2
=   KILLED BY SIGNAL: 9 (Killed)
===================================================================================

===================================================================================
=   BAD TERMINATION OF ONE OF YOUR APPLICATION PROCESSES
=   RANK 51 PID 411924 RUNNING AT usagi2
=   KILLED BY SIGNAL: 9 (Killed)
===================================================================================

===================================================================================
=   BAD TERMINATION OF ONE OF YOUR APPLICATION PROCESSES
=   RANK 52 PID 411925 RUNNING AT usagi2
=   KILLED BY SIGNAL: 9 (Killed)
===================================================================================

===================================================================================
=   BAD TERMINATION OF ONE OF YOUR APPLICATION PROCESSES
=   RANK 53 PID 411926 RUNNING AT usagi2
=   KILLED BY SIGNAL: 9 (Killed)
===================================================================================

===================================================================================
=   BAD TERMINATION OF ONE OF YOUR APPLICATION PROCESSES
=   RANK 54 PID 411927 RUNNING AT usagi2
=   KILLED BY SIGNAL: 9 (Killed)
===================================================================================

===================================================================================
=   BAD TERMINATION OF ONE OF YOUR APPLICATION PROCESSES
=   RANK 55 PID 411928 RUNNING AT usagi2
=   KILLED BY SIGNAL: 9 (Killed)
===================================================================================

===================================================================================
=   BAD TERMINATION OF ONE OF YOUR APPLICATION PROCESSES
=   RANK 56 PID 411929 RUNNING AT usagi2
=   KILLED BY SIGNAL: 9 (Killed)
===================================================================================

===================================================================================
=   BAD TERMINATION OF ONE OF YOUR APPLICATION PROCESSES
=   RANK 57 PID 411930 RUNNING AT usagi2
=   KILLED BY SIGNAL: 9 (Killed)
===================================================================================

===================================================================================
=   BAD TERMINATION OF ONE OF YOUR APPLICATION PROCESSES
=   RANK 58 PID 411931 RUNNING AT usagi2
=   KILLED BY SIGNAL: 9 (Killed)
===================================================================================

===================================================================================
=   BAD TERMINATION OF ONE OF YOUR APPLICATION PROCESSES
=   RANK 59 PID 411932 RUNNING AT usagi2
=   KILLED BY SIGNAL: 9 (Killed)
===================================================================================

===================================================================================
=   BAD TERMINATION OF ONE OF YOUR APPLICATION PROCESSES
=   RANK 60 PID 411934 RUNNING AT usagi2
=   KILLED BY SIGNAL: 9 (Killed)
===================================================================================

===================================================================================
=   BAD TERMINATION OF ONE OF YOUR APPLICATION PROCESSES
=   RANK 61 PID 411935 RUNNING AT usagi2
=   KILLED BY SIGNAL: 9 (Killed)
===================================================================================

===================================================================================
=   BAD TERMINATION OF ONE OF YOUR APPLICATION PROCESSES
=   RANK 62 PID 411936 RUNNING AT usagi2
=   KILLED BY SIGNAL: 9 (Killed)
===================================================================================

===================================================================================
=   BAD TERMINATION OF ONE OF YOUR APPLICATION PROCESSES
=   RANK 63 PID 411937 RUNNING AT usagi2
=   KILLED BY SIGNAL: 9 (Killed)
===================================================================================
