
     Program PWSCF v.7.2 starts on 11Mar2024 at  3:29:30 

     This program is part of the open-source Quantum ESPRESSO suite
     for quantum simulation of materials; please cite
         "P. Giannozzi et al., J. Phys.:Condens. Matter 21 395502 (2009);
         "P. Giannozzi et al., J. Phys.:Condens. Matter 29 465901 (2017);
         "P. Giannozzi et al., J. Chem. Phys. 152 154105 (2020);
          URL http://www.quantum-espresso.org", 
     in publications or presentations arising from this work. More details at
     http://www.quantum-espresso.org/quote

     Parallel version (MPI), running on    64 processors

     MPI processes distributed on     1 nodes
     1265563 MiB available memory on the printing compute node when the environment starts
 
     Waiting for input...
     Reading input from standard input
Warning: card &CELL ignored
Warning: card / ignored

     Current dimensions of program PWSCF are:
     Max number of different atomic species (ntypx) = 10
     Max number of k-points (npk) =  40000
     Max angular momentum in pseudopotentials (lmaxx) =  4
     file Cl.pbe-n-kjpaw_psl.1.0.0.UPF: wavefunction(s)  3S 3P renormalized
     file C.pbe-n-kjpaw_psl.1.0.0.UPF: wavefunction(s)  2S 2P renormalized
     file N.pbe-n-kjpaw_psl.1.0.0.UPF: wavefunction(s)  2S renormalized
     file H.pbe-kjpaw_psl.1.0.0.UPF: wavefunction(s)  1S renormalized
     file O.pbe-n-kjpaw_psl.1.0.0.UPF: wavefunction(s)  2S 2P renormalized
     Found identity + ( -0.5000  0.5000  0.5000) symmetry
     This is a supercell, fractional translations are disabled
 
     R & G space division:  proc/nbgrp/npool/nimage =      64
     Subspace diagonalization in iterative solution of the eigenvalue problem:
     one sub-group per band group will be used
     ELPA distributed-memory algorithm (size of sub-group:  8*  8 procs)

 
     Parallelization info
     --------------------
     sticks:   dense  smooth     PW     G-vecs:    dense   smooth      PW
     Min         348     125     34                74014    15985    2284
     Max         349     126     35                74026    15996    2294
     Sum       22331    8051   2207              4737327  1023457  146403
 
     Using Slab Decomposition
 


     bravais-lattice index     =            0
     lattice parameter (alat)  =      57.6366  a.u.
     unit-cell volume          =   35066.7377 (a.u.)^3
     number of atoms/cell      =          372
     number of atomic types    =            5
     number of electrons       =      1616.00
     number of Kohn-Sham states=          970
     kinetic-energy cutoff     =      36.0000  Ry
     charge density cutoff     =     400.0000  Ry
     scf convergence threshold =      1.0E-06
     mixing beta               =       0.2000
     number of iterations used =            8  plain     mixing
     energy convergence thresh.=      1.0E-04
     force convergence thresh. =      1.0E-03
     Exchange-correlation= SLA  PW   PBX  PBC
                           (   1   4   3   4   0   0   0)
     nstep                     =         9999


     celldm(1)=  57.636647  celldm(2)=   0.000000  celldm(3)=   0.000000
     celldm(4)=   0.000000  celldm(5)=   0.000000  celldm(6)=   0.000000

     crystal axes: (cart. coord. in units of alat)
               a(1) = (   1.000000   0.000000   0.000000 )  
               a(2) = (   0.000000   0.211148   0.000000 )  
               a(3) = (  -0.310570   0.000000   0.867388 )  

     reciprocal axes: (cart. coord. in units 2 pi/alat)
               b(1) = (  1.000000  0.000000  0.358052 )  
               b(2) = (  0.000000  4.736025  0.000000 )  
               b(3) = (  0.000000  0.000000  1.152887 )  


     PseudoPot. # 1 for Cl read from file:
     ./pseudo/Cl.pbe-n-kjpaw_psl.1.0.0.UPF
     MD5 check sum: 8585a34133a3cfc72b769cd6a0e76983
     Pseudo is Projector augmented-wave + core cor, Zval =  7.0
     Generated using 'atomic' code by A. Dal Corso  v.7.2
     Shape of augmentation charge: PSQ
     Using radial grid of 1157 points,  6 beta functions with: 
                l(1) =   0
                l(2) =   0
                l(3) =   1
                l(4) =   1
                l(5) =   2
                l(6) =   2
     Q(r) pseudized with 0 coefficients 


     PseudoPot. # 2 for C  read from file:
     ./pseudo/C.pbe-n-kjpaw_psl.1.0.0.UPF
     MD5 check sum: 6b0792899573946bb42fe395835041da
     Pseudo is Projector augmented-wave + core cor, Zval =  4.0
     Generated using 'atomic' code by A. Dal Corso  v.7.2
     Shape of augmentation charge: PSQ
     Using radial grid of 1073 points,  4 beta functions with: 
                l(1) =   0
                l(2) =   0
                l(3) =   1
                l(4) =   1
     Q(r) pseudized with 0 coefficients 


     PseudoPot. # 3 for N  read from file:
     ./pseudo/N.pbe-n-kjpaw_psl.1.0.0.UPF
     MD5 check sum: 6654930a71f78718b13e91073ae2a058
     Pseudo is Projector augmented-wave + core cor, Zval =  5.0
     Generated using 'atomic' code by A. Dal Corso  v.7.2
     Shape of augmentation charge: PSQ
     Using radial grid of 1085 points,  4 beta functions with: 
                l(1) =   0
                l(2) =   0
                l(3) =   1
                l(4) =   1
     Q(r) pseudized with 0 coefficients 


     PseudoPot. # 4 for H  read from file:
     ./pseudo/H.pbe-kjpaw_psl.1.0.0.UPF
     MD5 check sum: b3cb3c48ee3b58cc53e4d592112d0ca6
     Pseudo is Projector augmented-wave, Zval =  1.0
     Generated using 'atomic' code by A. Dal Corso  v.7.2
     Shape of augmentation charge: PSQ
     Using radial grid of  929 points,  2 beta functions with: 
                l(1) =   0
                l(2) =   0
     Q(r) pseudized with 0 coefficients 


     PseudoPot. # 5 for O  read from file:
     ./pseudo/O.pbe-n-kjpaw_psl.1.0.0.UPF
     MD5 check sum: 54880130194cacfd11baed2e72b13d2a
     Pseudo is Projector augmented-wave + core cor, Zval =  6.0
     Generated using 'atomic' code by A. Dal Corso  v.7.2
     Shape of augmentation charge: PSQ
     Using radial grid of 1095 points,  4 beta functions with: 
                l(1) =   0
                l(2) =   0
                l(3) =   1
                l(4) =   1
     Q(r) pseudized with 0 coefficients 


     atomic species   valence    mass     pseudopotential
        Cl             7.00    35.45000     Cl( 1.00)
        C              4.00    12.01100     C ( 1.00)
        N              5.00    14.00700     N ( 1.00)
        H              1.00     1.00800     H ( 1.00)
        O              6.00    15.99900     O ( 1.00)

     No symmetry found



   Cartesian axes

     site n.     atom                  positions (alat units)
         1           Cl  tau(   1) = (   0.4500774   0.0701221   0.3145147  )
         2           Cl  tau(   2) = (   0.7393529   0.0701221   0.5528729  )
         3           Cl  tau(   3) = (  -0.2052074   0.1756959   0.7482086  )
         4           Cl  tau(   4) = (   0.3946377   0.1756959   0.1191791  )
         5           Cl  tau(   5) = (   0.2393529   0.1410254   0.5528729  )
         6           Cl  tau(   6) = (  -0.0499226   0.1410254   0.3145147  )
         7           Cl  tau(   7) = (   0.8946377   0.0354517   0.1191791  )
         8           Cl  tau(   8) = (   0.2947926   0.0354517   0.7482086  )
         9           Cl  tau(   9) = (   0.7272142   0.1542644   0.2113824  )
        10           Cl  tau(  10) = (   0.4622161   0.1542644   0.6560053  )
        11           Cl  tau(  11) = (   0.0719293   0.0486906   0.6450762  )
        12           Cl  tau(  12) = (   0.1175010   0.0486906   0.2223114  )
        13           Cl  tau(  13) = (  -0.0377839   0.0568831   0.6560053  )
        14           Cl  tau(  14) = (   0.2272142   0.0568831   0.2113824  )
        15           Cl  tau(  15) = (   0.6175010   0.1624569   0.2223114  )
        16           Cl  tau(  16) = (   0.5719293   0.1624569   0.6450762  )
        17           Cl  tau(  17) = (   0.8679033   0.0753374   0.2812071  )
        18           Cl  tau(  18) = (   0.3215270   0.0753374   0.5861806  )
        19           Cl  tau(  19) = (   0.2126184   0.1809112   0.7149009  )
        20           Cl  tau(  20) = (  -0.0231882   0.1809112   0.1524867  )
        21           Cl  tau(  21) = (  -0.1784730   0.1358101   0.5861806  )
        22           Cl  tau(  22) = (   0.3679033   0.1358101   0.2812071  )
        23           Cl  tau(  23) = (   0.4768118   0.0302363   0.1524867  )
        24           Cl  tau(  24) = (   0.7126184   0.0302363   0.7149009  )
        25           Cl  tau(  25) = (   0.4373027   0.1115281   0.4297906  )
        26           Cl  tau(  26) = (   0.7521276   0.1115281   0.4375971  )
        27           Cl  tau(  27) = (  -0.2179822   0.0059544   0.8634844  )
        28           Cl  tau(  28) = (   0.4074124   0.0059544   0.0039032  )
        29           Cl  tau(  29) = (   0.2521276   0.0996194   0.4375971  )
        30           Cl  tau(  30) = (  -0.0626973   0.0996194   0.4297906  )
        31           Cl  tau(  31) = (   0.9074124   0.2051932   0.0039032  )
        32           Cl  tau(  32) = (   0.2820178   0.2051932   0.8634844  )
        33           Cl  tau(  33) = (   0.3524079   0.1592897   0.3989983  )
        34           Cl  tau(  34) = (  -0.1629777   0.1592897   0.4683893  )
        35           Cl  tau(  35) = (   0.6971231   0.0537159   0.8326921  )
        36           Cl  tau(  36) = (   0.4923072   0.0537159   0.0346955  )
        37           Cl  tau(  37) = (   0.3370223   0.0518578   0.4683893  )
        38           Cl  tau(  38) = (   0.8524079   0.0518578   0.3989983  )
        39           Cl  tau(  39) = (  -0.0076928   0.1574316   0.0346955  )
        40           Cl  tau(  40) = (   0.1971231   0.1574316   0.8326921  )
        41           Cl  tau(  41) = (   0.3580828   0.0354517   0.3444396  )
        42           Cl  tau(  42) = (  -0.1686525   0.0354517   0.5229480  )
        43           Cl  tau(  43) = (   0.7027979   0.1410254   0.7781334  )
        44           Cl  tau(  44) = (   0.4866324   0.1410254   0.0892542  )
        45           Cl  tau(  45) = (   0.3313475   0.1756959   0.5229480  )
        46           Cl  tau(  46) = (   0.8580828   0.1756959   0.3444396  )
        47           Cl  tau(  47) = (  -0.0133676   0.0701221   0.0892542  )
        48           Cl  tau(  48) = (   0.2027979   0.0701221   0.7781334  )
        49           Cl  tau(  49) = (   0.8960102   0.2051298   0.2264749  )
        50           Cl  tau(  50) = (   0.2934200   0.2051298   0.6409127  )
        51           Cl  tau(  51) = (   0.2407254   0.0995561   0.6601687  )
        52           Cl  tau(  52) = (  -0.0512951   0.0995561   0.2072189  )
        53           Cl  tau(  53) = (  -0.2065800   0.0060177   0.6409127  )
        54           Cl  tau(  54) = (   0.3960102   0.0060177   0.2264749  )
        55           Cl  tau(  55) = (   0.4487049   0.1115915   0.2072189  )
        56           Cl  tau(  56) = (   0.7407254   0.1115915   0.6601687  )
        57           Cl  tau(  57) = (   0.8256548   0.1418067   0.1875292  )
        58           Cl  tau(  58) = (   0.3637754   0.1418067   0.6798584  )
        59           Cl  tau(  59) = (   0.1703700   0.0362329   0.6212230  )
        60           Cl  tau(  60) = (   0.0190603   0.0362329   0.2461646  )
        61           Cl  tau(  61) = (  -0.1362246   0.0693409   0.6798584  )
        62           Cl  tau(  62) = (   0.3256548   0.0693409   0.1875292  )
        63           Cl  tau(  63) = (   0.5190603   0.1749146   0.2461646  )
        64           Cl  tau(  64) = (   0.6703700   0.1749146   0.6212230  )
        65           C   tau(  65) = (   0.5309397   0.0112119   0.3520726  )
        66           C   tau(  66) = (   0.6584905   0.0112119   0.5153150  )
        67           C   tau(  67) = (  -0.1243451   0.1167857   0.7857664  )
        68           C   tau(  68) = (   0.3137754   0.1167857   0.0816212  )
        69           C   tau(  69) = (   0.1584905   0.1999356   0.5153150  )
        70           C   tau(  70) = (   0.0309397   0.1999356   0.3520726  )
        71           C   tau(  71) = (   0.8137754   0.0943618   0.0816212  )
        72           C   tau(  72) = (   0.3756549   0.0943618   0.7857664  )
        73           C   tau(  73) = (   0.6212025   0.0134501   0.4027281  )
        74           C   tau(  74) = (   0.5682278   0.0134501   0.4646595  )
        75           C   tau(  75) = (  -0.0340824   0.1190239   0.8364219  )
        76           C   tau(  76) = (   0.2235127   0.1190239   0.0309657  )
        77           C   tau(  77) = (   0.0682278   0.1976974   0.4646595  )
        78           C   tau(  78) = (   0.1212025   0.1976974   0.4027281  )
        79           C   tau(  79) = (   0.7235127   0.0921237   0.0309657  )
        80           C   tau(  80) = (   0.4659176   0.0921237   0.8364219  )
        81           C   tau(  81) = (   0.4404143   0.1575372   0.3968298  )
        82           C   tau(  82) = (   0.7490159   0.1575372   0.4705578  )
        83           C   tau(  83) = (  -0.2148705   0.0519634   0.8305236  )
        84           C   tau(  84) = (   0.4043008   0.0519634   0.0368640  )
        85           C   tau(  85) = (   0.2490159   0.0536104   0.4705578  )
        86           C   tau(  86) = (  -0.0595857   0.0536104   0.3968298  )
        87           C   tau(  87) = (   0.9043008   0.1591841   0.0368640  )
        88           C   tau(  88) = (   0.2851295   0.1591841   0.8305236  )
        89           C   tau(  89) = (   0.5256771   0.1592475   0.3941409  )
        90           C   tau(  90) = (   0.6637532   0.1592475   0.4732467  )
        91           C   tau(  91) = (  -0.1296078   0.0536737   0.8278347  )
        92           C   tau(  92) = (   0.3190380   0.0536737   0.0395529  )
        93           C   tau(  93) = (   0.1637532   0.0519001   0.4732467  )
        94           C   tau(  94) = (   0.0256771   0.0519001   0.3941409  )
        95           C   tau(  95) = (   0.8190380   0.1574738   0.0395529  )
        96           C   tau(  96) = (   0.3703922   0.1574738   0.8278347  )
        97           C   tau(  97) = (   0.4051105   0.0071368   0.3585780  )
        98           C   tau(  98) = (   0.7843198   0.0071368   0.5088096  )
        99           C   tau(  99) = (  -0.2501744   0.1127106   0.7922718  )
       100           C   tau( 100) = (   0.4396047   0.1127106   0.0751158  )
       101           C   tau( 101) = (   0.2843198   0.2040108   0.5088096  )
       102           C   tau( 102) = (  -0.0948895   0.2040108   0.3585780  )
       103           C   tau( 103) = (   0.9396047   0.0984370   0.0751158  )
       104           C   tau( 104) = (   0.2498256   0.0984370   0.7922718  )
       105           C   tau( 105) = (   0.8293458   0.0398435   0.2621245  )
       106           C   tau( 106) = (   0.3600844   0.0398435   0.6052631  )
       107           C   tau( 107) = (   0.1740610   0.1454173   0.6958183  )
       108           C   tau( 108) = (   0.0153693   0.1454173   0.1715693  )
       109           C   tau( 109) = (  -0.1399156   0.1713040   0.6052631  )
       110           C   tau( 110) = (   0.3293458   0.1713040   0.2621245  )
       111           C   tau( 111) = (   0.5153693   0.0657302   0.1715693  )
       112           C   tau( 112) = (   0.6740610   0.0657302   0.6958183  )
       113           C   tau( 113) = (   0.4807729   0.1739856   0.3838190  )
       114           C   tau( 114) = (   0.7086574   0.1739856   0.4835686  )
       115           C   tau( 115) = (  -0.1745120   0.0684118   0.8175128  )
       116           C   tau( 116) = (   0.3639422   0.0684118   0.0498748  )
       117           C   tau( 117) = (   0.2086574   0.0371620   0.4835686  )
       118           C   tau( 118) = (  -0.0192271   0.0371620   0.3838190  )
       119           C   tau( 119) = (   0.8639422   0.1427357   0.0498748  )
       120           C   tau( 120) = (   0.3254880   0.1427357   0.8175128  )
       121           N   tau( 121) = (   0.6991207   0.1375415   0.3322962  )
       122           N   tau( 122) = (   0.4903095   0.1375415   0.5350914  )
       123           N   tau( 123) = (   0.0438359   0.0319677   0.7659900  )
       124           N   tau( 124) = (   0.1455944   0.0319677   0.1013976  )
       125           N   tau( 125) = (  -0.0096905   0.0736060   0.5350914  )
       126           N   tau( 126) = (   0.1991207   0.0736060   0.3322962  )
       127           N   tau( 127) = (   0.6455944   0.1791798   0.1013976  )
       128           N   tau( 128) = (   0.5438359   0.1791798   0.7659900  )
       129           H   tau( 129) = (   0.7331255   0.1425913   0.3325287  )
       130           H   tau( 130) = (   0.4563048   0.1425913   0.5348590  )
       131           H   tau( 131) = (   0.0778406   0.0370175   0.7662225  )
       132           H   tau( 132) = (   0.1115896   0.0370175   0.1011652  )
       133           H   tau( 133) = (  -0.0436952   0.0685562   0.5348590  )
       134           H   tau( 134) = (   0.2331255   0.0685562   0.3325287  )
       135           H   tau( 135) = (   0.6115896   0.1741300   0.1011652  )
       136           H   tau( 136) = (   0.5778406   0.1741300   0.7662225  )
       137           C   tau( 137) = (   0.4827999   0.0005490   0.3594454  )
       138           C   tau( 138) = (   0.7066304   0.0005490   0.5079422  )
       139           C   tau( 139) = (  -0.1724850   0.1061228   0.7931392  )
       140           C   tau( 140) = (   0.3619152   0.1061228   0.0742484  )
       141           C   tau( 141) = (   0.2066304   0.2105986   0.5079422  )
       142           C   tau( 142) = (  -0.0172001   0.2105986   0.3594454  )
       143           C   tau( 143) = (   0.8619152   0.1050248   0.0742484  )
       144           C   tau( 144) = (   0.3275150   0.1050248   0.7931392  )
       145           O   tau( 145) = (   0.5465487   0.0407937   0.3308216  )
       146           O   tau( 146) = (   0.6428816   0.0407937   0.5365660  )
       147           O   tau( 147) = (  -0.1087362   0.1463675   0.7645154  )
       148           O   tau( 148) = (   0.2981664   0.1463675   0.1028722  )
       149           O   tau( 149) = (   0.1428816   0.1703538   0.5365660  )
       150           O   tau( 150) = (   0.0465487   0.1703538   0.3308216  )
       151           O   tau( 151) = (   0.7981664   0.0647801   0.1028722  )
       152           O   tau( 152) = (   0.3912638   0.0647801   0.7645154  )
       153           N   tau( 153) = (   0.5536308   0.1890404   0.3733236  )
       154           N   tau( 154) = (   0.6357995   0.1890404   0.4940640  )
       155           N   tau( 155) = (  -0.1016541   0.0834666   0.8070174  )
       156           N   tau( 156) = (   0.2910843   0.0834666   0.0603702  )
       157           N   tau( 157) = (   0.1357995   0.0221071   0.4940640  )
       158           N   tau( 158) = (   0.0536308   0.0221071   0.3733236  )
       159           N   tau( 159) = (   0.7910843   0.1276809   0.0603702  )
       160           N   tau( 160) = (   0.3983459   0.1276809   0.8070174  )
       161           C   tau( 161) = (   0.5947151   0.0405614   0.4336938  )
       162           C   tau( 162) = (   0.2500000   0.1461352   0.0000000  )
       163           C   tau( 163) = (   0.0947151   0.1705861   0.4336938  )
       164           C   tau( 164) = (   0.7500000   0.0650123   0.0000000  )
       165           H   tau( 165) = (   0.5735747   0.0608557   0.4156669  )
       166           H   tau( 166) = (   0.6158556   0.0608557   0.4517207  )
       167           H   tau( 167) = (  -0.0817102   0.1664294   0.8493607  )
       168           H   tau( 168) = (   0.2711404   0.1664294   0.0180269  )
       169           H   tau( 169) = (   0.1158556   0.1502919   0.4517207  )
       170           H   tau( 170) = (   0.0735747   0.1502919   0.4156669  )
       171           H   tau( 171) = (   0.7711404   0.0447181   0.0180269  )
       172           H   tau( 172) = (   0.4182898   0.0447181   0.8493607  )
       173           C   tau( 173) = (   0.7531205   0.0177997   0.2535374  )
       174           C   tau( 174) = (   0.4363098   0.0177997   0.6138502  )
       175           C   tau( 175) = (   0.0978356   0.1233735   0.6872312  )
       176           C   tau( 176) = (   0.0915947   0.1233735   0.1801564  )
       177           C   tau( 177) = (  -0.0636902   0.1933478   0.6138502  )
       178           C   tau( 178) = (   0.2531205   0.1933478   0.2535374  )
       179           C   tau( 179) = (   0.5915947   0.0877740   0.1801564  )
       180           C   tau( 180) = (   0.5978356   0.0877740   0.6872312  )
       181           O   tau( 181) = (   0.5387613   0.1278498   0.4151317  )
       182           O   tau( 182) = (   0.6506689   0.1278498   0.4522559  )
       183           O   tau( 183) = (  -0.1165235   0.0222761   0.8488255  )
       184           O   tau( 184) = (   0.3059538   0.0222761   0.0185621  )
       185           O   tau( 185) = (   0.1506689   0.0832977   0.4522559  )
       186           O   tau( 186) = (   0.0387613   0.0832977   0.4151317  )
       187           O   tau( 187) = (   0.8059538   0.1888715   0.0185621  )
       188           O   tau( 188) = (   0.3834765   0.1888715   0.8488255  )
       189           C   tau( 189) = (   0.7077582   0.0329179   0.2676758  )
       190           C   tau( 190) = (   0.4816721   0.0329179   0.5997118  )
       191           C   tau( 191) = (   0.0524733   0.1384917   0.7013696  )
       192           C   tau( 192) = (   0.1369570   0.1384917   0.1660180  )
       193           C   tau( 193) = (  -0.0183279   0.1782296   0.5997118  )
       194           C   tau( 194) = (   0.2077582   0.1782296   0.2676758  )
       195           C   tau( 195) = (   0.6369570   0.0726559   0.1660180  )
       196           C   tau( 196) = (   0.5524733   0.0726559   0.7013696  )
       197           C   tau( 197) = (   0.6098077   0.1233735   0.3292603  )
       198           C   tau( 198) = (   0.5796225   0.1233735   0.5381273  )
       199           C   tau( 199) = (  -0.0454771   0.0177997   0.7629541  )
       200           C   tau( 200) = (   0.2349074   0.0177997   0.1044335  )
       201           C   tau( 201) = (   0.0796225   0.0877740   0.5381273  )
       202           C   tau( 202) = (   0.1098077   0.0877740   0.3292603  )
       203           C   tau( 203) = (   0.7349074   0.1933478   0.1044335  )
       204           C   tau( 204) = (   0.4545229   0.1933478   0.7629541  )
       205           H   tau( 205) = (   0.5758296   0.1186634   0.3269453  )
       206           H   tau( 206) = (   0.6136006   0.1186634   0.5404423  )
       207           H   tau( 207) = (  -0.0794552   0.0130897   0.7606391  )
       208           H   tau( 208) = (   0.2688855   0.0130897   0.1067485  )
       209           H   tau( 209) = (   0.1136006   0.0924841   0.5404423  )
       210           H   tau( 210) = (   0.0758296   0.0924841   0.3269453  )
       211           H   tau( 211) = (   0.7688855   0.1980579   0.1067485  )
       212           H   tau( 212) = (   0.4205448   0.1980579   0.7606391  )
       213           C   tau( 213) = (   0.6677038   0.0198901   0.3976972  )
       214           C   tau( 214) = (   0.5217265   0.0198901   0.4696904  )
       215           C   tau( 215) = (   0.0124189   0.1254639   0.8313910  )
       216           C   tau( 216) = (   0.1770114   0.1254639   0.0359966  )
       217           C   tau( 217) = (   0.0217265   0.1912574   0.4696904  )
       218           C   tau( 218) = (   0.1677038   0.1912574   0.3976972  )
       219           C   tau( 219) = (   0.6770114   0.0856837   0.0359966  )
       220           C   tau( 220) = (   0.5124189   0.0856837   0.8313910  )
       221           H   tau( 221) = (   0.6825437   0.0468055   0.4131758  )
       222           H   tau( 222) = (   0.5068866   0.0468055   0.4542119  )
       223           H   tau( 223) = (   0.0272588   0.1523793   0.8468696  )
       224           H   tau( 224) = (   0.1621715   0.1523793   0.0205181  )
       225           H   tau( 225) = (   0.0068866   0.1643420   0.4542119  )
       226           H   tau( 226) = (   0.1825437   0.1643420   0.4131758  )
       227           H   tau( 227) = (   0.6621715   0.0587683   0.0205181  )
       228           H   tau( 228) = (   0.5272588   0.0587683   0.8468696  )
       229           O   tau( 229) = (   0.7817365   0.1146953   0.3113054  )
       230           O   tau( 230) = (   0.4076937   0.1146953   0.5560822  )
       231           O   tau( 231) = (   0.1264517   0.0091216   0.7449992  )
       232           O   tau( 232) = (   0.0629786   0.0091216   0.1223884  )
       233           O   tau( 233) = (  -0.0923063   0.0964522   0.5560822  )
       234           O   tau( 234) = (   0.2817365   0.0964522   0.3113054  )
       235           O   tau( 235) = (   0.5629786   0.2020260   0.1223884  )
       236           O   tau( 236) = (   0.6264517   0.2020260   0.7449992  )
       237           C   tau( 237) = (   0.4012313   0.1801300   0.3847731  )
       238           C   tau( 238) = (   0.7881990   0.1801300   0.4826145  )
       239           C   tau( 239) = (  -0.2540536   0.0745562   0.8184670  )
       240           C   tau( 240) = (   0.4434839   0.0745562   0.0489207  )
       241           C   tau( 241) = (   0.2881990   0.0310176   0.4826145  )
       242           C   tau( 242) = (  -0.0987687   0.0310176   0.3847731  )
       243           C   tau( 243) = (   0.9434839   0.1365913   0.0489207  )
       244           C   tau( 244) = (   0.2459464   0.1365913   0.8184670  )
       245           C   tau( 245) = (   0.6372160   0.0940240   0.3105248  )
       246           C   tau( 246) = (   0.5522142   0.0940240   0.5568628  )
       247           C   tau( 247) = (  -0.0180688   0.1995978   0.7442186  )
       248           C   tau( 248) = (   0.2074991   0.1995978   0.1231690  )
       249           C   tau( 249) = (   0.0522142   0.1171235   0.5568628  )
       250           C   tau( 250) = (   0.1372160   0.1171235   0.3105248  )
       251           C   tau( 251) = (   0.7074991   0.0115498   0.1231690  )
       252           C   tau( 252) = (   0.4819312   0.0115498   0.7442186  )
       253           H   tau( 253) = (   0.6246968   0.0657913   0.2953125  )
       254           H   tau( 254) = (   0.5647335   0.0657913   0.5720751  )
       255           H   tau( 255) = (  -0.0305881   0.1713650   0.7290063  )
       256           H   tau( 256) = (   0.2200183   0.1713650   0.1383813  )
       257           H   tau( 257) = (   0.0647335   0.1453563   0.5720751  )
       258           H   tau( 258) = (   0.1246968   0.1453563   0.2953125  )
       259           H   tau( 259) = (   0.7200183   0.0397825   0.1383813  )
       260           H   tau( 260) = (   0.4694119   0.0397825   0.7290063  )
       261           C   tau( 261) = (   0.6736602   0.1672289   0.3528533  )
       262           C   tau( 262) = (   0.5157700   0.1672289   0.5145343  )
       263           C   tau( 263) = (   0.0183754   0.0616551   0.7865471  )
       264           C   tau( 264) = (   0.1710549   0.0616551   0.0808405  )
       265           C   tau( 265) = (   0.0157700   0.0439187   0.5145343  )
       266           C   tau( 266) = (   0.1736602   0.0439187   0.3528533  )
       267           C   tau( 267) = (   0.6710549   0.1494925   0.0808405  )
       268           C   tau( 268) = (   0.5183754   0.1494925   0.7865471  )
       269           C   tau( 269) = (   0.4463001   0.0235430   0.3454805  )
       270           C   tau( 270) = (   0.7431302   0.0235430   0.5219071  )
       271           C   tau( 271) = (  -0.2089848   0.1291167   0.7791743  )
       272           C   tau( 272) = (   0.3984151   0.1291167   0.0882133  )
       273           C   tau( 273) = (   0.2431302   0.1876046   0.5219071  )
       274           C   tau( 274) = (  -0.0536999   0.1876046   0.3454805  )
       275           C   tau( 275) = (   0.8984151   0.0820308   0.0882133  )
       276           C   tau( 276) = (   0.2910152   0.0820308   0.7791743  )
       277           C   tau( 277) = (   0.7645164   0.1922498   0.2292505  )
       278           C   tau( 278) = (   0.4249138   0.1922498   0.6381371  )
       279           C   tau( 279) = (   0.1092316   0.0866761   0.6629444  )
       280           C   tau( 280) = (   0.0801987   0.0866761   0.2044433  )
       281           C   tau( 281) = (  -0.0750862   0.0188977   0.6381371  )
       282           C   tau( 282) = (   0.2645164   0.0188977   0.2292505  )
       283           C   tau( 283) = (   0.5801987   0.1244715   0.2044433  )
       284           C   tau( 284) = (   0.6092316   0.1244715   0.6629444  )
       285           C   tau( 285) = (   0.6922202   0.2041163   0.3741910  )
       286           C   tau( 286) = (   0.4972101   0.2041163   0.4931966  )
       287           C   tau( 287) = (   0.0369354   0.0985426   0.8078848  )
       288           C   tau( 288) = (   0.1524949   0.0985426   0.0595028  )
       289           C   tau( 289) = (  -0.0027899   0.0070312   0.4931966  )
       290           C   tau( 290) = (   0.1922202   0.0070312   0.3741910  )
       291           C   tau( 291) = (   0.6524949   0.1126050   0.0595028  )
       292           C   tau( 292) = (   0.5369354   0.1126050   0.8078848  )
       293           H   tau( 293) = (   0.7259044   0.2101714   0.3713529  )
       294           H   tau( 294) = (   0.4635259   0.2101714   0.4960347  )
       295           H   tau( 295) = (   0.0706195   0.1045976   0.8050467  )
       296           H   tau( 296) = (   0.1188107   0.1045976   0.0623409  )
       297           H   tau( 297) = (  -0.0364741   0.0009761   0.4960347  )
       298           H   tau( 298) = (   0.2259044   0.0009761   0.3713529  )
       299           H   tau( 299) = (   0.6188107   0.1065499   0.0623409  )
       300           H   tau( 300) = (   0.5706195   0.1065499   0.8050467  )
       301           C   tau( 301) = (   0.7854923   0.0467692   0.2689769  )
       302           C   tau( 302) = (   0.4039379   0.0467692   0.5984107  )
       303           C   tau( 303) = (   0.1302075   0.1523430   0.7026707  )
       304           C   tau( 304) = (   0.0592228   0.1523430   0.1647169  )
       305           C   tau( 305) = (  -0.0960621   0.1643784   0.5984107  )
       306           C   tau( 306) = (   0.2854923   0.1643784   0.2689769  )
       307           C   tau( 307) = (   0.5592228   0.0588046   0.1647169  )
       308           C   tau( 308) = (   0.6302075   0.0588046   0.7026707  )
       309           C   tau( 309) = (   0.8097395   0.1851975   0.2199695  )
       310           C   tau( 310) = (   0.3796908   0.1851975   0.6474181  )
       311           C   tau( 311) = (   0.1544547   0.0796237   0.6536633  )
       312           C   tau( 312) = (   0.0349756   0.0796237   0.2137243  )
       313           C   tau( 313) = (  -0.1203092   0.0259500   0.6474181  )
       314           C   tau( 314) = (   0.3097395   0.0259500   0.2199695  )
       315           C   tau( 315) = (   0.5349756   0.1315238   0.2137243  )
       316           C   tau( 316) = (   0.6544547   0.1315238   0.6536633  )
       317           O   tau( 317) = (   0.6732949   0.0151393   0.2589152  )
       318           O   tau( 318) = (   0.5161353   0.0151393   0.6084724  )
       319           O   tau( 319) = (   0.0180101   0.1207130   0.6926090  )
       320           O   tau( 320) = (   0.1714202   0.1207130   0.1747786  )
       321           O   tau( 321) = (   0.0161353   0.1960083   0.6084724  )
       322           O   tau( 322) = (   0.1732949   0.1960083   0.2589152  )
       323           O   tau( 323) = (   0.6714202   0.0904345   0.1747786  )
       324           O   tau( 324) = (   0.5180101   0.0904345   0.6926090  )
       325           C   tau( 325) = (   0.6011953   0.1912997   0.3770534  )
       326           C   tau( 326) = (   0.5882349   0.1912997   0.4903342  )
       327           C   tau( 327) = (  -0.0540895   0.0857259   0.8107472  )
       328           C   tau( 328) = (   0.2435198   0.0857259   0.0566404  )
       329           C   tau( 329) = (   0.0882349   0.0198479   0.4903342  )
       330           C   tau( 330) = (   0.1011953   0.0198479   0.3770534  )
       331           C   tau( 331) = (   0.7435198   0.1254216   0.0566404  )
       332           C   tau( 332) = (   0.4459105   0.1254216   0.8107472  )
       333           C   tau( 333) = (   0.7621827   0.0836355   0.2927433  )
       334           C   tau( 334) = (   0.4272476   0.0836355   0.5746443  )
       335           C   tau( 335) = (   0.1068979   0.1892093   0.7264371  )
       336           C   tau( 336) = (   0.0825324   0.1892093   0.1409505  )
       337           C   tau( 337) = (  -0.0727524   0.1275120   0.5746443  )
       338           C   tau( 338) = (   0.2621827   0.1275120   0.2927433  )
       339           C   tau( 339) = (   0.5825324   0.0219382   0.1409505  )
       340           C   tau( 340) = (   0.6068979   0.0219382   0.7264371  )
       341           C   tau( 341) = (   0.6836744   0.1017309   0.3114789  )
       342           C   tau( 342) = (   0.5057559   0.1017309   0.5559087  )
       343           C   tau( 343) = (   0.0283895   0.2073047   0.7451727  )
       344           C   tau( 344) = (   0.1610407   0.2073047   0.1222149  )
       345           C   tau( 345) = (   0.0057559   0.1094167   0.5559087  )
       346           C   tau( 346) = (   0.1836744   0.1094167   0.3114789  )
       347           C   tau( 347) = (   0.6610407   0.0038429   0.1222149  )
       348           C   tau( 348) = (   0.5283895   0.0038429   0.7451727  )
       349           C   tau( 349) = (   0.7157970   0.0740917   0.2907483  )
       350           C   tau( 350) = (   0.4736332   0.0740917   0.5766393  )
       351           C   tau( 351) = (   0.0605122   0.1796654   0.7244421  )
       352           C   tau( 352) = (   0.1289181   0.1796654   0.1429455  )
       353           C   tau( 353) = (  -0.0263668   0.1370559   0.5766393  )
       354           C   tau( 354) = (   0.2157970   0.1370559   0.2907483  )
       355           C   tau( 355) = (   0.6289181   0.0314821   0.1429455  )
       356           C   tau( 356) = (   0.5605122   0.0314821   0.7244421  )
       357           C   tau( 357) = (   0.6268534   0.1614434   0.3525931  )
       358           C   tau( 358) = (   0.5625769   0.1614434   0.5147946  )
       359           C   tau( 359) = (  -0.0284315   0.0558696   0.7862869  )
       360           C   tau( 360) = (   0.2178617   0.0558696   0.0811007  )
       361           C   tau( 361) = (   0.0625769   0.0497041   0.5147946  )
       362           C   tau( 362) = (   0.1268534   0.0497041   0.3525931  )
       363           C   tau( 363) = (   0.7178617   0.1552779   0.0811007  )
       364           C   tau( 364) = (   0.4715685   0.1552779   0.7862869  )
       365           C   tau( 365) = (   0.8412493   0.0025971   0.2355825  )
       366           C   tau( 366) = (   0.3481810   0.0025971   0.6318051  )
       367           C   tau( 367) = (   0.1859644   0.1081709   0.6692763  )
       368           C   tau( 368) = (   0.0034659   0.1081709   0.1981113  )
       369           C   tau( 369) = (  -0.1518190   0.2085504   0.6318051  )
       370           C   tau( 370) = (   0.3412493   0.2085504   0.2355825  )
       371           C   tau( 371) = (   0.5034659   0.1029767   0.1981113  )
       372           C   tau( 372) = (   0.6859644   0.1029767   0.6692763  )

     --------------------------------------------
     DFT-D3 Dispersion Correction (3-body terms):
     --------------------------------------------
       Reference C6 values for interpolation: 

         atom   Coordination number   C6
         H          0.912             6.05
         H          0.000            15.18
         C          0.000            98.23
         C          0.987            86.49
         C          1.998            58.72
         C          2.999            51.56
         C          3.984            36.41
         N          0.000            50.54
         N          0.994            44.25
         N          2.014            39.35
         N          2.990            31.16
         O          0.000            31.01
         O          0.993            25.63
         O          1.989            20.74
         Cl         0.000           184.69
         Cl         0.997           180.80

       Values used:

         atom   Coordination number  R0_AB[au]  C6      C8
         Cl         1.359            2.933    180.80   7543.66
         Cl         1.359            2.933    180.80   7543.66
         Cl         1.359            2.933    180.80   7543.66
         Cl         1.359            2.933    180.80   7543.66
         Cl         1.359            2.933    180.80   7543.66
         Cl         1.359            2.933    180.80   7543.66
         Cl         1.359            2.933    180.80   7543.66
         Cl         1.359            2.933    180.80   7543.66
         Cl         1.374            2.933    180.80   7543.64
         Cl         1.374            2.933    180.80   7543.64
         Cl         1.374            2.933    180.80   7543.64
         Cl         1.374            2.933    180.80   7543.64
         Cl         1.374            2.933    180.80   7543.64
         Cl         1.374            2.933    180.80   7543.64
         Cl         1.374            2.933    180.80   7543.64
         Cl         1.374            2.933    180.80   7543.64
         Cl         1.398            2.933    180.80   7543.62
         Cl         1.398            2.933    180.80   7543.62
         Cl         1.398            2.933    180.80   7543.62
         Cl         1.398            2.933    180.80   7543.62
         Cl         1.398            2.933    180.80   7543.62
         Cl         1.398            2.933    180.80   7543.62
         Cl         1.398            2.933    180.80   7543.62
         Cl         1.398            2.933    180.80   7543.62
         Cl         1.314            2.933    180.80   7543.74
         Cl         1.314            2.933    180.80   7543.74
         Cl         1.314            2.933    180.80   7543.74
         Cl         1.314            2.933    180.80   7543.74
         Cl         1.314            2.933    180.80   7543.74
         Cl         1.314            2.933    180.80   7543.74
         Cl         1.314            2.933    180.80   7543.74
         Cl         1.314            2.933    180.80   7543.74
         Cl         1.400            2.933    180.80   7543.62
         Cl         1.400            2.933    180.80   7543.62
         Cl         1.400            2.933    180.80   7543.62
         Cl         1.400            2.933    180.80   7543.62
         Cl         1.400            2.933    180.80   7543.62
         Cl         1.400            2.933    180.80   7543.62
         Cl         1.400            2.933    180.80   7543.62
         Cl         1.400            2.933    180.80   7543.62
         Cl         1.389            2.933    180.80   7543.63
         Cl         1.389            2.933    180.80   7543.63
         Cl         1.389            2.933    180.80   7543.63
         Cl         1.389            2.933    180.80   7543.63
         Cl         1.389            2.933    180.80   7543.63
         Cl         1.389            2.933    180.80   7543.63
         Cl         1.389            2.933    180.80   7543.63
         Cl         1.389            2.933    180.80   7543.63
         Cl         1.451            2.933    180.80   7543.58
         Cl         1.451            2.933    180.80   7543.58
         Cl         1.451            2.933    180.80   7543.58
         Cl         1.451            2.933    180.80   7543.58
         Cl         1.451            2.933    180.80   7543.58
         Cl         1.451            2.933    180.80   7543.58
         Cl         1.451            2.933    180.80   7543.58
         Cl         1.451            2.933    180.80   7543.58
         Cl         1.389            2.933    180.80   7543.63
         Cl         1.389            2.933    180.80   7543.63
         Cl         1.389            2.933    180.80   7543.63
         Cl         1.389            2.933    180.80   7543.63
         Cl         1.389            2.933    180.80   7543.63
         Cl         1.389            2.933    180.80   7543.63
         Cl         1.389            2.933    180.80   7543.63
         Cl         1.389            2.933    180.80   7543.63
         C          3.283            2.750     48.87   1413.48
         C          3.283            2.750     48.87   1413.48
         C          3.283            2.750     48.87   1413.48
         C          3.283            2.750     48.87   1413.48
         C          3.283            2.750     48.87   1413.48
         C          3.283            2.750     48.87   1413.48
         C          3.283            2.750     48.87   1413.48
         C          3.283            2.750     48.87   1413.48
         C          3.222            2.750     49.79   1440.11
         C          3.222            2.750     49.79   1440.11
         C          3.222            2.750     49.79   1440.11
         C          3.222            2.750     49.79   1440.11
         C          3.222            2.750     49.79   1440.11
         C          3.222            2.750     49.79   1440.11
         C          3.222            2.750     49.79   1440.11
         C          3.222            2.750     49.79   1440.11
         C          3.266            2.750     49.17   1422.14
         C          3.266            2.750     49.17   1422.14
         C          3.266            2.750     49.17   1422.14
         C          3.266            2.750     49.17   1422.14
         C          3.266            2.750     49.17   1422.14
         C          3.266            2.750     49.17   1422.14
         C          3.266            2.750     49.17   1422.14
         C          3.266            2.750     49.17   1422.14
         C          3.279            2.750     48.94   1415.53
         C          3.279            2.750     48.94   1415.53
         C          3.279            2.750     48.94   1415.53
         C          3.279            2.750     48.94   1415.53
         C          3.279            2.750     48.94   1415.53
         C          3.279            2.750     48.94   1415.53
         C          3.279            2.750     48.94   1415.53
         C          3.279            2.750     48.94   1415.53
         C          3.324            2.750     48.08   1390.42
         C          3.324            2.750     48.08   1390.42
         C          3.324            2.750     48.08   1390.42
         C          3.324            2.750     48.08   1390.42
         C          3.324            2.750     48.08   1390.42
         C          3.324            2.750     48.08   1390.42
         C          3.324            2.750     48.08   1390.42
         C          3.324            2.750     48.08   1390.42
         C          3.243            2.750     49.52   1432.08
         C          3.243            2.750     49.52   1432.08
         C          3.243            2.750     49.52   1432.08
         C          3.243            2.750     49.52   1432.08
         C          3.243            2.750     49.52   1432.08
         C          3.243            2.750     49.52   1432.08
         C          3.243            2.750     49.52   1432.08
         C          3.243            2.750     49.52   1432.08
         C          3.414            2.750     45.82   1325.15
         C          3.414            2.750     45.82   1325.15
         C          3.414            2.750     45.82   1325.15
         C          3.414            2.750     45.82   1325.15
         C          3.414            2.750     45.82   1325.15
         C          3.414            2.750     45.82   1325.15
         C          3.414            2.750     45.82   1325.15
         C          3.414            2.750     45.82   1325.15
         N          3.217            2.478     31.19    688.12
         N          3.217            2.478     31.19    688.12
         N          3.217            2.478     31.19    688.12
         N          3.217            2.478     31.19    688.12
         N          3.217            2.478     31.19    688.12
         N          3.217            2.478     31.19    688.12
         N          3.217            2.478     31.19    688.12
         N          3.217            2.478     31.19    688.12
         H          1.022            2.062      6.16     74.49
         H          1.022            2.062      6.16     74.49
         H          1.022            2.062      6.16     74.49
         H          1.022            2.062      6.16     74.49
         H          1.022            2.062      6.16     74.49
         H          1.022            2.062      6.16     74.49
         H          1.022            2.062      6.16     74.49
         H          1.022            2.062      6.16     74.49
         C          3.440            2.750     45.06   1303.29
         C          3.440            2.750     45.06   1303.29
         C          3.440            2.750     45.06   1303.29
         C          3.440            2.750     45.06   1303.29
         C          3.440            2.750     45.06   1303.29
         C          3.440            2.750     45.06   1303.29
         C          3.440            2.750     45.06   1303.29
         C          3.440            2.750     45.06   1303.29
         O          1.066            2.345     25.51    514.88
         O          1.066            2.345     25.51    514.88
         O          1.066            2.345     25.51    514.88
         O          1.066            2.345     25.51    514.88
         O          1.066            2.345     25.51    514.88
         O          1.066            2.345     25.51    514.88
         O          1.066            2.345     25.51    514.88
         O          1.066            2.345     25.51    514.88
         N          3.287            2.478     31.18    687.86
         N          3.287            2.478     31.18    687.86
         N          3.287            2.478     31.18    687.86
         N          3.287            2.478     31.18    687.86
         N          3.287            2.478     31.18    687.86
         N          3.287            2.478     31.18    687.86
         N          3.287            2.478     31.18    687.86
         N          3.287            2.478     31.18    687.86
         C          4.139            2.750     36.49   1055.47
         C          4.139            2.750     36.49   1055.47
         C          4.139            2.750     36.49   1055.47
         C          4.139            2.750     36.49   1055.47
         H          1.016            2.062      6.17     74.56
         H          1.016            2.062      6.17     74.56
         H          1.016            2.062      6.17     74.56
         H          1.016            2.062      6.17     74.56
         H          1.016            2.062      6.17     74.56
         H          1.016            2.062      6.17     74.56
         H          1.016            2.062      6.17     74.56
         H          1.016            2.062      6.17     74.56
         C          3.398            2.750     46.25   1337.76
         C          3.398            2.750     46.25   1337.76
         C          3.398            2.750     46.25   1337.76
         C          3.398            2.750     46.25   1337.76
         C          3.398            2.750     46.25   1337.76
         C          3.398            2.750     46.25   1337.76
         C          3.398            2.750     46.25   1337.76
         C          3.398            2.750     46.25   1337.76
         O          1.069            2.345     25.51    514.79
         O          1.069            2.345     25.51    514.79
         O          1.069            2.345     25.51    514.79
         O          1.069            2.345     25.51    514.79
         O          1.069            2.345     25.51    514.79
         O          1.069            2.345     25.51    514.79
         O          1.069            2.345     25.51    514.79
         O          1.069            2.345     25.51    514.79
         C          3.194            2.750     50.13   1449.76
         C          3.194            2.750     50.13   1449.76
         C          3.194            2.750     50.13   1449.76
         C          3.194            2.750     50.13   1449.76
         C          3.194            2.750     50.13   1449.76
         C          3.194            2.750     50.13   1449.76
         C          3.194            2.750     50.13   1449.76
         C          3.194            2.750     50.13   1449.76
         C          3.171            2.750     50.35   1456.14
         C          3.171            2.750     50.35   1456.14
         C          3.171            2.750     50.35   1456.14
         C          3.171            2.750     50.35   1456.14
         C          3.171            2.750     50.35   1456.14
         C          3.171            2.750     50.35   1456.14
         C          3.171            2.750     50.35   1456.14
         C          3.171            2.750     50.35   1456.14
         H          1.013            2.062      6.17     74.59
         H          1.013            2.062      6.17     74.59
         H          1.013            2.062      6.17     74.59
         H          1.013            2.062      6.17     74.59
         H          1.013            2.062      6.17     74.59
         H          1.013            2.062      6.17     74.59
         H          1.013            2.062      6.17     74.59
         H          1.013            2.062      6.17     74.59
         C          3.184            2.750     50.23   1452.62
         C          3.184            2.750     50.23   1452.62
         C          3.184            2.750     50.23   1452.62
         C          3.184            2.750     50.23   1452.62
         C          3.184            2.750     50.23   1452.62
         C          3.184            2.750     50.23   1452.62
         C          3.184            2.750     50.23   1452.62
         C          3.184            2.750     50.23   1452.62
         H          1.014            2.062      6.17     74.57
         H          1.014            2.062      6.17     74.57
         H          1.014            2.062      6.17     74.57
         H          1.014            2.062      6.17     74.57
         H          1.014            2.062      6.17     74.57
         H          1.014            2.062      6.17     74.57
         H          1.014            2.062      6.17     74.57
         H          1.014            2.062      6.17     74.57
         O          1.079            2.345     25.49    514.41
         O          1.079            2.345     25.49    514.41
         O          1.079            2.345     25.49    514.41
         O          1.079            2.345     25.49    514.41
         O          1.079            2.345     25.49    514.41
         O          1.079            2.345     25.49    514.41
         O          1.079            2.345     25.49    514.41
         O          1.079            2.345     25.49    514.41
         C          3.292            2.750     48.72   1408.96
         C          3.292            2.750     48.72   1408.96
         C          3.292            2.750     48.72   1408.96
         C          3.292            2.750     48.72   1408.96
         C          3.292            2.750     48.72   1408.96
         C          3.292            2.750     48.72   1408.96
         C          3.292            2.750     48.72   1408.96
         C          3.292            2.750     48.72   1408.96
         C          3.163            2.750     50.43   1458.38
         C          3.163            2.750     50.43   1458.38
         C          3.163            2.750     50.43   1458.38
         C          3.163            2.750     50.43   1458.38
         C          3.163            2.750     50.43   1458.38
         C          3.163            2.750     50.43   1458.38
         C          3.163            2.750     50.43   1458.38
         C          3.163            2.750     50.43   1458.38
         H          1.012            2.062      6.17     74.59
         H          1.012            2.062      6.17     74.59
         H          1.012            2.062      6.17     74.59
         H          1.012            2.062      6.17     74.59
         H          1.012            2.062      6.17     74.59
         H          1.012            2.062      6.17     74.59
         H          1.012            2.062      6.17     74.59
         H          1.012            2.062      6.17     74.59
         C          3.280            2.750     48.92   1414.89
         C          3.280            2.750     48.92   1414.89
         C          3.280            2.750     48.92   1414.89
         C          3.280            2.750     48.92   1414.89
         C          3.280            2.750     48.92   1414.89
         C          3.280            2.750     48.92   1414.89
         C          3.280            2.750     48.92   1414.89
         C          3.280            2.750     48.92   1414.89
         C          3.232            2.750     49.66   1436.28
         C          3.232            2.750     49.66   1436.28
         C          3.232            2.750     49.66   1436.28
         C          3.232            2.750     49.66   1436.28
         C          3.232            2.750     49.66   1436.28
         C          3.232            2.750     49.66   1436.28
         C          3.232            2.750     49.66   1436.28
         C          3.232            2.750     49.66   1436.28
         C          3.231            2.750     49.68   1436.98
         C          3.231            2.750     49.68   1436.98
         C          3.231            2.750     49.68   1436.98
         C          3.231            2.750     49.68   1436.98
         C          3.231            2.750     49.68   1436.98
         C          3.231            2.750     49.68   1436.98
         C          3.231            2.750     49.68   1436.98
         C          3.231            2.750     49.68   1436.98
         C          3.181            2.750     50.25   1453.37
         C          3.181            2.750     50.25   1453.37
         C          3.181            2.750     50.25   1453.37
         C          3.181            2.750     50.25   1453.37
         C          3.181            2.750     50.25   1453.37
         C          3.181            2.750     50.25   1453.37
         C          3.181            2.750     50.25   1453.37
         C          3.181            2.750     50.25   1453.37
         H          1.014            2.062      6.17     74.58
         H          1.014            2.062      6.17     74.58
         H          1.014            2.062      6.17     74.58
         H          1.014            2.062      6.17     74.58
         H          1.014            2.062      6.17     74.58
         H          1.014            2.062      6.17     74.58
         H          1.014            2.062      6.17     74.58
         H          1.014            2.062      6.17     74.58
         C          3.395            2.750     46.34   1340.32
         C          3.395            2.750     46.34   1340.32
         C          3.395            2.750     46.34   1340.32
         C          3.395            2.750     46.34   1340.32
         C          3.395            2.750     46.34   1340.32
         C          3.395            2.750     46.34   1340.32
         C          3.395            2.750     46.34   1340.32
         C          3.395            2.750     46.34   1340.32
         C          3.313            2.750     48.31   1397.11
         C          3.313            2.750     48.31   1397.11
         C          3.313            2.750     48.31   1397.11
         C          3.313            2.750     48.31   1397.11
         C          3.313            2.750     48.31   1397.11
         C          3.313            2.750     48.31   1397.11
         C          3.313            2.750     48.31   1397.11
         C          3.313            2.750     48.31   1397.11
         O          1.085            2.345     25.48    514.18
         O          1.085            2.345     25.48    514.18
         O          1.085            2.345     25.48    514.18
         O          1.085            2.345     25.48    514.18
         O          1.085            2.345     25.48    514.18
         O          1.085            2.345     25.48    514.18
         O          1.085            2.345     25.48    514.18
         O          1.085            2.345     25.48    514.18
         C          3.271            2.750     49.08   1419.36
         C          3.271            2.750     49.08   1419.36
         C          3.271            2.750     49.08   1419.36
         C          3.271            2.750     49.08   1419.36
         C          3.271            2.750     49.08   1419.36
         C          3.271            2.750     49.08   1419.36
         C          3.271            2.750     49.08   1419.36
         C          3.271            2.750     49.08   1419.36
         C          3.235            2.750     49.62   1435.23
         C          3.235            2.750     49.62   1435.23
         C          3.235            2.750     49.62   1435.23
         C          3.235            2.750     49.62   1435.23
         C          3.235            2.750     49.62   1435.23
         C          3.235            2.750     49.62   1435.23
         C          3.235            2.750     49.62   1435.23
         C          3.235            2.750     49.62   1435.23
         C          3.228            2.750     49.72   1437.89
         C          3.228            2.750     49.72   1437.89
         C          3.228            2.750     49.72   1437.89
         C          3.228            2.750     49.72   1437.89
         C          3.228            2.750     49.72   1437.89
         C          3.228            2.750     49.72   1437.89
         C          3.228            2.750     49.72   1437.89
         C          3.228            2.750     49.72   1437.89
         C          3.294            2.750     48.67   1407.59
         C          3.294            2.750     48.67   1407.59
         C          3.294            2.750     48.67   1407.59
         C          3.294            2.750     48.67   1407.59
         C          3.294            2.750     48.67   1407.59
         C          3.294            2.750     48.67   1407.59
         C          3.294            2.750     48.67   1407.59
         C          3.294            2.750     48.67   1407.59
         C          3.255            2.750     49.34   1427.09
         C          3.255            2.750     49.34   1427.09
         C          3.255            2.750     49.34   1427.09
         C          3.255            2.750     49.34   1427.09
         C          3.255            2.750     49.34   1427.09
         C          3.255            2.750     49.34   1427.09
         C          3.255            2.750     49.34   1427.09
         C          3.255            2.750     49.34   1427.09
         C          3.321            2.750     48.14   1392.25
         C          3.321            2.750     48.14   1392.25
         C          3.321            2.750     48.14   1392.25
         C          3.321            2.750     48.14   1392.25
         C          3.321            2.750     48.14   1392.25
         C          3.321            2.750     48.14   1392.25
         C          3.321            2.750     48.14   1392.25
         C          3.321            2.750     48.14   1392.25

         Molecular C6 ( Ry / a.u.^6 ) =   7310658.90


     number of k points=     8  Gaussian smearing, width (Ry)=  0.0100
                       cart. coord. in units 2pi/alat
        k(    1) = (   0.0000000   0.0000000   0.0000000), wk =   0.2500000
        k(    2) = (   0.0000000   0.0000000  -0.5764436), wk =   0.2500000
        k(    3) = (   0.0000000  -2.3680124   0.0000000), wk =   0.2500000
        k(    4) = (   0.0000000  -2.3680124  -0.5764436), wk =   0.2500000
        k(    5) = (  -0.5000000   0.0000000  -0.1790259), wk =   0.2500000
        k(    6) = (  -0.5000000   0.0000000  -0.7554695), wk =   0.2500000
        k(    7) = (  -0.5000000  -2.3680124  -0.1790259), wk =   0.2500000
        k(    8) = (  -0.5000000  -2.3680124  -0.7554695), wk =   0.2500000

     Dense  grid:  4737327 G-vectors     FFT dimensions: ( 375,  80, 360)

     Smooth grid:  1023457 G-vectors     FFT dimensions: ( 225,  48, 216)

     Estimated max dynamical RAM per process >       1.32 GB

     Estimated total dynamical RAM >      84.68 GB

     Atomic positions and unit cell read from directory:
     /scratch/calc/bqoutdir/pwscf.save/
     Atomic positions from file used, from input discarded
 

     Check: negative core charge=   -0.000004

     The initial density is read from file :
     /scratch/calc/bqoutdir/pwscf.save/charge-density

     Cannot read wfcs: file not found
     Starting wfcs are 1344 randomized atomic wfcs
     Checking if some PAW data can be deallocated... 

     total cpu time spent up to now is       71.7 secs

     Self-consistent Calculation

     iteration #  1     ecut=    36.00 Ry     beta= 0.20
     PPCG style diagonalization
     ethr =  1.00E-05,  avg # of iterations = 16.0

     Threshold (ethr) on eigenvalues was too large:
     Diagonalizing with lowered threshold

     PPCG style diagonalization
     ethr =  2.23E-07,  avg # of iterations =  6.8

     total cpu time spent up to now is     1671.8 secs

     total energy              =  -10828.31997628 Ry
     estimated scf accuracy    <       0.00359995 Ry

     iteration #  2     ecut=    36.00 Ry     beta= 0.20
     PPCG style diagonalization
     ethr =  2.23E-07,  avg # of iterations =  8.8

     total cpu time spent up to now is     2291.5 secs

     total energy              =  -10828.31963845 Ry
     estimated scf accuracy    <       0.00113390 Ry

     iteration #  3     ecut=    36.00 Ry     beta= 0.20
     PPCG style diagonalization
     ethr =  7.02E-08,  avg # of iterations =  8.5

     total cpu time spent up to now is     2902.9 secs

     total energy              =  -10828.31966475 Ry
     estimated scf accuracy    <       0.00016318 Ry

     iteration #  4     ecut=    36.00 Ry     beta= 0.20
     PPCG style diagonalization
     ethr =  1.01E-08,  avg # of iterations =  8.3

     total cpu time spent up to now is     3497.9 secs

     total energy              =  -10828.31967533 Ry
     estimated scf accuracy    <       0.00001955 Ry

     iteration #  5     ecut=    36.00 Ry     beta= 0.20
     PPCG style diagonalization
     ethr =  1.21E-09,  avg # of iterations =  8.0

     total cpu time spent up to now is     4071.7 secs

     total energy              =  -10828.31967556 Ry
     estimated scf accuracy    <       0.00000421 Ry

     iteration #  6     ecut=    36.00 Ry     beta= 0.20
     PPCG style diagonalization
     ethr =  2.60E-10,  avg # of iterations =  7.9

     total cpu time spent up to now is     4644.9 secs

     End of self-consistent calculation

          k = 0.0000 0.0000 0.0000 (127953 PWs)   bands (ev):

   -19.7803 -19.7802 -19.7802 -19.7802 -19.7655 -19.7654 -19.7654 -19.7654
   -19.2791 -19.2791 -19.2790 -19.2790 -19.2708 -19.2707 -19.2707 -19.2706
   -18.3767 -18.3766 -18.3766 -18.3766 -18.3733 -18.3732 -18.3732 -18.3732
   -18.0646 -18.0646 -18.0646 -18.0645 -18.0325 -18.0325 -18.0325 -18.0324
   -17.3733 -17.3732 -17.3731 -17.3730 -17.3730 -17.3729 -17.3727 -17.3727
   -17.0917 -17.0916 -17.0911 -17.0910 -17.0648 -17.0647 -17.0647 -17.0647
   -16.5137 -16.5132 -16.5079 -16.5073 -16.4957 -16.4951 -16.4888 -16.4883
   -15.9629 -15.9628 -15.9618 -15.9616 -15.9389 -15.9388 -15.9374 -15.9374
   -15.4524 -15.4522 -15.4517 -15.4514 -15.4460 -15.4458 -15.4454 -15.4451
   -15.0225 -15.0223 -15.0035 -15.0031 -14.9960 -14.9956 -14.9801 -14.9800
   -14.8516 -14.8513 -14.8457 -14.8456 -14.8281 -14.8279 -14.8202 -14.8198
   -14.5714 -14.5711 -14.5702 -14.5693 -14.4505 -14.4452 -14.4446 -14.4435
   -14.4346 -14.4280 -14.4264 -14.4224 -14.4053 -14.4010 -14.3961 -14.3957
   -14.2103 -14.2096 -14.2096 -14.2087 -14.1954 -14.1944 -14.1940 -14.1935
   -13.8172 -13.8143 -13.8034 -13.8001 -13.7981 -13.7939 -13.7847 -13.7775
   -13.7472 -13.7413 -13.7253 -13.7201 -13.7142 -13.7113 -13.7102 -13.7065
   -13.6115 -13.5952 -13.5943 -13.5780 -13.5575 -13.5551 -13.5453 -13.5427
   -13.0572 -13.0565 -13.0449 -13.0443 -13.0335 -13.0314 -13.0142 -13.0079
   -12.8914 -12.8887 -12.8847 -12.8831 -12.5193 -12.4995 -12.4966 -12.4801
   -12.2993 -12.2843 -12.2797 -12.2775 -12.2456 -12.2413 -12.2315 -12.2207
   -12.0898 -12.0816 -12.0804 -12.0478 -11.8145 -11.8073 -11.7932 -11.7822
   -11.2990 -11.2983 -11.2941 -11.2874 -11.2841 -11.2841 -11.2753 -11.2753
   -11.2646 -11.2615 -11.2603 -11.2562 -11.0738 -11.0737 -11.0659 -11.0657
   -10.7851 -10.7839 -10.7783 -10.7776 -10.5376 -10.5375 -10.5182 -10.5144
   -10.4901 -10.4863 -10.4646 -10.4644 -10.3931 -10.3929 -10.3830 -10.3777
    -9.8865  -9.8818  -9.8816  -9.8715  -9.5275  -9.5274  -9.5246  -9.5241
    -9.5238  -9.5235  -9.5197  -9.5189  -9.3444  -9.3410  -9.3344  -9.3306
    -9.2452  -9.2438  -9.2432  -9.2410  -9.0386  -9.0355  -9.0347  -9.0335
    -8.9140  -8.9127  -8.9123  -8.9115  -8.8232  -8.8224  -8.8210  -8.8206
    -8.4433  -8.4413  -8.4307  -8.4304  -8.4194  -8.4182  -8.4154  -8.4147
    -8.2917  -8.2881  -8.2874  -8.2864  -8.1397  -8.1389  -8.1389  -8.1386
    -8.1373  -8.1370  -8.1365  -8.1356  -8.0556  -8.0551  -8.0494  -8.0449
    -8.0417  -8.0415  -8.0390  -8.0344  -7.5805  -7.5747  -7.5670  -7.5486
    -7.3860  -7.3773  -7.3765  -7.3622  -7.1360  -7.1191  -7.1153  -7.1118
    -7.0963  -7.0898  -7.0749  -7.0592  -6.6800  -6.6667  -6.6611  -6.6541
    -6.6170  -6.5991  -6.5987  -6.5896  -6.3868  -6.3554  -6.3462  -6.3346
    -6.3245  -6.3021  -6.2927  -6.2611  -6.1751  -6.1347  -6.1296  -6.1031
    -6.0938  -6.0724  -6.0539  -6.0391  -6.0088  -5.9913  -5.9895  -5.9819
    -5.9541  -5.9498  -5.9494  -5.9385  -5.8261  -5.8245  -5.8142  -5.8109
    -5.7936  -5.7867  -5.7785  -5.7775  -5.6453  -5.6435  -5.6256  -5.6251
    -5.6022  -5.6019  -5.5750  -5.5742  -5.4231  -5.3883  -5.3866  -5.3754
    -5.3577  -5.3562  -5.3285  -5.3063  -5.0617  -5.0607  -5.0605  -5.0305
    -5.0290  -5.0190  -5.0116  -5.0022  -4.9908  -4.9813  -4.9450  -4.9404
    -4.9251  -4.9203  -4.8998  -4.8980  -4.8273  -4.8186  -4.8050  -4.7766
    -4.6417  -4.6405  -4.6206  -4.6171  -4.6071  -4.5883  -4.5797  -4.5763
    -4.5419  -4.5251  -4.5054  -4.4721  -4.4643  -4.4634  -4.4565  -4.4454
    -4.4246  -4.4242  -4.4201  -4.4091  -4.3775  -4.3765  -4.3716  -4.3671
    -4.3519  -4.3488  -4.3438  -4.3223  -4.2966  -4.2579  -4.2553  -4.2477
    -4.2367  -4.2317  -4.2079  -4.1746  -4.1727  -4.1723  -4.1305  -4.1114
    -4.1112  -4.1059  -4.1052  -4.0739  -3.9307  -3.8947  -3.8933  -3.8778
    -3.8737  -3.8546  -3.8414  -3.8406  -3.8131  -3.8048  -3.7989  -3.7867
    -3.7828  -3.7710  -3.7669  -3.7661  -3.7609  -3.7560  -3.7471  -3.7148
    -3.7026  -3.6933  -3.6917  -3.6820  -3.6493  -3.6433  -3.6427  -3.6397
    -3.6245  -3.6186  -3.6121  -3.6095  -3.6038  -3.5891  -3.5873  -3.5764
    -3.5757  -3.5625  -3.5581  -3.5573  -3.5372  -3.5300  -3.5245  -3.5155
    -3.4927  -3.4902  -3.4901  -3.4602  -3.4436  -3.4368  -3.4265  -3.4081
    -3.4047  -3.4008  -3.3980  -3.3915  -3.3597  -3.3572  -3.3556  -3.3499
    -3.3191  -3.3016  -3.2940  -3.2839  -3.2836  -3.2723  -3.2612  -3.2488
    -3.2386  -3.2354  -3.2224  -3.2147  -3.2054  -3.1971  -3.1962  -3.1861
    -3.1530  -3.1418  -3.1359  -3.1320  -3.1287  -3.1180  -3.0740  -3.0523
    -3.0500  -3.0468  -3.0461  -3.0218  -2.9960  -2.9882  -2.9809  -2.9647
    -2.9536  -2.9336  -2.9292  -2.9048  -2.8803  -2.8795  -2.8710  -2.8579
    -2.8432  -2.8380  -2.8215  -2.7914  -2.7896  -2.7734  -2.7725  -2.7689
    -2.7683  -2.7452  -2.7324  -2.7065  -2.6849  -2.6729  -2.6639  -2.6582
    -2.6455  -2.6207  -2.6038  -2.5898  -2.5485  -2.5353  -2.5197  -2.5103
    -2.4667  -2.4627  -2.4431  -2.4409  -2.4082  -2.4062  -2.4027  -2.4005
    -2.3925  -2.3869  -2.3850  -2.3792  -2.3723  -2.3393  -2.3320  -2.3261
    -2.3243  -2.3143  -2.2995  -2.2881  -2.2101  -2.2016  -2.1990  -2.1916
    -2.1790  -2.1654  -2.1644  -2.1558  -2.1340  -2.1187  -2.1119  -2.0848
    -1.9679  -1.9608  -1.9574  -1.9554  -1.9189  -1.9022  -1.8892  -1.8774
    -1.8523  -1.8473  -1.8392  -1.8357  -1.7517  -1.7263  -1.7163  -1.6729
    -1.6591  -1.6349  -1.5977  -1.5765  -1.5315  -1.5223  -1.5171  -1.4957
    -1.4895  -1.4824  -1.4547  -1.4448  -1.4416  -1.4409  -1.4230  -1.4185
    -1.4073  -1.4055  -1.3984  -1.3846  -1.3656  -1.3642  -1.3459  -1.3250
    -1.3200  -1.2975  -1.2845  -1.2692  -1.2646  -1.2458  -1.2245  -1.2026
    -1.1951  -1.1927  -1.1911  -1.1821  -1.1589  -1.1562  -1.1495  -1.1394
    -1.1176  -1.1071  -1.0861  -1.0521  -0.9832  -0.9752  -0.9673  -0.9450
    -0.9447  -0.9422  -0.9408  -0.9315  -0.9312  -0.9242  -0.9190  -0.9180
    -0.8860  -0.8753  -0.8742  -0.8701  -0.8672  -0.8574  -0.8264  -0.8260
    -0.7866  -0.7757  -0.7674  -0.7611  -0.7547  -0.7497  -0.7458  -0.7351
    -0.6694  -0.6545  -0.6494  -0.6448  -0.6276  -0.6097  -0.6061  -0.5735
    -0.5706  -0.5614  -0.5551  -0.5160  -0.5159  -0.5038  -0.4790  -0.4785
    -0.4757  -0.4581  -0.4474  -0.4425  -0.4322  -0.4321  -0.4296  -0.4277
    -0.4024  -0.3997  -0.3890  -0.3790  -0.3573  -0.3466  -0.3452  -0.3378
    -0.3330  -0.3325  -0.3284  -0.3049  -0.2325  -0.2155  -0.2106  -0.2041
    -0.0268  -0.0207  -0.0153  -0.0107  -0.0081   0.0081   0.0087   0.0183
     0.0208   0.0272   0.0296   0.0532   0.0629   0.0738   0.0810   0.0904
     0.1033   0.1165   0.1282   0.1342   0.1560   0.1692   0.1791   0.1904
     0.1977   0.2219   0.2230   0.2322   0.2537   0.2615   0.2631   0.2701
     0.2952   0.3038   0.3055   0.3059   0.3290   0.3299   0.3796   0.3871
     0.5282   0.5301   0.5339   0.5364   0.7167   0.7188   0.7209   0.7267
     0.7433   0.7486   0.7489   0.7666   0.7726   0.7748   0.7770   0.7849
     0.7920   0.7971   0.8370   0.8451   0.8786   0.8847   0.9290   0.9300
     0.9924   0.9925   1.0010   1.0011   1.0021   1.0045   1.0065   1.0163
     1.0174   1.0261   1.0420   1.0442   1.0479   1.0708   1.0757   1.0965
     1.2355   1.2432   1.2450   1.2477   1.2519   1.2551   1.2958   1.3003
     1.3074   1.3170   1.3180   1.3182   1.3388   1.3468   1.3559   1.3589
     1.3812   1.3817   1.3912   1.3929   1.4016   1.4098   1.4151   1.4200
     1.6233   1.6287   1.6400   1.6451   1.7217   1.7220   1.7289   1.7445
     2.0826   2.0838   2.0877   2.0888   2.1769   2.1771   2.1792   2.1803
     2.3523   2.3628   2.4021   2.4136   2.4192   2.4285   2.4576   2.4693
     3.8337   3.8340   3.8381   3.8419   3.8537   3.8540   3.8563   3.8569
     4.3737   4.3838   4.3924   4.3924   4.4758   4.4784   4.4900   4.4905
     4.5356   4.5413   4.5433   4.5533   4.5981   4.6019   4.6061   4.6200
     4.7048   4.7063   4.7125   4.7131   4.7769   4.7864   4.7889   4.7905
     5.3642   5.3935   5.4036   5.4065   5.4238   5.4306   5.4353   5.4484
     5.4728   5.4964   5.5134   5.5397   5.7749   5.7775   5.8006   5.8066
     5.8198   5.8583   5.8663   5.8691   6.0309   6.0317   6.0451   6.0710
     6.0724   6.0744   6.1019   6.1084   6.1826   6.1978   6.2224   6.2417
     6.2469   6.2528   6.2601   6.2615   6.2710   6.2729   6.2864   6.3004
     6.3099   6.3461   6.3595   6.3896   6.3993   6.4049   6.4343   6.4685
     6.6441   6.6469   6.6529   6.6542   6.6931   6.6942   6.7053   6.7140
     6.8686   6.8763   6.8792   6.8980   6.9368   6.9442   6.9483   6.9784
     7.0727   7.0899   7.1593   7.1644   7.3168   7.3265   7.3274   7.3829
     7.4487   7.4659   7.4660   7.4700   7.4727   7.4827   7.4928   7.5144
     7.5334   7.5363   7.5529   7.5739   7.5756   7.5960   7.6040   7.6280
     7.7306   7.7660   7.7667   7.7768   7.8049   7.8219   7.8232   7.8280
     7.8463   7.8525   7.8727   7.8786   7.8793   7.8822   7.8932   7.9037
     7.9300   7.9380   7.9626   7.9802   7.9911   7.9983   8.0350   8.0442
     8.0492   8.0563   8.0829   8.1673   8.2164   8.2335   8.2501   8.2703
     8.2981   8.3109   8.3112   8.3355   8.3376   8.3574   8.3659   8.4409
     8.4586   8.5113

          k = 0.0000 0.0000-0.5764 (127978 PWs)   bands (ev):

   -19.7803 -19.7803 -19.7802 -19.7802 -19.7655 -19.7654 -19.7654 -19.7654
   -19.2791 -19.2791 -19.2791 -19.2790 -19.2708 -19.2707 -19.2707 -19.2706
   -18.3767 -18.3767 -18.3766 -18.3766 -18.3732 -18.3732 -18.3732 -18.3732
   -18.0646 -18.0646 -18.0646 -18.0646 -18.0325 -18.0325 -18.0324 -18.0324
   -17.3732 -17.3732 -17.3731 -17.3731 -17.3728 -17.3728 -17.3728 -17.3728
   -17.0916 -17.0916 -17.0910 -17.0910 -17.0648 -17.0648 -17.0647 -17.0647
   -16.5135 -16.5135 -16.5076 -16.5076 -16.4954 -16.4954 -16.4885 -16.4885
   -15.9629 -15.9629 -15.9617 -15.9617 -15.9388 -15.9388 -15.9374 -15.9374
   -15.4521 -15.4521 -15.4518 -15.4518 -15.4457 -15.4457 -15.4454 -15.4454
   -15.0224 -15.0224 -15.0033 -15.0033 -14.9958 -14.9958 -14.9801 -14.9801
   -14.8515 -14.8515 -14.8457 -14.8457 -14.8280 -14.8280 -14.8200 -14.8200
   -14.5708 -14.5708 -14.5702 -14.5702 -14.4476 -14.4476 -14.4446 -14.4446
   -14.4291 -14.4291 -14.4274 -14.4274 -14.3998 -14.3998 -14.3981 -14.3981
   -14.2098 -14.2098 -14.2093 -14.2093 -14.1947 -14.1947 -14.1939 -14.1939
   -13.8160 -13.8160 -13.8013 -13.8013 -13.7968 -13.7968 -13.7806 -13.7806
   -13.7446 -13.7446 -13.7231 -13.7231 -13.7118 -13.7118 -13.7086 -13.7086
   -13.6043 -13.6043 -13.5874 -13.5874 -13.5505 -13.5505 -13.5476 -13.5476
   -13.0528 -13.0528 -13.0526 -13.0526 -13.0219 -13.0219 -13.0178 -13.0178
   -12.8882 -12.8882 -12.8857 -12.8857 -12.5004 -12.5004 -12.4981 -12.4981
   -12.2903 -12.2903 -12.2800 -12.2800 -12.2435 -12.2435 -12.2254 -12.2254
   -12.0809 -12.0809 -12.0698 -12.0698 -11.8003 -11.8003 -11.7974 -11.7974
   -11.2987 -11.2987 -11.2910 -11.2910 -11.2839 -11.2839 -11.2754 -11.2754
   -11.2608 -11.2608 -11.2602 -11.2602 -11.0737 -11.0737 -11.0658 -11.0658
   -10.7818 -10.7818 -10.7808 -10.7808 -10.5375 -10.5375 -10.5166 -10.5166
   -10.4879 -10.4879 -10.4645 -10.4645 -10.3880 -10.3880 -10.3853 -10.3853
    -9.8817  -9.8817  -9.8790  -9.8790  -9.5273  -9.5273  -9.5244  -9.5244
    -9.5236  -9.5236  -9.5193  -9.5193  -9.3427  -9.3427  -9.3324  -9.3324
    -9.2442  -9.2442  -9.2424  -9.2424  -9.0367  -9.0367  -9.0345  -9.0345
    -8.9131  -8.9131  -8.9121  -8.9121  -8.8228  -8.8228  -8.8208  -8.8208
    -8.4423  -8.4423  -8.4306  -8.4306  -8.4188  -8.4188  -8.4150  -8.4150
    -8.2899  -8.2899  -8.2869  -8.2869  -8.1392  -8.1392  -8.1388  -8.1388
    -8.1369  -8.1369  -8.1363  -8.1363  -8.0554  -8.0554  -8.0474  -8.0474
    -8.0414  -8.0414  -8.0366  -8.0366  -7.5739  -7.5739  -7.5623  -7.5623
    -7.3814  -7.3814  -7.3687  -7.3687  -7.1321  -7.1321  -7.1076  -7.1076
    -7.0906  -7.0906  -7.0711  -7.0711  -6.6718  -6.6718  -6.6609  -6.6609
    -6.6068  -6.6068  -6.5937  -6.5937  -6.3700  -6.3700  -6.3355  -6.3355
    -6.3261  -6.3261  -6.2699  -6.2699  -6.1599  -6.1599  -6.1203  -6.1203
    -6.0693  -6.0693  -6.0517  -6.0517  -6.0008  -6.0008  -5.9855  -5.9855
    -5.9498  -5.9498  -5.9452  -5.9452  -5.8252  -5.8252  -5.8127  -5.8127
    -5.7904  -5.7904  -5.7777  -5.7777  -5.6445  -5.6445  -5.6253  -5.6253
    -5.6020  -5.6020  -5.5745  -5.5745  -5.4078  -5.4078  -5.3817  -5.3817
    -5.3566  -5.3566  -5.3151  -5.3151  -5.0619  -5.0619  -5.0503  -5.0503
    -5.0139  -5.0139  -5.0041  -5.0041  -4.9946  -4.9946  -4.9450  -4.9450
    -4.9219  -4.9219  -4.8969  -4.8969  -4.8173  -4.8173  -4.7989  -4.7989
    -4.6217  -4.6217  -4.6180  -4.6180  -4.6128  -4.6128  -4.5751  -4.5751
    -4.5377  -4.5377  -4.4997  -4.4997  -4.4594  -4.4594  -4.4451  -4.4451
    -4.4283  -4.4283  -4.4151  -4.4151  -4.3752  -4.3752  -4.3692  -4.3692
    -4.3503  -4.3503  -4.3363  -4.3363  -4.2615  -4.2615  -4.2427  -4.2427
    -4.2361  -4.2361  -4.2291  -4.2291  -4.1448  -4.1448  -4.1254  -4.1254
    -4.1101  -4.1101  -4.0901  -4.0901  -3.9157  -3.9157  -3.8900  -3.8900
    -3.8568  -3.8568  -3.8426  -3.8426  -3.8089  -3.8089  -3.7977  -3.7977
    -3.7814  -3.7814  -3.7703  -3.7703  -3.7482  -3.7482  -3.7106  -3.7106
    -3.7022  -3.7022  -3.7019  -3.7019  -3.6569  -3.6569  -3.6330  -3.6330
    -3.6170  -3.6170  -3.6155  -3.6155  -3.5778  -3.5778  -3.5773  -3.5773
    -3.5709  -3.5709  -3.5526  -3.5526  -3.5437  -3.5437  -3.5265  -3.5265
    -3.4929  -3.4929  -3.4803  -3.4803  -3.4380  -3.4380  -3.4208  -3.4208
    -3.4091  -3.4091  -3.3930  -3.3930  -3.3568  -3.3568  -3.3531  -3.3531
    -3.3054  -3.3054  -3.2868  -3.2868  -3.2842  -3.2842  -3.2456  -3.2456
    -3.2365  -3.2365  -3.2309  -3.2309  -3.1991  -3.1991  -3.1974  -3.1974
    -3.1480  -3.1480  -3.1333  -3.1333  -3.0943  -3.0943  -3.0856  -3.0856
    -3.0395  -3.0395  -3.0267  -3.0267  -2.9784  -2.9784  -2.9693  -2.9693
    -2.9551  -2.9551  -2.9386  -2.9386  -2.8781  -2.8781  -2.8574  -2.8574
    -2.8485  -2.8485  -2.8223  -2.8223  -2.7856  -2.7856  -2.7714  -2.7714
    -2.7437  -2.7437  -2.7090  -2.7090  -2.6795  -2.6795  -2.6671  -2.6671
    -2.6131  -2.6131  -2.6071  -2.6071  -2.5365  -2.5365  -2.5221  -2.5221
    -2.4550  -2.4550  -2.4529  -2.4529  -2.4130  -2.4130  -2.4110  -2.4110
    -2.3886  -2.3886  -2.3765  -2.3765  -2.3299  -2.3299  -2.3259  -2.3259
    -2.3209  -2.3209  -2.3146  -2.3146  -2.2060  -2.2060  -2.1972  -2.1972
    -2.1713  -2.1713  -2.1607  -2.1607  -2.1248  -2.1248  -2.0964  -2.0964
    -1.9651  -1.9651  -1.9573  -1.9573  -1.9038  -1.9038  -1.8907  -1.8907
    -1.8493  -1.8493  -1.8365  -1.8365  -1.7359  -1.7359  -1.7087  -1.7087
    -1.6114  -1.6114  -1.6075  -1.6075  -1.5329  -1.5329  -1.5099  -1.5099
    -1.4802  -1.4802  -1.4708  -1.4708  -1.4337  -1.4337  -1.4127  -1.4127
    -1.4028  -1.4028  -1.3931  -1.3931  -1.3677  -1.3677  -1.3294  -1.3294
    -1.2901  -1.2901  -1.2781  -1.2781  -1.2691  -1.2691  -1.2222  -1.2222
    -1.2084  -1.2084  -1.1777  -1.1777  -1.1445  -1.1445  -1.1401  -1.1401
    -1.1050  -1.1050  -1.0908  -1.0908  -0.9750  -0.9750  -0.9530  -0.9530
    -0.9461  -0.9461  -0.9304  -0.9304  -0.9192  -0.9192  -0.9124  -0.9124
    -0.9062  -0.9062  -0.8798  -0.8798  -0.8416  -0.8416  -0.8353  -0.8353
    -0.7703  -0.7703  -0.7649  -0.7649  -0.7521  -0.7521  -0.7481  -0.7481
    -0.6577  -0.6577  -0.6501  -0.6501  -0.6201  -0.6201  -0.5971  -0.5971
    -0.5615  -0.5615  -0.5320  -0.5320  -0.5113  -0.5113  -0.4807  -0.4807
    -0.4589  -0.4589  -0.4397  -0.4397  -0.4384  -0.4384  -0.4321  -0.4321
    -0.4031  -0.4031  -0.3873  -0.3873  -0.3499  -0.3499  -0.3381  -0.3381
    -0.3274  -0.3274  -0.3221  -0.3221  -0.2214  -0.2214  -0.2099  -0.2099
    -0.0327  -0.0327  -0.0131  -0.0131   0.0069   0.0069   0.0194   0.0194
     0.0306   0.0306   0.0343   0.0343   0.0606   0.0606   0.0928   0.0928
     0.1136   0.1136   0.1141   0.1141   0.1723   0.1723   0.1944   0.1944
     0.2031   0.2031   0.2228   0.2228   0.2593   0.2593   0.2667   0.2667
     0.3003   0.3003   0.3049   0.3049   0.3295   0.3295   0.3834   0.3834
     0.5312   0.5312   0.5333   0.5333   0.7195   0.7195   0.7211   0.7211
     0.7503   0.7503   0.7595   0.7595   0.7724   0.7724   0.7737   0.7737
     0.7969   0.7969   0.8400   0.8400   0.8832   0.8832   0.9295   0.9295
     0.9920   0.9920   1.0013   1.0013   1.0024   1.0024   1.0165   1.0165
[...]
C            14.6668911899        5.3072087840       11.7212842645
C            21.6101834820        5.3071311860       14.7340628706
C            -5.3187486009        2.0871312077       24.9489205520
C            11.0969204503        2.0872088303        1.5063768849
C             6.3607320841        1.1327912607       14.7340379906
C            -0.5825602526        1.1328688872       11.7212594415
C            26.3463718890        4.3528688433        1.5064016917
C             9.9307027995        4.3527912560       24.9489454196
N            21.3246442787        4.2070911048       10.1024721065
N            14.9527833705        4.2069833389       16.3527723024
N             1.3386514876        0.9869832971       23.3302112260
N             4.4391673641        0.9870911389        3.1251891249
N            -0.2970210348        2.2329088621       16.3528502806
N             6.0748398775        2.2330167244       10.1025500745
N            19.6889717698        5.4530166707        3.1251111431
N            16.5884558903        5.4529089070       23.3301332617
H            22.3683755685        4.2965460584       10.0726193734
H            13.9090400613        4.2963089868       16.3827980423
H             2.3823948221        1.0763089522       23.3001854131
H             3.3954360882        1.0765460956        3.1550417828
H            -1.3407523051        2.1434539148       16.3827029547
H             7.1185832038        2.1436910836       10.0725242547
H            18.6452284578        5.3636910322        3.1551369030
H            17.6321871852        5.3634539795       23.3002805230
C            14.7461628203        0.0261005456       10.9408682008
C            21.5307998806        0.0260759047       15.5144013213
C            -5.2393650341        3.2460758326       24.1685820132
C            11.0176488340        3.2461006541        2.2867928421
C             6.2814603433        6.4138994129       15.5144539765
C            -0.5031765645        6.4139242418       10.9409208759
C            26.2669882079        3.1939240877        2.2867401683
C            10.0099744952        3.1938994608       24.1685293279
O            16.6760957497        1.2683348073       10.0870895566
O            19.6008527589        1.2682953648       16.3679025467
O            -3.3094181437        4.4882957792       23.3150807684
O             9.0877153835        4.4883348855        3.1405717448
O             4.3515274862        5.1716661140       16.3682322615
O             1.4267697594        5.1717051673       10.0874202444
O            24.3370414013        1.9517051466        3.1402410217
O            11.9399071283        1.9516656664       23.3147510689
N            16.9142285856        5.7831619127       11.3987998636
N            19.3627994443        5.7831617537       15.0561159727
N            -3.0713645548        2.5631617810       24.6268675700
N             8.8495830877        2.5631618826        1.8288613676
N             4.1133946814        0.6568380848       15.0565225110
N             1.6648238411        0.6568381806       11.3992064129
N            24.0989878364        3.8768381921        1.8284548070
N            12.1780402025        3.8768380486       24.6264610144
C            18.1385823855        1.2642047677       13.2274981580
C             7.6252292842        4.4842047632        0.0001630216
C             2.8890408986        5.1757952115       13.2278241703
C            22.8747707691        1.9557952025       -0.0001630112
H            17.4457112349        1.9349700183       12.7038092168
H            18.8316254745        1.9347301244       13.7512908792
H            -2.5401905946        5.1547301086       25.9316926170
H             8.3181004051        5.1549700254        0.5238519573
H             3.5819120036        4.5050299708       13.7515131358
H             2.1959978013        4.5052698934       12.7040314256
H            23.5678138481        1.2852698437        0.5236297279
H            12.7095228545        1.2850299539       25.9314703372
C            22.9684178417        0.5288090365        7.7248111125
C            13.3093394065        0.5285946032       18.7304121094
C             2.9820954530        3.7485946520       20.9525713114
C             2.7953937976        3.7488089790        5.5028499732
C            -1.9407945520        5.9111910262       18.7305111191
C             7.7182838181        5.9114053741        7.7249101705
C            18.0455278425        2.6914054135        5.5027509368
C            18.2322294292        2.6911910176       20.9524722470
O            16.4156596994        3.8769135583       12.6675632691
O            19.8616360808        3.8766988808       13.7877612459
O            -3.5702016706        0.6566990164       25.8952219374
O             9.3481516450        0.6569137679        0.5600978406
O             4.6119629280        2.5630869887       13.7877584815
O             1.1659870632        2.5633018281       12.6675613647
O            24.5978242995        5.7833014936        0.5600998340
O            11.6794714322        5.7830866794       25.8952245887
C            21.5996769462        1.0161716437        8.1594245060
C            14.6779979099        1.0160971088       18.2957921260
C             1.6134368939        4.2360970400       21.3871913789
C             4.1641346666        4.2361716671        5.0682366908
C            -0.5720535454        5.4238284144       18.2958978887
C             6.3496252103        5.4239030118        8.1595302004
C            19.4141863266        2.2039029034        5.0681309593
C            16.8634887132        2.2038282693       21.3870856942
C            18.6175946268        3.7846959879       10.0689784297
C            17.6598975391        3.7847833515       16.3860089363
C            -1.3684626737        0.5647833672       23.2969745265
C             7.1462170189        0.5646959959        3.1586827629
C             2.4100286402        2.6553039865       16.3863438822
C             3.3677256919        2.6552166279       10.0693134079
C            22.3960859581        5.8752166202        3.1583477531
C            13.8814062306        5.8753040089       23.2966396092
H            17.5434762619        3.6058732669       10.0436229918
H            18.7340541615        3.6061232855       16.4113202468
H            -2.4426192929        0.3861233362       23.2716631927
H             8.2203353624        0.3858732631        3.1840381688
H             3.4841469957        2.8341267375       16.4116993030
H             2.2935690642        2.8338766752       10.0440020672
H            23.4702425957        6.0538766933        3.1836590656
H            12.8072878458        6.0541267261       23.2712841689
C            20.3206596934        0.6187156226       12.1447429617
C            15.9564634944        0.6187899261       14.3104620866
C             0.3349714064        3.8387899388       25.3725213583
C             5.4431519817        3.8387156116        1.0829182078
C             0.7069635904        5.8212843838       14.3105793305
C             5.0711597923        5.8212100695       12.1448602360
C            20.6926518634        2.6012100692        1.0828009088
C            15.5844713288        2.6012843846       25.3724041307
H            20.7617411478        1.4560828099       12.6884022356
H            15.5153679816        1.4562316980       13.7669400417
H             0.7760669307        4.6762317182       25.9160434011
H             5.0020705467        4.6760827928        0.5392589085
H             0.2658821181        4.9839172103       13.7669200646
H             5.5122553538        4.9837682988       12.6883822457
H            20.2515563269        1.7637682966        0.5392788797
H            16.0255528087        1.7639171966       25.9160633881
O            23.7962017853        3.5041271745        9.5156487362
O            12.4814418173        3.5039979682       16.9396928517
O             3.8099928041        0.2839981003       22.7432905774
O             1.9676096388        0.2841270177        3.7120123988
O            -2.7685787285        2.9358729918       16.9396735739
O             8.5461811864        2.9360019291        9.5156294324
O            17.2176302307        6.1560020445        3.7120316913
O            19.0600134079        6.1558728356       22.7433099096
C            12.2646492514        5.4856314615       11.7261102944
C            24.0122751848        5.4856965788       14.7291434527
C            -7.7208403156        2.2656965800       24.9538400021
C            13.4991623840        2.2656314848        1.5015508498
C             8.7629739924        0.9543685159       14.7292120808
C            -2.9846519315        0.9543034168       11.7261787908
C            28.7484635749        4.1743033913        1.5014823951
C             7.5284608705        4.1743685169       24.9537713552
C            19.4508324913        2.8815203812        9.4666140396
C            16.8268469018        2.8816178061       16.9885793088
C            -0.5354120360        6.1016177944       22.6944041881
C             6.3129791437        6.1015204042        3.7610471782
C             1.5767907651        3.5584796102       16.9887083239
C             4.2007763326        3.5583822372        9.4667430416
C            21.5630353312        0.3383821983        3.7609181383
C            14.7146440710        0.3384796294       22.6942752030
H            19.0679403858        1.9932403346        8.9698808609
H            17.2098484390        1.9934337635       17.4854260695
H            -0.9184135804        5.2134337682       22.1975574081
H             6.6958712472        5.2132403601        4.2577803221
H             1.9596828989        4.4467596524       17.4854414706
H             3.8177747496        4.4465662539        8.9698962756
H            21.9460368993        1.2265662529        4.2577648877
H            14.3317519332        1.2267596836       22.1975420234
C            20.5401757059        5.1183694390       10.7485423274
C            15.7370348320        5.1183143022       15.7066062727
C             0.5544000363        1.8983142998       23.9763772061
C             5.2236359372        1.8983694577        2.4791188625
C             0.4874475451        1.3216305319       15.7067799975
C             5.2905884205        1.3216857098       10.7487160733
C            20.4732232246        4.5416856882        2.4789451017
C            15.8039873229        4.5416305700       23.9762034989
C            13.6107044400        0.7215460410       10.5480222461
C            22.6661967690        0.7216182731       15.9071832041
C            -6.3747618880        3.9416181916       23.7758001597
C            12.1531072251        3.9415461300        2.6796388355
C             7.4169187971        5.7184538386       15.9073000668
C            -1.6385734982        5.7183817589       10.5481389378
C            27.4023851086        2.4983816810        2.6795221231
C             8.8745161079        2.4984539321       23.7756833479
C            23.3344667074        5.8507679718        6.9857915521
C            12.9433078700        5.8506031010       19.4695084628
C             3.3481269928        2.6306031017       20.2134750133
C             2.4293449240        2.6307679271        6.2418695654
C            -2.3068434201        0.5892320951       19.4695307165
C             8.0843153707        0.5893969191        6.9858138639
C            17.6794962862        3.8093969127        6.2418472749
C            18.5982782899        3.8092320667       20.2134527132
C            21.1226787560        6.2195199820       11.3979693674
C            15.1545367657        6.2195763382       15.0573719469
C             1.1368981075        2.9995763489       24.6256115083
C             4.6411329166        2.9995199878        1.8296917943
C            -0.0950555195        0.2204800144       15.0573529450
C             5.8730865334        0.2204236769       11.3979503614
C            19.8907251294        3.4404236571        1.8297107809
C            16.3864904070        3.4404800332       24.6256305321
H            22.2003421309        6.3793977289       11.3327399163
H            14.0769079942        6.3795385355       15.1227480340
H             2.2145268810        3.1595385306       24.5602354004
H             3.5634695352        3.1593977427        1.8949212222
H            -1.1727188897        0.0606022590       15.1225823924
H             6.9507153001        0.0604614941       11.3325742413
H            18.8130963485        3.2804614779        1.8950868923
H            17.4641537845        3.2806023005       24.5604010646
C            23.9376945715        1.4304677479        8.2033488121
C            12.3400383855        1.4302915626       18.2519925148
C             3.9513964879        4.6502916433       21.4309908234
C             1.8261170823        4.6504676643        5.0243122251
C            -2.9100712868        5.0095323596       18.2519733754
C             8.6875848560        5.0097083963        8.2033296875
C            17.0762268195        1.7897084643        5.0243313471
C            19.2015061535        1.7895322786       21.4310099554
C            24.7076951073        5.6562281889        6.6979789707
C            11.5700470192        5.6560447583       19.7572315093
C             4.7213878454        2.4360447568       19.9257519883
C             1.0561165248        2.4362281559        6.5296821431
C            -3.6800718077        0.7837718536       19.7573432702
C             9.4575762025        0.7839552489        6.6980908528
C            16.3062354504        4.0039552605        6.5295702828
C            19.9715066746        4.0037718602       19.9256401327
O            20.5238091919        0.4557821617        7.9214875719
O            15.7540863267        0.4556936000       18.5339063133
O             0.5373485299        3.6756937465       21.1490772421
O             5.2400023974        3.6757819846        5.3061736302
O             0.5038139130        5.9842179298       18.5338347859
O             5.2735369392        5.9843062306        7.9214160788
O            20.4902747609        2.7643064481        5.3062451425
O            15.7876206307        2.7642179355       21.1491486849
C            18.3424404963        5.8479586036       11.4867453750
C            17.9345609641        5.8479030554       14.9680720673
C            -1.6431260718        2.6279030488       24.7149114308
C             7.4213711749        2.6279585915        1.7409158308
C             2.6851827785        0.5920413529       14.9685769706
C             3.0930623159        0.5920968912       11.4872502774
C            22.6707493420        3.8120968952        1.7404108944
C            13.6062521215        3.8120413648       24.7144065348
C            23.2405756854        2.5252561970        8.9557435739
C            13.0371447714        2.5250189179       17.4995418179
C             3.2542901208        5.7450189470       22.1834416358
C             2.5232359885        5.7452561869        4.2719175669
C            -2.2129523991        3.9147438042       17.4995787132
C             7.9904784971        3.9149810826        8.9557804880
C            17.7733331999        0.6949811130        4.2718806653
C            18.5043872509        0.6947438583       22.1834046995
C            20.8608824628        3.0895509784        9.4791750714
C            15.4167419509        3.0894516962       16.9760039442
C             0.8746929233        6.3094516464       22.7069796174
C             4.9029291731        6.3095510402        3.7484861819
C             0.1667408362        3.3504489517       16.9761473253
C             5.6108812670        3.3505483724        9.4793184623
C            20.1529303863        0.1305483095        3.7483427793
C            16.1246940562        0.1304490488       22.7068362110
C            21.8316487457        2.2392421384        8.9066463467
C            14.4460508950        2.2390409870       17.5484911964
C             1.8453839961        5.4590408984       22.1344924140
C             3.9321629362        5.4592422165        4.3210149624
C            -0.8040254536        4.2007577834       17.5486761116
C             6.5815723755        4.2009591165        8.9068312534
C            19.1822393187        0.9809590283        4.3208300422
C            17.0954603294        0.9807578756       22.1343074768
C            19.1310646298        4.9254435930       10.7560872462
C            17.1461295948        4.9253743712       15.6987997439
C            -0.8546947277        1.7053743889       23.9841837399
C             6.6327470184        1.7054436203        2.4715739421
C             1.8965586255        1.5145564145       15.6992350934
C             3.8814936548        1.5146256547       10.7565225875
C            21.8823179925        4.7346256475        2.4711385908
C            14.3948762442        4.7345564414       23.9837483995
C            25.6761368902        0.1028168374        7.1956025539
C            10.6015555881        0.1027449105       19.2597839063
C             5.6898792803        3.3227449247       20.4231995305
C             0.0876747542        3.3228168186        6.0320585590
C            -4.6485136018        6.3371832202       19.2597197152
C            10.4260676468        6.3372551074        7.1955383853
C            15.3377440241        3.1172551030        6.0321227309
C            20.9399484629        3.1171831943       20.4232636874
End final coordinates



     Writing all to output data dir /scratch/calc/bqoutdir/pwscf.save/
 
     init_run     :     66.58s CPU     70.88s WALL (       1 calls)
     electrons    :  15111.74s CPU  15869.37s WALL (       4 calls)
     update_pot   :     13.99s CPU     14.18s WALL (       3 calls)
     forces       :    198.02s CPU    208.70s WALL (       4 calls)
     force_dftd3  :      6.51s CPU      9.75s WALL (       4 calls)

     Called by init_run:
     wfcinit      :     59.47s CPU     63.27s WALL (       1 calls)
     potinit      :      0.85s CPU      0.94s WALL (       1 calls)
     hinit0       :      3.13s CPU      3.19s WALL (       1 calls)

     Called by electrons:
     c_bands      :  14479.28s CPU  15191.90s WALL (      31 calls)
     sum_band     :    585.45s CPU    616.83s WALL (      31 calls)
     v_of_rho     :      4.26s CPU      4.42s WALL (      31 calls)
     newd         :     25.94s CPU     35.59s WALL (      31 calls)
     PAW_pot      :     20.80s CPU     21.02s WALL (      34 calls)
     mix_rho      :      0.81s CPU      0.89s WALL (      31 calls)
     energy_dftd3 :      2.16s CPU      5.35s WALL (       4 calls)

     Called by c_bands:
     init_us_2    :     28.27s CPU     28.69s WALL (     560 calls)
     init_us_2:cp :     28.27s CPU     28.69s WALL (     560 calls)
     ppcg_k       :  13472.27s CPU  14124.53s WALL (     248 calls)
     wfcrot       :   1037.88s CPU   1092.52s WALL (     192 calls)

     Called by ppcg_*:
     h_psi        :   6513.49s CPU   6815.01s WALL (    3903 calls)
     s_psi        :   1686.06s CPU   1731.71s WALL (    3903 calls)

     Called by h_psi:
     h_psi:calbec :   1771.95s CPU   1811.35s WALL (    3903 calls)
     vloc_psi     :   3022.75s CPU   3233.63s WALL (    3903 calls)
     add_vuspsi   :   1688.53s CPU   1739.03s WALL (    3903 calls)

     General routines
     calbec       :   2153.55s CPU   2200.02s WALL (    4303 calls)
     fft          :      4.48s CPU      5.92s WALL (     446 calls)
     ffts         :      0.14s CPU      0.23s WALL (      62 calls)
     fftw         :   1862.37s CPU   2022.73s WALL ( 3821770 calls)
     interpolate  :      0.31s CPU      0.32s WALL (      31 calls)
 
     Parallel routines
 
     PWSCF        :      4h17m CPU      4h30m WALL

 
   This run was terminated on:   7:59:50  11Mar2024            

=------------------------------------------------------------------------------=
   JOB DONE.
=------------------------------------------------------------------------------=
