
     Program PWSCF v.7.2 starts on 26Aug2023 at  0:19: 3 

     This program is part of the open-source Quantum ESPRESSO suite
     for quantum simulation of materials; please cite
         "P. Giannozzi et al., J. Phys.:Condens. Matter 21 395502 (2009);
         "P. Giannozzi et al., J. Phys.:Condens. Matter 29 465901 (2017);
         "P. Giannozzi et al., J. Chem. Phys. 152 154105 (2020);
          URL http://www.quantum-espresso.org", 
     in publications or presentations arising from this work. More details at
     http://www.quantum-espresso.org/quote

     Parallel version (MPI), running on    36 processors

     MPI processes distributed on     1 nodes
     769763 MiB available memory on the printing compute node when the environment starts
 
     Waiting for input...
     Reading input from standard input
Warning: card &CELL ignored
Warning: card / ignored

     Current dimensions of program PWSCF are:
     Max number of different atomic species (ntypx) = 10
     Max number of k-points (npk) =  40000
     Max angular momentum in pseudopotentials (lmaxx) =  4
     file Mo.pbe-spn-kjpaw_psl.1.0.0.UPF: wavefunction(s)  4S 4D renormalized
     file S.pbe-n-kjpaw_psl.1.0.0.UPF: wavefunction(s)  3S 3P renormalized
     file H.pbe-kjpaw_psl.1.0.0.UPF: wavefunction(s)  1S renormalized
 
     R & G space division:  proc/nbgrp/npool/nimage =      36
     Subspace diagonalization in iterative solution of the eigenvalue problem:
     one sub-group per band group will be used
     custom distributed-memory algorithm (size of sub-group:  6*  6 procs)

 
     Parallelization info
     --------------------
     sticks:   dense  smooth     PW     G-vecs:    dense   smooth      PW
     Min         585     334     89               198743    85850   11735
     Max         586     335     90               198750    85861   11748
     Sum       21073   12049   3205              7154885  3090769  422587
 
     Using Slab Decomposition
 


     bravais-lattice index     =            0
     lattice parameter (alat)  =      23.8199  a.u.
     unit-cell volume          =   33861.0370 (a.u.)^3
     number of atoms/cell      =          193
     number of atomic types    =            3
     number of electrons       =      1665.00
     number of Kohn-Sham states=         1000
     kinetic-energy cutoff     =      77.0000  Ry
     charge density cutoff     =     539.0000  Ry
     scf convergence threshold =      1.0E-06
     mixing beta               =       0.2000
     number of iterations used =            8  plain     mixing
     Exchange-correlation= SLA  PW   PBX  PBC
                           (   1   4   3   4   0   0   0)

     Effective Screening Medium Method
     =================================
     Boundary Conditions: Vacuum-Slab-Vacuum
     total charge in unit cell        =   0.0000
     grid points for fit at edges     =        4 
 

     celldm(1)=  23.819920  celldm(2)=   0.000000  celldm(3)=   0.000000
     celldm(4)=   0.000000  celldm(5)=   0.000000  celldm(6)=   0.000000

     crystal axes: (cart. coord. in units of alat)
               a(1) = (   1.000000   0.000000   0.000000 )  
               a(2) = (  -0.499999   0.866026   0.000000 )  
               a(3) = (   0.000000   0.000000   2.893000 )  

     reciprocal axes: (cart. coord. in units 2 pi/alat)
               b(1) = (  1.000000  0.577349  0.000000 )  
               b(2) = (  0.000000  1.154700  0.000000 )  
               b(3) = (  0.000000  0.000000  0.345662 )  


     PseudoPot. # 1 for Mo read from file:
     ./pseudo/Mo.pbe-spn-kjpaw_psl.1.0.0.UPF
     MD5 check sum: 317bf72632116215fd98f72de1686f13
     Pseudo is Projector augmented-wave + core cor, Zval = 14.0
     Generated using 'atomic' code by A. Dal Corso  v.7.2
     Shape of augmentation charge: PSQ
     Using radial grid of 1229 points,  6 beta functions with: 
                l(1) =   0
                l(2) =   0
                l(3) =   1
                l(4) =   1
                l(5) =   2
                l(6) =   2
     Q(r) pseudized with 0 coefficients 


     PseudoPot. # 2 for S  read from file:
     ./pseudo/S.pbe-n-kjpaw_psl.1.0.0.UPF
     MD5 check sum: 8b7b5302570d38d5e87fed6a1065abda
     Pseudo is Projector augmented-wave + core cor, Zval =  6.0
     Generated using 'atomic' code by A. Dal Corso  v.7.2
     Shape of augmentation charge: PSQ
     Using radial grid of 1151 points,  6 beta functions with: 
                l(1) =   0
                l(2) =   0
                l(3) =   1
                l(4) =   1
                l(5) =   2
                l(6) =   2
     Q(r) pseudized with 0 coefficients 


     PseudoPot. # 3 for H  read from file:
     ./pseudo/H.pbe-kjpaw_psl.1.0.0.UPF
     MD5 check sum: b3cb3c48ee3b58cc53e4d592112d0ca6
     Pseudo is Projector augmented-wave, Zval =  1.0
     Generated using 'atomic' code by A. Dal Corso  v.7.2
     Shape of augmentation charge: PSQ
     Using radial grid of  929 points,  2 beta functions with: 
                l(1) =   0
                l(2) =   0
     Q(r) pseudized with 0 coefficients 


     atomic species   valence    mass     pseudopotential
        Mo            14.00    95.95000     Mo( 1.00)
        S              6.00    32.06000     S ( 1.00)
        H              1.00     1.00800     H ( 1.00)

     No symmetry found



   Cartesian axes

     site n.     atom                  positions (alat units)
         1           Mo  tau(   1) = (   0.0000010   0.1443372  -0.7272732  )
         2           Mo  tau(   2) = (   0.1249995   0.0721706  -0.2424038  )
         3           S   tau(   3) = (   0.0000015   0.1443386  -0.3667807  )
         4           S   tau(   4) = (   0.1250010   0.0721682  -0.6030489  )
         5           S   tau(   5) = (   0.1250010   0.0721683  -0.8514963  )
         6           S   tau(   6) = (   0.0000015   0.1443389  -0.1180260  )
         7           Mo  tau(   7) = (   0.0000513   0.1443978   0.2424003  )
         8           Mo  tau(   8) = (   0.1250033   0.0722955   0.7272685  )
         9           S   tau(   9) = (  -0.0002535   0.1449161   0.6031568  )
        10           S   tau(  10) = (   0.1250032   0.0721768   0.3668592  )
        11           S   tau(  11) = (   0.1250031   0.0721522   0.1180326  )
        12           S   tau(  12) = (  -0.0005174   0.1430617   0.8521622  )
        13           Mo  tau(  13) = (  -0.1249989   0.3608437  -0.7272732  )
        14           Mo  tau(  14) = (   0.0000030   0.2886752  -0.2424042  )
        15           S   tau(  15) = (  -0.1249977   0.3608450  -0.3667802  )
        16           S   tau(  16) = (   0.0000012   0.2886747  -0.6030489  )
        17           S   tau(  17) = (   0.0000012   0.2886748  -0.8514963  )
        18           S   tau(  18) = (  -0.1249977   0.3608454  -0.1180274  )
        19           Mo  tau(  19) = (  -0.1249204   0.3608560   0.2424001  )
        20           Mo  tau(  20) = (   0.0005972   0.2890190   0.7280606  )
        21           S   tau(  21) = (  -0.1246252   0.3603347   0.6031569  )
        22           S   tau(  22) = (   0.0000434   0.2886985   0.3668863  )
        23           S   tau(  23) = (   0.0000617   0.2887090   0.1179661  )
        24           S   tau(  24) = (  -0.1263629   0.3610337   0.8521622  )
        25           Mo  tau(  25) = (  -0.2499987   0.5773502  -0.7272732  )
        26           Mo  tau(  26) = (  -0.1249977   0.5051839  -0.2424055  )
        27           S   tau(  27) = (  -0.2499981   0.5773518  -0.3667809  )
        28           S   tau(  28) = (  -0.1249986   0.5051812  -0.6030489  )
        29           S   tau(  29) = (  -0.1249986   0.5051813  -0.8514963  )
        30           S   tau(  30) = (  -0.2499979   0.5773512  -0.1180266  )
        31           Mo  tau(  31) = (  -0.2500243   0.5773670   0.2424186  )
        32           Mo  tau(  32) = (  -0.1248867   0.5051209   0.7272684  )
        33           S   tau(  33) = (  -0.2497627   0.5772176   0.6026775  )
        34           S   tau(  34) = (  -0.1249895   0.5051779   0.3668591  )
        35           S   tau(  35) = (  -0.1250109   0.5051900   0.1180323  )
        36           S   tau(  36) = (  -0.2499842   0.5773456   0.8516806  )
        37           Mo  tau(  37) = (  -0.3749985   0.7938567  -0.7272732  )
        38           Mo  tau(  38) = (  -0.2500001   0.7216874  -0.2424031  )
        39           S   tau(  39) = (  -0.3749980   0.7938584  -0.3667800  )
        40           S   tau(  40) = (  -0.2499984   0.7216877  -0.6030489  )
        41           S   tau(  41) = (  -0.2499984   0.7216878  -0.8514963  )
        42           S   tau(  42) = (  -0.3749982   0.7938585  -0.1180264  )
        43           Mo  tau(  43) = (  -0.3749961   0.7938248   0.2424186  )
        44           Mo  tau(  44) = (  -0.2500192   0.7216759   0.7271543  )
        45           S   tau(  45) = (  -0.3749955   0.7941274   0.6026777  )
        46           S   tau(  46) = (  -0.2500006   0.7216858   0.3668019  )
        47           S   tau(  47) = (  -0.2499932   0.7216901   0.1180118  )
        48           S   tau(  48) = (  -0.3749956   0.7938714   0.8516805  )
        49           Mo  tau(  49) = (   0.2500010   0.1443372  -0.7272732  )
        50           Mo  tau(  50) = (   0.3750034   0.0721723  -0.2424032  )
        51           S   tau(  51) = (   0.2500017   0.1443391  -0.3667788  )
        52           S   tau(  52) = (   0.3750010   0.0721682  -0.6030489  )
        53           S   tau(  53) = (   0.3750010   0.0721683  -0.8514963  )
        54           S   tau(  54) = (   0.2500016   0.1443391  -0.1180271  )
        55           Mo  tau(  55) = (   0.2499551   0.1443979   0.2424000  )
        56           Mo  tau(  56) = (   0.3757209   0.0717826   0.7272969  )
        57           S   tau(  57) = (   0.2502604   0.1449152   0.6031565  )
        58           S   tau(  58) = (   0.3749775   0.0721943   0.3667451  )
        59           S   tau(  59) = (   0.3749918   0.0721988   0.1180365  )
        60           S   tau(  60) = (   0.2505240   0.1430621   0.8521623  )
        61           Mo  tau(  61) = (   0.1250012   0.3608437  -0.7272732  )
        62           Mo  tau(  62) = (   0.2500029   0.2886782  -0.2424031  )
        63           S   tau(  63) = (   0.1250024   0.3608455  -0.3667794  )
        64           S   tau(  64) = (   0.2500012   0.2886747  -0.6030489  )
        65           S   tau(  65) = (   0.2500012   0.2886748  -0.8514963  )
        66           S   tau(  66) = (   0.1250021   0.3608455  -0.1180270  )
        67           Mo  tau(  67) = (   0.1250034   0.3608441   0.2424799  )
        68           Mo  tau(  68) = (   0.2494114   0.2890189   0.7280605  )
        69           S   tau(  69) = (   0.1250046   0.3608450   0.6015792  )
        70           S   tau(  70) = (   0.2499635   0.2886986   0.3668859  )
        71           S   tau(  71) = (   0.2499449   0.2887091   0.1179660  )
        72           S   tau(  72) = (   0.1250066   0.3608421   0.8494190  )
        73           Mo  tau(  73) = (   0.0000014   0.5773502  -0.7272732  )
        74           Mo  tau(  74) = (   0.1250045   0.5051840  -0.2424036  )
        75           S   tau(  75) = (   0.0000030   0.5773520  -0.3667799  )
        76           S   tau(  76) = (   0.1250014   0.5051812  -0.6030489  )
        77           S   tau(  77) = (   0.1250014   0.5051813  -0.8514963  )
        78           S   tau(  78) = (   0.0000026   0.5773517  -0.1180274  )
        79           Mo  tau(  79) = (   0.0000316   0.5772789   0.2423999  )
        80           Mo  tau(  80) = (   0.1250044   0.5044982   0.7280607  )
        81           S   tau(  81) = (   0.0006327   0.5772868   0.6031572  )
        82           S   tau(  82) = (   0.1250038   0.5051357   0.3668857  )
        83           S   tau(  83) = (   0.1250036   0.5051142   0.1179661  )
        84           S   tau(  84) = (  -0.0008420   0.5784427   0.8521622  )
        85           Mo  tau(  85) = (  -0.1249984   0.7938567  -0.7272732  )
        86           Mo  tau(  86) = (   0.0000069   0.7216896  -0.2424039  )
        87           S   tau(  87) = (  -0.1249975   0.7938582  -0.3667782  )
        88           S   tau(  88) = (   0.0000016   0.7216877  -0.6030489  )
        89           S   tau(  89) = (   0.0000016   0.7216878  -0.8514963  )
        90           S   tau(  90) = (  -0.1249973   0.7938582  -0.1180279  )
        91           Mo  tau(  91) = (  -0.1249991   0.7938554   0.2424231  )
        92           Mo  tau(  92) = (   0.0000272   0.7225056   0.7272967  )
        93           S   tau(  93) = (  -0.1250211   0.7938445   0.6025475  )
        94           S   tau(  94) = (   0.0000130   0.7216533   0.3667448  )
        95           S   tau(  95) = (   0.0000240   0.7216636   0.1180365  )
        96           S   tau(  96) = (  -0.1251703   0.7937581   0.8519450  )
        97           Mo  tau(  97) = (   0.5000010   0.1443372  -0.7272732  )
        98           Mo  tau(  98) = (   0.6250001   0.0721662  -0.2424040  )
        99           S   tau(  99) = (   0.5000017   0.1443386  -0.3667801  )
       100           S   tau( 100) = (   0.6250010   0.0721682  -0.6030489  )
       101           S   tau( 101) = (   0.6250010   0.0721683  -0.8514963  )
       102           S   tau( 102) = (   0.5000020   0.1443388  -0.1180261  )
       103           Mo  tau( 103) = (   0.5000293   0.1443228   0.2424224  )
       104           Mo  tau( 104) = (   0.6250036   0.0721705   0.7272240  )
       105           S   tau( 105) = (   0.5001894   0.1442321   0.6026113  )
       106           S   tau( 106) = (   0.6250031   0.0721689   0.3668906  )
       107           S   tau( 107) = (   0.6250032   0.0721690   0.1179840  )
       108           S   tau( 108) = (   0.5003878   0.1441175   0.8519262  )
       109           Mo  tau( 109) = (   0.3750012   0.3608437  -0.7272732  )
       110           Mo  tau( 110) = (   0.4999991   0.2886761  -0.2424038  )
       111           S   tau( 111) = (   0.3750012   0.3608452  -0.3667804  )
       112           S   tau( 112) = (   0.5000012   0.2886747  -0.6030489  )
       113           S   tau( 113) = (   0.5000012   0.2886748  -0.8514963  )
       114           S   tau( 114) = (   0.3750014   0.3608455  -0.1180261  )
       115           Mo  tau( 115) = (   0.3749273   0.3608560   0.2423998  )
       116           Mo  tau( 116) = (   0.5006979   0.2882495   0.7272970  )
       117           S   tau( 117) = (   0.3746336   0.3603355   0.6031566  )
       118           S   tau( 118) = (   0.4999684   0.2886852   0.3667450  )
       119           S   tau( 119) = (   0.4999719   0.2886704   0.1180365  )
       120           S   tau( 120) = (   0.3763702   0.3610339   0.8521621  )
       121           Mo  tau( 121) = (   0.2500014   0.5773502  -0.7272732  )
       122           Mo  tau( 122) = (   0.3749983   0.5051825  -0.2424043  )
       123           S   tau( 123) = (   0.2500017   0.5773519  -0.3667810  )
       124           S   tau( 124) = (   0.3750014   0.5051812  -0.6030489  )
       125           S   tau( 125) = (   0.3750014   0.5051813  -0.8514963  )
       126           S   tau( 126) = (   0.2500018   0.5773519  -0.1180256  )
       127           Mo  tau( 127) = (   0.2499758   0.5772790   0.2423998  )
       128           Mo  tau( 128) = (   0.3748952   0.5051214   0.7272683  )
       129           S   tau( 129) = (   0.2493756   0.5772867   0.6031572  )
       130           S   tau( 130) = (   0.3749967   0.5051779   0.3668590  )
       131           S   tau( 131) = (   0.3750180   0.5051901   0.1180322  )
       132           S   tau( 132) = (   0.2508502   0.5784429   0.8521620  )
       133           Mo  tau( 133) = (   0.1250016   0.7938567  -0.7272732  )
       134           Mo  tau( 134) = (   0.2499995   0.7216883  -0.2424036  )
       135           S   tau( 135) = (   0.1250024   0.7938578  -0.3667813  )
       136           S   tau( 136) = (   0.2500016   0.7216877  -0.6030489  )
       137           S   tau( 137) = (   0.2500016   0.7216878  -0.8514963  )
       138           S   tau( 138) = (   0.1250024   0.7938579  -0.1180253  )
       139           Mo  tau( 139) = (   0.1250041   0.7938872   0.2424222  )
       140           Mo  tau( 140) = (   0.2499823   0.7225059   0.7272965  )
       141           S   tau( 141) = (   0.1250046   0.7940737   0.6026113  )
       142           S   tau( 142) = (   0.2499948   0.7216532   0.3667448  )
       143           S   tau( 143) = (   0.2499838   0.7216636   0.1180364  )
       144           S   tau( 144) = (   0.1250047   0.7943024   0.8519255  )
       145           Mo  tau( 145) = (   0.7500010   0.1443372  -0.7272732  )
       146           Mo  tau( 146) = (   0.8750038   0.0721696  -0.2424038  )
       147           S   tau( 147) = (   0.7500016   0.1443382  -0.3667789  )
       148           S   tau( 148) = (   0.8750010   0.0721682  -0.6030489  )
       149           S   tau( 149) = (   0.8750010   0.0721683  -0.8514963  )
       150           S   tau( 150) = (   0.7500016   0.1443384  -0.1180279  )
       151           Mo  tau( 151) = (   0.7499772   0.1443227   0.2424225  )
       152           Mo  tau( 152) = (   0.8742861   0.0717817   0.7272966  )
       153           S   tau( 153) = (   0.7498180   0.1442319   0.6026113  )
       154           S   tau( 154) = (   0.8750290   0.0721942   0.3667452  )
       155           S   tau( 155) = (   0.8750146   0.0721988   0.1180367  )
       156           S   tau( 156) = (   0.7496199   0.1441174   0.8519259  )
       157           Mo  tau( 157) = (   0.6250012   0.3608437  -0.7272732  )
       158           Mo  tau( 158) = (   0.7500028   0.2886769  -0.2424041  )
       159           S   tau( 159) = (   0.6250015   0.3608451  -0.3667792  )
       160           S   tau( 160) = (   0.7500012   0.2886747  -0.6030489  )
       161           S   tau( 161) = (   0.7500012   0.2886748  -0.8514963  )
       162           S   tau( 162) = (   0.6250016   0.3608454  -0.1180280  )
       163           Mo  tau( 163) = (   0.6250034   0.3608478   0.2424231  )
       164           Mo  tau( 164) = (   0.7493095   0.2882493   0.7272969  )
       165           S   tau( 165) = (   0.6250038   0.3608748   0.6025480  )
       166           S   tau( 166) = (   0.7500383   0.2886852   0.3667451  )
       167           S   tau( 167) = (   0.7500350   0.2886704   0.1180366  )
       168           S   tau( 168) = (   0.6250040   0.3610473   0.8519446  )
       169           Mo  tau( 169) = (   0.5000014   0.5773502  -0.7272732  )
       170           Mo  tau( 170) = (   0.6250029   0.5051841  -0.2424047  )
       171           S   tau( 171) = (   0.5000014   0.5773518  -0.3667794  )
       172           S   tau( 172) = (   0.6250014   0.5051812  -0.6030489  )
       173           S   tau( 173) = (   0.6250014   0.5051813  -0.8514963  )
       174           S   tau( 174) = (   0.5000016   0.5773516  -0.1180277  )
       175           Mo  tau( 175) = (   0.5000316   0.5773670   0.2424185  )
       176           Mo  tau( 176) = (   0.6250043   0.5052111   0.7271542  )
       177           S   tau( 177) = (   0.4997714   0.5772177   0.6026776  )
       178           S   tau( 178) = (   0.6250036   0.5051871   0.3668016  )
       179           S   tau( 179) = (   0.6250036   0.5051785   0.1180120  )
       180           S   tau( 180) = (   0.4999930   0.5773458   0.8516805  )
       181           Mo  tau( 181) = (   0.3750016   0.7938567  -0.7272732  )
       182           Mo  tau( 182) = (   0.5000025   0.7216901  -0.2424039  )
       183           S   tau( 183) = (   0.3750019   0.7938578  -0.3667793  )
       184           S   tau( 184) = (   0.5000016   0.7216877  -0.6030489  )
       185           S   tau( 185) = (   0.5000016   0.7216878  -0.8514963  )
       186           S   tau( 186) = (   0.3750020   0.7938579  -0.1180272  )
       187           Mo  tau( 187) = (   0.3750069   0.7938554   0.2424233  )
       188           Mo  tau( 188) = (   0.5000279   0.7216761   0.7271543  )
       189           S   tau( 189) = (   0.3750302   0.7938441   0.6025468  )
       190           S   tau( 190) = (   0.5000083   0.7216857   0.3668017  )
       191           S   tau( 191) = (   0.5000009   0.7216901   0.1180120  )
       192           S   tau( 192) = (   0.3751794   0.7937579   0.8519455  )
       193           H   tau( 193) = (   0.1250315   0.3608088   0.9606766  )

     --------------------------------------------
     DFT-D3 Dispersion Correction (3-body terms):
     --------------------------------------------
       Reference C6 values for interpolation: 

         atom   Coordination number   C6
         H          0.912             6.05
         H          0.000            15.18
         S          0.000           268.01
         S          0.995           261.99
         S          1.990           251.62
         Mo         0.000          1691.79
         Mo         1.942          1004.01
         Mo        11.056           674.22

       Values used:

         atom   Coordination number  R0_AB[au]  C6      C8
         Mo        10.208            3.547    674.22  77634.20
         Mo        10.221            3.547    674.22  77634.20
         S          3.858            3.128    251.62  12327.25
         S          3.859            3.128    251.62  12327.25
         S          3.758            3.128    251.62  12327.25
         S          3.859            3.128    251.62  12327.25
         Mo        10.221            3.547    674.22  77634.20
         Mo        10.184            3.547    674.22  77634.20
         S          3.856            3.128    251.62  12327.25
         S          3.857            3.128    251.62  12327.25
         S          3.859            3.128    251.62  12327.25
         S          3.744            3.128    251.62  12327.25
         Mo        10.208            3.547    674.22  77634.20
         Mo        10.221            3.547    674.22  77634.20
         S          3.858            3.128    251.62  12327.25
         S          3.859            3.128    251.62  12327.25
         S          3.758            3.128    251.62  12327.25
         S          3.859            3.128    251.62  12327.25
         Mo        10.221            3.547    674.22  77634.20
         Mo        10.203            3.547    674.21  77634.20
         S          3.856            3.128    251.62  12327.25
         S          3.860            3.128    251.62  12327.25
         S          3.859            3.128    251.62  12327.25
         S          3.744            3.128    251.62  12327.25
         Mo        10.208            3.547    674.22  77634.20
         Mo        10.221            3.547    674.22  77634.20
         S          3.858            3.128    251.62  12327.25
         S          3.859            3.128    251.62  12327.25
         S          3.758            3.128    251.62  12327.25
         S          3.859            3.128    251.62  12327.25
         Mo        10.221            3.547    674.22  77634.20
         Mo        10.184            3.547    674.22  77634.20
         S          3.847            3.128    251.62  12327.25
         S          3.857            3.128    251.62  12327.25
         S          3.859            3.128    251.62  12327.25
         S          3.763            3.128    251.62  12327.25
         Mo        10.208            3.547    674.22  77634.20
         Mo        10.220            3.547    674.22  77634.20
         S          3.858            3.128    251.62  12327.25
         S          3.859            3.128    251.62  12327.25
         S          3.758            3.128    251.62  12327.25
         S          3.859            3.128    251.62  12327.25
         Mo        10.221            3.547    674.22  77634.20
         Mo        10.202            3.547    674.22  77634.20
         S          3.847            3.128    251.62  12327.25
         S          3.859            3.128    251.62  12327.25
         S          3.859            3.128    251.62  12327.25
         S          3.763            3.128    251.62  12327.25
         Mo        10.208            3.547    674.22  77634.20
         Mo        10.221            3.547    674.22  77634.20
         S          3.858            3.128    251.62  12327.25
         S          3.859            3.128    251.62  12327.25
         S          3.758            3.128    251.62  12327.25
         S          3.859            3.128    251.62  12327.25
         Mo        10.221            3.547    674.22  77634.20
         Mo        10.207            3.547    674.22  77634.20
         S          3.856            3.128    251.62  12327.25
         S          3.859            3.128    251.62  12327.25
         S          3.859            3.128    251.62  12327.25
         S          3.744            3.128    251.62  12327.25
         Mo        10.208            3.547    674.22  77634.20
         Mo        10.221            3.547    674.22  77634.20
         S          3.858            3.128    251.62  12327.25
         S          3.859            3.128    251.62  12327.25
         S          3.758            3.128    251.62  12327.25
         S          3.859            3.128    251.62  12327.25
         Mo        10.227            3.547    674.22  77634.20
         Mo        10.203            3.547    674.22  77634.20
         S          3.872            3.128    251.62  12327.25
         S          3.860            3.128    251.62  12327.25
         S          3.859            3.128    251.62  12327.25
         S          4.723            3.128    251.62  12327.25
         Mo        10.208            3.547    674.22  77634.20
         Mo        10.221            3.547    674.22  77634.20
         S          3.858            3.128    251.62  12327.25
         S          3.859            3.128    251.62  12327.25
         S          3.758            3.128    251.62  12327.25
         S          3.859            3.128    251.62  12327.25
         Mo        10.221            3.547    674.22  77634.20
         Mo        10.203            3.547    674.22  77634.20
         S          3.856            3.128    251.62  12327.25
         S          3.860            3.128    251.62  12327.25
         S          3.859            3.128    251.62  12327.25
         S          3.744            3.128    251.62  12327.25
         Mo        10.208            3.547    674.21  77634.20
         Mo        10.221            3.547    674.22  77634.20
         S          3.858            3.128    251.62  12327.25
         S          3.859            3.128    251.62  12327.25
         S          3.758            3.128    251.62  12327.25
         S          3.859            3.128    251.62  12327.25
         Mo        10.218            3.547    674.22  77634.20
         Mo        10.207            3.547    674.22  77634.20
         S          3.850            3.128    251.62  12327.25
         S          3.859            3.128    251.62  12327.25
         S          3.859            3.128    251.62  12327.25
         S          3.766            3.128    251.62  12327.25
         Mo        10.208            3.547    674.22  77634.20
         Mo        10.221            3.547    674.22  77634.20
         S          3.858            3.128    251.62  12327.25
         S          3.859            3.128    251.62  12327.25
         S          3.758            3.128    251.62  12327.25
         S          3.859            3.128    251.62  12327.25
         Mo        10.220            3.547    674.22  77634.20
         Mo        10.268            3.547    674.22  77634.20
         S          3.859            3.128    251.62  12327.25
         S          3.858            3.128    251.62  12327.25
         S          3.858            3.128    251.62  12327.25
         S          3.761            3.128    251.62  12327.25
         Mo        10.208            3.547    674.22  77634.20
         Mo        10.221            3.547    674.22  77634.20
         S          3.858            3.128    251.62  12327.25
         S          3.859            3.128    251.62  12327.25
         S          3.758            3.128    251.62  12327.25
         S          3.859            3.128    251.62  12327.25
         Mo        10.221            3.547    674.22  77634.20
         Mo        10.207            3.547    674.22  77634.20
         S          3.856            3.128    251.62  12327.25
         S          3.859            3.128    251.62  12327.25
         S          3.859            3.128    251.62  12327.25
         S          3.744            3.128    251.62  12327.25
         Mo        10.208            3.547    674.22  77634.20
         Mo        10.221            3.547    674.22  77634.20
         S          3.858            3.128    251.62  12327.25
         S          3.859            3.128    251.62  12327.25
         S          3.758            3.128    251.62  12327.25
         S          3.859            3.128    251.62  12327.25
         Mo        10.221            3.547    674.22  77634.20
         Mo        10.184            3.547    674.22  77634.20
         S          3.856            3.128    251.62  12327.25
         S          3.857            3.128    251.62  12327.25
         S          3.859            3.128    251.62  12327.25
         S          3.744            3.128    251.62  12327.25
         Mo        10.208            3.547    674.22  77634.20
         Mo        10.221            3.547    674.22  77634.20
         S          3.858            3.128    251.62  12327.25
         S          3.859            3.128    251.62  12327.25
         S          3.758            3.128    251.62  12327.25
         S          3.859            3.128    251.62  12327.25
         Mo        10.220            3.547    674.22  77634.20
         Mo        10.207            3.547    674.22  77634.20
         S          3.859            3.128    251.62  12327.25
         S          3.859            3.128    251.62  12327.25
         S          3.859            3.128    251.62  12327.25
         S          3.761            3.128    251.62  12327.25
         Mo        10.208            3.547    674.22  77634.20
         Mo        10.221            3.547    674.22  77634.20
         S          3.858            3.128    251.62  12327.25
         S          3.859            3.128    251.62  12327.25
         S          3.758            3.128    251.62  12327.25
         S          3.859            3.128    251.62  12327.25
         Mo        10.220            3.547    674.22  77634.20
         Mo        10.207            3.547    674.22  77634.20
         S          3.859            3.128    251.62  12327.25
         S          3.859            3.128    251.62  12327.25
         S          3.859            3.128    251.62  12327.25
         S          3.761            3.128    251.62  12327.25
         Mo        10.208            3.547    674.22  77634.20
         Mo        10.220            3.547    674.22  77634.20
         S          3.858            3.128    251.62  12327.25
         S          3.859            3.128    251.62  12327.25
         S          3.758            3.128    251.62  12327.25
         S          3.859            3.128    251.62  12327.25
         Mo        10.218            3.547    674.22  77634.20
         Mo        10.207            3.547    674.22  77634.20
         S          3.850            3.128    251.62  12327.25
         S          3.859            3.128    251.62  12327.25
         S          3.859            3.128    251.62  12327.25
         S          3.766            3.128    251.62  12327.25
         Mo        10.208            3.547    674.22  77634.20
         Mo        10.221            3.547    674.21  77634.20
         S          3.858            3.128    251.62  12327.25
         S          3.859            3.128    251.62  12327.25
         S          3.758            3.128    251.62  12327.25
         S          3.859            3.128    251.62  12327.25
         Mo        10.221            3.547    674.22  77634.20
         Mo        10.202            3.547    674.22  77634.20
         S          3.847            3.128    251.62  12327.25
         S          3.859            3.128    251.62  12327.25
         S          3.859            3.128    251.62  12327.25
         S          3.763            3.128    251.62  12327.25
         Mo        10.208            3.547    674.21  77634.20
         Mo        10.221            3.547    674.22  77634.20
         S          3.858            3.128    251.62  12327.25
         S          3.859            3.128    251.62  12327.25
         S          3.758            3.128    251.62  12327.25
         S          3.859            3.128    251.62  12327.25
         Mo        10.218            3.547    674.21  77634.20
         Mo        10.203            3.547    674.22  77634.20
         S          3.850            3.128    251.62  12327.25
         S          3.859            3.128    251.62  12327.25
         S          3.859            3.128    251.62  12327.25
         S          3.766            3.128    251.62  12327.25
         H          0.998            2.062      6.18     74.74

         Molecular C6 ( Ry / a.u.^6 ) =  13631986.54


     number of k points=     4  Gaussian smearing, width (Ry)=  0.0100
                       cart. coord. in units 2pi/alat
        k(    1) = (   0.0000000   0.0000000   0.0000000), wk =   0.5000000
        k(    2) = (   0.0000000  -0.5773499   0.0000000), wk =   0.5000000
        k(    3) = (  -0.5000000  -0.2886744   0.0000000), wk =   0.5000000
        k(    4) = (  -0.5000000  -0.8660242   0.0000000), wk =   0.5000000

     Dense  grid:  7154885 G-vectors     FFT dimensions: ( 180, 180, 512)

     Smooth grid:  3090769 G-vectors     FFT dimensions: ( 135, 135, 400)

     Estimated max dynamical RAM per process >       3.17 GB

     Estimated total dynamical RAM >     113.99 GB

     Initial potential from superposition of free atoms

     starting charge    1664.9394, renormalised to    1665.0000

     negative rho (up, down):  7.063E-04 0.000E+00
     Starting wfcs are 1153 randomized atomic wfcs
     Checking if some PAW data can be deallocated... 

     total cpu time spent up to now is      193.7 secs

     Self-consistent Calculation

     iteration #  1     ecut=    77.00 Ry     beta= 0.20
     Davidson diagonalization with overlap
     ethr =  1.00E-02,  avg # of iterations =  2.0

     Threshold (ethr) on eigenvalues was too large:
     Diagonalizing with lowered threshold

     Davidson diagonalization with overlap
     ethr =  1.27E-04,  avg # of iterations = 18.8

     negative rho (up, down):  1.407E-04 0.000E+00

     total cpu time spent up to now is     2710.1 secs

     total energy              =  -31794.69115133 Ry
     estimated scf accuracy    <       6.86684694 Ry

     iteration #  2     ecut=    77.00 Ry     beta= 0.20
     Davidson diagonalization with overlap
     ethr =  4.12E-04,  avg # of iterations =  2.0

     negative rho (up, down):  9.398E-05 0.000E+00

     total cpu time spent up to now is     3141.1 secs

     total energy              =  -31793.29779882 Ry
     estimated scf accuracy    <       7.72191586 Ry

     iteration #  3     ecut=    77.00 Ry     beta= 0.20
     Davidson diagonalization with overlap
     ethr =  4.12E-04,  avg # of iterations =  2.5

     negative rho (up, down):  2.883E-05 0.000E+00

     total cpu time spent up to now is     3574.3 secs

     total energy              =  -31776.26751514 Ry
     estimated scf accuracy    <     793.37615915 Ry

     iteration #  4     ecut=    77.00 Ry     beta= 0.20
     Davidson diagonalization with overlap
     ethr =  4.12E-04,  avg # of iterations =  2.0

     negative rho (up, down):  7.622E-06 0.000E+00

     total cpu time spent up to now is     4006.6 secs

     total energy              =  -31793.58322764 Ry
     estimated scf accuracy    <      33.28574603 Ry

     iteration #  5     ecut=    77.00 Ry     beta= 0.20
     Davidson diagonalization with overlap
     ethr =  4.12E-04,  avg # of iterations =  2.0

     negative rho (up, down):  5.417E-06 0.000E+00

     total cpu time spent up to now is     4438.4 secs

     total energy              =  -31792.76213242 Ry
     estimated scf accuracy    <     239.08437109 Ry

     iteration #  6     ecut=    77.00 Ry     beta= 0.20
     Davidson diagonalization with overlap
     ethr =  4.12E-04,  avg # of iterations =  1.0

     negative rho (up, down):  6.113E-06 0.000E+00

     total cpu time spent up to now is     4832.4 secs

     total energy              =  -31793.60241931 Ry
     estimated scf accuracy    <      10.01086766 Ry

     iteration #  7     ecut=    77.00 Ry     beta= 0.20
     Davidson diagonalization with overlap
     ethr =  4.12E-04,  avg # of iterations =  1.0

     negative rho (up, down):  8.445E-06 0.000E+00

     total cpu time spent up to now is     5226.3 secs

     total energy              =  -31794.00054473 Ry
     estimated scf accuracy    <       0.27327918 Ry

     iteration #  8     ecut=    77.00 Ry     beta= 0.20
     Davidson diagonalization with overlap
     c_bands:  1 eigenvalues not converged
     c_bands:  4 eigenvalues not converged
     c_bands:  4 eigenvalues not converged
     c_bands:  4 eigenvalues not converged
     ethr =  1.64E-05,  avg # of iterations = 40.0

     negative rho (up, down):  1.335E-05 0.000E+00

     total cpu time spent up to now is     8623.7 secs

     total energy              =  -31795.02517435 Ry
     estimated scf accuracy    <       1.77943595 Ry

     iteration #  9     ecut=    77.00 Ry     beta= 0.20
     Davidson diagonalization with overlap
     c_bands:  1 eigenvalues not converged
     c_bands:  1 eigenvalues not converged
     ethr =  1.64E-05,  avg # of iterations = 42.0

     negative rho (up, down):  2.743E-05 0.000E+00

     total cpu time spent up to now is     9745.8 secs

     total energy              =  -31794.82821409 Ry
     estimated scf accuracy    <       1.32029687 Ry

     iteration # 10     ecut=    77.00 Ry     beta= 0.20
     Davidson diagonalization with overlap
     ethr =  1.64E-05,  avg # of iterations =  5.0

     negative rho (up, down):  8.619E-04 0.000E+00

     total cpu time spent up to now is    10201.9 secs

     total energy              =  -31794.25513744 Ry
     estimated scf accuracy    <       0.93406130 Ry

     iteration # 11     ecut=    77.00 Ry     beta= 0.20
     Davidson diagonalization with overlap
     c_bands:  1 eigenvalues not converged
     c_bands:  3 eigenvalues not converged
     c_bands:  2 eigenvalues not converged
     c_bands:  3 eigenvalues not converged
     ethr =  1.64E-05,  avg # of iterations = 20.0

     negative rho (up, down):  1.807E-04 0.000E+00

     total cpu time spent up to now is    11360.7 secs

     total energy              =  -31794.65137673 Ry
     estimated scf accuracy    <       0.54887400 Ry

     iteration # 12     ecut=    77.00 Ry     beta= 0.20
     Davidson diagonalization with overlap
     c_bands:  1 eigenvalues not converged
     c_bands:  1 eigenvalues not converged
     c_bands:  4 eigenvalues not converged
     ethr =  1.64E-05,  avg # of iterations = 22.8

     negative rho (up, down):  2.375E-04 0.000E+00

     total cpu time spent up to now is    12012.4 secs

     total energy              =  -31794.68136180 Ry
     estimated scf accuracy    <       0.07025936 Ry

     iteration # 13     ecut=    77.00 Ry     beta= 0.20
     Davidson diagonalization with overlap
     c_bands:  2 eigenvalues not converged
     c_bands:  4 eigenvalues not converged
     c_bands:  5 eigenvalues not converged
     c_bands:  4 eigenvalues not converged
     ethr =  4.22E-06,  avg # of iterations = 65.0

     negative rho (up, down):  2.874E-04 0.000E+00

     total cpu time spent up to now is    13994.8 secs

     total energy              =  -31794.76314730 Ry
     estimated scf accuracy    <       0.03648341 Ry

     iteration # 14     ecut=    77.00 Ry     beta= 0.20
     Davidson diagonalization with overlap
     c_bands:  4 eigenvalues not converged
     c_bands:  5 eigenvalues not converged
     c_bands:  5 eigenvalues not converged
     c_bands:  4 eigenvalues not converged
     ethr =  2.19E-06,  avg # of iterations = 45.0

     negative rho (up, down):  4.586E-04 0.000E+00

     total cpu time spent up to now is    15074.0 secs

     total energy              =  -31794.74815903 Ry
     estimated scf accuracy    <       0.03614097 Ry

     iteration # 15     ecut=    77.00 Ry     beta= 0.20
     Davidson diagonalization with overlap
     c_bands:  3 eigenvalues not converged
     c_bands:  4 eigenvalues not converged
     c_bands:  3 eigenvalues not converged
     ethr =  2.17E-06,  avg # of iterations = 19.0

     negative rho (up, down):  9.938E-04 0.000E+00

     total cpu time spent up to now is    15591.9 secs

     total energy              =  -31794.75738832 Ry
     estimated scf accuracy    <       0.01287477 Ry

     iteration # 16     ecut=    77.00 Ry     beta= 0.20
     Davidson diagonalization with overlap
     c_bands:  4 eigenvalues not converged
     c_bands:  2 eigenvalues not converged
     c_bands:  1 eigenvalues not converged
     ethr =  7.73E-07,  avg # of iterations = 45.5

     negative rho (up, down):  8.419E-04 0.000E+00

     total cpu time spent up to now is    17836.8 secs

     total energy              =  -31794.75819713 Ry
     estimated scf accuracy    <       0.12334050 Ry

     iteration # 17     ecut=    77.00 Ry     beta= 0.20
     Davidson diagonalization with overlap
     c_bands:  2 eigenvalues not converged
     c_bands:  2 eigenvalues not converged
     ethr =  7.73E-07,  avg # of iterations = 13.0

     negative rho (up, down):  6.294E-04 0.000E+00

     total cpu time spent up to now is    18474.4 secs

     total energy              =  -31794.72342551 Ry
     estimated scf accuracy    <       0.05418052 Ry

     iteration # 18     ecut=    77.00 Ry     beta= 0.20
     Davidson diagonalization with overlap
     ethr =  7.73E-07,  avg # of iterations = 19.0

     negative rho (up, down):  7.255E-04 0.000E+00

     total cpu time spent up to now is    19716.0 secs

     total energy              =  -31794.75191081 Ry
     estimated scf accuracy    <       0.01333500 Ry

     iteration # 19     ecut=    77.00 Ry     beta= 0.20
     Davidson diagonalization with overlap
     ethr =  7.73E-07,  avg # of iterations =  9.5

     negative rho (up, down):  7.849E-04 0.000E+00

     total cpu time spent up to now is    20172.7 secs

     total energy              =  -31794.75062743 Ry
     estimated scf accuracy    <       0.00299093 Ry

     iteration # 20     ecut=    77.00 Ry     beta= 0.20
     Davidson diagonalization with overlap
     c_bands:  1 eigenvalues not converged
     ethr =  1.80E-07,  avg # of iterations = 17.5

     negative rho (up, down):  8.356E-04 0.000E+00

     total cpu time spent up to now is    20929.4 secs

     total energy              =  -31794.75269713 Ry
     estimated scf accuracy    <       0.00024038 Ry

     iteration # 21     ecut=    77.00 Ry     beta= 0.20
     Davidson diagonalization with overlap
     c_bands:  5 eigenvalues not converged
     c_bands:  1 eigenvalues not converged
     c_bands:  1 eigenvalues not converged
     ethr =  1.44E-08,  avg # of iterations = 35.2

     negative rho (up, down):  7.952E-04 0.000E+00

     total cpu time spent up to now is    23924.7 secs

     total energy              =  -31794.75232159 Ry
     estimated scf accuracy    <       0.00413288 Ry

     iteration # 22     ecut=    77.00 Ry     beta= 0.20
     Davidson diagonalization with overlap
     ethr =  1.44E-08,  avg # of iterations = 14.5

     negative rho (up, down):  7.907E-04 0.000E+00

     total cpu time spent up to now is    25009.1 secs

     total energy              =  -31794.75261373 Ry
     estimated scf accuracy    <       0.00044732 Ry

     iteration # 23     ecut=    77.00 Ry     beta= 0.20
     Davidson diagonalization with overlap
     ethr =  1.44E-08,  avg # of iterations = 10.0

     negative rho (up, down):  8.133E-04 0.000E+00

     total cpu time spent up to now is    25818.1 secs

     total energy              =  -31794.75278578 Ry
     estimated scf accuracy    <       0.00003147 Ry

     iteration # 24     ecut=    77.00 Ry     beta= 0.20
     Davidson diagonalization with overlap
     c_bands:  1 eigenvalues not converged
     ethr =  1.89E-09,  avg # of iterations = 18.8

     negative rho (up, down):  8.149E-04 0.000E+00

     total cpu time spent up to now is    26848.5 secs

     total energy              =  -31794.75282005 Ry
     estimated scf accuracy    <       0.00002757 Ry

     iteration # 25     ecut=    77.00 Ry     beta= 0.20
     Davidson diagonalization with overlap
     ethr =  1.66E-09,  avg # of iterations =  5.0

     negative rho (up, down):  8.172E-04 0.000E+00

     total cpu time spent up to now is    27295.4 secs

     total energy              =  -31794.75281453 Ry
     estimated scf accuracy    <       0.00001641 Ry

     iteration # 26     ecut=    77.00 Ry     beta= 0.20
     Davidson diagonalization with overlap
     ethr =  9.86E-10,  avg # of iterations = 12.8

     negative rho (up, down):  8.208E-04 0.000E+00

     total cpu time spent up to now is    28097.5 secs

     total energy              =  -31794.75282759 Ry
     estimated scf accuracy    <       0.00000224 Ry

     iteration # 27     ecut=    77.00 Ry     beta= 0.20
     Davidson diagonalization with overlap
     c_bands:  3 eigenvalues not converged
     c_bands:  2 eigenvalues not converged
     ethr =  1.34E-10,  avg # of iterations = 19.8

     negative rho (up, down):  8.254E-04 0.000E+00

     total cpu time spent up to now is    29423.0 secs

     total energy              =  -31794.75282857 Ry
     estimated scf accuracy    <       0.00000195 Ry

     iteration # 28     ecut=    77.00 Ry     beta= 0.20
     Davidson diagonalization with overlap
     c_bands:  1 eigenvalues not converged
     ethr =  1.17E-10,  avg # of iterations = 13.8

     negative rho (up, down):  8.299E-04 0.000E+00

     total cpu time spent up to now is    30083.2 secs

     End of self-consistent calculation

          k = 0.0000 0.0000 0.0000 (386245 PWs)   bands (ev):

   -66.7770 -66.7579 -66.7577 -66.7388 -66.7348 -66.7347 -66.7174 -66.7099
   -66.7099 -66.7094 -66.6969 -66.6968 -66.6926 -66.6925 -66.6901 -66.6852
   -66.6040 -66.5838 -66.5838 -66.5838 -66.5821 -66.5820 -66.5802 -66.5797
   -66.5751 -66.5631 -66.5628 -66.5628 -66.5617 -66.5617 -66.5607 -66.5607
   -66.5600 -66.5585 -66.5585 -66.5585 -66.5583 -66.5583 -66.5582 -66.5556
   -66.5538 -66.5538 -66.5537 -66.5537 -66.5537 -66.5537 -66.5372 -66.5372
   -66.5371 -66.5371 -66.5370 -66.5370 -66.5369 -66.5367 -66.5367 -66.5324
   -66.5324 -66.5323 -66.5323 -66.5323 -66.5323 -66.5323 -66.5323 -66.5323
   -41.0849 -41.0839 -41.0839 -41.0145 -41.0089 -41.0045 -41.0045 -40.9923
   -40.9922 -40.9387 -40.9311 -40.9311 -40.9309 -40.9238 -40.9236 -40.9072
   -40.9072 -40.9069 -40.9031 -40.9031 -40.9031 -40.8890 -40.8819 -40.8790
   -40.8789 -40.8710 -40.8709 -40.8663 -40.8653 -40.8653 -40.8571 -40.8564
   -40.8563 -40.8555 -40.8555 -40.8550 -40.8550 -40.8490 -40.8475 -40.8474
   -40.8390 -40.8355 -40.8334 -40.8334 -40.8319 -40.8319 -40.8319 -40.8316
   -40.8316 -40.8316 -40.8284 -40.8284 -40.8278 -40.8278 -40.8277 -40.8277
   -40.8277 -40.8277 -40.8192 -40.8191 -40.8134 -40.8133 -40.8108 -40.8076
   -40.7643 -40.7613 -40.7578 -40.7578 -40.7394 -40.7354 -40.7312 -40.7294
   -40.7294 -40.7287 -40.7286 -40.7286 -40.7237 -40.7235 -40.7235 -40.7224
   -40.7224 -40.7205 -40.7194 -40.7172 -40.7172 -40.7062 -40.7062 -40.7055
   -40.7055 -40.7055 -40.7054 -40.7054 -40.7053 -40.7013 -40.7013 -40.7013
   -40.7013 -40.7013 -40.7013 -40.6979 -40.6979 -40.6978 -40.6976 -40.6976
   -40.6976 -40.6964 -40.6960 -40.6945 -40.6942 -40.6941 -40.6936 -40.6936
   -40.6936 -40.6936 -40.6936 -40.6936 -40.6934 -40.6934 -40.6820 -40.6820
   -40.6820 -40.6812 -40.6812 -40.6805 -40.6804 -40.6800 -40.6739 -40.6705
   -40.6705 -40.6705 -40.6704 -40.6703 -40.6703 -40.6662 -40.6662 -40.6662
   -40.6662 -40.6662 -40.6662 -40.6602 -40.6602 -40.6559 -40.6559 -40.6559
   -40.6559 -40.6558 -40.6557 -40.6557 -40.6555 -40.6554 -40.6516 -40.6516
   -40.6516 -40.6516 -40.6516 -40.6516 -40.6515 -40.6515 -40.6515 -40.6160
   -40.6160 -40.6158 -40.5921 -40.5921 -40.5920 -40.5878 -40.5878 -40.5878
   -40.5698 -40.5691 -40.5691 -40.5684 -40.5684 -40.5679 -40.5451 -40.5451
   -40.5451 -40.5448 -40.5448 -40.5448 -40.5406 -40.5406 -40.5406 -40.5406
   -40.5406 -40.5406 -40.5211 -40.5211 -40.4973 -40.4973 -40.4930 -40.4930
   -20.4465 -20.0800 -19.9968 -19.9013 -19.8344 -19.2853 -19.2853 -19.2767
   -19.2767 -19.2747 -19.2095 -19.1858 -19.1858 -19.1842 -19.1842 -19.1837
   -19.1310 -19.0983 -19.0983 -19.0974 -19.0974 -19.0967 -19.0221 -18.9970
   -18.9970 -18.9968 -18.9968 -18.9967 -18.9560 -18.8448 -18.7418 -18.5953
   -18.4973 -18.4973 -18.4919 -18.4918 -18.4873 -18.4598 -18.4198 -18.3743
   -18.3742 -18.3720 -18.3720 -18.3702 -18.3298 -18.2503 -18.2503 -18.2496
   -18.2496 -18.2489 -18.2423 -18.1945 -18.1779 -18.1779 -18.1727 -18.1726
   -18.1472 -18.1458 -18.1457 -18.1457 -18.1456 -18.1456 -18.1431 -18.1422
   -18.1422 -18.0975 -18.0827 -18.0785 -18.0785 -18.0775 -18.0775 -18.0656
   -18.0441 -18.0425 -18.0425 -18.0387 -18.0380 -18.0380 -18.0374 -18.0374
   -18.0219 -18.0145 -18.0145 -18.0004 -17.9943 -17.9874 -17.9874 -17.9869
   -17.9869 -17.9825 -17.9825 -17.9819 -17.9513 -17.9485 -17.9444 -17.9444
   -17.9440 -17.9440 -17.9388 -17.9388 -17.9382 -17.8754 -17.8753 -17.8746
   -17.8612 -17.8611 -17.8603 -17.8603 -17.8593 -17.8592 -17.8323 -17.8323
   -17.8321 -17.8040 -17.8040 -17.8039 -17.8039 -17.8028 -17.8028 -17.7996
   -17.7996 -17.7995 -17.7579 -17.7579 -17.7578 -17.7577 -17.7576 -17.7576
   -13.1585 -11.9516 -11.8819 -11.8819 -11.8265 -11.7478 -11.7478 -11.7366
   -11.6996 -11.6323 -11.6323 -11.6210 -11.5138 -11.5138 -11.5114 -11.3769
   -11.2697 -11.2697 -11.2329 -11.2315 -11.2315 -11.2193 -11.2192 -11.1994
   -11.1603 -11.1585 -11.1585 -11.1421 -11.0963 -11.0963 -11.0669 -11.0668
   -11.0668 -11.0660 -11.0628 -11.0628 -11.0627 -11.0618 -11.0612 -11.0612
   -11.0212 -11.0211 -10.9875 -10.9804 -10.9792 -10.9792 -10.9746 -10.9529
   -10.9528 -10.9168 -10.9135 -10.9135 -10.9135 -10.8879 -10.8879 -10.8740
   -10.8730 -10.8729 -10.8707 -10.8707 -10.8697 -10.8688 -10.8137 -10.8137
   -10.8101 -10.8090 -10.8090 -10.8011 -10.8011 -10.7999 -10.7958 -10.7958
   -10.7954 -10.7948 -10.7948 -10.7948 -10.7459 -10.7451 -10.7451 -10.7449
   -10.7449 -10.7448 -10.7417 -10.7293 -10.7293 -10.6973 -10.6972 -10.6972
   -10.6971 -10.6969 -10.6969 -10.6837 -10.6152 -10.6152 -10.6075 -10.5617
   -10.5617 -10.5589 -10.5584 -10.5584 -10.5178 -10.1956 -10.1956 -10.1528
    -9.9945  -9.9944  -9.9617  -9.8905  -9.8905  -9.8549  -9.8337  -9.8337
    -9.8269  -9.7791  -9.7791  -9.7695  -9.7474  -9.7472  -9.7472  -9.7467
    -9.7466  -9.7436  -9.7219  -9.7219  -9.7136  -9.7135  -9.7135  -9.7117
    -9.6966  -9.6966  -9.6563  -9.6521  -9.6518  -9.6517  -9.6486  -9.6486
    -9.6480  -9.6402  -9.6402  -9.6050  -9.6050  -9.6050  -9.6002  -9.5977
    -9.5977  -9.5959  -9.5952  -9.5951  -9.5371  -9.4999  -9.4999  -9.4959
    -9.4949  -9.4949  -9.4949  -9.4949  -9.4948  -9.4948  -9.4946  -9.4946
    -9.4888  -9.4688  -9.4652  -9.4652  -9.4614  -9.4614  -9.3543  -9.3516
    -9.3516  -9.3303  -9.3287  -9.3287  -9.3264  -9.3102  -9.3102  -9.3098
    -9.3067  -9.3067  -9.2248  -9.2248  -9.2153  -9.2110  -9.2110  -9.2104
    -9.1500  -9.1500  -9.1443  -9.1426  -9.1426  -9.1425  -9.1386  -9.1386
    -9.1372  -9.1082  -9.1082  -9.1079  -9.0832  -9.0832  -9.0608  -8.9788
    -8.9788  -8.9449  -8.9445  -8.9437  -8.9437  -8.9430  -8.9430  -8.9355
    -8.9131  -8.9129  -8.9129  -8.8766  -8.8766  -8.8758  -8.8755  -8.8755
    -8.8712  -8.8712  -8.8687  -8.8686  -8.7851  -8.7797  -8.7797  -8.7788
    -8.7788  -8.7788  -8.7578  -8.7363  -8.7363  -8.7308  -8.7301  -8.7301
    -8.6422  -8.6380  -8.6380  -8.6364  -8.6360  -8.6360  -8.5788  -8.5545
    -8.5545  -8.5543  -8.5542  -8.5542  -8.5535  -8.4960  -8.4960  -8.4256
    -8.3972  -8.3971  -8.3672  -8.3568  -8.3567  -8.3495  -8.3392  -8.3392
    -8.3190  -8.3190  -8.3116  -8.3116  -8.2410  -8.2410  -8.2408  -8.2401
    -8.2401  -8.2398  -8.2126  -8.2125  -8.2125  -8.2122  -8.2121  -8.2120
    -8.1788  -8.1787  -8.1787  -8.1787  -8.1786  -8.1786  -8.0119  -7.9110
    -7.9110  -7.8454  -7.8041  -7.8041  -7.7803  -7.7174  -7.7174  -7.7032
    -7.7021  -7.7021  -7.6556  -7.6515  -7.6515  -7.6427  -7.6427  -7.6198
    -7.6198  -7.6185  -7.6106  -7.6095  -7.6095  -7.5902  -7.5721  -7.5473
    -7.5473  -7.5434  -7.5429  -7.5429  -7.5004  -7.5003  -7.5003  -7.4990
    -7.4990  -7.4969  -7.4966  -7.4719  -7.4718  -7.4718  -7.4712  -7.4712
    -7.4702  -7.4408  -7.4407  -7.4407  -7.4406  -7.4406  -7.4403  -7.4264
    -7.4264  -7.4136  -7.4136  -7.4122  -7.4100  -7.4100  -7.4096  -7.4079
    -7.4079  -7.4078  -7.3905  -7.3556  -7.3556  -7.3117  -7.2845  -7.2845
    -7.2805  -7.2805  -7.2788  -7.2637  -7.2636  -7.2636  -7.2626  -7.2626
    -7.2623  -7.2182  -7.2182  -7.1949  -7.1949  -7.1714  -7.1714  -7.1246
    -7.0743  -7.0743  -7.0702  -7.0702  -7.0685  -6.9029  -6.8627  -6.8627
    -6.8454  -6.8298  -6.8298  -6.8284  -6.8271  -6.8271  -6.7602  -6.7345
    -6.7345  -6.7335  -6.7052  -6.6866  -6.6866  -6.6675  -6.6582  -6.6582
    -6.6567  -6.6560  -6.6560  -6.6078  -6.5871  -6.5871  -6.5794  -6.5793
    -6.5793  -6.5454  -6.5429  -6.5429  -6.5421  -6.5414  -6.5414  -6.4847
    -6.4845  -6.4841  -6.4841  -6.4837  -6.4837  -6.4675  -6.4675  -6.4672
    -6.4549  -6.4548  -6.4537  -6.4536  -6.4536  -6.4536  -6.4532  -6.4532
    -6.4142  -6.4137  -6.4137  -6.4132  -6.4048  -6.4018  -6.4017  -6.3667
    -6.3667  -6.3667  -6.2939  -6.2939  -6.2934  -6.2917  -6.2916  -6.2916
    -6.2538  -6.2538  -6.2537  -6.2523  -6.2522  -6.2522  -6.2106  -6.2105
    -6.2105  -6.2102  -6.2101  -6.2101  -6.1949  -5.7034  -5.3547  -5.1353
    -4.3350  -3.9007  -3.9007  -3.8651  -3.8646  -3.8646  -3.8463  -3.8462
    -3.8434  -3.8361  -3.8360  -3.8229  -3.7547  -3.7217  -3.7216  -3.6984
    -3.6984  -3.6951  -3.6937  -3.6936  -3.6893  -3.6893  -3.6871  -3.6833
    -3.5969  -3.5968  -3.5530  -3.5529  -3.5494  -3.5400  -3.5249  -3.5156
    -3.5156  -3.5137  -3.5054  -3.5052  -3.5009  -3.5008  -3.4858  -3.4752
    -3.4623  -3.4622  -3.4550  -3.4537  -3.4537  -3.4174  -3.4174  -3.4138
    -3.4131  -3.4130  -3.4123  -3.4090  -3.4089  -3.4082  -3.3852  -3.3850
    -3.3849  -3.3618  -3.3618  -3.3617  -3.3374  -3.3374  -3.3338  -3.3335
    -3.3335  -3.3327  -3.3237  -3.3218  -3.3217  -3.3205  -3.3204  -3.3180
    -3.2579  -3.2510  -3.2510  -3.2500  -3.2500  -3.2499  -3.2496  -3.2170
    -3.2170  -3.2042  -3.2023  -3.2022  -3.1100  -3.1048  -3.1047  -3.0955
    -3.0954  -3.0849  -3.0789  -3.0786  -3.0756  -3.0739  -3.0735  -3.0524
    -2.9951  -2.9950  -2.9725  -2.9704  -2.9700  -2.9685  -2.9674  -2.9666
    -2.9659  -2.9648  -2.9641  -2.9638  -2.9630  -2.9609  -2.9514  -2.9479
    -2.9476  -2.9418  -2.9416  -2.9415  -2.9282  -2.9279  -2.9135  -2.9133
    -2.8961  -2.8960  -2.8958  -2.8956  -2.8956  -2.8954  -2.8886  -2.8885
    -2.8665  -2.8665  -2.8657  -2.8622  -2.8621  -2.7721  -2.7718  -2.7718
    -2.7702  -2.7569  -2.7566  -2.7550  -2.7542  -2.7517  -2.7503  -2.7494
    -2.7484  -2.7472  -2.7458  -2.7443  -2.7359  -2.7359  -2.6656  -2.6655
    -2.6303  -2.6192  -2.6171  -2.6098  -2.6072  -2.6018  -2.6018  -2.5994
    -2.5340  -2.5315  -2.5300  -2.5275  -2.5226  -2.5138  -2.4340  -2.4304

          k = 0.0000-0.5773 0.0000 (386352 PWs)   bands (ev):

   -66.7767 -66.7584 -66.7580 -66.7394 -66.7345 -66.7333 -66.7192 -66.7123
   -66.7094 -66.7031 -66.6987 -66.6983 -66.6937 -66.6926 -66.6893 -66.6848
   -66.5986 -66.5971 -66.5874 -66.5866 -66.5735 -66.5734 -66.5725 -66.5721
   -66.5720 -66.5720 -66.5688 -66.5688 -66.5682 -66.5663 -66.5629 -66.5628
   -66.5628 -66.5615 -66.5610 -66.5597 -66.5582 -66.5582 -66.5568 -66.5544
   -66.5478 -66.5478 -66.5476 -66.5476 -66.5433 -66.5432 -66.5431 -66.5430
   -66.5430 -66.5430 -66.5386 -66.5386 -66.5371 -66.5371 -66.5370 -66.5368
   -66.5326 -66.5325 -66.5323 -66.5323 -66.5323 -66.5323 -66.5279 -66.5279
   -41.0689 -41.0624 -41.0472 -41.0393 -41.0309 -41.0098 -41.0051 -40.9979
   -40.9614 -40.9596 -40.9563 -40.9525 -40.9290 -40.9196 -40.9163 -40.9009
   -40.8996 -40.8990 -40.8979 -40.8878 -40.8844 -40.8813 -40.8756 -40.8756
   -40.8754 -40.8753 -40.8733 -40.8721 -40.8715 -40.8715 -40.8715 -40.8715
   -40.8706 -40.8677 -40.8605 -40.8602 -40.8581 -40.8487 -40.8486 -40.8447
   -40.8446 -40.8437 -40.8385 -40.8366 -40.8366 -40.8339 -40.8326 -40.8326
   -40.8271 -40.8268 -40.8256 -40.8205 -40.8157 -40.8139 -40.8113 -40.8100
   -40.8098 -40.8097 -40.8095 -40.8078 -40.8063 -40.7989 -40.7862 -40.7860
   -40.7859 -40.7859 -40.7858 -40.7820 -40.7818 -40.7818 -40.7818 -40.7818
   -40.7633 -40.7622 -40.7571 -40.7529 -40.7516 -40.7513 -40.7463 -40.7419
   -40.7411 -40.7365 -40.7344 -40.7316 -40.7306 -40.7273 -40.7272 -40.7232
   -40.7232 -40.7176 -40.7176 -40.7172 -40.7134 -40.7134 -40.7064 -40.7064
   -40.7041 -40.7023 -40.7023 -40.7021 -40.7020 -40.7019 -40.7007 -40.6991
   -40.6937 -40.6916 -40.6827 -40.6819 -40.6811 -40.6807 -40.6805 -40.6795
   -40.6783 -40.6769 -40.6769 -40.6767 -40.6767 -40.6726 -40.6726 -40.6726
   -40.6726 -40.6722 -40.6699 -40.6684 -40.6681 -40.6680 -40.6639 -40.6639
   -40.6562 -40.6561 -40.6559 -40.6558 -40.6557 -40.6556 -40.6519 -40.6519
   -40.6516 -40.6516 -40.6515 -40.6515 -40.6506 -40.6494 -40.6486 -40.6479
   -40.6471 -40.6471 -40.6429 -40.6429 -40.6252 -40.6252 -40.6252 -40.6251
   -40.6210 -40.6210 -40.6209 -40.6209 -40.6147 -40.6144 -40.6143 -40.6140
   -40.6031 -40.6011 -40.5905 -40.5905 -40.5904 -40.5904 -40.5862 -40.5862
   -40.5862 -40.5862 -40.5838 -40.5821 -40.5784 -40.5783 -40.5740 -40.5740
   -40.5661 -40.5654 -40.5590 -40.5590 -40.5547 -40.5547 -40.5420 -40.5420
   -40.5377 -40.5377 -40.5362 -40.5341 -40.5114 -40.5113 -40.5070 -40.5070
   -20.4151 -19.9082 -19.8444 -19.8137 -19.7633 -19.7176 -19.6690 -19.6117
   -19.6017 -19.4761 -19.4097 -19.3800 -19.3361 -19.2891 -19.2467 -19.1858
   -19.1752 -18.7865 -18.7833 -18.7700 -18.7690 -18.7677 -18.7102 -18.6732
   -18.6728 -18.6726 -18.6653 -18.6530 -18.6350 -18.6005 -18.5997 -18.5995
   -18.5926 -18.5844 -18.5552 -18.5176 -18.5113 -18.5093 -18.5090 -18.5086
   -18.5039 -18.5017 -18.4718 -18.4594 -18.4346 -18.4245 -18.4011 -18.3724
   -18.3717 -18.3633 -18.3552 -18.3265 -18.3213 -18.2836 -18.2828 -18.2562
   -18.2528 -18.2523 -18.2141 -18.2135 -18.2062 -18.1654 -18.1610 -18.1551
   -18.1501 -18.1433 -18.1414 -18.1405 -18.1402 -18.1390 -18.0792 -18.0617
   -18.0599 -18.0588 -18.0484 -18.0457 -18.0450 -18.0449 -18.0423 -18.0392
   -18.0372 -18.0271 -18.0261 -18.0237 -18.0009 -17.9869 -17.9866 -17.9832
   -17.9648 -17.9648 -17.9648 -17.9647 -17.9632 -17.9620 -17.9480 -17.9441
   -17.9433 -17.9425 -17.9092 -17.9019 -17.8979 -17.8977 -17.8690 -17.8688
   -17.8676 -17.8674 -17.8645 -17.8536 -17.8184 -17.8179 -17.8176 -17.8174
   -17.7828 -17.7823 -17.7783 -17.7782 -17.7780 -17.7780 -17.7621 -17.7619
   -17.7400 -17.7398 -17.7158 -17.7157 -17.6916 -17.6916 -17.6727 -17.6727
   -13.1551 -11.7073 -11.6841 -11.6472 -11.5998 -11.5367 -11.5330 -11.5146
   -11.4961 -11.4804 -11.4559 -11.4507 -11.4392 -11.4361 -11.4286 -11.4109
   -11.3939 -11.3578 -11.3527 -11.3312 -11.3303 -11.3268 -11.3236 -11.3078
   -11.2921 -11.2800 -11.2737 -11.2297 -11.2269 -11.2257 -11.2255 -11.2178
   -11.2156 -11.1850 -11.1820 -11.1703 -11.1669 -11.1656 -11.1643 -11.1569
   -11.1560 -11.1453 -11.1259 -11.1109 -11.1065 -11.1039 -11.0772 -11.0729
   -11.0704 -11.0587 -11.0320 -10.9946 -10.9772 -10.9615 -10.9188 -10.9088
   -10.9062 -10.9044 -10.8859 -10.8782 -10.8767 -10.8736 -10.8673 -10.8126
   -10.8106 -10.8096 -10.8079 -10.8069 -10.7825 -10.7821 -10.7812 -10.7809
   -10.7686 -10.7670 -10.7668 -10.7654 -10.7495 -10.7494 -10.7481 -10.7469
   -10.7464 -10.7463 -10.7176 -10.6969 -10.6968 -10.6968 -10.6959 -10.5690
   -10.5504 -10.5014 -10.4878 -10.4698 -10.4647 -10.3774 -10.3718 -10.2377
   -10.2307 -10.2086 -10.1745 -10.1632 -10.1545 -10.0849 -10.0833 -10.0803
   -10.0780 -10.0579 -10.0544 -10.0518 -10.0417 -10.0187 -10.0100 -10.0058
   -10.0044 -10.0025  -9.9833  -9.9347  -9.9188  -9.9138  -9.9121  -9.9077
    -9.9073  -9.9065  -9.9045  -9.9042  -9.8639  -9.8446  -9.8370  -9.8070
    -9.7982  -9.7901  -9.7876  -9.7801  -9.7539  -9.7525  -9.7364  -9.7170
    -9.7170  -9.7144  -9.6831  -9.6681  -9.6575  -9.6563  -9.6225  -9.6156
    -9.6044  -9.5973  -9.5970  -9.5893  -9.5613  -9.5356  -9.5339  -9.5326
    -9.5242  -9.5212  -9.5186  -9.5175  -9.4713  -9.4613  -9.4602  -9.4382
    -9.4356  -9.4349  -9.4222  -9.4179  -9.4158  -9.4066  -9.4029  -9.4024
    -9.3584  -9.3359  -9.3054  -9.2823  -9.2612  -9.2394  -9.2301  -9.2120
    -9.1986  -9.1867  -9.1848  -9.1821  -9.1729  -9.1694  -9.1177  -9.1098
    -9.0845  -9.0822  -9.0780  -9.0648  -9.0562  -9.0436  -9.0420  -9.0376
    -9.0349  -9.0229  -9.0206  -9.0192  -8.9899  -8.9722  -8.9580  -8.9333
    -8.9305  -8.9225  -8.9221  -8.9208  -8.9202  -8.9198  -8.9048  -8.8744
    -8.8659  -8.8601  -8.8593  -8.8592  -8.8492  -8.8491  -8.8486  -8.8486
    -8.8417  -8.8385  -8.8334  -8.8302  -8.8275  -8.8260  -8.8179  -8.8170
    -8.7954  -8.7950  -8.7574  -8.7571  -8.7518  -8.7507  -8.7505  -8.7504
    -8.7269  -8.7266  -8.7188  -8.6925  -8.6907  -8.6904  -8.6902  -8.6635
    -8.6366  -8.6214  -8.6200  -8.6033  -8.5783  -8.5710  -8.4651  -8.4600
    -8.4248  -8.4013  -8.3973  -8.3145  -8.3133  -8.2608  -8.2590  -8.2358
    -8.2161  -8.0978  -8.0959  -8.0772  -8.0771  -8.0632  -8.0632  -8.0434
    -8.0359  -8.0247  -7.9919  -7.9734  -7.9274  -7.9211  -7.9192  -7.8879
    -7.8835  -7.8783  -7.8763  -7.8616  -7.8568  -7.8469  -7.8385  -7.8224
    -7.8187  -7.8128  -7.8123  -7.8092  -7.7980  -7.7971  -7.7868  -7.7758
    -7.7741  -7.7725  -7.7569  -7.7562  -7.7555  -7.7541  -7.7522  -7.7515
    -7.7340  -7.7327  -7.7320  -7.7311  -7.7292  -7.7292  -7.7173  -7.7141
    -7.7141  -7.7108  -7.6989  -7.6960  -7.6960  -7.6955  -7.6949  -7.6938
    -7.6536  -7.6535  -7.6534  -7.6534  -7.6236  -7.6206  -7.6201  -7.6200
    -7.6175  -7.6151  -7.6033  -7.5973  -7.5927  -7.5905  -7.5743  -7.5730
    -7.5714  -7.5531  -7.5485  -7.5480  -7.5291  -7.5250  -7.5228  -7.5226
    -7.5211  -7.5209  -7.4316  -7.4221  -7.4209  -7.4208  -7.4053  -7.3869
    -7.3596  -7.2621  -7.2505  -7.2444  -7.1420  -7.1316  -7.1314  -7.1291
    -7.1269  -7.1208  -7.0801  -7.0791  -7.0720  -7.0712  -7.0659  -7.0372
    -7.0279  -7.0160  -6.9903  -6.9842  -6.9842  -6.9836  -6.9707  -6.9366
    -6.9335  -6.9293  -6.9268  -6.8938  -6.8771  -6.8766  -6.8469  -6.8249
    -6.8179  -6.8171  -6.8168  -6.8076  -6.7781  -6.7718  -6.7534  -6.7329
    -6.7266  -6.6995  -6.6895  -6.6822  -6.6671  -6.6644  -6.5854  -6.5849
    -6.5780  -6.5765  -6.5759  -6.5744  -6.5700  -6.5499  -6.5498  -6.5497
    -6.5494  -6.5331  -6.5330  -6.5330  -6.5330  -6.5279  -6.4842  -6.4617
    -6.4261  -6.4087  -6.3982  -6.3965  -6.3935  -6.3886  -6.3149  -6.3131
    -6.2758  -6.2755  -6.2743  -6.2734  -6.2464  -6.2460  -6.2253  -6.2253
    -6.2192  -6.2177  -6.2163  -6.2160  -6.2134  -6.1955  -6.1615  -6.1614
    -6.1612  -6.1610  -6.0722  -6.0492  -5.9431  -5.9412  -5.8784  -5.8764
    -5.8738  -5.8557  -5.8079  -5.8074  -5.6735  -5.6690  -5.5590  -5.5588
    -4.3141  -4.1095  -4.0983  -4.0939  -4.0277  -3.9736  -3.9593  -3.9477
    -3.9445  -3.9265  -3.9212  -3.9176  -3.8331  -3.8118  -3.8045  -3.8037
    -3.7787  -3.7785  -3.7554  -3.7553  -3.7530  -3.6987  -3.6914  -3.6794
    -3.6704  -3.6587  -3.6429  -3.6426  -3.6343  -3.6183  -3.6123  -3.6034
    -3.5484  -3.5317  -3.5272  -3.5236  -3.5217  -3.5161  -3.5072  -3.5056
    -3.4829  -3.4661  -3.4643  -3.4611  -3.4580  -3.4497  -3.4494  -3.4431
    -3.4396  -3.4261  -3.4198  -3.4185  -3.4163  -3.4122  -3.4093  -3.4090
    -3.3927  -3.3780  -3.3637  -3.3559  -3.3499  -3.3444  -3.3407  -3.3375
    -3.3165  -3.3158  -3.3156  -3.3151  -3.3149  -3.3105  -3.2976  -3.2830
    -3.2821  -3.2796  -3.2280  -3.2253  -3.2249  -3.2241  -3.2239  -3.2232
    -3.2228  -3.2225  -3.1884  -3.1799  -3.1667  -3.1663  -3.1644  -3.1640
    -3.1623  -3.1585  -3.1541  -3.1536  -3.1437  -3.1144  -3.1127  -3.1121
    -3.1119  -3.1090  -3.1066  -3.0730  -3.0711  -3.0696  -3.0593  -3.0568
    -3.0540  -3.0533  -3.0459  -3.0448  -3.0103  -3.0056  -2.9952  -2.9855
    -2.9816  -2.9789  -2.9784  -2.9775  -2.9664  -2.9624  -2.9623  -2.9611
    -2.9603  -2.9571  -2.9537  -2.9532  -2.9507  -2.9504  -2.9327  -2.9278
    -2.9099  -2.9094  -2.8890  -2.8879  -2.8869  -2.8868  -2.8798  -2.8794
    -2.8779  -2.8776  -2.8442  -2.8413  -2.7702  -2.7616  -2.7596  -2.7592
    -2.7461  -2.7418  -2.7247  -2.7230  -2.7127  -2.6825  -2.6431  -2.5801
    -2.5642  -2.5640  -2.5599  -2.5229  -2.5220  -2.5186  -2.5143  -2.5059
    -2.5051  -2.4817  -2.4755  -2.4448  -2.3664  -2.3652  -2.3552  -2.3539

          k =-0.5000-0.2887 0.0000 (386352 PWs)   bands (ev):

   -66.7767 -66.7585 -66.7578 -66.7394 -66.7346 -66.7333 -66.7192 -66.7123
   -66.7094 -66.7032 -66.6986 -66.6982 -66.6936 -66.6927 -66.6893 -66.6848
   -66.5986 -66.5971 -66.5874 -66.5866 -66.5735 -66.5734 -66.5725 -66.5721
   -66.5720 -66.5720 -66.5688 -66.5688 -66.5682 -66.5663 -66.5629 -66.5628
   -66.5628 -66.5614 -66.5610 -66.5597 -66.5582 -66.5582 -66.5568 -66.5544
   -66.5478 -66.5478 -66.5476 -66.5476 -66.5434 -66.5432 -66.5430 -66.5430
   -66.5430 -66.5430 -66.5386 -66.5386 -66.5371 -66.5371 -66.5371 -66.5367
   -66.5326 -66.5325 -66.5324 -66.5323 -66.5323 -66.5323 -66.5279 -66.5279
   -41.0688 -41.0625 -41.0472 -41.0393 -41.0310 -41.0099 -41.0051 -40.9978
   -40.9614 -40.9596 -40.9563 -40.9525 -40.9289 -40.9198 -40.9162 -40.9010
   -40.8996 -40.8990 -40.8979 -40.8878 -40.8844 -40.8813 -40.8756 -40.8756
   -40.8755 -40.8752 -40.8733 -40.8720 -40.8715 -40.8715 -40.8715 -40.8715
   -40.8705 -40.8677 -40.8605 -40.8602 -40.8581 -40.8487 -40.8486 -40.8447
   -40.8446 -40.8437 -40.8385 -40.8366 -40.8366 -40.8339 -40.8326 -40.8326
   -40.8271 -40.8268 -40.8256 -40.8205 -40.8156 -40.8140 -40.8112 -40.8100
   -40.8098 -40.8097 -40.8095 -40.8078 -40.8063 -40.7990 -40.7861 -40.7860
   -40.7860 -40.7859 -40.7858 -40.7821 -40.7818 -40.7818 -40.7818 -40.7818
   -40.7633 -40.7621 -40.7571 -40.7529 -40.7516 -40.7512 -40.7462 -40.7419
   -40.7411 -40.7366 -40.7343 -40.7316 -40.7307 -40.7273 -40.7272 -40.7232
   -40.7232 -40.7176 -40.7176 -40.7172 -40.7134 -40.7134 -40.7064 -40.7064
   -40.7041 -40.7023 -40.7023 -40.7021 -40.7020 -40.7019 -40.7007 -40.6991
   -40.6937 -40.6916 -40.6826 -40.6819 -40.6811 -40.6807 -40.6805 -40.6795
   -40.6782 -40.6769 -40.6769 -40.6767 -40.6767 -40.6726 -40.6726 -40.6726
   -40.6726 -40.6722 -40.6699 -40.6684 -40.6681 -40.6680 -40.6639 -40.6639
   -40.6561 -40.6561 -40.6558 -40.6558 -40.6558 -40.6555 -40.6519 -40.6519
   -40.6516 -40.6516 -40.6515 -40.6515 -40.6506 -40.6494 -40.6486 -40.6478
   -40.6471 -40.6471 -40.6429 -40.6429 -40.6253 -40.6252 -40.6252 -40.6251
   -40.6210 -40.6210 -40.6209 -40.6209 -40.6147 -40.6144 -40.6143 -40.6140
   -40.6031 -40.6011 -40.5905 -40.5905 -40.5904 -40.5904 -40.5862 -40.5862
   -40.5862 -40.5862 -40.5838 -40.5821 -40.5784 -40.5782 -40.5740 -40.5740
   -40.5661 -40.5654 -40.5591 -40.5589 -40.5547 -40.5547 -40.5420 -40.5420
   -40.5377 -40.5377 -40.5362 -40.5341 -40.5114 -40.5112 -40.5070 -40.5070
   -20.4150 -19.9082 -19.8444 -19.8137 -19.7632 -19.7177 -19.6690 -19.6117
   -19.6017 -19.4761 -19.4097 -19.3800 -19.3361 -19.2891 -19.2467 -19.1858
   -19.1752 -18.7865 -18.7833 -18.7700 -18.7690 -18.7677 -18.7102 -18.6732
   -18.6728 -18.6726 -18.6653 -18.6530 -18.6349 -18.6005 -18.5997 -18.5995
   -18.5926 -18.5844 -18.5552 -18.5177 -18.5113 -18.5093 -18.5090 -18.5086
   -18.5039 -18.5017 -18.4718 -18.4594 -18.4346 -18.4245 -18.4011 -18.3724
   -18.3717 -18.3633 -18.3552 -18.3265 -18.3213 -18.2836 -18.2828 -18.2562
   -18.2529 -18.2523 -18.2141 -18.2135 -18.2062 -18.1655 -18.1609 -18.1551
   -18.1501 -18.1434 -18.1415 -18.1405 -18.1402 -18.1390 -18.0791 -18.0617
   -18.0598 -18.0588 -18.0484 -18.0457 -18.0450 -18.0449 -18.0423 -18.0393
   -18.0372 -18.0271 -18.0261 -18.0238 -18.0009 -17.9869 -17.9867 -17.9833
   -17.9649 -17.9648 -17.9648 -17.9647 -17.9632 -17.9620 -17.9480 -17.9441
   -17.9433 -17.9425 -17.9092 -17.9019 -17.8979 -17.8977 -17.8689 -17.8689
   -17.8676 -17.8674 -17.8645 -17.8536 -17.8185 -17.8179 -17.8176 -17.8173
   -17.7828 -17.7823 -17.7783 -17.7782 -17.7781 -17.7780 -17.7621 -17.7619
   -17.7400 -17.7398 -17.7158 -17.7157 -17.6916 -17.6916 -17.6727 -17.6726
   -13.1551 -11.7074 -11.6841 -11.6472 -11.5998 -11.5367 -11.5330 -11.5146
   -11.4961 -11.4804 -11.4559 -11.4507 -11.4393 -11.4361 -11.4286 -11.4109
   -11.3939 -11.3578 -11.3527 -11.3313 -11.3303 -11.3267 -11.3236 -11.3078
   -11.2921 -11.2800 -11.2737 -11.2296 -11.2269 -11.2258 -11.2255 -11.2178
   -11.2156 -11.1850 -11.1820 -11.1703 -11.1669 -11.1656 -11.1643 -11.1569
   -11.1560 -11.1454 -11.1259 -11.1109 -11.1065 -11.1039 -11.0772 -11.0729
   -11.0704 -11.0587 -11.0320 -10.9946 -10.9772 -10.9615 -10.9188 -10.9088
   -10.9062 -10.9044 -10.8860 -10.8782 -10.8768 -10.8736 -10.8674 -10.8126
   -10.8105 -10.8096 -10.8079 -10.8069 -10.7825 -10.7821 -10.7812 -10.7809
   -10.7686 -10.7670 -10.7668 -10.7654 -10.7495 -10.7494 -10.7481 -10.7469
   -10.7465 -10.7463 -10.7176 -10.6969 -10.6968 -10.6968 -10.6959 -10.5690
   -10.5504 -10.5014 -10.4878 -10.4697 -10.4647 -10.3774 -10.3718 -10.2377
   -10.2308 -10.2086 -10.1745 -10.1632 -10.1546 -10.0849 -10.0833 -10.0803
   -10.0781 -10.0579 -10.0543 -10.0518 -10.0417 -10.0187 -10.0100 -10.0058
   -10.0044 -10.0025  -9.9832  -9.9347  -9.9188  -9.9138  -9.9121  -9.9077
    -9.9073  -9.9065  -9.9045  -9.9042  -9.8639  -9.8446  -9.8370  -9.8070
    -9.7982  -9.7901  -9.7875  -9.7801  -9.7539  -9.7525  -9.7364  -9.7170
    -9.7170  -9.7144  -9.6831  -9.6681  -9.6575  -9.6563  -9.6225  -9.6156
    -9.6044  -9.5973  -9.5970  -9.5893  -9.5614  -9.5356  -9.5339  -9.5326
    -9.5242  -9.5212  -9.5186  -9.5175  -9.4713  -9.4613  -9.4602  -9.4382
    -9.4356  -9.4349  -9.4221  -9.4179  -9.4158  -9.4066  -9.4029  -9.4024
    -9.3584  -9.3359  -9.3054  -9.2823  -9.2612  -9.2394  -9.2301  -9.2120
    -9.1986  -9.1867  -9.1848  -9.1821  -9.1729  -9.1694  -9.1177  -9.1098
    -9.0845  -9.0822  -9.0780  -9.0648  -9.0562  -9.0436  -9.0420  -9.0376
    -9.0349  -9.0229  -9.0206  -9.0193  -8.9899  -8.9722  -8.9580  -8.9333
    -8.9305  -8.9225  -8.9221  -8.9208  -8.9202  -8.9198  -8.9048  -8.8744
    -8.8659  -8.8601  -8.8593  -8.8592  -8.8492  -8.8491  -8.8486  -8.8486
    -8.8418  -8.8385  -8.8334  -8.8302  -8.8275  -8.8260  -8.8179  -8.8170
    -8.7954  -8.7950  -8.7574  -8.7571  -8.7517  -8.7507  -8.7504  -8.7504
    -8.7269  -8.7266  -8.7188  -8.6925  -8.6906  -8.6904  -8.6902  -8.6635
    -8.6366  -8.6214  -8.6200  -8.6033  -8.5783  -8.5710  -8.4651  -8.4600
    -8.4248  -8.4013  -8.3972  -8.3145  -8.3133  -8.2608  -8.2590  -8.2358
    -8.2162  -8.0978  -8.0959  -8.0772  -8.0770  -8.0632  -8.0632  -8.0434
    -8.0359  -8.0247  -7.9919  -7.9734  -7.9274  -7.9211  -7.9192  -7.8879
    -7.8835  -7.8783  -7.8763  -7.8615  -7.8568  -7.8469  -7.8385  -7.8224
    -7.8187  -7.8129  -7.8123  -7.8092  -7.7980  -7.7971  -7.7868  -7.7758
    -7.7741  -7.7725  -7.7568  -7.7562  -7.7555  -7.7542  -7.7522  -7.7515
    -7.7340  -7.7327  -7.7320  -7.7311  -7.7293  -7.7292  -7.7173  -7.7141
    -7.7141  -7.7108  -7.6989  -7.6960  -7.6960  -7.6955  -7.6949  -7.6938
    -7.6536  -7.6535  -7.6534  -7.6534  -7.6236  -7.6206  -7.6201  -7.6200
    -7.6175  -7.6151  -7.6033  -7.5973  -7.5927  -7.5906  -7.5743  -7.5730
    -7.5714  -7.5530  -7.5485  -7.5480  -7.5291  -7.5249  -7.5228  -7.5226
    -7.5211  -7.5209  -7.4316  -7.4221  -7.4209  -7.4208  -7.4053  -7.3869
    -7.3596  -7.2621  -7.2505  -7.2444  -7.1420  -7.1316  -7.1314  -7.1291
    -7.1269  -7.1208  -7.0801  -7.0791  -7.0720  -7.0712  -7.0659  -7.0373
    -7.0278  -7.0160  -6.9902  -6.9842  -6.9842  -6.9836  -6.9707  -6.9366
    -6.9336  -6.9293  -6.9267  -6.8939  -6.8771  -6.8766  -6.8469  -6.8249
    -6.8179  -6.8171  -6.8168  -6.8076  -6.7781  -6.7718  -6.7534  -6.7329
    -6.7266  -6.6995  -6.6895  -6.6822  -6.6671  -6.6644  -6.5854  -6.5850
    -6.5780  -6.5765  -6.5759  -6.5744  -6.5700  -6.5499  -6.5498  -6.5497
    -6.5495  -6.5331  -6.5330  -6.5330  -6.5330  -6.5279  -6.4842  -6.4617
    -6.4261  -6.4087  -6.3982  -6.3965  -6.3935  -6.3886  -6.3149  -6.3131
    -6.2758  -6.2756  -6.2742  -6.2735  -6.2464  -6.2460  -6.2253  -6.2253
    -6.2192  -6.2177  -6.2162  -6.2160  -6.2134  -6.1955  -6.1615  -6.1615
    -6.1611  -6.1611  -6.0722  -6.0492  -5.9431  -5.9412  -5.8784  -5.8764
    -5.8737  -5.8558  -5.8079  -5.8074  -5.6735  -5.6691  -5.5590  -5.5588
    -4.3141  -4.1095  -4.0983  -4.0939  -4.0276  -3.9736  -3.9593  -3.9477
    -3.9444  -3.9265  -3.9212  -3.9177  -3.8330  -3.8119  -3.8044  -3.8037
    -3.7787  -3.7785  -3.7554  -3.7553  -3.7530  -3.6987  -3.6914  -3.6794
    -3.6706  -3.6587  -3.6429  -3.6427  -3.6343  -3.6183  -3.6123  -3.6035
    -3.5483  -3.5317  -3.5272  -3.5235  -3.5217  -3.5161  -3.5071  -3.5055
    -3.4829  -3.4661  -3.4643  -3.4611  -3.4579  -3.4496  -3.4496  -3.4431
    -3.4396  -3.4261  -3.4198  -3.4184  -3.4163  -3.4121  -3.4092  -3.4091
    -3.3926  -3.3780  -3.3637  -3.3559  -3.3499  -3.3444  -3.3407  -3.3373
    -3.3166  -3.3158  -3.3156  -3.3151  -3.3149  -3.3106  -3.2976  -3.2831
    -3.2822  -3.2798  -3.2279  -3.2253  -3.2250  -3.2241  -3.2239  -3.2232
    -3.2230  -3.2227  -3.1882  -3.1798  -3.1670  -3.1665  -3.1644  -3.1641
    -3.1625  -3.1585  -3.1541  -3.1536  -3.1439  -3.1144  -3.1127  -3.1122
    -3.1121  -3.1091  -3.1065  -3.0730  -3.0711  -3.0694  -3.0592  -3.0568
    -3.0537  -3.0531  -3.0461  -3.0448  -3.0105  -3.0058  -2.9952  -2.9856
    -2.9813  -2.9789  -2.9781  -2.9775  -2.9662  -2.9623  -2.9621  -2.9611
    -2.9604  -2.9571  -2.9532  -2.9528  -2.9508  -2.9507  -2.9326  -2.9278
    -2.9103  -2.9096  -2.8900  -2.8878  -2.8868  -2.8868  -2.8800  -2.8793
    -2.8791  -2.8787  -2.8434  -2.8418  -2.7709  -2.7624  -2.7607  -2.7597
    -2.7461  -2.7408  -2.7254  -2.7225  -2.7125  -2.6826  -2.6427  -2.5805
    -2.5657  -2.5635  -2.5604  -2.5226  -2.5222  -2.5188  -2.5116  -2.5100
    -2.5052  -2.4819  -2.4752  -2.4476  -2.3651  -2.3646  -2.3557  -2.3544

          k =-0.5000-0.8660 0.0000 (386352 PWs)   bands (ev):

   -66.7767 -66.7584 -66.7579 -66.7394 -66.7345 -66.7333 -66.7192 -66.7123
   -66.7094 -66.7032 -66.6987 -66.6982 -66.6937 -66.6926 -66.6893 -66.6848
   -66.5986 -66.5971 -66.5874 -66.5866 -66.5735 -66.5734 -66.5725 -66.5721
   -66.5720 -66.5720 -66.5688 -66.5688 -66.5682 -66.5663 -66.5629 -66.5628
   -66.5628 -66.5615 -66.5610 -66.5597 -66.5582 -66.5582 -66.5568 -66.5544
   -66.5478 -66.5478 -66.5476 -66.5476 -66.5433 -66.5432 -66.5431 -66.5430
   -66.5430 -66.5430 -66.5386 -66.5386 -66.5371 -66.5371 -66.5370 -66.5368
   -66.5326 -66.5325 -66.5323 -66.5323 -66.5323 -66.5323 -66.5279 -66.5279
   -41.0689 -41.0625 -41.0472 -41.0393 -41.0309 -41.0098 -41.0051 -40.9979
   -40.9614 -40.9596 -40.9563 -40.9525 -40.9290 -40.9196 -40.9163 -40.9009
   -40.8996 -40.8990 -40.8979 -40.8878 -40.8844 -40.8813 -40.8756 -40.8756
   -40.8755 -40.8752 -40.8733 -40.8721 -40.8715 -40.8715 -40.8715 -40.8715
   -40.8706 -40.8677 -40.8604 -40.8602 -40.8581 -40.8487 -40.8486 -40.8447
   -40.8446 -40.8437 -40.8385 -40.8366 -40.8366 -40.8339 -40.8326 -40.8326
   -40.8271 -40.8268 -40.8256 -40.8205 -40.8157 -40.8139 -40.8113 -40.8100
   -40.8098 -40.8097 -40.8095 -40.8078 -40.8063 -40.7990 -40.7862 -40.7860
   -40.7859 -40.7859 -40.7858 -40.7820 -40.7818 -40.7818 -40.7818 -40.7818
   -40.7633 -40.7622 -40.7571 -40.7529 -40.7516 -40.7513 -40.7463 -40.7419
   -40.7411 -40.7365 -40.7344 -40.7316 -40.7307 -40.7273 -40.7272 -40.7232
   -40.7232 -40.7176 -40.7176 -40.7172 -40.7134 -40.7134 -40.7064 -40.7064
   -40.7041 -40.7023 -40.7023 -40.7021 -40.7020 -40.7019 -40.7007 -40.6991
   -40.6937 -40.6916 -40.6827 -40.6819 -40.6811 -40.6807 -40.6805 -40.6795
   -40.6783 -40.6769 -40.6769 -40.6767 -40.6767 -40.6726 -40.6726 -40.6726
   -40.6726 -40.6722 -40.6699 -40.6684 -40.6681 -40.6680 -40.6639 -40.6639
   -40.6561 -40.6561 -40.6559 -40.6558 -40.6558 -40.6555 -40.6519 -40.6519
   -40.6516 -40.6516 -40.6515 -40.6515 -40.6506 -40.6494 -40.6486 -40.6479
   -40.6471 -40.6471 -40.6429 -40.6429 -40.6253 -40.6252 -40.6252 -40.6251
   -40.6210 -40.6209 -40.6209 -40.6209 -40.6147 -40.6144 -40.6143 -40.6140
   -40.6031 -40.6011 -40.5905 -40.5905 -40.5904 -40.5904 -40.5862 -40.5862
   -40.5862 -40.5862 -40.5838 -40.5821 -40.5784 -40.5782 -40.5740 -40.5740
   -40.5661 -40.5654 -40.5590 -40.5589 -40.5547 -40.5547 -40.5420 -40.5420
   -40.5377 -40.5377 -40.5362 -40.5341 -40.5114 -40.5112 -40.5070 -40.5070
   -20.4151 -19.9082 -19.8444 -19.8137 -19.7632 -19.7176 -19.6690 -19.6117
   -19.6017 -19.4761 -19.4097 -19.3800 -19.3361 -19.2891 -19.2467 -19.1858
   -19.1752 -18.7865 -18.7833 -18.7700 -18.7690 -18.7677 -18.7102 -18.6732
   -18.6728 -18.6726 -18.6653 -18.6530 -18.6350 -18.6005 -18.5997 -18.5995
   -18.5926 -18.5844 -18.5552 -18.5176 -18.5113 -18.5093 -18.5090 -18.5086
   -18.5039 -18.5017 -18.4718 -18.4594 -18.4346 -18.4245 -18.4011 -18.3724
   -18.3717 -18.3633 -18.3552 -18.3265 -18.3213 -18.2836 -18.2828 -18.2562
   -18.2528 -18.2523 -18.2141 -18.2135 -18.2062 -18.1655 -18.1610 -18.1551
   -18.1501 -18.1433 -18.1414 -18.1405 -18.1402 -18.1390 -18.0791 -18.0617
   -18.0599 -18.0588 -18.0484 -18.0457 -18.0450 -18.0449 -18.0423 -18.0392
   -18.0372 -18.0271 -18.0261 -18.0238 -18.0009 -17.9869 -17.9867 -17.9832
   -17.9648 -17.9648 -17.9648 -17.9647 -17.9632 -17.9620 -17.9480 -17.9441
   -17.9433 -17.9425 -17.9092 -17.9019 -17.8979 -17.8977 -17.8690 -17.8688
   -17.8676 -17.8674 -17.8645 -17.8536 -17.8184 -17.8179 -17.8176 -17.8174
   -17.7828 -17.7823 -17.7783 -17.7782 -17.7780 -17.7780 -17.7621 -17.7619
   -17.7400 -17.7398 -17.7158 -17.7157 -17.6916 -17.6916 -17.6727 -17.6727
   -13.1551 -11.7073 -11.6841 -11.6472 -11.5998 -11.5367 -11.5330 -11.5146
   -11.4961 -11.4804 -11.4559 -11.4507 -11.4392 -11.4361 -11.4286 -11.4109
   -11.3939 -11.3578 -11.3527 -11.3312 -11.3303 -11.3268 -11.3236 -11.3078
   -11.2921 -11.2800 -11.2737 -11.2297 -11.2269 -11.2257 -11.2255 -11.2178
   -11.2156 -11.1850 -11.1820 -11.1703 -11.1669 -11.1656 -11.1643 -11.1569
   -11.1560 -11.1453 -11.1259 -11.1109 -11.1065 -11.1039 -11.0772 -11.0729
   -11.0704 -11.0587 -11.0320 -10.9946 -10.9772 -10.9615 -10.9188 -10.9088
   -10.9062 -10.9044 -10.8859 -10.8782 -10.8767 -10.8736 -10.8673 -10.8126
   -10.8106 -10.8096 -10.8079 -10.8069 -10.7825 -10.7821 -10.7812 -10.7809
   -10.7686 -10.7670 -10.7668 -10.7654 -10.7495 -10.7494 -10.7481 -10.7469
   -10.7464 -10.7463 -10.7176 -10.6969 -10.6968 -10.6968 -10.6959 -10.5690
   -10.5504 -10.5014 -10.4878 -10.4698 -10.4647 -10.3774 -10.3718 -10.2377
   -10.2308 -10.2086 -10.1745 -10.1632 -10.1546 -10.0849 -10.0833 -10.0803
   -10.0780 -10.0579 -10.0544 -10.0518 -10.0417 -10.0187 -10.0100 -10.0058
   -10.0044 -10.0025  -9.9833  -9.9347  -9.9188  -9.9138  -9.9121  -9.9077
    -9.9073  -9.9065  -9.9045  -9.9042  -9.8639  -9.8446  -9.8370  -9.8070
    -9.7982  -9.7901  -9.7875  -9.7801  -9.7539  -9.7525  -9.7364  -9.7170
    -9.7170  -9.7144  -9.6831  -9.6681  -9.6575  -9.6563  -9.6225  -9.6156
    -9.6044  -9.5973  -9.5970  -9.5893  -9.5614  -9.5356  -9.5339  -9.5326
    -9.5242  -9.5212  -9.5186  -9.5175  -9.4713  -9.4613  -9.4602  -9.4382
    -9.4356  -9.4348  -9.4222  -9.4179  -9.4158  -9.4066  -9.4029  -9.4024
[...]
     atom  161 type  2   force =    -0.00000137   -0.00000695   -0.00015971
     atom  162 type  2   force =    -0.00002462    0.00000709    0.00002775
     atom  163 type  1   force =    -0.00011333   -0.00000056   -0.00005794
     atom  164 type  1   force =    -0.00011424    0.00001794   -0.00007791
     atom  165 type  2   force =    -0.00009329    0.00000504   -0.00017382
     atom  166 type  2   force =    -0.00004982   -0.00000561    0.00011746
     atom  167 type  2   force =    -0.00004695   -0.00000669   -0.00018185
     atom  168 type  2   force =    -0.00008504   -0.00000007    0.00019024
     atom  169 type  1   force =    -0.00004447    0.00004391    0.00007115
     atom  170 type  1   force =    -0.00002680    0.00006383   -0.00021775
     atom  171 type  2   force =    -0.00001102    0.00001705   -0.00021276
     atom  172 type  2   force =    -0.00001177    0.00002604    0.00011862
     atom  173 type  2   force =    -0.00000907    0.00001964   -0.00014072
     atom  174 type  2   force =    -0.00000733    0.00001645    0.00001618
     atom  175 type  1   force =    -0.00004851    0.00000140   -0.00004464
     atom  176 type  1   force =    -0.00013103   -0.00001710   -0.00007607
     atom  177 type  2   force =    -0.00008623   -0.00004183   -0.00014653
     atom  178 type  2   force =    -0.00002507    0.00001790    0.00010335
     atom  179 type  2   force =    -0.00001782    0.00002020   -0.00016162
     atom  180 type  2   force =    -0.00008783   -0.00004170    0.00014939
     atom  181 type  1   force =    -0.00001395   -0.00004674    0.00007082
     atom  182 type  1   force =    -0.00001015   -0.00001775   -0.00022656
     atom  183 type  2   force =    -0.00001560   -0.00002948   -0.00021243
     atom  184 type  2   force =    -0.00000378    0.00000143    0.00010053
     atom  185 type  2   force =    -0.00000291    0.00000200   -0.00011588
     atom  186 type  2   force =    -0.00001944   -0.00003342    0.00000431
     atom  187 type  1   force =    -0.00008440   -0.00011462   -0.00005977
     atom  188 type  1   force =    -0.00009603   -0.00009196   -0.00007816
     atom  189 type  2   force =    -0.00005412   -0.00008806   -0.00016720
     atom  190 type  2   force =    -0.00000918   -0.00002765    0.00009561
     atom  191 type  2   force =    -0.00000392   -0.00001850   -0.00015938
     atom  192 type  2   force =    -0.00005158   -0.00008184    0.00018109
     atom  193 type  3   force =     0.00000812    0.00000555    0.00000263

     DFT-D3 dispersion contribution to forces:
     atom    1 type  1   force =     0.00000000    0.00000000    0.00255987
     atom    2 type  1   force =     0.00000000    0.00000029    0.00001549
     atom    3 type  2   force =     0.00000002    0.00000003   -0.00003281
     atom    4 type  2   force =    -0.00000001    0.00000001    0.00017140
     atom    5 type  2   force =    -0.00000000    0.00000000    0.00441580
     atom    6 type  2   force =     0.00000048    0.00000047    0.00009729
     atom    7 type  1   force =     0.00000109    0.00000312   -0.00001162
     atom    8 type  1   force =    -0.00000000    0.00006504   -0.00250887
     atom    9 type  2   force =     0.00000157   -0.00000133   -0.00016569
     atom   10 type  2   force =    -0.00000001    0.00000525    0.00003275
     atom   11 type  2   force =    -0.00000001    0.00000078   -0.00009624
     atom   12 type  2   force =     0.00007317    0.00015574   -0.00434454
     atom   13 type  1   force =     0.00000001   -0.00000000    0.00255987
     atom   14 type  1   force =     0.00000039    0.00000022    0.00001590
     atom   15 type  2   force =     0.00000006    0.00000001   -0.00003281
     atom   16 type  2   force =     0.00000001    0.00000001    0.00017142
     atom   17 type  2   force =     0.00000000    0.00000000    0.00441579
     atom   18 type  2   force =     0.00000067    0.00000017    0.00009729
     atom   19 type  1   force =     0.00000325   -0.00000063   -0.00001162
     atom   20 type  1   force =     0.00007297    0.00004209   -0.00239619
     atom   21 type  2   force =    -0.00000036    0.00000200   -0.00016571
     atom   22 type  2   force =    -0.00000025   -0.00000015    0.00002391
     atom   23 type  2   force =    -0.00000015   -0.00000009   -0.00009547
     atom   24 type  2   force =     0.00017147   -0.00001458   -0.00434456
     atom   25 type  1   force =     0.00000000   -0.00000001    0.00255987
     atom   26 type  1   force =     0.00000029   -0.00000010    0.00001545
     atom   27 type  2   force =     0.00000002    0.00000001   -0.00003285
     atom   28 type  2   force =     0.00000001    0.00000000    0.00017140
     atom   29 type  2   force =     0.00000000   -0.00000000    0.00441580
     atom   30 type  2   force =     0.00000004    0.00000001    0.00009691
     atom   31 type  1   force =    -0.00000069    0.00000039   -0.00001365
     atom   32 type  1   force =     0.00005629   -0.00003251   -0.00250893
     atom   33 type  2   force =     0.00000013   -0.00000007   -0.00017207
     atom   34 type  2   force =     0.00000454   -0.00000262    0.00003274
     atom   35 type  2   force =     0.00000068   -0.00000038   -0.00009623
     atom   36 type  2   force =     0.00000127   -0.00000073   -0.00440353
     atom   37 type  1   force =    -0.00000000   -0.00000000    0.00255986
     atom   38 type  1   force =    -0.00000008   -0.00000003    0.00001519
     atom   39 type  2   force =     0.00000001    0.00000000   -0.00003285
     atom   40 type  2   force =     0.00000000   -0.00000000    0.00017140
     atom   41 type  2   force =     0.00000000    0.00000000    0.00441581
     atom   42 type  2   force =     0.00000001    0.00000004    0.00009691
     atom   43 type  1   force =    -0.00000000   -0.00000078   -0.00001365
     atom   44 type  1   force =    -0.00000282   -0.00000161   -0.00254844
     atom   45 type  2   force =    -0.00000001    0.00000016   -0.00017207
     atom   46 type  2   force =    -0.00000034   -0.00000019    0.00002488
     atom   47 type  2   force =     0.00000022    0.00000013   -0.00009669
     atom   48 type  2   force =     0.00000000    0.00000152   -0.00440353
     atom   49 type  1   force =    -0.00000000    0.00000001    0.00255987
     atom   50 type  1   force =    -0.00000009    0.00000014    0.00001519
     atom   51 type  2   force =    -0.00000003    0.00000002   -0.00003280
     atom   52 type  2   force =     0.00000001    0.00000001    0.00017141
     atom   53 type  2   force =    -0.00000000    0.00000000    0.00441580
     atom   54 type  2   force =    -0.00000047    0.00000047    0.00009729
     atom   55 type  1   force =    -0.00000108    0.00000313   -0.00001163
     atom   56 type  1   force =     0.00000385    0.00001469   -0.00254056
     atom   57 type  2   force =    -0.00000157   -0.00000130   -0.00016568
     atom   58 type  2   force =     0.00000265    0.00000078    0.00003331
     atom   59 type  2   force =    -0.00000054   -0.00000007   -0.00009716
     atom   60 type  2   force =    -0.00007313    0.00015575   -0.00434453
     atom   61 type  1   force =     0.00000000    0.00000000    0.00255988
     atom   62 type  1   force =    -0.00000035    0.00000023    0.00001592
     atom   63 type  2   force =    -0.00000001    0.00000001   -0.00003268
     atom   64 type  2   force =    -0.00000000    0.00000001    0.00017144
     atom   65 type  2   force =    -0.00000000    0.00000000    0.00441579
     atom   66 type  2   force =     0.00000001    0.00000001    0.00009689
     atom   67 type  1   force =     0.00000001   -0.00000000   -0.00000890
     atom   68 type  1   force =    -0.00007292    0.00004208   -0.00239619
     atom   69 type  2   force =     0.00000001   -0.00000002   -0.00015461
     atom   70 type  2   force =     0.00000025   -0.00000015    0.00002391
     atom   71 type  2   force =     0.00000016   -0.00000008   -0.00009549
     atom   72 type  2   force =    -0.00000004    0.00000005   -0.00440275
     atom   73 type  1   force =     0.00000001   -0.00000000    0.00255988
     atom   74 type  1   force =     0.00000003   -0.00000037    0.00001591
     atom   75 type  2   force =     0.00000002   -0.00000003   -0.00003279
     atom   76 type  2   force =     0.00000001    0.00000001    0.00017145
     atom   77 type  2   force =    -0.00000000   -0.00000000    0.00441579
     atom   78 type  2   force =     0.00000020   -0.00000064    0.00009727
     atom   79 type  1   force =     0.00000218   -0.00000250   -0.00001164
     atom   80 type  1   force =     0.00000002   -0.00008429   -0.00239618
     atom   81 type  2   force =    -0.00000194   -0.00000069   -0.00016572
     atom   82 type  2   force =     0.00000000    0.00000029    0.00002391
     atom   83 type  2   force =     0.00000001    0.00000020   -0.00009550
     atom   84 type  2   force =     0.00009834   -0.00014123   -0.00434456
     atom   85 type  1   force =     0.00000001   -0.00000000    0.00255986
     atom   86 type  1   force =     0.00000013   -0.00000016    0.00001517
     atom   87 type  2   force =     0.00000000   -0.00000001   -0.00003287
     atom   88 type  2   force =     0.00000002   -0.00000001    0.00017143
     atom   89 type  2   force =     0.00000000   -0.00000000    0.00441581
     atom   90 type  2   force =     0.00000006    0.00000003    0.00009700
     atom   91 type  1   force =     0.00000113    0.00000065   -0.00001093
     atom   92 type  1   force =     0.00001462   -0.00000392   -0.00254059
     atom   93 type  2   force =     0.00000634    0.00000366   -0.00016923
     atom   94 type  2   force =     0.00000200    0.00000191    0.00003331
     atom   95 type  2   force =    -0.00000032   -0.00000044   -0.00009717
     atom   96 type  2   force =     0.00000684    0.00000397   -0.00441273
     atom   97 type  1   force =     0.00000000   -0.00000000    0.00255987
     atom   98 type  1   force =     0.00000001   -0.00000005    0.00001500
     atom   99 type  2   force =     0.00000002   -0.00000000   -0.00003285
     atom  100 type  2   force =     0.00000000   -0.00000001    0.00017141
     atom  101 type  2   force =    -0.00000000    0.00000000    0.00441581
     atom  102 type  2   force =    -0.00000020    0.00000012    0.00009662
     atom  103 type  1   force =     0.00000134   -0.00000077   -0.00000761
     atom  104 type  1   force =     0.00000000   -0.00000001   -0.00254899
     atom  105 type  2   force =     0.00000149   -0.00000086   -0.00017059
     atom  106 type  2   force =     0.00000000    0.00000000    0.00003625
     atom  107 type  2   force =    -0.00000000   -0.00000002   -0.00009571
     atom  108 type  2   force =    -0.00001036    0.00000598   -0.00441478
     atom  109 type  1   force =    -0.00000001    0.00000000    0.00255988
     atom  110 type  1   force =    -0.00000019    0.00000003    0.00001518
     atom  111 type  2   force =    -0.00000002    0.00000003   -0.00003280
     atom  112 type  2   force =    -0.00000001    0.00000001    0.00017141
     atom  113 type  2   force =    -0.00000000    0.00000000    0.00441580
     atom  114 type  2   force =    -0.00000064    0.00000018    0.00009728
     atom  115 type  1   force =    -0.00000325   -0.00000062   -0.00001164
     atom  116 type  1   force =    -0.00001079   -0.00001069   -0.00254057
     atom  117 type  2   force =     0.00000035    0.00000200   -0.00016569
     atom  118 type  2   force =     0.00000065   -0.00000268    0.00003331
     atom  119 type  2   force =    -0.00000023    0.00000051   -0.00009715
     atom  120 type  2   force =    -0.00017145   -0.00001457   -0.00434453
     atom  121 type  1   force =    -0.00000001   -0.00000000    0.00255989
     atom  122 type  1   force =    -0.00000028   -0.00000010    0.00001548
     atom  123 type  2   force =     0.00000000   -0.00000001   -0.00003279
     atom  124 type  2   force =    -0.00000001    0.00000000    0.00017142
     atom  125 type  2   force =    -0.00000000   -0.00000000    0.00441580
     atom  126 type  2   force =    -0.00000016   -0.00000062    0.00009727
     atom  127 type  1   force =    -0.00000216   -0.00000250   -0.00001165
     atom  128 type  1   force =    -0.00005632   -0.00003251   -0.00250889
     atom  129 type  2   force =     0.00000196   -0.00000069   -0.00016571
     atom  130 type  2   force =    -0.00000454   -0.00000262    0.00003274
     atom  131 type  2   force =    -0.00000069   -0.00000038   -0.00009625
     atom  132 type  2   force =    -0.00009829   -0.00014124   -0.00434456
     atom  133 type  1   force =     0.00000000   -0.00000001    0.00255988
     atom  134 type  1   force =    -0.00000008   -0.00000016    0.00001518
     atom  135 type  2   force =     0.00000003   -0.00000000   -0.00003283
     atom  136 type  2   force =    -0.00000001   -0.00000001    0.00017143
     atom  137 type  2   force =    -0.00000000   -0.00000000    0.00441581
     atom  138 type  2   force =     0.00000003   -0.00000025    0.00009660
     atom  139 type  1   force =     0.00000001    0.00000154   -0.00000763
     atom  140 type  1   force =    -0.00001465   -0.00000397   -0.00254059
     atom  141 type  2   force =     0.00000001    0.00000172   -0.00017059
     atom  142 type  2   force =    -0.00000200    0.00000191    0.00003331
     atom  143 type  2   force =     0.00000033   -0.00000044   -0.00009717
     atom  144 type  2   force =     0.00000001   -0.00001193   -0.00441479
     atom  145 type  1   force =     0.00000000   -0.00000000    0.00255987
     atom  146 type  1   force =     0.00000007    0.00000009    0.00001518
     atom  147 type  2   force =    -0.00000002   -0.00000003   -0.00003284
     atom  148 type  2   force =    -0.00000000   -0.00000001    0.00017142
     atom  149 type  2   force =    -0.00000000    0.00000000    0.00441581
     atom  150 type  2   force =     0.00000019    0.00000009    0.00009661
     atom  151 type  1   force =    -0.00000133   -0.00000078   -0.00000760
     atom  152 type  1   force =    -0.00000387    0.00001465   -0.00254057
     atom  153 type  2   force =    -0.00000149   -0.00000086   -0.00017059
     atom  154 type  2   force =    -0.00000265    0.00000078    0.00003331
     atom  155 type  2   force =     0.00000055   -0.00000009   -0.00009716
     atom  156 type  2   force =     0.00001034    0.00000597   -0.00441478
     atom  157 type  1   force =     0.00000000    0.00000000    0.00255986
     atom  158 type  1   force =     0.00000015   -0.00000002    0.00001517
     atom  159 type  2   force =    -0.00000003   -0.00000001   -0.00003287
     atom  160 type  2   force =     0.00000000    0.00000000    0.00017141
     atom  161 type  2   force =     0.00000000    0.00000000    0.00441580
     atom  162 type  2   force =    -0.00000004   -0.00000008    0.00009700
     atom  163 type  1   force =    -0.00000001   -0.00000129   -0.00001092
     atom  164 type  1   force =     0.00001074   -0.00001071   -0.00254059
     atom  165 type  2   force =     0.00000000   -0.00000732   -0.00016924
     atom  166 type  2   force =    -0.00000065   -0.00000269    0.00003331
     atom  167 type  2   force =     0.00000021    0.00000051   -0.00009715
     atom  168 type  2   force =    -0.00000001   -0.00000790   -0.00441273
     atom  169 type  1   force =    -0.00000000   -0.00000000    0.00255987
     atom  170 type  1   force =    -0.00000005    0.00000010    0.00001516
     atom  171 type  2   force =    -0.00000004   -0.00000001   -0.00003283
     atom  172 type  2   force =    -0.00000000    0.00000000    0.00017141
     atom  173 type  2   force =    -0.00000000   -0.00000000    0.00441581
     atom  174 type  2   force =    -0.00000007   -0.00000002    0.00009690
     atom  175 type  1   force =     0.00000072    0.00000042   -0.00001365
     atom  176 type  1   force =    -0.00000001    0.00000325   -0.00254844
     atom  177 type  2   force =    -0.00000014   -0.00000007   -0.00017208
     atom  178 type  2   force =    -0.00000001    0.00000038    0.00002487
     atom  179 type  2   force =    -0.00000002   -0.00000025   -0.00009668
     atom  180 type  2   force =    -0.00000130   -0.00000075   -0.00440353
     atom  181 type  1   force =    -0.00000000   -0.00000000    0.00255987
     atom  182 type  1   force =     0.00000002   -0.00000006    0.00001518
     atom  183 type  2   force =    -0.00000004   -0.00000003   -0.00003286
     atom  184 type  2   force =    -0.00000001    0.00000000    0.00017142
     atom  185 type  2   force =    -0.00000000    0.00000000    0.00441581
     atom  186 type  2   force =    -0.00000009    0.00000001    0.00009699
     atom  187 type  1   force =    -0.00000112    0.00000063   -0.00001093
     atom  188 type  1   force =     0.00000280   -0.00000161   -0.00254844
     atom  189 type  2   force =    -0.00000634    0.00000366   -0.00016922
     atom  190 type  2   force =     0.00000032   -0.00000019    0.00002488
     atom  191 type  2   force =    -0.00000025    0.00000012   -0.00009670
     atom  192 type  2   force =    -0.00000685    0.00000396   -0.00441275
     atom  193 type  3   force =    -0.00000001    0.00000001   -0.00138699

     Total force =     0.012369     Total SCF correction =     0.002270
     SCF correction compared to forces is large: reduce conv_thr to get better values

     Writing all to output data dir ./outdir/pwscf.save/
 
     init_run     :    190.24s CPU    193.46s WALL (       1 calls)
     electrons    :  29672.53s CPU  29890.09s WALL (       1 calls)
     forces       :    120.46s CPU    123.11s WALL (       1 calls)
     force_dftd3  :      0.78s CPU      0.82s WALL (       1 calls)

     Called by init_run:
     wfcinit      :    166.51s CPU    168.50s WALL (       1 calls)
     potinit      :      2.18s CPU      2.24s WALL (       1 calls)
     hinit0       :     15.37s CPU     15.39s WALL (       1 calls)

     Called by electrons:
     c_bands      :  27710.49s CPU  27860.88s WALL (      29 calls)
     sum_band     :   1860.07s CPU   1898.83s WALL (      29 calls)
     v_of_rho     :     14.45s CPU     14.59s WALL (      29 calls)
     newd         :     60.37s CPU     89.27s WALL (      29 calls)
     PAW_pot      :     19.40s CPU     19.41s WALL (      29 calls)
     mix_rho      :      4.25s CPU      4.25s WALL (      29 calls)
     energy_dftd3 :      0.36s CPU      0.36s WALL (       1 calls)

     Called by c_bands:
     init_us_2    :     70.38s CPU     70.68s WALL (     240 calls)
     init_us_2:cp :     70.37s CPU     70.68s WALL (     240 calls)
     cegterg      :  27465.54s CPU  27612.04s WALL (     152 calls)

     Called by *egterg:
     cdiaghg      :   1561.71s CPU   1566.57s WALL (    2245 calls)
     h_psi        :  14332.67s CPU  14379.60s WALL (    2253 calls)
     s_psi        :   3023.44s CPU   3033.53s WALL (    2253 calls)
     g_psi        :     27.93s CPU     28.01s WALL (    2097 calls)

     Called by h_psi:
     h_psi:calbec :   3076.78s CPU   3077.45s WALL (    2253 calls)
     vloc_psi     :   8183.16s CPU   8199.70s WALL (    2253 calls)
     add_vuspsi   :   3038.12s CPU   3048.32s WALL (    2253 calls)

     General routines
     calbec       :   3766.72s CPU   3767.48s WALL (    2385 calls)
     fft          :     12.79s CPU     12.93s WALL (     387 calls)
     ffts         :      0.74s CPU      0.75s WALL (      58 calls)
     fftw         :   6299.52s CPU   6311.34s WALL ( 1219734 calls)
     interpolate  :      1.51s CPU      1.52s WALL (      29 calls)
 
     Parallel routines
 
     PWSCF        :      8h19m CPU      8h24m WALL

 
   This run was terminated on:   8:43:31  26Aug2023            

=------------------------------------------------------------------------------=
   JOB DONE.
=------------------------------------------------------------------------------=
Application 11095740 resources: utime ~1081386s, stime ~8192s, Rss ~3470316, inblocks ~0, outblocks ~49129960
