
     Program PWSCF v.7.3 starts on 17Mar2024 at  8:33:46 

     This program is part of the open-source Quantum ESPRESSO suite
     for quantum simulation of materials; please cite
         "P. Giannozzi et al., J. Phys.:Condens. Matter 21 395502 (2009);
         "P. Giannozzi et al., J. Phys.:Condens. Matter 29 465901 (2017);
         "P. Giannozzi et al., J. Chem. Phys. 152 154105 (2020);
          URL http://www.quantum-espresso.org", 
     in publications or presentations arising from this work. More details at
     http://www.quantum-espresso.org/quote

     Parallel version (MPI & OpenMP), running on      36 processor cores
     Number of MPI processes:                36
     Threads/MPI process:                     1

     MPI processes distributed on     1 nodes
     528247 MiB available memory on the printing compute node when the environment starts
 
     Waiting for input...
     Reading input from standard input
Warning: card &CELL ignored
Warning: card / ignored

     Current dimensions of program PWSCF are:
     Max number of different atomic species (ntypx) = 10
     Max number of k-points (npk) =  40000
     Max angular momentum in pseudopotentials (lmaxx) =  4
     file Mo.pbe-spn-kjpaw_psl.1.0.0.UPF: wavefunction(s)  4S 4D renormalized
     file S.pbe-n-kjpaw_psl.1.0.0.UPF: wavefunction(s)  3S 3P renormalized
     file Pd.pbe-spn-kjpaw_psl.1.0.0.UPF: wavefunction(s)  4S 5S 4D renormalized
     file Pt.pbe-spfn-kjpaw_psl.1.0.0.UPF: wavefunction(s)  5P 4F renormalized
 
     R & G space division:  proc/nbgrp/npool/nimage =      36
     Subspace diagonalization in iterative solution of the eigenvalue problem:
     one sub-group per band group will be used
     scalapack distributed-memory algorithm (size of sub-group:  6*  6 procs)

 
     Parallelization info
     --------------------
     sticks:   dense  smooth     PW     G-vecs:    dense   smooth      PW
     Min         585     334     89               198743    85850   11735
     Max         586     335     90               198750    85861   11748
     Sum       21073   12049   3205              7154885  3090769  422587
 
     Using Slab Decomposition
 


     bravais-lattice index     =            0
     lattice parameter (alat)  =      23.8199  a.u.
     unit-cell volume          =   33861.0370 (a.u.)^3
     number of atoms/cell      =          194
     number of atomic types    =            4
     number of electrons       =      1714.00
     number of Kohn-Sham states=         1028
     kinetic-energy cutoff     =      77.0000  Ry
     charge density cutoff     =     539.0000  Ry
     scf convergence threshold =      1.0E-06
     mixing beta               =       0.2000
     number of iterations used =            8  plain     mixing
     energy convergence thresh.=      1.0E-04
     force convergence thresh. =      1.0E-03
     Exchange-correlation= SLA  PW   PBX  PBC
                           (   1   4   3   4   0   0   0)
     nstep                     =         1000


     Effective Screening Medium Method
     =================================
     Boundary Conditions: Vacuum-Slab-Vacuum
     total charge in unit cell        =   0.0000
     grid points for fit at edges     =        4 
 

     celldm(1)=  23.819920  celldm(2)=   0.000000  celldm(3)=   0.000000
     celldm(4)=   0.000000  celldm(5)=   0.000000  celldm(6)=   0.000000

     crystal axes: (cart. coord. in units of alat)
               a(1) = (   1.000000   0.000000   0.000000 )  
               a(2) = (  -0.499999   0.866026   0.000000 )  
               a(3) = (   0.000000   0.000000   2.893000 )  

     reciprocal axes: (cart. coord. in units 2 pi/alat)
               b(1) = (  1.000000  0.577349  0.000000 )  
               b(2) = (  0.000000  1.154700  0.000000 )  
               b(3) = (  0.000000  0.000000  0.345662 )  


     PseudoPot. # 1 for Mo read from file:
     ./pseudo/Mo.pbe-spn-kjpaw_psl.1.0.0.UPF
     MD5 check sum: 317bf72632116215fd98f72de1686f13
     Pseudo is Projector augmented-wave + core cor, Zval = 14.0
     Generated using 'atomic' code by A. Dal Corso  v.7.2
     Shape of augmentation charge: PSQ
     Using radial grid of 1229 points,  6 beta functions with: 
                l(1) =   0
                l(2) =   0
                l(3) =   1
                l(4) =   1
                l(5) =   2
                l(6) =   2
     Q(r) pseudized with 0 coefficients 


     PseudoPot. # 2 for S  read from file:
     ./pseudo/S.pbe-n-kjpaw_psl.1.0.0.UPF
     MD5 check sum: 8b7b5302570d38d5e87fed6a1065abda
     Pseudo is Projector augmented-wave + core cor, Zval =  6.0
     Generated using 'atomic' code by A. Dal Corso  v.7.2
     Shape of augmentation charge: PSQ
     Using radial grid of 1151 points,  6 beta functions with: 
                l(1) =   0
                l(2) =   0
                l(3) =   1
                l(4) =   1
                l(5) =   2
                l(6) =   2
     Q(r) pseudized with 0 coefficients 


     PseudoPot. # 3 for Pd read from file:
     ./pseudo/Pd.pbe-spn-kjpaw_psl.1.0.0.UPF
     MD5 check sum: a60571a671f2502b8a6a4569d20a6edb
     Pseudo is Projector augmented-wave + core cor, Zval = 18.0
     Generated using 'atomic' code by A. Dal Corso  v.7.2
     Shape of augmentation charge: PSQ
     Using radial grid of 1235 points,  6 beta functions with: 
                l(1) =   0
                l(2) =   0
                l(3) =   1
                l(4) =   1
                l(5) =   2
                l(6) =   2
     Q(r) pseudized with 0 coefficients 


     PseudoPot. # 4 for Pt read from file:
     ./pseudo/Pt.pbe-spfn-kjpaw_psl.1.0.0.UPF
     MD5 check sum: 620096ebf4e6ebacc94de60fd67efcb5
     Pseudo is Projector augmented-wave + core cor, Zval = 32.0
     Generated using 'atomic' code by A. Dal Corso  v.7.2
     Shape of augmentation charge: PSQ
     Using radial grid of 1277 points,  8 beta functions with: 
                l(1) =   0
                l(2) =   0
                l(3) =   1
                l(4) =   1
                l(5) =   2
                l(6) =   2
                l(7) =   3
                l(8) =   3
     Q(r) pseudized with 0 coefficients 


     atomic species   valence    mass     pseudopotential
     Mo               14.00    95.95000     Mo( 1.00)
     S                 6.00    32.06000     S ( 1.00)
     Pd               18.00   106.42000     Pd( 1.00)
     Pt               32.00   195.08400     Pt( 1.00)

     No symmetry found



   Cartesian axes

     site n.     atom                  positions (alat units)
         1        Mo     tau(   1) = (   0.0000010   0.1443372  -0.7272732  )
         2        Mo     tau(   2) = (   0.1249995   0.0721706  -0.2424038  )
         3        S      tau(   3) = (   0.0000015   0.1443386  -0.3667807  )
         4        S      tau(   4) = (   0.1250010   0.0721682  -0.6030489  )
         5        S      tau(   5) = (   0.1250010   0.0721683  -0.8514963  )
         6        S      tau(   6) = (   0.0000015   0.1443389  -0.1180260  )
         7        Mo     tau(   7) = (   0.0000007   0.1443589   0.2424205  )
         8        Mo     tau(   8) = (   0.1250041   0.0720322   0.7266168  )
         9        S      tau(   9) = (   0.0000742   0.1444871   0.6020949  )
        10        S      tau(  10) = (   0.1250024   0.0721701   0.3667478  )
        11        S      tau(  11) = (   0.1250035   0.0721876   0.1180348  )
        12        S      tau(  12) = (  -0.0004118   0.1430864   0.8514340  )
        13        Mo     tau(  13) = (  -0.1249989   0.3608437  -0.7272732  )
        14        Mo     tau(  14) = (   0.0000030   0.2886752  -0.2424042  )
        15        S      tau(  15) = (  -0.1249977   0.3608450  -0.3667802  )
        16        S      tau(  16) = (   0.0000012   0.2886747  -0.6030489  )
        17        S      tau(  17) = (   0.0000012   0.2886748  -0.8514963  )
        18        S      tau(  18) = (  -0.1249977   0.3608454  -0.1180274  )
        19        Mo     tau(  19) = (  -0.1249729   0.3608584   0.2424608  )
        20        Mo     tau(  20) = (  -0.0007193   0.2876626   0.7275440  )
        21        S      tau(  21) = (  -0.1251115   0.3607789   0.6027257  )
        22        S      tau(  22) = (   0.0000621   0.2887099   0.3668377  )
        23        S      tau(  23) = (  -0.0000096   0.2886902   0.1180527  )
        24        S      tau(  24) = (  -0.1254673   0.3605734   0.8517408  )
        25        Mo     tau(  25) = (  -0.2499987   0.5773502  -0.7272732  )
        26        Mo     tau(  26) = (  -0.1249977   0.5051839  -0.2424055  )
        27        S      tau(  27) = (  -0.2499981   0.5773518  -0.3667809  )
        28        S      tau(  28) = (  -0.1249986   0.5051812  -0.6030489  )
        29        S      tau(  29) = (  -0.1249986   0.5051813  -0.8514963  )
        30        S      tau(  30) = (  -0.2499979   0.5773512  -0.1180266  )
        31        Mo     tau(  31) = (  -0.2499795   0.5773389   0.2424205  )
        32        Mo     tau(  32) = (  -0.1262356   0.5050639   0.7275441  )
        33        S      tau(  33) = (  -0.2498323   0.5773390   0.6020948  )
        34        S      tau(  34) = (  -0.1249376   0.5052159   0.3668377  )
        35        S      tau(  35) = (  -0.1249905   0.5051638   0.1180531  )
        36        S      tau(  36) = (  -0.2512883   0.5776183   0.8514340  )
        37        Mo     tau(  37) = (  -0.3749985   0.7938567  -0.7272732  )
        38        Mo     tau(  38) = (  -0.2500001   0.7216874  -0.2424031  )
        39        S      tau(  39) = (  -0.3749980   0.7938584  -0.3667800  )
        40        S      tau(  40) = (  -0.2499984   0.7216877  -0.6030489  )
        41        S      tau(  41) = (  -0.2499984   0.7216878  -0.8514963  )
        42        S      tau(  42) = (  -0.3749982   0.7938585  -0.1180264  )
        43        Mo     tau(  43) = (  -0.3749962   0.7938568   0.2423838  )
        44        Mo     tau(  44) = (  -0.2501148   0.7217588   0.7266170  )
        45        S      tau(  45) = (  -0.3749945   0.7938590   0.6021274  )
        46        S      tau(  46) = (  -0.2499958   0.7216877   0.3667488  )
        47        S      tau(  47) = (  -0.2499810   0.7216794   0.1180323  )
        48        S      tau(  48) = (  -0.3749953   0.7938585   0.8511588  )
        49        Mo     tau(  49) = (   0.2500010   0.1443372  -0.7272732  )
        50        Mo     tau(  50) = (   0.3750034   0.0721723  -0.2424032  )
        51        S      tau(  51) = (   0.2500017   0.1443391  -0.3667788  )
        52        S      tau(  52) = (   0.3750010   0.0721682  -0.6030489  )
        53        S      tau(  53) = (   0.3750010   0.0721683  -0.8514963  )
        54        S      tau(  54) = (   0.2500016   0.1443391  -0.1180271  )
        55        Mo     tau(  55) = (   0.2500054   0.1443594   0.2424211  )
        56        Mo     tau(  56) = (   0.3749279   0.0721263   0.7263991  )
        57        S      tau(  57) = (   0.2499344   0.1444864   0.6020948  )
        58        S      tau(  58) = (   0.3750316   0.0721860   0.3667597  )
        59        S      tau(  59) = (   0.3749924   0.0721644   0.1180346  )
        60        S      tau(  60) = (   0.2504199   0.1430865   0.8514340  )
        61        Mo     tau(  61) = (   0.1250012   0.3608437  -0.7272732  )
        62        Mo     tau(  62) = (   0.2500029   0.2886782  -0.2424031  )
        63        S      tau(  63) = (   0.1250024   0.3608455  -0.3667794  )
        64        S      tau(  64) = (   0.2500012   0.2886747  -0.6030489  )
        65        S      tau(  65) = (   0.2500012   0.2886748  -0.8514963  )
        66        S      tau(  66) = (   0.1250021   0.3608455  -0.1180270  )
        67        Mo     tau(  67) = (   0.1250038   0.3608653   0.2423963  )
        68        Mo     tau(  68) = (   0.2507284   0.2876625   0.7275438  )
        69        S      tau(  69) = (   0.1250046   0.3627170   0.6061948  )
        70        S      tau(  70) = (   0.2499461   0.2887116   0.3668373  )
        71        S      tau(  71) = (   0.2500171   0.2886900   0.1180543  )
        72        S      tau(  72) = (   0.1250046   0.3519103   0.8557806  )
        73        Mo     tau(  73) = (   0.0000014   0.5773502  -0.7272732  )
        74        Mo     tau(  74) = (   0.1250045   0.5051840  -0.2424036  )
        75        S      tau(  75) = (   0.0000030   0.5773520  -0.3667799  )
        76        S      tau(  76) = (   0.1250014   0.5051812  -0.6030489  )
        77        S      tau(  77) = (   0.1250014   0.5051813  -0.8514963  )
        78        S      tau(  78) = (   0.0000026   0.5773517  -0.1180274  )
        79        Mo     tau(  79) = (   0.0000222   0.5773400   0.2423964  )
        80        Mo     tau(  80) = (   0.1250047   0.5051836   0.7321380  )
        81        S      tau(  81) = (   0.0016251   0.5764170   0.6061946  )
        82        S      tau(  82) = (   0.1250047   0.5051815   0.3667777  )
        83        S      tau(  83) = (   0.1250048   0.5051819   0.1179962  )
        84        S      tau(  84) = (  -0.0077335   0.5818202   0.8557807  )
        85        Mo     tau(  85) = (  -0.1249984   0.7938567  -0.7272732  )
        86        Mo     tau(  86) = (   0.0000069   0.7216896  -0.2424039  )
        87        S      tau(  87) = (  -0.1249975   0.7938582  -0.3667782  )
        88        S      tau(  88) = (   0.0000016   0.7216877  -0.6030489  )
        89        S      tau(  89) = (   0.0000016   0.7216878  -0.8514963  )
        90        S      tau(  90) = (  -0.1249973   0.7938582  -0.1180279  )
        91        Mo     tau(  91) = (  -0.1249774   0.7938494   0.2424207  )
        92        Mo     tau(  92) = (  -0.0005116   0.7228241   0.7275438  )
        93        S      tau(  93) = (  -0.1249026   0.7937246   0.6020948  )
        94        S      tau(  94) = (   0.0000043   0.7216209   0.3668361  )
        95        S      tau(  95) = (   0.0000226   0.7216928   0.1180549  )
        96        S      tau(  96) = (  -0.1258721   0.7948451   0.8514341  )
        97        Mo     tau(  97) = (   0.5000010   0.1443372  -0.7272732  )
        98        Mo     tau(  98) = (   0.6250001   0.0721662  -0.2424040  )
        99        S      tau(  99) = (   0.5000017   0.1443386  -0.3667801  )
       100        S      tau( 100) = (   0.6250010   0.0721682  -0.6030489  )
       101        S      tau( 101) = (   0.6250010   0.0721683  -0.8514963  )
       102        S      tau( 102) = (   0.5000020   0.1443388  -0.1180261  )
       103        Mo     tau( 103) = (   0.5000075   0.1443411   0.2423793  )
       104        Mo     tau( 104) = (   0.6250042   0.0723339   0.7270464  )
       105        S      tau( 105) = (   0.5002366   0.1444733   0.6023595  )
       106        S      tau( 106) = (   0.6250029   0.0721787   0.3667562  )
       107        S      tau( 107) = (   0.6250040   0.0721260   0.1180315  )
       108        S      tau( 108) = (   0.4998752   0.1442648   0.8512770  )
       109        Mo     tau( 109) = (   0.3750012   0.3608437  -0.7272732  )
       110        Mo     tau( 110) = (   0.4999991   0.2886761  -0.2424038  )
       111        S      tau( 111) = (   0.3750012   0.3608452  -0.3667804  )
       112        S      tau( 112) = (   0.5000012   0.2886747  -0.6030489  )
       113        S      tau( 113) = (   0.5000012   0.2886748  -0.8514963  )
       114        S      tau( 114) = (   0.3750014   0.3608455  -0.1180261  )
       115        Mo     tau( 115) = (   0.3749795   0.3608597   0.2424601  )
       116        Mo     tau( 116) = (   0.5001461   0.2885951   0.7270464  )
       117        S      tau( 117) = (   0.3751205   0.3607791   0.6027254  )
       118        S      tau( 118) = (   0.5000105   0.2886721   0.3667569  )
       119        S      tau( 119) = (   0.4999655   0.2886989   0.1180297  )
       120        S      tau( 120) = (   0.3754765   0.3605739   0.8517402  )
       121        Mo     tau( 121) = (   0.2500014   0.5773502  -0.7272732  )
       122        Mo     tau( 122) = (   0.3749983   0.5051825  -0.2424043  )
       123        S      tau( 123) = (   0.2500017   0.5773519  -0.3667810  )
       124        S      tau( 124) = (   0.3750014   0.5051812  -0.6030489  )
       125        S      tau( 125) = (   0.3750014   0.5051813  -0.8514963  )
       126        S      tau( 126) = (   0.2500018   0.5773519  -0.1180256  )
       127        Mo     tau( 127) = (   0.2499863   0.5773402   0.2423965  )
       128        Mo     tau( 128) = (   0.3762454   0.5050642   0.7275433  )
       129        S      tau( 129) = (   0.2483844   0.5764169   0.6061944  )
       130        S      tau( 130) = (   0.3749442   0.5052158   0.3668400  )
       131        S      tau( 131) = (   0.3749972   0.5051650   0.1180510  )
       132        S      tau( 132) = (   0.2577438   0.5818204   0.8557797  )
       133        Mo     tau( 133) = (   0.1250016   0.7938567  -0.7272732  )
       134        Mo     tau( 134) = (   0.2499995   0.7216883  -0.2424036  )
       135        S      tau( 135) = (   0.1250024   0.7938578  -0.3667813  )
       136        S      tau( 136) = (   0.2500016   0.7216877  -0.6030489  )
       137        S      tau( 137) = (   0.2500016   0.7216878  -0.8514963  )
       138        S      tau( 138) = (   0.1250024   0.7938579  -0.1180253  )
       139        Mo     tau( 139) = (   0.1250047   0.7938294   0.2424606  )
       140        Mo     tau( 140) = (   0.2505220   0.7228241   0.7275433  )
       141        S      tau( 141) = (   0.1250053   0.7939926   0.6027252  )
       142        S      tau( 142) = (   0.2500048   0.7216200   0.3668387  )
       143        S      tau( 143) = (   0.2499864   0.7216915   0.1180524  )
       144        S      tau( 144) = (   0.1250054   0.7944033   0.8517402  )
       145        Mo     tau( 145) = (   0.7500010   0.1443372  -0.7272732  )
       146        Mo     tau( 146) = (   0.8750038   0.0721696  -0.2424038  )
       147        S      tau( 147) = (   0.7500016   0.1443382  -0.3667789  )
       148        S      tau( 148) = (   0.8750010   0.0721682  -0.6030489  )
       149        S      tau( 149) = (   0.8750010   0.0721683  -0.8514963  )
       150        S      tau( 150) = (   0.7500016   0.1443384  -0.1180279  )
       151        Mo     tau( 151) = (   0.7499986   0.1443409   0.2423802  )
       152        Mo     tau( 152) = (   0.8750804   0.0721266   0.7263988  )
       153        S      tau( 153) = (   0.7497713   0.1444738   0.6023592  )
       154        S      tau( 154) = (   0.8749758   0.0721848   0.3667595  )
       155        S      tau( 155) = (   0.8750127   0.0721632   0.1180342  )
       156        S      tau( 156) = (   0.7501331   0.1442647   0.8512770  )
       157        Mo     tau( 157) = (   0.6250012   0.3608437  -0.7272732  )
       158        Mo     tau( 158) = (   0.7500028   0.2886769  -0.2424041  )
       159        S      tau( 159) = (   0.6250015   0.3608451  -0.3667792  )
       160        S      tau( 160) = (   0.7500012   0.2886747  -0.6030489  )
       161        S      tau( 161) = (   0.7500012   0.2886748  -0.8514963  )
       162        S      tau( 162) = (   0.6250016   0.3608454  -0.1180280  )
       163        Mo     tau( 163) = (   0.6250032   0.3608391   0.2423797  )
       164        Mo     tau( 164) = (   0.7498627   0.2885951   0.7270467  )
       165        S      tau( 165) = (   0.6250046   0.3605769   0.6023590  )
       166        S      tau( 166) = (   0.7499943   0.2886711   0.3667569  )
       167        S      tau( 167) = (   0.7500399   0.2886970   0.1180318  )
       168        S      tau( 168) = (   0.6250043   0.3609947   0.8512770  )
       169        Mo     tau( 169) = (   0.5000014   0.5773502  -0.7272732  )
       170        Mo     tau( 170) = (   0.6250029   0.5051841  -0.2424047  )
       171        S      tau( 171) = (   0.5000014   0.5773518  -0.3667794  )
       172        S      tau( 172) = (   0.6250014   0.5051812  -0.6030489  )
       173        S      tau( 173) = (   0.6250014   0.5051813  -0.8514963  )
       174        S      tau( 174) = (   0.5000016   0.5773516  -0.1180277  )
       175        Mo     tau( 175) = (   0.4999855   0.5773383   0.2424207  )
       176        Mo     tau( 176) = (   0.6250049   0.5052713   0.7263986  )
       177        S      tau( 177) = (   0.4998428   0.5773389   0.6020941  )
       178        S      tau( 178) = (   0.6250030   0.5051500   0.3667588  )
       179        S      tau( 179) = (   0.6250025   0.5051935   0.1180351  )
       180        S      tau( 180) = (   0.5012979   0.5776190   0.8514332  )
       181        Mo     tau( 181) = (   0.3750016   0.7938567  -0.7272732  )
       182        Mo     tau( 182) = (   0.5000025   0.7216901  -0.2424039  )
       183        S      tau( 183) = (   0.3750019   0.7938578  -0.3667793  )
       184        S      tau( 184) = (   0.5000016   0.7216877  -0.6030489  )
       185        S      tau( 185) = (   0.5000016   0.7216878  -0.8514963  )
       186        S      tau( 186) = (   0.3750020   0.7938579  -0.1180272  )
       187        Mo     tau( 187) = (   0.3749848   0.7938487   0.2424206  )
       188        Mo     tau( 188) = (   0.5001249   0.7217591   0.7266160  )
       189        S      tau( 189) = (   0.3749125   0.7937251   0.6020942  )
       190        S      tau( 190) = (   0.5000021   0.7216868   0.3667472  )
       191        S      tau( 191) = (   0.4999874   0.7216780   0.1180346  )
       192        S      tau( 192) = (   0.3758826   0.7948451   0.8514332  )
       193        Pd     tau( 193) = (   0.1250063   0.5051842   0.9601361  )
       194        Pt     tau( 194) = (   0.8750524   0.0721145   0.9702531  )

     --------------------------------------------
     DFT-D3 Dispersion Correction (3-body terms):
     --------------------------------------------
       Reference C6 values for interpolation: 

         atom   Coordination number   C6
         S          0.000           268.01
         S          0.995           261.99
         S          1.990           251.62
         Mo         0.000          1691.79
         Mo         1.942          1004.01
         Mo        11.056           674.22
         Pd         0.000          1217.01
         Pd         1.863           573.90
         Pd         5.710           531.75
         Pt         0.000           782.29
         Pt         1.919           692.72
         Pt         6.667           673.75

       Values used:

         atom   Coordination number  R0_AB[au]  C6      C8
         Mo        10.208            3.547    674.22  77634.20
         Mo        10.221            3.547    674.22  77634.20
         S          3.858            3.128    251.62  12327.25
         S          3.859            3.128    251.62  12327.25
         S          3.758            3.128    251.62  12327.25
         S          3.859            3.128    251.62  12327.25
         Mo        10.220            3.547    674.22  77634.20
         Mo        10.244            3.547    674.22  77634.20
         S          3.848            3.128    251.62  12327.25
         S          3.861            3.128    251.62  12327.25
         S          3.859            3.128    251.62  12327.25
         S          4.774            3.128    251.62  12327.25
         Mo        10.208            3.547    674.22  77634.20
         Mo        10.221            3.547    674.22  77634.20
         S          3.858            3.128    251.62  12327.25
         S          3.859            3.128    251.62  12327.25
         S          3.758            3.128    251.62  12327.25
         S          3.859            3.128    251.62  12327.25
         Mo        10.221            3.547    674.22  77634.20
         Mo        10.202            3.547    674.22  77634.20
         S          3.855            3.128    251.62  12327.25
         S          3.856            3.128    251.62  12327.25
         S          3.859            3.128    251.62  12327.25
         S          3.769            3.128    251.62  12327.25
         Mo        10.208            3.547    674.22  77634.20
         Mo        10.221            3.547    674.22  77634.20
         S          3.858            3.128    251.62  12327.25
         S          3.859            3.128    251.62  12327.25
         S          3.758            3.128    251.62  12327.25
         S          3.859            3.128    251.62  12327.25
         Mo        10.220            3.547    674.22  77634.20
         Mo        10.191            3.547    674.22  77634.20
         S          3.847            3.128    251.62  12327.25
         S          3.856            3.128    251.62  12327.25
         S          3.859            3.128    251.62  12327.25
         S          3.805            3.128    251.62  12327.25
         Mo        10.208            3.547    674.22  77634.20
         Mo        10.221            3.547    674.22  77634.20
         S          3.858            3.128    251.62  12327.25
         S          3.859            3.128    251.62  12327.25
         S          3.758            3.128    251.62  12327.25
         S          3.859            3.128    251.62  12327.25
         Mo        10.219            3.547    674.22  77634.20
         Mo        10.234            3.547    674.22  77634.20
         S          3.856            3.128    251.62  12327.25
         S          3.861            3.128    251.62  12327.25
         S          3.859            3.128    251.62  12327.25
         S          3.794            3.128    251.62  12327.25
         Mo        10.208            3.547    674.22  77634.20
         Mo        10.221            3.547    674.22  77634.20
         S          3.858            3.128    251.62  12327.25
         S          3.859            3.128    251.62  12327.25
         S          3.758            3.128    251.62  12327.25
         S          3.859            3.128    251.62  12327.25
         Mo        10.220            3.547    674.22  77634.20
         Mo        10.244            3.547    674.22  77634.20
         S          3.847            3.128    251.62  12327.25
         S          3.860            3.128    251.62  12327.25
         S          3.859            3.128    251.62  12327.25
         S          3.806            3.128    251.62  12327.25
         Mo        10.208            3.547    674.22  77634.20
         Mo        10.221            3.547    674.22  77634.20
         S          3.858            3.128    251.62  12327.25
         S          3.859            3.128    251.62  12327.25
         S          3.758            3.128    251.62  12327.25
         S          3.859            3.128    251.62  12327.25
         Mo        10.222            3.547    674.22  77634.20
         Mo        10.191            3.547    674.22  77634.20
         S          3.865            3.128    251.62  12327.25
         S          3.856            3.128    251.62  12327.25
         S          3.859            3.128    251.62  12327.25
         S          4.654            3.128    251.62  12327.25
         Mo        10.208            3.547    674.22  77634.20
         Mo        10.221            3.547    674.22  77634.20
         S          3.858            3.128    251.62  12327.25
         S          3.859            3.128    251.62  12327.25
         S          3.758            3.128    251.62  12327.25
         S          3.859            3.128    251.62  12327.25
         Mo        10.222            3.547    674.22  77634.20
         Mo        10.821            3.547    674.22  77634.20
         S          3.865            3.128    251.62  12327.25
         S          3.853            3.128    251.62  12327.25
         S          3.859            3.128    251.62  12327.25
         S          4.653            3.128    251.62  12327.25
         Mo        10.208            3.547    674.22  77634.20
         Mo        10.221            3.547    674.22  77634.20
         S          3.858            3.128    251.62  12327.25
         S          3.859            3.128    251.62  12327.25
         S          3.758            3.128    251.62  12327.25
         S          3.859            3.128    251.62  12327.25
         Mo        10.220            3.547    674.22  77634.20
         Mo        10.191            3.547    674.22  77634.20
         S          3.847            3.128    251.62  12327.25
         S          3.856            3.128    251.62  12327.25
         S          3.859            3.128    251.62  12327.25
         S          3.805            3.128    251.62  12327.25
         Mo        10.208            3.547    674.22  77634.20
         Mo        10.221            3.547    674.22  77634.20
         S          3.858            3.128    251.62  12327.25
         S          3.859            3.128    251.62  12327.25
         S          3.758            3.128    251.62  12327.25
         S          3.859            3.128    251.62  12327.25
         Mo        10.220            3.547    674.22  77634.20
         Mo        10.240            3.547    674.22  77634.20
         S          3.862            3.128    251.62  12327.25
         S          3.860            3.128    251.62  12327.25
         S          3.859            3.128    251.62  12327.25
         S          3.766            3.128    251.62  12327.25
         Mo        10.208            3.547    674.22  77634.20
         Mo        10.221            3.547    674.22  77634.20
         S          3.858            3.128    251.62  12327.25
         S          3.859            3.128    251.62  12327.25
         S          3.758            3.128    251.62  12327.25
         S          3.859            3.128    251.62  12327.25
         Mo        10.221            3.547    674.22  77634.20
         Mo        10.230            3.547    674.22  77634.20
         S          3.855            3.128    251.62  12327.25
         S          3.860            3.128    251.62  12327.25
         S          3.859            3.128    251.62  12327.25
         S          3.756            3.128    251.62  12327.25
         Mo        10.208            3.547    674.22  77634.20
         Mo        10.221            3.547    674.22  77634.20
         S          3.858            3.128    251.62  12327.25
         S          3.859            3.128    251.62  12327.25
         S          3.758            3.128    251.62  12327.25
         S          3.859            3.128    251.62  12327.25
         Mo        10.222            3.547    674.22  77634.20
         Mo        10.191            3.547    674.22  77634.20
         S          3.865            3.128    251.62  12327.25
         S          3.856            3.128    251.62  12327.25
         S          3.859            3.128    251.62  12327.25
         S          4.654            3.128    251.62  12327.25
         Mo        10.208            3.547    674.22  77634.20
         Mo        10.221            3.547    674.22  77634.20
         S          3.858            3.128    251.62  12327.25
         S          3.859            3.128    251.62  12327.25
         S          3.758            3.128    251.62  12327.25
         S          3.859            3.128    251.62  12327.25
         Mo        10.221            3.547    674.22  77634.20
         Mo        10.202            3.547    674.22  77634.20
         S          3.855            3.128    251.62  12327.25
         S          3.856            3.128    251.62  12327.25
         S          3.859            3.128    251.62  12327.25
         S          3.769            3.128    251.62  12327.25
         Mo        10.208            3.547    674.22  77634.20
         Mo        10.221            3.547    674.22  77634.20
         S          3.858            3.128    251.62  12327.25
         S          3.859            3.128    251.62  12327.25
         S          3.758            3.128    251.62  12327.25
         S          3.859            3.128    251.62  12327.25
         Mo        10.220            3.547    674.22  77634.20
         Mo        10.837            3.547    674.22  77634.20
         S          3.863            3.128    251.62  12327.25
         S          3.860            3.128    251.62  12327.25
         S          3.859            3.128    251.62  12327.25
         S          4.732            3.128    251.62  12327.25
         Mo        10.208            3.547    674.22  77634.20
         Mo        10.220            3.547    674.22  77634.20
         S          3.858            3.128    251.62  12327.25
         S          3.859            3.128    251.62  12327.25
         S          3.758            3.128    251.62  12327.25
         S          3.859            3.128    251.62  12327.25
         Mo        10.220            3.547    674.22  77634.20
         Mo        10.240            3.547    674.22  77634.20
         S          3.862            3.128    251.62  12327.25
         S          3.860            3.128    251.62  12327.25
         S          3.859            3.128    251.62  12327.25
         S          3.766            3.128    251.62  12327.25
         Mo        10.208            3.547    674.22  77634.20
         Mo        10.221            3.547    674.22  77634.20
         S          3.858            3.128    251.62  12327.25
         S          3.859            3.128    251.62  12327.25
         S          3.758            3.128    251.62  12327.25
         S          3.859            3.128    251.62  12327.25
         Mo        10.220            3.547    674.22  77634.20
         Mo        10.244            3.547    674.22  77634.20
         S          3.847            3.128    251.62  12327.25
         S          3.860            3.128    251.62  12327.25
         S          3.859            3.128    251.62  12327.25
         S          3.806            3.128    251.62  12327.25
         Mo        10.208            3.547    674.22  77634.20
         Mo        10.221            3.547    674.22  77634.20
         S          3.858            3.128    251.62  12327.25
         S          3.859            3.128    251.62  12327.25
         S          3.758            3.128    251.62  12327.25
         S          3.859            3.128    251.62  12327.25
         Mo        10.220            3.547    674.22  77634.20
         Mo        10.244            3.547    674.22  77634.20
         S          3.848            3.128    251.62  12327.25
         S          3.861            3.128    251.62  12327.25
         S          3.859            3.128    251.62  12327.25
         S          4.774            3.128    251.62  12327.25
         Pd         3.767            3.168    558.55  51175.93
         Pt         3.619            3.168    692.72  72035.25

         Molecular C6 ( Ry / a.u.^6 ) =  13983856.87


     number of k points=     4  Gaussian smearing, width (Ry)=  0.0100
                       cart. coord. in units 2pi/alat
        k(    1) = (   0.0000000   0.0000000   0.0000000), wk =   0.5000000
        k(    2) = (   0.0000000  -0.5773499   0.0000000), wk =   0.5000000
        k(    3) = (  -0.5000000  -0.2886744   0.0000000), wk =   0.5000000
        k(    4) = (  -0.5000000  -0.8660242   0.0000000), wk =   0.5000000

     Dense  grid:  7154885 G-vectors     FFT dimensions: ( 180, 180, 512)

     Smooth grid:  3090769 G-vectors     FFT dimensions: ( 135, 135, 400)

     Estimated max dynamical RAM per process >       4.31 GB

     Estimated total dynamical RAM >     155.10 GB

     Initial potential from superposition of free atoms

     starting charge    1713.9389, renormalised to    1714.0000

     negative rho (up, down):  8.699E-04 0.000E+00
     Starting wfcs are 1179 randomized atomic wfcs
     Checking if some PAW data can be deallocated... 

     total cpu time spent up to now is      178.8 secs

     Self-consistent Calculation

     iteration #  1     ecut=    77.00 Ry     beta= 0.20
     Davidson diagonalization with overlap
     ethr =  1.00E-02,  avg # of iterations =  2.0

     Threshold (ethr) on eigenvalues was too large:
     Diagonalizing with lowered threshold

     Davidson diagonalization with overlap
     ethr =  1.64E-04,  avg # of iterations = 17.0

     negative rho (up, down):  2.343E-04 0.000E+00

     total cpu time spent up to now is     2195.4 secs

     total energy              =  -33980.23238415 Ry
     estimated scf accuracy    <       6.49355555 Ry

     iteration #  2     ecut=    77.00 Ry     beta= 0.20
     Davidson diagonalization with overlap
     ethr =  3.79E-04,  avg # of iterations =  2.0

     negative rho (up, down):  2.395E-05 0.000E+00

     total cpu time spent up to now is     2596.2 secs

     total energy              =  -33978.87709814 Ry
     estimated scf accuracy    <       3.40126346 Ry

     iteration #  3     ecut=    77.00 Ry     beta= 0.20
     Davidson diagonalization with overlap
     ethr =  1.98E-04,  avg # of iterations = 13.0

     negative rho (up, down):  1.569E-05 0.000E+00

     total cpu time spent up to now is     3120.6 secs

     total energy              =  -33979.27960982 Ry
     estimated scf accuracy    <       0.85257077 Ry

     iteration #  4     ecut=    77.00 Ry     beta= 0.20
     Davidson diagonalization with overlap
     c_bands:  4 eigenvalues not converged
     c_bands:  1 eigenvalues not converged
     c_bands:  1 eigenvalues not converged
     ethr =  4.97E-05,  avg # of iterations = 19.8

     negative rho (up, down):  1.824E-05 0.000E+00

     total cpu time spent up to now is     4335.2 secs

     total energy              =  -33980.07746997 Ry
     estimated scf accuracy    <       0.37401707 Ry

     iteration #  5     ecut=    77.00 Ry     beta= 0.20
     Davidson diagonalization with overlap
     ethr =  2.18E-05,  avg # of iterations = 13.5

     negative rho (up, down):  4.436E-05 0.000E+00

     total cpu time spent up to now is     4995.0 secs

     total energy              =  -33980.16670054 Ry
     estimated scf accuracy    <       0.21182675 Ry

     iteration #  6     ecut=    77.00 Ry     beta= 0.20
     Davidson diagonalization with overlap
     c_bands:  1 eigenvalues not converged
     ethr =  1.24E-05,  avg # of iterations = 17.5

     negative rho (up, down):  2.472E-04 0.000E+00

     total cpu time spent up to now is     5526.6 secs

     total energy              =  -33980.15393594 Ry
     estimated scf accuracy    <       0.12503644 Ry

     iteration #  7     ecut=    77.00 Ry     beta= 0.20
     Davidson diagonalization with overlap
     c_bands:  3 eigenvalues not converged
     c_bands:  1 eigenvalues not converged
     ethr =  7.30E-06,  avg # of iterations = 18.0

     negative rho (up, down):  5.754E-04 0.000E+00

     total cpu time spent up to now is     6353.5 secs

     total energy              =  -33980.22823951 Ry
     estimated scf accuracy    <       0.07218825 Ry

     iteration #  8     ecut=    77.00 Ry     beta= 0.20
     Davidson diagonalization with overlap
     c_bands:  2 eigenvalues not converged
     c_bands:  4 eigenvalues not converged
     c_bands:  4 eigenvalues not converged
     ethr =  4.21E-06,  avg # of iterations = 29.8

     negative rho (up, down):  4.523E-04 0.000E+00

     total cpu time spent up to now is     7201.3 secs

     total energy              =  -33980.22691427 Ry
     estimated scf accuracy    <       0.04062487 Ry

     iteration #  9     ecut=    77.00 Ry     beta= 0.20
     Davidson diagonalization with overlap
     c_bands:  3 eigenvalues not converged
     c_bands:  4 eigenvalues not converged
     c_bands:  5 eigenvalues not converged
     c_bands:  4 eigenvalues not converged
     ethr =  2.37E-06,  avg # of iterations = 50.0

     negative rho (up, down):  4.304E-04 0.000E+00

     total cpu time spent up to now is     8541.4 secs

     total energy              =  -33980.24462159 Ry
     estimated scf accuracy    <       0.00315074 Ry

     iteration # 10     ecut=    77.00 Ry     beta= 0.20
     Davidson diagonalization with overlap
     c_bands:  5 eigenvalues not converged
     c_bands:  2 eigenvalues not converged
     c_bands:  5 eigenvalues not converged
     c_bands:  1 eigenvalues not converged
     ethr =  1.84E-07,  avg # of iterations = 30.0

     negative rho (up, down):  4.818E-04 0.000E+00

     total cpu time spent up to now is    10632.6 secs

     total energy              =  -33980.25378512 Ry
     estimated scf accuracy    <       0.00448552 Ry

     iteration # 11     ecut=    77.00 Ry     beta= 0.20
     Davidson diagonalization with overlap
     c_bands:  5 eigenvalues not converged
     c_bands:  1 eigenvalues not converged
     ethr =  1.84E-07,  avg # of iterations = 17.5

     negative rho (up, down):  7.801E-04 0.000E+00

     total cpu time spent up to now is    11176.4 secs

     total energy              =  -33980.25352457 Ry
     estimated scf accuracy    <       0.00189678 Ry

     iteration # 12     ecut=    77.00 Ry     beta= 0.20
     Davidson diagonalization with overlap
     c_bands:  2 eigenvalues not converged
     c_bands:  4 eigenvalues not converged
     ethr =  1.11E-07,  avg # of iterations = 26.2

     negative rho (up, down):  7.815E-04 0.000E+00

     total cpu time spent up to now is    12719.1 secs

     total energy              =  -33980.25242883 Ry
     estimated scf accuracy    <       0.01319367 Ry

     iteration # 13     ecut=    77.00 Ry     beta= 0.20
     Davidson diagonalization with overlap
     c_bands:  1 eigenvalues not converged
     ethr =  1.11E-07,  avg # of iterations = 14.8

     negative rho (up, down):  7.569E-04 0.000E+00

     total cpu time spent up to now is    13543.1 secs

     total energy              =  -33980.25358507 Ry
     estimated scf accuracy    <       0.00121904 Ry

     iteration # 14     ecut=    77.00 Ry     beta= 0.20
     Davidson diagonalization with overlap
     c_bands:  2 eigenvalues not converged
     ethr =  7.11E-08,  avg # of iterations = 10.8

     negative rho (up, down):  7.909E-04 0.000E+00

     total cpu time spent up to now is    14222.3 secs

     total energy              =  -33980.25419600 Ry
     estimated scf accuracy    <       0.00010766 Ry

     iteration # 15     ecut=    77.00 Ry     beta= 0.20
     Davidson diagonalization with overlap
     ethr =  6.28E-09,  avg # of iterations = 19.0

     negative rho (up, down):  8.262E-04 0.000E+00

     total cpu time spent up to now is    15515.7 secs

     total energy              =  -33980.25440886 Ry
     estimated scf accuracy    <       0.00011495 Ry

     iteration # 16     ecut=    77.00 Ry     beta= 0.20
     Davidson diagonalization with overlap
     ethr =  6.28E-09,  avg # of iterations =  3.5

     negative rho (up, down):  8.588E-04 0.000E+00

     total cpu time spent up to now is    15929.3 secs

     total energy              =  -33980.25439291 Ry
     estimated scf accuracy    <       0.00002501 Ry

     iteration # 17     ecut=    77.00 Ry     beta= 0.20
     Davidson diagonalization with overlap
     ethr =  1.46E-09,  avg # of iterations = 17.0

     negative rho (up, down):  8.660E-04 0.000E+00

     total cpu time spent up to now is    17030.9 secs

     total energy              =  -33980.25442870 Ry
     estimated scf accuracy    <       0.00003686 Ry

     iteration # 18     ecut=    77.00 Ry     beta= 0.20
     Davidson diagonalization with overlap
     ethr =  1.46E-09,  avg # of iterations =  1.2

     negative rho (up, down):  8.693E-04 0.000E+00

     total cpu time spent up to now is    17406.1 secs

     total energy              =  -33980.25441615 Ry
     estimated scf accuracy    <       0.00002240 Ry

     iteration # 19     ecut=    77.00 Ry     beta= 0.20
     Davidson diagonalization with overlap
     ethr =  1.31E-09,  avg # of iterations =  6.8

     negative rho (up, down):  8.726E-04 0.000E+00

     total cpu time spent up to now is    17836.0 secs

     total energy              =  -33980.25441425 Ry
     estimated scf accuracy    <       0.00000401 Ry

     iteration # 20     ecut=    77.00 Ry     beta= 0.20
     Davidson diagonalization with overlap
     c_bands:  1 eigenvalues not converged
     c_bands:  5 eigenvalues not converged
     c_bands:  1 eigenvalues not converged
     ethr =  2.34E-10,  avg # of iterations = 20.5

     negative rho (up, down):  8.725E-04 0.000E+00

     total cpu time spent up to now is    19487.7 secs

     total energy              =  -33980.25442681 Ry
     estimated scf accuracy    <       0.00000985 Ry

     iteration # 21     ecut=    77.00 Ry     beta= 0.20
     Davidson diagonalization with overlap
     ethr =  2.34E-10,  avg # of iterations =  1.5

     negative rho (up, down):  8.742E-04 0.000E+00

     total cpu time spent up to now is    19871.6 secs

     total energy              =  -33980.25442348 Ry
     estimated scf accuracy    <       0.00000727 Ry

     iteration # 22     ecut=    77.00 Ry     beta= 0.20
     Davidson diagonalization with overlap
     ethr =  2.34E-10,  avg # of iterations =  3.2

     negative rho (up, down):  8.774E-04 0.000E+00

     total cpu time spent up to now is    20278.3 secs

     total energy              =  -33980.25442017 Ry
     estimated scf accuracy    <       0.00000329 Ry

     iteration # 23     ecut=    77.00 Ry     beta= 0.20
     Davidson diagonalization with overlap
     ethr =  1.92E-10,  avg # of iterations =  8.8

     negative rho (up, down):  8.784E-04 0.000E+00

     total cpu time spent up to now is    20974.9 secs

     End of self-consistent calculation

          k = 0.0000 0.0000 0.0000 (386245 PWs)   bands (ev):

  -102.2537 -88.6804 -70.5672 -70.5661 -70.5633 -70.5619 -70.5370 -70.5363
   -70.5205 -66.5832 -66.5831 -66.5820 -66.5762 -66.5693 -66.5621 -66.5620
   -66.5620 -66.5619 -66.5619 -66.5619 -66.5619 -66.5619 -66.5619 -66.5617
   -66.5617 -66.5615 -66.5606 -66.5606 -66.5606 -66.5606 -66.5606 -66.5606
   -66.5594 -66.5571 -66.5432 -66.5410 -66.5408 -66.5408 -66.5407 -66.5405
   -66.5405 -66.5405 -66.5405 -66.5405 -66.5405 -66.5405 -66.5405 -66.5405
   -66.5405 -66.5404 -66.5403 -66.5402 -66.5401 -66.5400 -66.5392 -66.5392
   -66.5392 -66.5392 -66.5392 -66.5392 -66.5392 -66.5392 -66.5392 -66.5377
   -66.5334 -66.5291 -66.5234 -66.5217 -66.5209 -66.5139 -66.5136 -66.4966
   -66.4954 -56.5125 -56.4848 -56.4836 -54.5017 -54.4742 -54.4714 -40.9107
   -40.9107 -40.9107 -40.9107 -40.9107 -40.9104 -40.9101 -40.9101 -40.9101
   -40.8955 -40.8914 -40.8868 -40.8355 -40.8354 -40.8354 -40.8354 -40.8354
   -40.8354 -40.8353 -40.8353 -40.8353 -40.8352 -40.8351 -40.8351 -40.8347
   -40.8347 -40.8347 -40.8347 -40.8347 -40.8347 -40.8234 -40.8177 -40.8122
   -40.8098 -40.8095 -40.8077 -40.7587 -40.7429 -40.7428 -40.7423 -40.7347
   -40.7150 -40.7092 -40.7091 -40.7090 -40.7090 -40.7090 -40.7090 -40.7090
   -40.7090 -40.7090 -40.7088 -40.7088 -40.7087 -40.7082 -40.7082 -40.7082
   -40.7082 -40.7082 -40.7082 -40.7024 -40.7013 -40.7013 -40.7012 -40.7012
   -40.7012 -40.7012 -40.7011 -40.7011 -40.7011 -40.7009 -40.7009 -40.7008
   -40.7005 -40.7005 -40.7005 -40.7005 -40.7005 -40.7005 -40.7002 -40.6968
   -40.6943 -40.6922 -40.6902 -40.6866 -40.6855 -40.6823 -40.6741 -40.6740
   -40.6740 -40.6740 -40.6740 -40.6740 -40.6740 -40.6740 -40.6740 -40.6739
   -40.6738 -40.6737 -40.6737 -40.6731 -40.6731 -40.6731 -40.6731 -40.6731
   -40.6731 -40.6685 -40.6656 -40.6635 -40.6595 -40.6594 -40.6593 -40.6592
   -40.6592 -40.6592 -40.6592 -40.6592 -40.6592 -40.6591 -40.6591 -40.6591
   -40.6591 -40.6591 -40.6591 -40.6590 -40.6589 -40.6588 -40.6587 -40.6585
   -40.6585 -40.6585 -40.6585 -40.6585 -40.6585 -40.6584 -40.6584 -40.6584
   -40.6561 -40.6558 -40.6544 -40.6531 -40.6519 -40.6501 -40.6473 -40.6426
   -40.6376 -40.6366 -40.6359 -40.5957 -40.5956 -40.5956 -40.5956 -40.5956
   -40.5954 -40.5947 -40.5947 -40.5947 -40.5796 -40.5717 -40.5715 -40.5487
   -40.5486 -40.5485 -40.5485 -40.5485 -40.5485 -40.5485 -40.5485 -40.5485
   -40.5484 -40.5482 -40.5482 -40.5476 -40.5476 -40.5476 -40.5476 -40.5475
   -40.5475 -40.5342 -40.5277 -40.5267 -40.5239 -40.5205 -40.5147 -40.5009
   -40.5009 -40.5008 -40.5008 -40.4999 -40.4999 -40.4774 -40.4724 -20.1103
   -20.0483 -19.9478 -19.8453 -19.4093 -19.2651 -19.2426 -19.2148 -19.2115
   -19.2062 -19.1952 -19.1888 -19.1839 -19.1649 -19.1588 -19.1426 -19.1066
   -19.0983 -19.0942 -19.0820 -19.0769 -19.0577 -19.0028 -18.9987 -18.9974
   -18.9933 -18.9915 -18.9830 -18.8667 -18.7492 -18.5925 -18.5355 -18.5209
   -18.5200 -18.4667 -18.4621 -18.4352 -18.4290 -18.4008 -18.3890 -18.3801
   -18.3686 -18.3626 -18.3460 -18.3190 -18.2762 -18.2486 -18.2438 -18.2435
   -18.2301 -18.2083 -18.1916 -18.1575 -18.1473 -18.1435 -18.1403 -18.1325
   -18.1309 -18.1176 -18.0981 -18.0822 -18.0805 -18.0796 -18.0787 -18.0776
   -18.0739 -18.0536 -18.0471 -18.0444 -18.0437 -18.0378 -18.0373 -18.0361
   -18.0344 -18.0315 -18.0188 -18.0092 -18.0084 -18.0070 -18.0007 -17.9936
   -17.9923 -17.9833 -17.9798 -17.9739 -17.9662 -17.9636 -17.9607 -17.9551
   -17.9491 -17.9452 -17.9425 -17.9122 -17.9115 -17.9036 -17.8937 -17.8862
   -17.8774 -17.8763 -17.8752 -17.8717 -17.8545 -17.8544 -17.8437 -17.8428
   -17.8348 -17.8306 -17.8263 -17.8256 -17.8205 -17.8183 -17.8157 -17.8121
   -17.8003 -17.8002 -17.7973 -17.7909 -17.7861 -17.7842 -17.7815 -17.7801
   -17.7762 -17.7567 -17.7556 -17.7551 -17.7540 -17.7536 -17.7517 -12.0995
   -11.9262 -11.8217 -11.8093 -11.7672 -11.7401 -11.7343 -11.7198 -11.6393
   -11.6209 -11.6170 -11.5429 -11.5113 -11.5098 -11.4990 -11.3710 -11.3150
   -11.2286 -11.2064 -11.2007 -11.1984 -11.1965 -11.1804 -11.1781 -11.1107
   -11.0982 -11.0935 -11.0920 -11.0909 -11.0862 -11.0776 -11.0739 -11.0434
   -11.0415 -11.0336 -11.0305 -11.0244 -11.0225 -11.0176 -11.0126 -10.9958
   -10.9946 -10.9945 -10.9606 -10.9580 -10.9428 -10.9207 -10.9170 -10.9074
   -10.8955 -10.8932 -10.8893 -10.8753 -10.8581 -10.8563 -10.8487 -10.8455
   -10.8321 -10.8218 -10.8115 -10.8088 -10.8076 -10.8043 -10.7988 -10.7963
   -10.7896 -10.7896 -10.7849 -10.7800 -10.7786 -10.7703 -10.7677 -10.7670
   -10.7661 -10.7640 -10.7568 -10.7362 -10.7361 -10.7349 -10.7329 -10.7292
   -10.7238 -10.7214 -10.7176 -10.7117 -10.6967 -10.6964 -10.6963 -10.6935
   -10.6935 -10.6924 -10.6182 -10.6182 -10.6169 -10.5745 -10.5528 -10.5509
   -10.5481 -10.5408 -10.5347 -10.3624 -10.3250 -10.2201 -10.1987 -10.1768
   -10.0831 -10.0732  -9.9873  -9.8753  -9.8654  -9.8585  -9.8124  -9.7843
    -9.7770  -9.7620  -9.7556  -9.7539  -9.7473  -9.7350  -9.7302  -9.7295
    -9.7285  -9.7247  -9.7211  -9.7131  -9.7104  -9.7094  -9.7087  -9.6931
    -9.6910  -9.6805  -9.6760  -9.6558  -9.6300  -9.5927  -9.5887  -9.5862
    -9.5850  -9.5840  -9.5777  -9.5771  -9.5768  -9.5764  -9.5742  -9.5742
    -9.5699  -9.5504  -9.5487  -9.5436  -9.5275  -9.5013  -9.5010  -9.5006
    -9.5005  -9.5001  -9.5000  -9.4877  -9.4835  -9.4830  -9.4756  -9.4693
    -9.4627  -9.4612  -9.4479  -9.4128  -9.4033  -9.3496  -9.3408  -9.3249
    -9.3130  -9.3053  -9.2943  -9.2923  -9.2907  -9.2854  -9.2817  -9.2724
    -9.2628  -9.2197  -9.2098  -9.2002  -9.1919  -9.1893  -9.1781  -9.1523
    -9.1452  -9.1427  -9.1403  -9.1391  -9.1370  -9.1253  -9.1147  -9.1076
    -9.1005  -9.0812  -9.0746  -9.0674  -9.0443  -9.0177  -8.9731  -8.9554
    -8.9421  -8.9404  -8.9402  -8.9361  -8.9242  -8.9155  -8.9089  -8.9059
    -8.9047  -8.8848  -8.8767  -8.8764  -8.8722  -8.8710  -8.8606  -8.8464
    -8.8429  -8.8405  -8.8233  -8.7804  -8.7803  -8.7802  -8.7799  -8.7796
    -8.7792  -8.7118  -8.7115  -8.7074  -8.7019  -8.6981  -8.6864  -8.6261
    -8.6249  -8.6224  -8.6185  -8.6166  -8.6019  -8.5546  -8.5520  -8.5517
    -8.5508  -8.5496  -8.5488  -8.5443  -8.5344  -8.4612  -8.3673  -8.3256
    -8.3256  -8.3208  -8.3204  -8.3143  -8.3140  -8.3042  -8.2914  -8.2681
    -8.2579  -8.2468  -8.2405  -8.2351  -8.2350  -8.2340  -8.2323  -8.2310
    -8.2246  -8.2088  -8.2085  -8.2068  -8.2047  -8.2044  -8.2006  -8.1804
    -8.1804  -8.1794  -8.1786  -8.1785  -8.1775  -8.1707  -8.1084  -8.1016
    -7.9467  -7.9437  -7.9019  -7.8161  -7.8159  -7.8134  -7.7347  -7.7280
    -7.7176  -7.6558  -7.6469  -7.6166  -7.5999  -7.5997  -7.5882  -7.5736
    -7.5725  -7.5677  -7.5674  -7.5638  -7.5386  -7.5304  -7.5284  -7.5133
    -7.5111  -7.5086  -7.5021  -7.4984  -7.4924  -7.4919  -7.4919  -7.4910
    -7.4868  -7.4831  -7.4778  -7.4724  -7.4662  -7.4651  -7.4646  -7.4628
    -7.4622  -7.4617  -7.4425  -7.4412  -7.4411  -7.4404  -7.4403  -7.4401
    -7.4233  -7.4108  -7.4017  -7.3858  -7.3856  -7.3769  -7.3745  -7.3706
    -7.3671  -7.3603  -7.3286  -7.3255  -7.2984  -7.2970  -7.2778  -7.2701
    -7.2675  -7.2577  -7.2554  -7.2492  -7.2463  -7.2381  -7.2325  -7.2268
    -7.2089  -7.2087  -7.1907  -7.1901  -7.1727  -7.1724  -7.1581  -7.1364
    -7.0946  -7.0863  -7.0819  -7.0672  -7.0480  -7.0052  -6.9398  -6.9130
    -6.8573  -6.8560  -6.8313  -6.8176  -6.7942  -6.7679  -6.7645  -6.7516
    -6.7402  -6.7387  -6.7231  -6.7067  -6.6954  -6.6863  -6.6684  -6.6568
    -6.6520  -6.6371  -6.6130  -6.5846  -6.5832  -6.5797  -6.5747  -6.5638
    -6.5552  -6.5428  -6.5326  -6.5185  -6.5099  -6.5029  -6.4953  -6.4833
    -6.4735  -6.4703  -6.4697  -6.4687  -6.4677  -6.4666  -6.4653  -6.4637
    -6.4566  -6.4562  -6.4561  -6.4559  -6.4559  -6.4554  -6.4443  -6.4182
    -6.4145  -6.4025  -6.3783  -6.3732  -6.3685  -6.3608  -6.3514  -6.3176
    -6.3097  -6.2923  -6.2916  -6.2912  -6.2910  -6.2852  -6.2836  -6.2593
    -6.2534  -6.2518  -6.2518  -6.2450  -6.2448  -6.2312  -6.2150  -6.2134
    -6.2133  -6.2106  -6.2105  -6.2082  -6.2009  -6.1694  -6.1180  -6.0845
    -5.8604  -5.7300  -5.6821  -5.6771  -5.5403  -5.3979  -5.3875  -5.2736
    -5.1100  -4.3765  -3.8645  -3.8147  -3.8130  -3.8069  -3.8022  -3.7880
    -3.7858  -3.7855  -3.7826  -3.7823  -3.7783  -3.7622  -3.7209  -3.6696
    -3.6651  -3.6488  -3.6444  -3.6405  -3.6383  -3.6315  -3.6309  -3.6247
    -3.6228  -3.5396  -3.4977  -3.4767  -3.4714  -3.4655  -3.4499  -3.4476
    -3.4395  -3.4360  -3.4310  -3.4302  -3.4299  -3.4266  -3.4258  -3.4145
    -3.4126  -3.4084  -3.4013  -3.4006  -3.4005  -3.3984  -3.3909  -3.3854
    -3.3851  -3.3837  -3.3726  -3.3705  -3.3685  -3.3673  -3.3662  -3.3610
    -3.3601  -3.3552  -3.3527  -3.3480  -3.3479  -3.3128  -3.3105  -3.3053
    -3.3033  -3.3009  -3.2986  -3.2954  -3.2940  -3.2938  -3.2850  -3.2730
    -3.2647  -3.2516  -3.2447  -3.2405  -3.2399  -3.2354  -3.2241  -3.2167
    -3.2020  -3.1737  -3.1720  -3.1562  -3.1494  -3.0452  -3.0239  -3.0218
    -3.0177  -3.0166  -3.0140  -3.0130  -2.9996  -2.9988  -2.9932  -2.9697
    -2.9448  -2.9431  -2.9330  -2.9311  -2.9295  -2.9290  -2.9286  -2.9227
    -2.9219  -2.9212  -2.9209  -2.9181  -2.9149  -2.9121  -2.9118  -2.9032
    -2.8953  -2.8952  -2.8899  -2.8898  -2.8883  -2.8863  -2.8858  -2.8855
    -2.8843  -2.8815  -2.8802  -2.8442  -2.8391  -2.8375  -2.8295  -2.8261
    -2.8156  -2.8030  -2.7930  -2.7927  -2.7664  -2.7620  -2.7617  -2.7614
    -2.7612  -2.7610  -2.7608  -2.7604  -2.7592  -2.7506  -2.7439  -2.7415
    -2.7126  -2.7084  -2.7063  -2.6893  -2.6849  -2.6785  -2.6776  -2.6269
    -2.6251  -2.5966  -2.5950  -2.5864  -2.5822  -2.5811  -2.5751  -2.5748
    -2.5731  -2.5599  -2.5337  -2.5148  -2.5119  -2.4981  -2.4936  -2.3976
    -2.3782  -2.3704  -2.3698  -2.3636

          k = 0.0000-0.5773 0.0000 (386352 PWs)   bands (ev):

  -102.2537 -88.6804 -70.5672 -70.5661 -70.5633 -70.5619 -70.5370 -70.5363
   -70.5205 -66.5770 -66.5770 -66.5770 -66.5768 -66.5757 -66.5757 -66.5743
   -66.5690 -66.5665 -66.5663 -66.5663 -66.5663 -66.5662 -66.5651 -66.5651
   -66.5513 -66.5513 -66.5512 -66.5512 -66.5512 -66.5512 -66.5510 -66.5510
   -66.5499 -66.5499 -66.5499 -66.5499 -66.5494 -66.5468 -66.5468 -66.5468
   -66.5466 -66.5463 -66.5455 -66.5455 -66.5424 -66.5407 -66.5405 -66.5405
   -66.5405 -66.5405 -66.5404 -66.5404 -66.5401 -66.5392 -66.5392 -66.5392
   -66.5392 -66.5373 -66.5361 -66.5361 -66.5360 -66.5359 -66.5348 -66.5348
   -66.5319 -66.5277 -66.5256 -66.5226 -66.5172 -66.5167 -66.5134 -66.4965
   -66.4954 -56.5125 -56.4848 -56.4836 -54.5017 -54.4742 -54.4714 -40.8791
   -40.8791 -40.8790 -40.8790 -40.8790 -40.8790 -40.8790 -40.8787 -40.8784
   -40.8784 -40.8784 -40.8784 -40.8642 -40.8596 -40.8585 -40.8574 -40.8522
   -40.8522 -40.8522 -40.8521 -40.8516 -40.8516 -40.8402 -40.8402 -40.8401
   -40.8401 -40.8395 -40.8395 -40.8388 -40.8373 -40.8134 -40.8078 -40.7895
   -40.7895 -40.7895 -40.7895 -40.7894 -40.7894 -40.7894 -40.7894 -40.7888
   -40.7888 -40.7888 -40.7888 -40.7680 -40.7668 -40.7658 -40.7642 -40.7558
   -40.7328 -40.7307 -40.7307 -40.7306 -40.7305 -40.7301 -40.7301 -40.7212
   -40.7212 -40.7211 -40.7211 -40.7211 -40.7204 -40.7204 -40.7139 -40.7098
   -40.7098 -40.7097 -40.7097 -40.7092 -40.7092 -40.7016 -40.6969 -40.6863
   -40.6814 -40.6803 -40.6803 -40.6802 -40.6802 -40.6802 -40.6802 -40.6800
   -40.6800 -40.6795 -40.6795 -40.6795 -40.6795 -40.6788 -40.6759 -40.6715
   -40.6715 -40.6715 -40.6713 -40.6708 -40.6708 -40.6670 -40.6655 -40.6597
   -40.6597 -40.6597 -40.6596 -40.6593 -40.6592 -40.6592 -40.6592 -40.6591
   -40.6591 -40.6590 -40.6589 -40.6589 -40.6588 -40.6585 -40.6585 -40.6585
   -40.6585 -40.6573 -40.6563 -40.6505 -40.6505 -40.6504 -40.6504 -40.6498
   -40.6498 -40.6483 -40.6478 -40.6416 -40.6374 -40.6366 -40.6346 -40.6290
   -40.6288 -40.6288 -40.6288 -40.6288 -40.6288 -40.6286 -40.6284 -40.6279
   -40.6279 -40.6279 -40.6279 -40.6145 -40.6102 -40.6073 -40.6027 -40.5940
   -40.5940 -40.5940 -40.5940 -40.5940 -40.5940 -40.5939 -40.5939 -40.5931
   -40.5931 -40.5931 -40.5931 -40.5819 -40.5819 -40.5819 -40.5817 -40.5810
   -40.5809 -40.5749 -40.5721 -40.5715 -40.5678 -40.5627 -40.5626 -40.5626
   -40.5623 -40.5616 -40.5616 -40.5566 -40.5547 -40.5456 -40.5456 -40.5455
   -40.5455 -40.5446 -40.5446 -40.5439 -40.5382 -40.5188 -40.5149 -40.5149
   -40.5149 -40.5147 -40.5139 -40.5139 -40.5131 -40.4914 -40.4888 -19.9196
   -19.8504 -19.8216 -19.7947 -19.7215 -19.7025 -19.6149 -19.6078 -19.4368
   -19.4167 -19.3795 -19.3657 -19.2870 -19.2769 -19.1869 -19.1831 -18.8859
   -18.8049 -18.7776 -18.7429 -18.7171 -18.6963 -18.6800 -18.6787 -18.6778
   -18.6630 -18.6398 -18.6340 -18.6066 -18.6062 -18.5977 -18.5864 -18.5538
   -18.5457 -18.5190 -18.5146 -18.5118 -18.5094 -18.4858 -18.4825 -18.4573
   -18.4556 -18.4369 -18.4331 -18.4224 -18.4155 -18.3671 -18.3655 -18.3633
   -18.3609 -18.3231 -18.3103 -18.2913 -18.2863 -18.2718 -18.2440 -18.2179
   -18.2081 -18.2026 -18.1980 -18.1586 -18.1528 -18.1383 -18.1329 -18.0955
   -18.0926 -18.0754 -18.0662 -18.0629 -18.0597 -18.0567 -18.0543 -18.0480
   -18.0414 -18.0308 -18.0268 -18.0248 -18.0245 -18.0152 -18.0143 -18.0040
   -18.0003 -17.9982 -17.9949 -17.9684 -17.9661 -17.9629 -17.9613 -17.9577
   -17.9574 -17.9531 -17.9509 -17.9412 -17.9404 -17.9062 -17.9024 -17.8947
   -17.8940 -17.8866 -17.8833 -17.8499 -17.8494 -17.8401 -17.8370 -17.8111
   -17.8073 -17.8023 -17.7994 -17.7928 -17.7829 -17.7776 -17.7774 -17.7768
   -17.7760 -17.7750 -17.7711 -17.7622 -17.7606 -17.7415 -17.7408 -17.7174
   -17.7171 -17.6980 -17.6970 -17.6842 -17.6833 -17.6776 -17.6774 -11.9854
   -11.6898 -11.6651 -11.5937 -11.5842 -11.5389 -11.4829 -11.4779 -11.4690
   -11.4515 -11.4482 -11.4463 -11.4385 -11.4264 -11.4114 -11.3943 -11.3475
   -11.3444 -11.3339 -11.3305 -11.3043 -11.2867 -11.2799 -11.2751 -11.2521
   -11.2428 -11.2342 -11.2271 -11.2202 -11.2187 -11.2104 -11.2059 -11.1922
   -11.1651 -11.1617 -11.1568 -11.1501 -11.1436 -11.1293 -11.1262 -11.1251
   -11.1237 -11.1043 -11.1032 -11.0787 -11.0742 -11.0425 -11.0339 -11.0308
   -11.0168 -10.9718 -10.9450 -10.9163 -10.9025 -10.8948 -10.8903 -10.8726
   -10.8648 -10.8501 -10.8421 -10.8185 -10.8124 -10.8095 -10.7943 -10.7919
   -10.7863 -10.7795 -10.7774 -10.7692 -10.7687 -10.7682 -10.7664 -10.7560
   -10.7555 -10.7539 -10.7514 -10.7499 -10.7495 -10.7402 -10.7396 -10.7392
   -10.7364 -10.7012 -10.7011 -10.7010 -10.7006 -10.5301 -10.5074 -10.5047
   -10.5023 -10.4800 -10.4556 -10.4309 -10.3965 -10.3743 -10.3481 -10.2975
   -10.2852 -10.2108 -10.1874 -10.1139 -10.1108 -10.1030 -10.0958 -10.0728
   -10.0654 -10.0593 -10.0530 -10.0203 -10.0096  -9.9920  -9.9887  -9.9868
    -9.9819  -9.9793  -9.9729  -9.9487  -9.9425  -9.9011  -9.8961  -9.8852
    -9.8749  -9.8686  -9.8628  -9.8500  -9.8459  -9.8149  -9.8143  -9.7922
    -9.7875  -9.7715  -9.7604  -9.7512  -9.7361  -9.7341  -9.7205  -9.7007
    -9.6934  -9.6568  -9.6507  -9.6417  -9.6357  -9.6148  -9.6018  -9.5896
    -9.5826  -9.5690  -9.5677  -9.5339  -9.5291  -9.5192  -9.5084  -9.4985
    -9.4942  -9.4877  -9.4781  -9.4484  -9.4474  -9.4383  -9.4341  -9.4292
    -9.4267  -9.4172  -9.4146  -9.4102  -9.4078  -9.3863  -9.3834  -9.3335
    -9.3334  -9.3125  -9.2942  -9.2369  -9.2258  -9.1956  -9.1886  -9.1843
    -9.1802  -9.1549  -9.1453  -9.1340  -9.1308  -9.1163  -9.1075  -9.0844
    -9.0741  -9.0496  -9.0432  -9.0387  -9.0316  -9.0127  -9.0081  -8.9967
    -8.9928  -8.9910  -8.9826  -8.9494  -8.9447  -8.9302  -8.9256  -8.9107
    -8.9092  -8.8936  -8.8921  -8.8761  -8.8679  -8.8487  -8.8471  -8.8454
    -8.8451  -8.8396  -8.8352  -8.8296  -8.8285  -8.8250  -8.8237  -8.8208
    -8.8153  -8.8129  -8.8044  -8.7980  -8.7978  -8.7919  -8.7911  -8.7852
    -8.7696  -8.7516  -8.7499  -8.7448  -8.7437  -8.7418  -8.7414  -8.7209
    -8.7196  -8.6913  -8.6912  -8.6851  -8.6835  -8.6722  -8.6647  -8.6179
    -8.6132  -8.6071  -8.5970  -8.5598  -8.5441  -8.4617  -8.4613  -8.4120
    -8.4054  -8.3724  -8.3580  -8.3084  -8.3063  -8.2667  -8.2612  -8.2253
    -8.2056  -8.1140  -8.1058  -8.0858  -8.0857  -8.0773  -8.0767  -8.0660
    -8.0654  -8.0529  -8.0205  -8.0130  -7.9928  -7.9444  -7.9354  -7.9198
    -7.9113  -7.8458  -7.8398  -7.8057  -7.7991  -7.7922  -7.7877  -7.7851
    -7.7830  -7.7697  -7.7650  -7.7619  -7.7591  -7.7551  -7.7525  -7.7481
    -7.7453  -7.7429  -7.7413  -7.7382  -7.7379  -7.7323  -7.7301  -7.7264
    -7.7261  -7.7227  -7.7214  -7.7171  -7.7162  -7.7157  -7.7153  -7.6978
    -7.6941  -7.6862  -7.6854  -7.6802  -7.6784  -7.6542  -7.6540  -7.6537
    -7.6535  -7.6254  -7.6249  -7.6238  -7.6237  -7.6104  -7.6097  -7.6013
    -7.5964  -7.5812  -7.5721  -7.5687  -7.5657  -7.5635  -7.5623  -7.5562
    -7.5520  -7.5424  -7.5416  -7.5252  -7.5218  -7.5215  -7.5184  -7.5169
    -7.5135  -7.4522  -7.4479  -7.4243  -7.4210  -7.4134  -7.4122  -7.3754
    -7.3705  -7.2823  -7.2694  -7.1576  -7.1526  -7.1292  -7.1277  -7.1231
    -7.1225  -7.0865  -7.0801  -7.0772  -7.0755  -7.0615  -7.0596  -7.0287
    -7.0225  -6.9978  -6.9954  -6.9808  -6.9793  -6.9694  -6.9604  -6.9320
    -6.9300  -6.8744  -6.8712  -6.8703  -6.8675  -6.8502  -6.8443  -6.8325
    -6.8286  -6.8171  -6.8171  -6.7792  -6.7713  -6.7574  -6.7441  -6.7146
    -6.7133  -6.6825  -6.6681  -6.6419  -6.6294  -6.6225  -6.5992  -6.5827
    -6.5772  -6.5654  -6.5636  -6.5626  -6.5622  -6.5617  -6.5467  -6.5458
    -6.5454  -6.5444  -6.5427  -6.5369  -6.5368  -6.5366  -6.5365  -6.4941
    -6.4776  -6.4427  -6.4364  -6.3758  -6.3728  -6.3269  -6.2898  -6.2841
    -6.2790  -6.2774  -6.2728  -6.2563  -6.2411  -6.2375  -6.2345  -6.2341
    -6.2303  -6.2299  -6.2232  -6.2084  -6.2069  -6.2019  -6.1934  -6.1884
    -6.1702  -6.1611  -6.1586  -6.1569  -6.1394  -5.9625  -5.9577  -5.9311
    -5.9264  -5.8926  -5.8761  -5.8553  -5.8435  -5.8063  -5.8027  -5.7108
    -5.6873  -5.6769  -5.6570  -5.5800  -5.5625  -5.5331  -5.4496  -5.3878
    -5.3486  -4.3686  -4.0513  -4.0452  -4.0423  -4.0233  -3.9107  -3.8839
    -3.8803  -3.8697  -3.8614  -3.8234  -3.8012  -3.7975  -3.7880  -3.7801
    -3.7723  -3.7635  -3.7622  -3.7547  -3.7530  -3.7094  -3.6677  -3.6412
    -3.6303  -3.6039  -3.5895  -3.5618  -3.5578  -3.5560  -3.5553  -3.5222
    -3.5094  -3.5076  -3.4960  -3.4819  -3.4807  -3.4714  -3.4679  -3.4638
    -3.4530  -3.4372  -3.4361  -3.4323  -3.4294  -3.4260  -3.4219  -3.4148
    -3.4096  -3.4019  -3.3961  -3.3840  -3.3793  -3.3701  -3.3698  -3.3408
    -3.3284  -3.3045  -3.3040  -3.3036  -3.3018  -3.3001  -3.2953  -3.2911
    -3.2859  -3.2592  -3.2538  -3.2454  -3.2429  -3.2362  -3.2352  -3.2319
    -3.2307  -3.2290  -3.2218  -3.2007  -3.1983  -3.1910  -3.1860  -3.1795
    -3.1750  -3.1698  -3.1679  -3.1650  -3.1543  -3.1462  -3.1428  -3.1342
    -3.1287  -3.1254  -3.1191  -3.1181  -3.1180  -3.1062  -3.1016  -3.0610
    -3.0573  -3.0400  -3.0271  -3.0240  -3.0198  -3.0170  -3.0151  -2.9807
    -2.9797  -2.9788  -2.9786  -2.9784  -2.9772  -2.9682  -2.9677  -2.9611
    -2.9592  -2.9586  -2.9553  -2.9465  -2.9438  -2.9339  -2.9309  -2.9300
    -2.9279  -2.9253  -2.9226  -2.9210  -2.9123  -2.9061  -2.9028  -2.9010
    -2.8953  -2.8870  -2.8842  -2.8796  -2.8721  -2.8505  -2.8481  -2.8442
    -2.8405  -2.8324  -2.8243  -2.8161  -2.8108  -2.7506  -2.7482  -2.7474
    -2.7469  -2.6977  -2.6855  -2.6782  -2.6676  -2.5730  -2.5651  -2.5433
    -2.5430  -2.5288  -2.5229  -2.5125  -2.5002  -2.4921  -2.4904  -2.4841
    -2.4820  -2.4796  -2.4765  -2.4081  -2.3575  -2.3548  -2.3527  -2.3479
    -2.3389  -2.3337  -2.3083  -2.2964

          k =-0.5000-0.2887 0.0000 (386352 PWs)   bands (ev):

  -102.2537 -88.6804 -70.5672 -70.5661 -70.5633 -70.5619 -70.5370 -70.5363
   -70.5205 -66.5770 -66.5770 -66.5770 -66.5768 -66.5757 -66.5757 -66.5743
   -66.5690 -66.5665 -66.5663 -66.5663 -66.5663 -66.5662 -66.5651 -66.5651
   -66.5514 -66.5513 -66.5512 -66.5512 -66.5512 -66.5512 -66.5510 -66.5510
   -66.5499 -66.5499 -66.5499 -66.5499 -66.5494 -66.5468 -66.5468 -66.5468
   -66.5466 -66.5463 -66.5455 -66.5455 -66.5425 -66.5407 -66.5405 -66.5405
   -66.5405 -66.5405 -66.5405 -66.5404 -66.5401 -66.5392 -66.5392 -66.5392
   -66.5392 -66.5373 -66.5361 -66.5361 -66.5360 -66.5359 -66.5348 -66.5348
   -66.5319 -66.5277 -66.5256 -66.5226 -66.5172 -66.5167 -66.5134 -66.4965
   -66.4954 -56.5125 -56.4848 -56.4836 -54.5017 -54.4742 -54.4714 -40.8791
   -40.8791 -40.8791 -40.8790 -40.8790 -40.8790 -40.8790 -40.8787 -40.8784
   -40.8784 -40.8784 -40.8784 -40.8642 -40.8596 -40.8585 -40.8574 -40.8523
   -40.8522 -40.8522 -40.8521 -40.8516 -40.8516 -40.8402 -40.8402 -40.8401
   -40.8401 -40.8395 -40.8395 -40.8388 -40.8373 -40.8134 -40.8078 -40.7895
   -40.7895 -40.7895 -40.7895 -40.7894 -40.7894 -40.7894 -40.7894 -40.7888
   -40.7888 -40.7888 -40.7888 -40.7680 -40.7668 -40.7658 -40.7642 -40.7558
   -40.7328 -40.7307 -40.7307 -40.7306 -40.7305 -40.7301 -40.7301 -40.7212
   -40.7212 -40.7211 -40.7211 -40.7211 -40.7204 -40.7204 -40.7138 -40.7098
   -40.7098 -40.7097 -40.7097 -40.7092 -40.7092 -40.7016 -40.6969 -40.6863
   -40.6814 -40.6803 -40.6803 -40.6802 -40.6802 -40.6802 -40.6802 -40.6800
   -40.6800 -40.6795 -40.6795 -40.6795 -40.6795 -40.6788 -40.6759 -40.6715
   -40.6715 -40.6715 -40.6713 -40.6708 -40.6708 -40.6670 -40.6655 -40.6597
   -40.6597 -40.6597 -40.6596 -40.6593 -40.6592 -40.6592 -40.6591 -40.6591
   -40.6591 -40.6590 -40.6589 -40.6589 -40.6588 -40.6585 -40.6585 -40.6585
   -40.6585 -40.6573 -40.6562 -40.6505 -40.6505 -40.6504 -40.6504 -40.6498
   -40.6498 -40.6483 -40.6478 -40.6416 -40.6374 -40.6366 -40.6346 -40.6290
   -40.6288 -40.6288 -40.6288 -40.6288 -40.6288 -40.6286 -40.6284 -40.6279
   -40.6279 -40.6279 -40.6279 -40.6146 -40.6102 -40.6073 -40.6027 -40.5940
   -40.5940 -40.5940 -40.5940 -40.5940 -40.5940 -40.5939 -40.5939 -40.5931
   -40.5931 -40.5931 -40.5931 -40.5819 -40.5819 -40.5819 -40.5817 -40.5809
   -40.5809 -40.5749 -40.5722 -40.5715 -40.5678 -40.5627 -40.5626 -40.5626
   -40.5623 -40.5616 -40.5616 -40.5566 -40.5547 -40.5456 -40.5456 -40.5455
   -40.5455 -40.5446 -40.5446 -40.5439 -40.5382 -40.5188 -40.5149 -40.5149
   -40.5149 -40.5147 -40.5139 -40.5139 -40.5131 -40.4914 -40.4888 -19.9196
   -19.8504 -19.8216 -19.7947 -19.7215 -19.7025 -19.6149 -19.6078 -19.4368
   -19.4167 -19.3795 -19.3657 -19.2870 -19.2769 -19.1869 -19.1831 -18.8860
   -18.8048 -18.7776 -18.7429 -18.7171 -18.6963 -18.6800 -18.6787 -18.6778
   -18.6630 -18.6398 -18.6340 -18.6065 -18.6062 -18.5977 -18.5864 -18.5538
   -18.5457 -18.5189 -18.5146 -18.5118 -18.5094 -18.4858 -18.4824 -18.4573
   -18.4556 -18.4369 -18.4331 -18.4224 -18.4155 -18.3671 -18.3655 -18.3633
   -18.3609 -18.3231 -18.3103 -18.2913 -18.2863 -18.2719 -18.2440 -18.2179
   -18.2081 -18.2026 -18.1980 -18.1586 -18.1528 -18.1383 -18.1329 -18.0955
   -18.0926 -18.0754 -18.0662 -18.0629 -18.0597 -18.0567 -18.0543 -18.0480
   -18.0414 -18.0308 -18.0268 -18.0248 -18.0245 -18.0152 -18.0143 -18.0040
   -18.0003 -17.9981 -17.9949 -17.9684 -17.9661 -17.9629 -17.9613 -17.9577
   -17.9574 -17.9532 -17.9509 -17.9412 -17.9404 -17.9062 -17.9024 -17.8947
   -17.8940 -17.8865 -17.8833 -17.8498 -17.8493 -17.8401 -17.8370 -17.8111
   -17.8073 -17.8023 -17.7994 -17.7928 -17.7829 -17.7776 -17.7774 -17.7768
   -17.7760 -17.7750 -17.7711 -17.7622 -17.7606 -17.7415 -17.7408 -17.7174
   -17.7171 -17.6979 -17.6970 -17.6842 -17.6833 -17.6775 -17.6774 -11.9854
   -11.6898 -11.6651 -11.5937 -11.5841 -11.5388 -11.4829 -11.4779 -11.4690
   -11.4515 -11.4482 -11.4463 -11.4385 -11.4264 -11.4114 -11.3943 -11.3476
   -11.3444 -11.3339 -11.3305 -11.3043 -11.2867 -11.2799 -11.2751 -11.2521
   -11.2428 -11.2342 -11.2271 -11.2202 -11.2187 -11.2104 -11.2059 -11.1922
   -11.1651 -11.1617 -11.1568 -11.1501 -11.1435 -11.1293 -11.1262 -11.1251
   -11.1237 -11.1043 -11.1032 -11.0787 -11.0742 -11.0425 -11.0339 -11.0308
   -11.0168 -10.9718 -10.9450 -10.9163 -10.9025 -10.8948 -10.8903 -10.8726
   -10.8648 -10.8501 -10.8422 -10.8185 -10.8124 -10.8095 -10.7943 -10.7919
   -10.7863 -10.7795 -10.7774 -10.7692 -10.7687 -10.7682 -10.7664 -10.7560
   -10.7555 -10.7539 -10.7514 -10.7499 -10.7495 -10.7401 -10.7396 -10.7392
   -10.7364 -10.7012 -10.7011 -10.7010 -10.7006 -10.5300 -10.5074 -10.5047
   -10.5023 -10.4800 -10.4556 -10.4309 -10.3967 -10.3743 -10.3481 -10.2975
   -10.2853 -10.2108 -10.1874 -10.1139 -10.1108 -10.1030 -10.0958 -10.0728
   -10.0654 -10.0594 -10.0530 -10.0203 -10.0096  -9.9920  -9.9887  -9.9868
    -9.9819  -9.9793  -9.9728  -9.9487  -9.9425  -9.9011  -9.8961  -9.8853
    -9.8749  -9.8686  -9.8629  -9.8500  -9.8460  -9.8149  -9.8143  -9.7922
    -9.7875  -9.7715  -9.7604  -9.7512  -9.7361  -9.7341  -9.7205  -9.7006
    -9.6934  -9.6568  -9.6507  -9.6417  -9.6357  -9.6148  -9.6018  -9.5896
    -9.5826  -9.5690  -9.5677  -9.5339  -9.5291  -9.5192  -9.5084  -9.4985
    -9.4942  -9.4877  -9.4781  -9.4484  -9.4474  -9.4383  -9.4341  -9.4292
    -9.4267  -9.4172  -9.4147  -9.4102  -9.4078  -9.3863  -9.3834  -9.3335
    -9.3334  -9.3125  -9.2942  -9.2369  -9.2258  -9.1956  -9.1886  -9.1842
    -9.1802  -9.1549  -9.1453  -9.1340  -9.1308  -9.1163  -9.1075  -9.0844
    -9.0741  -9.0496  -9.0432  -9.0387  -9.0316  -9.0127  -9.0081  -8.9967
    -8.9928  -8.9910  -8.9826  -8.9494  -8.9448  -8.9302  -8.9255  -8.9107
    -8.9092  -8.8936  -8.8921  -8.8761  -8.8679  -8.8487  -8.8471  -8.8454
    -8.8451  -8.8396  -8.8352  -8.8296  -8.8285  -8.8251  -8.8237  -8.8208
    -8.8153  -8.8129  -8.8044  -8.7980  -8.7978  -8.7918  -8.7911  -8.7852
    -8.7696  -8.7516  -8.7499  -8.7449  -8.7437  -8.7418  -8.7414  -8.7210
    -8.7196  -8.6913  -8.6912  -8.6851  -8.6835  -8.6722  -8.6647  -8.6179
    -8.6132  -8.6071  -8.5970  -8.5598  -8.5441  -8.4617  -8.4613  -8.4120
    -8.4054  -8.3725  -8.3580  -8.3084  -8.3063  -8.2666  -8.2612  -8.2253
    -8.2056  -8.1140  -8.1058  -8.0859  -8.0857  -8.0773  -8.0767  -8.0660
    -8.0654  -8.0529  -8.0205  -8.0130  -7.9928  -7.9444  -7.9354  -7.9198
    -7.9113  -7.8458  -7.8398  -7.8057  -7.7992  -7.7922  -7.7877  -7.7851
    -7.7830  -7.7697  -7.7650  -7.7619  -7.7591  -7.7551  -7.7525  -7.7481
    -7.7453  -7.7429  -7.7413  -7.7382  -7.7379  -7.7323  -7.7301  -7.7264
    -7.7261  -7.7227  -7.7214  -7.7171  -7.7162  -7.7157  -7.7152  -7.6978
    -7.6941  -7.6862  -7.6854  -7.6802  -7.6784  -7.6541  -7.6539  -7.6537
    -7.6536  -7.6254  -7.6249  -7.6238  -7.6237  -7.6104  -7.6097  -7.6014
    -7.5964  -7.5812  -7.5721  -7.5687  -7.5657  -7.5635  -7.5623  -7.5562
    -7.5520  -7.5424  -7.5416  -7.5252  -7.5218  -7.5215  -7.5184  -7.5169
    -7.5135  -7.4522  -7.4479  -7.4242  -7.4209  -7.4135  -7.4122  -7.3754
    -7.3705  -7.2823  -7.2694  -7.1576  -7.1527  -7.1292  -7.1277  -7.1231
    -7.1225  -7.0865  -7.0801  -7.0772  -7.0755  -7.0615  -7.0596  -7.0286
    -7.0225  -6.9978  -6.9954  -6.9808  -6.9793  -6.9694  -6.9603  -6.9320
    -6.9300  -6.8744  -6.8712  -6.8703  -6.8675  -6.8502  -6.8443  -6.8325
    -6.8286  -6.8171  -6.8171  -6.7792  -6.7713  -6.7574  -6.7441  -6.7146
    -6.7133  -6.6824  -6.6681  -6.6420  -6.6294  -6.6225  -6.5992  -6.5827
    -6.5772  -6.5654  -6.5636  -6.5626  -6.5622  -6.5617  -6.5467  -6.5457
    -6.5454  -6.5445  -6.5427  -6.5369  -6.5368  -6.5366  -6.5365  -6.4941
    -6.4776  -6.4427  -6.4364  -6.3758  -6.3728  -6.3269  -6.2899  -6.2841
    -6.2790  -6.2774  -6.2728  -6.2563  -6.2411  -6.2375  -6.2345  -6.2341
    -6.2303  -6.2299  -6.2232  -6.2084  -6.2069  -6.2019  -6.1934  -6.1885
    -6.1703  -6.1610  -6.1586  -6.1569  -6.1394  -5.9626  -5.9577  -5.9311
    -5.9265  -5.8927  -5.8761  -5.8553  -5.8435  -5.8064  -5.8027  -5.7108
    -5.6873  -5.6769  -5.6570  -5.5800  -5.5625  -5.5331  -5.4496  -5.3877
    -5.3486  -4.3686  -4.0514  -4.0451  -4.0423  -4.0233  -3.9106  -3.8838
    -3.8803  -3.8696  -3.8613  -3.8234  -3.8012  -3.7976  -3.7881  -3.7801
    -3.7724  -3.7636  -3.7623  -3.7548  -3.7532  -3.7093  -3.6676  -3.6411
    -3.6302  -3.6040  -3.5894  -3.5617  -3.5577  -3.5559  -3.5553  -3.5222
    -3.5095  -3.5073  -3.4960  -3.4819  -3.4807  -3.4714  -3.4679  -3.4635
    -3.4530  -3.4372  -3.4361  -3.4325  -3.4295  -3.4263  -3.4216  -3.4151
    -3.4096  -3.4020  -3.3964  -3.3840  -3.3793  -3.3701  -3.3699  -3.3407
    -3.3284  -3.3044  -3.3040  -3.3035  -3.3017  -3.3000  -3.2948  -3.2906
    -3.2859  -3.2593  -3.2539  -3.2454  -3.2430  -3.2362  -3.2351  -3.2320
    -3.2305  -3.2288  -3.2217  -3.2006  -3.1983  -3.1911  -3.1859  -3.1795
    -3.1749  -3.1696  -3.1679  -3.1650  -3.1543  -3.1461  -3.1428  -3.1342
    -3.1288  -3.1255  -3.1192  -3.1181  -3.1181  -3.1063  -3.1014  -3.0607
    -3.0571  -3.0399  -3.0271  -3.0240  -3.0201  -3.0171  -3.0153  -2.9806
    -2.9796  -2.9787  -2.9783  -2.9782  -2.9770  -2.9682  -2.9676  -2.9610
    -2.9595  -2.9587  -2.9553  -2.9466  -2.9437  -2.9335  -2.9307  -2.9298
    -2.9283  -2.9254  -2.9226  -2.9209  -2.9122  -2.9061  -2.9026  -2.9010
    -2.8955  -2.8868  -2.8843  -2.8791  -2.8720  -2.8496  -2.8459  -2.8434
    -2.8393  -2.8330  -2.8251  -2.8179  -2.8138  -2.7495  -2.7477  -2.7467
    -2.7465  -2.6978  -2.6854  -2.6783  -2.6675  -2.5745  -2.5651  -2.5492
    -2.5481  -2.5306  -2.5267  -2.5203  -2.5004  -2.4956  -2.4918  -2.4842
    -2.4821  -2.4794  -2.4770  -2.4204  -2.3596  -2.3551  -2.3524  -2.3474
    -2.3415  -2.3296  -2.3125  -2.2967

          k =-0.5000-0.8660 0.0000 (386352 PWs)   bands (ev):

  -102.2537 -88.6804 -70.5672 -70.5661 -70.5633 -70.5619 -70.5370 -70.5363
   -70.5205 -66.5770 -66.5770 -66.5770 -66.5768 -66.5757 -66.5757 -66.5737
   -66.5721 -66.5663 -66.5663 -66.5663 -66.5662 -66.5651 -66.5651 -66.5596
   -66.5571 -66.5514 -66.5512 -66.5512 -66.5512 -66.5512 -66.5512 -66.5510
   -66.5510 -66.5499 -66.5499 -66.5499 -66.5499 -66.5468 -66.5468 -66.5468
   -66.5466 -66.5455 -66.5455 -66.5443 -66.5428 -66.5406 -66.5406 -66.5405
   -66.5405 -66.5405 -66.5405 -66.5404 -66.5401 -66.5392 -66.5392 -66.5392
   -66.5392 -66.5361 -66.5361 -66.5360 -66.5359 -66.5348 -66.5348 -66.5325
   -66.5318 -66.5296 -66.5249 -66.5235 -66.5210 -66.5136 -66.5135 -66.4964
   -66.4955 -56.5125 -56.4848 -56.4836 -54.5017 -54.4742 -54.4714 -40.8793
   -40.8792 -40.8791 -40.8791 -40.8790 -40.8790 -40.8790 -40.8790 -40.8787
   -40.8784 -40.8784 -40.8784 -40.8784 -40.8623 -40.8523 -40.8522 -40.8522
   -40.8521 -40.8516 -40.8516 -40.8499 -40.8423 -40.8402 -40.8402 -40.8401
   -40.8401 -40.8395 -40.8395 -40.8380 -40.8224 -40.8221 -40.8163 -40.7895
   -40.7895 -40.7895 -40.7895 -40.7894 -40.7894 -40.7894 -40.7894 -40.7888
   -40.7888 -40.7888 -40.7888 -40.7719 -40.7708 -40.7661 -40.7652 -40.7564
   -40.7307 -40.7307 -40.7307 -40.7305 -40.7304 -40.7301 -40.7301 -40.7273
   -40.7212 -40.7212 -40.7212 -40.7211 -40.7204 -40.7204 -40.7098 -40.7098
   -40.7097 -40.7097 -40.7092 -40.7092 -40.7046 -40.7024 -40.6972 -40.6928
   -40.6828 -40.6803 -40.6803 -40.6802 -40.6802 -40.6802 -40.6802 -40.6800
   -40.6800 -40.6795 -40.6795 -40.6795 -40.6795 -40.6721 -40.6715 -40.6715
   -40.6715 -40.6713 -40.6708 -40.6708 -40.6696 -40.6669 -40.6668 -40.6652
   -40.6597 -40.6597 -40.6597 -40.6596 -40.6593 -40.6592 -40.6592 -40.6592
   -40.6592 -40.6592 -40.6591 -40.6589 -40.6589 -40.6587 -40.6585 -40.6585
   -40.6585 -40.6585 -40.6538 -40.6505 -40.6505 -40.6504 -40.6504 -40.6498
   -40.6498 -40.6494 -40.6440 -40.6409 -40.6405 -40.6345 -40.6344 -40.6289
   -40.6288 -40.6288 -40.6288 -40.6288 -40.6287 -40.6287 -40.6285 -40.6279
   -40.6279 -40.6279 -40.6279 -40.6208 -40.6081 -40.6020 -40.5955 -40.5940
   -40.5940 -40.5940 -40.5940 -40.5940 -40.5940 -40.5939 -40.5939 -40.5931
   -40.5931 -40.5931 -40.5931 -40.5819 -40.5819 -40.5819 -40.5817 -40.5810
   -40.5809 -40.5769 -40.5746 -40.5711 -40.5696 -40.5628 -40.5626 -40.5626
   -40.5625 -40.5624 -40.5616 -40.5616 -40.5462 -40.5462 -40.5456 -40.5456
   -40.5455 -40.5454 -40.5446 -40.5446 -40.5332 -40.5238 -40.5186 -40.5149
   -40.5149 -40.5149 -40.5147 -40.5139 -40.5139 -40.4992 -40.4784 -19.9354
   -19.8438 -19.8227 -19.7797 -19.7219 -19.6889 -19.6145 -19.6030 -19.4621
   -19.4177 -19.3843 -19.3675 -19.2903 -19.2788 -19.1881 -19.1840 -18.8671
   -18.7891 -18.7770 -18.7503 -18.7343 -18.6866 -18.6802 -18.6781 -18.6778
   -18.6587 -18.6451 -18.6318 -18.6076 -18.6056 -18.6022 -18.5598 -18.5476
   -18.5420 -18.5301 -18.5121 -18.5077 -18.5065 -18.4950 -18.4940 -18.4508
   -18.4470 -18.4347 -18.4275 -18.4252 -18.3925 -18.3903 -18.3699 -18.3692
   -18.3554 -18.3344 -18.3146 -18.3050 -18.2892 -18.2714 -18.2553 -18.2218
   -18.2187 -18.1943 -18.1906 -18.1783 -18.1559 -18.1372 -18.1241 -18.1167
   -18.0912 -18.0796 -18.0646 -18.0599 -18.0592 -18.0577 -18.0542 -18.0358
   -18.0306 -18.0291 -18.0288 -18.0266 -18.0230 -18.0220 -18.0125 -18.0073
   -17.9972 -17.9884 -17.9862 -17.9707 -17.9637 -17.9630 -17.9609 -17.9597
   -17.9536 -17.9461 -17.9456 -17.9453 -17.9341 -17.9138 -17.8982 -17.8929
   -17.8860 -17.8768 -17.8759 -17.8523 -17.8507 -17.8399 -17.8318 -17.8301
   -17.8072 -17.8004 -17.7971 -17.7940 -17.7903 -17.7781 -17.7772 -17.7765
   -17.7764 -17.7748 -17.7738 -17.7636 -17.7616 -17.7441 -17.7402 -17.7194
   -17.7162 -17.7002 -17.6955 -17.6855 -17.6818 -17.6777 -17.6770 -12.0156
   -11.6837 -11.6725 -11.5948 -11.5675 -11.4891 -11.4740 -11.4724 -11.4537
   -11.4527 -11.4427 -11.4347 -11.4276 -11.4057 -11.4002 -11.3868 -11.3861
   -11.3593 -11.3427 -11.3248 -11.2975 -11.2957 -11.2934 -11.2744 -11.2716
   -11.2503 -11.2318 -11.2252 -11.2213 -11.2153 -11.2140 -11.2138 -11.2059
   -11.1669 -11.1641 -11.1620 -11.1505 -11.1406 -11.1279 -11.1273 -11.1251
   -11.1143 -11.1062 -11.1048 -11.1040 -11.0743 -11.0576 -11.0248 -11.0185
   -11.0131 -10.9821 -10.9236 -10.9177 -10.8933 -10.8900 -10.8780 -10.8721
   -10.8641 -10.8551 -10.8525 -10.8432 -10.8164 -10.8050 -10.7933 -10.7881
   -10.7875 -10.7826 -10.7709 -10.7691 -10.7690 -10.7681 -10.7585 -10.7584
   -10.7520 -10.7520 -10.7515 -10.7488 -10.7483 -10.7413 -10.7408 -10.7389
   -10.7264 -10.7014 -10.7012 -10.7009 -10.6991 -10.5782 -10.5097 -10.5018
   -10.4931 -10.4800 -10.4366 -10.4260 -10.3950 -10.3789 -10.3400 -10.3115
   -10.2784 -10.2070 -10.1820 -10.1630 -10.1391 -10.0981 -10.0811 -10.0791
   -10.0706 -10.0486 -10.0255 -10.0189 -10.0134 -10.0084  -9.9977  -9.9892
    -9.9765  -9.9732  -9.9648  -9.9517  -9.9387  -9.9092  -9.8907  -9.8811
    -9.8715  -9.8659  -9.8580  -9.8510  -9.8505  -9.8300  -9.8107  -9.7985
    -9.7907  -9.7646  -9.7642  -9.7550  -9.7450  -9.7269  -9.7162  -9.7056
    -9.6785  -9.6757  -9.6738  -9.6598  -9.6203  -9.6174  -9.6096  -9.5993
    -9.5748  -9.5644  -9.5509  -9.5410  -9.5308  -9.5262  -9.5050  -9.4979
    -9.4956  -9.4776  -9.4772  -9.4477  -9.4468  -9.4384  -9.4342  -9.4335
[...]
     atom  142 type  2   force =     0.00003468    0.00003774    0.00008181
     atom  143 type  2   force =     0.00000340    0.00000865    0.00002573
     atom  144 type  2   force =    -0.00043855   -0.00033999    0.00101835
     atom  145 type  1   force =     0.00000115   -0.00000051    0.00068768
     atom  146 type  1   force =    -0.00002345    0.00000147   -0.00000457
     atom  147 type  2   force =    -0.00000002   -0.00000334    0.00000624
     atom  148 type  2   force =    -0.00000048    0.00000039    0.00161531
     atom  149 type  2   force =    -0.00000067   -0.00000007   -0.00236010
     atom  150 type  2   force =    -0.00000047   -0.00000285   -0.00000604
     atom  151 type  1   force =     0.00001176   -0.00000809    0.00001993
     atom  152 type  1   force =    -0.00016791    0.00009961    0.01101793
     atom  153 type  2   force =     0.00189703   -0.00109591    0.00241937
     atom  154 type  2   force =     0.00000331   -0.00000219   -0.00002845
     atom  155 type  2   force =    -0.00000212    0.00000090   -0.00002203
     atom  156 type  2   force =     0.00020173   -0.00011627   -0.00137211
     atom  157 type  1   force =     0.00000174   -0.00000149    0.00068813
     atom  158 type  1   force =    -0.00001185   -0.00000683   -0.00000334
     atom  159 type  2   force =    -0.00000249   -0.00000009    0.00000377
     atom  160 type  2   force =    -0.00000036    0.00000075    0.00161539
     atom  161 type  2   force =    -0.00000051    0.00000027   -0.00235961
     atom  162 type  2   force =    -0.00000181    0.00000069   -0.00000998
     atom  163 type  1   force =     0.00002212   -0.00003712    0.00001878
     atom  164 type  1   force =     0.00006014    0.00134776   -0.00021241
     atom  165 type  2   force =     0.00005847   -0.00043028   -0.00050739
     atom  166 type  2   force =     0.00001875   -0.00004508    0.00009064
     atom  167 type  2   force =    -0.00000676   -0.00000685    0.00003370
     atom  168 type  2   force =    -0.00070707    0.00087081   -0.00036729
     atom  169 type  1   force =     0.00000106   -0.00000014    0.00068836
     atom  170 type  1   force =    -0.00001402   -0.00001582    0.00000476
     atom  171 type  2   force =    -0.00000421   -0.00000055    0.00000511
     atom  172 type  2   force =    -0.00000034    0.00000032    0.00161542
     atom  173 type  2   force =    -0.00000045   -0.00000016   -0.00235919
     atom  174 type  2   force =    -0.00000434   -0.00000192   -0.00001609
     atom  175 type  1   force =    -0.00002190    0.00003216    0.00002304
     atom  176 type  1   force =     0.00006380    0.00007766   -0.00100670
     atom  177 type  2   force =    -0.00027383    0.00025646   -0.00062169
     atom  178 type  2   force =     0.00001796    0.00001614    0.00000180
     atom  179 type  2   force =    -0.00000035   -0.00000510    0.00001054
     atom  180 type  2   force =     0.00030042   -0.00093340   -0.00035631
     atom  181 type  1   force =     0.00000109    0.00000035    0.00068785
     atom  182 type  1   force =    -0.00000951   -0.00001033   -0.00000224
     atom  183 type  2   force =    -0.00000231   -0.00000202    0.00000535
     atom  184 type  2   force =    -0.00000028   -0.00000006    0.00161555
     atom  185 type  2   force =    -0.00000042   -0.00000048   -0.00235970
     atom  186 type  2   force =    -0.00000279   -0.00000256   -0.00000839
     atom  187 type  1   force =    -0.00000338    0.00002181    0.00002161
     atom  188 type  1   force =     0.00122669   -0.00055856   -0.00028177
     atom  189 type  2   force =     0.00010546    0.00233150    0.00234538
     atom  190 type  2   force =    -0.00003653    0.00003205    0.00008584
     atom  191 type  2   force =     0.00001084    0.00001044    0.00003336
     atom  192 type  2   force =     0.00017696    0.00029601   -0.00172106
     atom  193 type  3   force =    -0.00064350    0.00036976    0.00075576
     atom  194 type  4   force =    -0.00078852    0.00046727   -0.00316520

     Total force =     0.014418     Total SCF correction =     0.001409
     Energy error            =      1.0E-03 Ry
     Gradient error          =      1.1E-02 Ry/Bohr

     number of scf cycles    =   9
     number of bfgs steps    =   8

     energy             old  =  -33980.2804636569 Ry
     energy             new  =  -33980.2814831671 Ry

     CASE: energy            _new < energy            _old

     new trust radius        =       0.0247786955 bohr
     new conv_thr            =       0.0000001020 Ry


ATOMIC_POSITIONS (angstrom)
Mo               0.0000119917        1.8193638619       -9.1672481230    0   0   0
Mo               1.5756136568        0.9097075315       -3.0554901653    0   0   0
S                0.0000188998        1.8193822938       -4.6232556019    0   0   0
S                1.5756321638        0.9096773839       -7.6014065489    0   0   0
S                1.5756326175        0.9096785128      -10.7330757790    0   0   0
S                0.0000189190        1.8193860094       -1.4877129945    0   0   0
Mo              -0.0001378653        1.8194919046        3.0558500510
Mo               1.5923031014        0.9054228386        9.1591123809
S               -0.0175155334        1.8111696034        7.6235042779
S                1.5754619531        0.9097651784        4.6232327006
S                1.5756627299        0.9098878339        1.4880106189
S                0.1209384316        1.8745192905       10.7901934953
Mo              -1.5756053507        4.5484193819       -9.1672481230    0   0   0
Mo               0.0000378379        3.6387394919       -3.0554952701    0   0   0
S               -1.5755913433        4.5484363582       -4.6232494962    0   0   0
S                0.0000148214        3.6387329039       -7.6014065489    0   0   0
S                0.0000152751        3.6387340328      -10.7330757790    0   0   0
S               -1.5755906502        4.5484413613       -1.4877305502    0   0   0
Mo              -1.5753560833        4.5485529331        3.0561544845
Mo              -0.0002598368        3.6415009596        9.1721944075
S               -1.5745705700        4.5503175764        7.5979090066
S                0.0004788560        3.6389740936        4.6240997101
S               -0.0000089402        3.6388578168        1.4881322228
S               -1.5796042528        4.5460036379       10.7333564365
Mo              -3.1512226931        7.2774749019       -9.1672481230    0   0   0
Mo              -1.5755910988        6.3678216792       -3.0555115988    0   0   0
S               -3.1512162438        7.2774954350       -4.6232578178    0   0   0
S               -1.5756025210        6.3677884239       -7.6014065489    0   0   0
S               -1.5756020673        6.3677895528      -10.7330757790    0   0   0
S               -3.1512127704        7.2774877076       -1.4877200710    0   0   0
Mo              -3.1509671288        7.2773880594        3.0556264634
Mo              -1.5901832470        6.3683181209        9.1732257393
S               -3.1476999537        7.2767086050        7.5889178295
S               -1.5749434994        6.3681732987        4.6237615241
S               -1.5755131322        6.3676355735        1.4879634376
S               -3.1676646894        7.2815060688       10.7319720230
Mo              -4.7268400355       10.0065304219       -9.1672481230    0   0   0
Mo              -3.1512405618        9.0968403586       -3.0554816746    0   0   0
S               -4.7268341792       10.0065523623       -4.6232463762    0   0   0
S               -3.1512198634        9.0968439439       -7.6014065489    0   0   0
S               -3.1512194097        9.0968450728      -10.7330757790    0   0   0
S               -4.7268370797       10.0065537885       -1.4877176751    0   0   0
Mo              -4.7267996939       10.0065359769        3.0555820571
Mo              -3.1513277013        9.0969601542        9.1591107228
S               -4.7249958936       10.0055284982        7.5869654284
S               -3.1510205621        9.0967573128        4.6229665173
S               -3.1510728064        9.0967878026        1.4878699093
S               -4.7254277232       10.0057605911       10.7247519489
Mo               3.1512517547        1.8193638619       -9.1672481230    0   0   0
Mo               4.7269020221        0.9097289540       -3.0554823951    0   0   0
S                3.1512612351        1.8193882564       -4.6232320683    0   0   0
S                4.7268719268        0.9096773839       -7.6014065489    0   0   0
S                4.7268723805        0.9096785128      -10.7330757790    0   0   0
S                3.1512592485        1.8193890201       -1.4877261251    0   0   0
Mo               3.1512519596        1.8195795798        3.0558693780
Mo               4.7259176976        0.9101910795        9.1522780634
S                3.1535534436        1.8242826483        7.5841336884
S                4.7271002086        0.9096036474        4.6231697864
S                4.7268309527        0.9097163207        1.4879952790
S                3.1699868398        1.8050725899       10.7319726062
Mo               1.5756344123        4.5484193819       -9.1672481230    0   0   0
Mo               3.1512756394        3.6387769522       -3.0554814834    0   0   0
S                1.5756504879        4.5484423799       -4.6232390542    0   0   0
S                3.1512545844        3.6387329039       -7.6014065489    0   0   0
S                3.1512550381        3.6387340328      -10.7330757790    0   0   0
S                1.5756466253        4.5484431864       -1.4877251801    0   0   0
Mo               1.5756224442        4.5487046545        3.0556426397
Mo               3.1618334735        3.6282730131        9.1695080726
S                1.5792116045        4.5738835787        7.6346274266
S                3.1507491122        3.6391808069        4.6237500387
S                3.1513302595        3.6388685213        1.4881014368
S                1.5851974410        4.4506549271       10.7859915600
Mo               0.0000170699        7.2774749019       -9.1672481230    0   0   0
Mo               1.5756764447        6.3678236689       -3.0554877708    0   0   0
S                0.0000381981        7.2774979204       -4.6232454413    0   0   0
S                1.5756372420        6.3677884239       -7.6014065489    0   0   0
S                1.5756376957        6.3677895528      -10.7330757790    0   0   0
S                0.0000328088        7.2774946042       -1.4877307940    0   0   0
Mo               0.0002407007        7.2773722226        3.0553619523
Mo               1.5765214123        6.3673245836        9.2240505906
S                0.0191256711        7.2664956858        7.6405398715
S                1.5754558848        6.3679178683        4.6235278967
S                1.5757164827        6.3677716245        1.4876056592
S               -0.0957988309        7.3328479551       10.7880078981
Mo              -1.5756002725       10.0065304219       -9.1672481230    0   0   0
Mo               0.0000873425        9.0968676911       -3.0554912329    0   0   0
S               -1.5755883952       10.0065504530       -4.6232240150    0   0   0
S                0.0000198996        9.0968439439       -7.6014065489    0   0   0
S                0.0000203533        9.0968450728      -10.7330757790    0   0   0
S               -1.5755859047       10.0065492576       -1.4877362381    0   0   0
Mo              -1.5753768221       10.0063932658        3.0556297787
Mo              -0.0076827909        9.1092864031        9.1732242042
S               -1.5731300877       10.0039458370        7.5889199839
S                0.0000398900        9.0961204663        4.6237631658
S                0.0002228970        9.0968842032        1.4879627401
S               -1.5872654569       10.0188299938       10.7319750725
Mo               6.3024915177        1.8193638619       -9.1672481230    0   0   0
Mo               7.8781001445        0.9096521684       -3.0554919963    0   0   0
S                6.3025008696        1.8193826232       -4.6232480596    0   0   0
S                7.8781116898        0.9096773839       -7.6014065489    0   0   0
S                7.8781121435        0.9096785128      -10.7330757790    0   0   0
S                6.3025042007        1.8193849068       -1.4877147524    0   0   0
Mo               6.3025823597        1.8193762056        3.0555907365
Mo               7.8619103299        0.9089588940        9.1654908318
S                6.3026040295        1.8224251092        7.5867152440
S                7.8783577568        0.9097016718        4.6233704169
S                7.8781264827        0.9094301758        1.4879904306
S                6.2864905330        1.8198095165       10.7291698775
Mo               4.7268741753        4.5484193819       -9.1672481230    0   0   0
Mo               6.3024679138        3.6387501714       -3.0554895197    0   0   0
S                4.7268748770        4.5484386753       -4.6232519432    0   0   0
S                6.3024943474        3.6387329039       -7.6014065489    0   0   0
S                6.3024948011        3.6387340328      -10.7330757790    0   0   0
S                4.7268770533        4.5484432419       -1.4877137856    0   0   0
Mo               4.7266627989        4.5485641008        3.0559853372
Mo               6.3019256257        3.6391119506        9.1617113351
S                4.7264687357        4.5486993050        7.5960822399
S                6.3024898410        3.6387629632        4.6230803085
S                6.3022853321        3.6388797734        1.4879834349
S                4.7324740901        4.5452399726       10.7354512114
Mo               3.1512568329        7.2774749019       -9.1672481230    0   0   0
Mo               4.7268384135        6.3678043337       -3.0554959052    0   0   0
S                3.1512606125        7.2774972547       -4.6232589675    0   0   0
S                4.7268770050        6.3677884239       -7.6014065489    0   0   0
S                4.7268774587        6.3677895528      -10.7330757790    0   0   0
S                3.1512629079        7.2774963749       -1.4877081835    0   0   0
Mo               3.1510268179        7.2773795449        3.0556485784
Mo               4.7412715023        6.3639301565        9.1694989004
S                3.1310314381        7.2617035327        7.6346143308
S                4.7262624856        6.3680372515        4.6237482720
S                4.7268216368        6.3676939342        1.4881067817
S                3.2407487386        7.3181447120       10.7859754667
Mo               1.5756394905       10.0065304219       -9.1672481230    0   0   0
Mo               3.1512330605        9.0968514907       -3.0554878870    0   0   0
S                1.5756499830       10.0065443759       -4.6232632674    0   0   0
S                3.1512596626        9.0968439439       -7.6014065489    0   0   0
S                3.1512601163        9.0968450728      -10.7330757790    0   0   0
S                1.5756503041       10.0065459699       -1.4877044377    0   0   0
Mo               1.5756675742       10.0062878978        3.0561650588
Mo               3.1487688583        9.0957612696        9.1721779427
S                1.5745498105       10.0047681882        7.5978999126
S                3.1513077754        9.0963610138        4.6241015765
S                3.1511634841        9.0968401900        1.4881379328
S                1.5757869852       10.0112758591       10.7333471995
Mo               9.4537312807        1.8193638619       -9.1672481230    0   0   0
Mo              11.0293863460        0.9096952246       -3.0554894007    0   0   0
S                9.4537395970        1.8193770750       -4.6232328036    0   0   0
S               11.0293514528        0.9096773839       -7.6014065489    0   0   0
S               11.0293519066        0.9096785128      -10.7330757790    0   0   0
S                9.4537393632        1.8193794783       -1.4877366147    0   0   0
Mo               9.4538962802        1.8192962508        3.0555238718
Mo              11.0304051103        0.9091044646        9.1961384565
S                9.4699476687        1.8100507935        7.6272555287
S               11.0291623058        0.9098149771        4.6236599486
S               11.0294556096        0.9096432061        1.4879993485
S                9.3271409038        1.8924980505       10.7917909098
Mo               7.8781139383        4.5484193819       -9.1672481230    0   0   0
Mo               9.4537539161        3.6387607911       -3.0554933032    0   0   0
S                7.8781175448        4.5484378232       -4.6232366318    0   0   0
S                9.4537341104        3.6387329039       -7.6014065489    0   0   0
S                9.4537345641        3.6387340328      -10.7330757790    0   0   0
S                7.8781194018        4.5484411585       -1.4877377057    0   0   0
Mo               7.8781728784        4.5483746379        3.0555880126
Mo               9.4463040091        3.6531975447        9.1654935638
S                7.8755661949        4.5468609314        7.5867114607
S                9.4538625670        3.6385496740        4.6233699959
S                9.4539773859        3.6388825465        1.4879876326
S                7.8697744505        4.5621291857       10.7291683243
Mo               6.3024965959        7.2774749019       -9.1672481230    0   0   0
Mo               7.8781361655        6.3678242352       -3.0555014130    0   0   0
S                6.3024973331        7.2774953556       -4.6232392528    0   0   0
S                7.8781167680        6.3677884239       -7.6014065489    0   0   0
S                7.8781172217        6.3677895528      -10.7330757790    0   0   0
S                6.3024989866        7.2774929744       -1.4877349119    0   0   0
Mo               6.3023388787        7.2774057226        3.0558723789
Mo               7.8772448766        6.3684288870        9.1522685303
S                6.2994392883        7.2730830873        7.5841174554
S                7.8783231357        6.3676678972        4.6231678546
S                7.8780876468        6.3678463150        1.4879951446
S                6.3242949121        7.2684620787       10.7319602690
Mo               4.7268792535       10.0065304219       -9.1672481230    0   0   0
Mo               6.3025111524        9.0968738021       -3.0554915260    0   0   0
S                4.7268840634       10.0065452125       -4.6232380477    0   0   0
S                6.3024994256        9.0968439439       -7.6014065489    0   0   0
S                6.3024998793        9.0968450728      -10.7330757790    0   0   0
S                4.7268847312       10.0065459141       -1.4877283294    0   0   0
Mo               4.7267198471       10.0066361469        3.0558532412
Mo               6.3145724039        9.0845996133        9.1590975998
S                4.7252590276       10.0258667266        7.6234912786
S                6.3023645795        9.0969873566        4.6232350749
S                6.3023555620        9.0967503709        1.4880106457
S                4.7396211060        9.8742633641       10.7901960405
Pd               1.5748363456        6.3683191292       12.1104207100
Pt              11.0232419789        0.9131464999       11.9662863112



     Writing config-only to output data dir ./outdir/pwscf.save/ :
     XML data file
     NEW-OLD atomic charge density approx. for the potential

     negative rho (up, down):  8.987E-04 0.000E+00

     total cpu time spent up to now is    88124.3 secs

     Self-consistent Calculation

     iteration #  1     ecut=    77.00 Ry     beta= 0.20
     Davidson diagonalization with overlap
     ethr =  1.00E-06,  avg # of iterations = 10.5

     Threshold (ethr) on eigenvalues was too large:
     Diagonalizing with lowered threshold

     Davidson diagonalization with overlap
