LAMMPS data file via write_data, version 23 Jun 2022, timestep = 200000

537 atoms
5 atom types

0 29.48979708 xlo xhi
0 27.601942391 ylo yhi
0 36.159325253 zlo zhi
-9.82993236 0 0 xy xz yz

Masses

1 12.011
2 1.008
3 24.305
4 15.999
5 28.085

Pair Coeffs # lj/cut

1 0.00455328 3.43085
2 0.00190804 2.57113
3 0.00481346 2.69141
4 0.00260187 3.11815
5 0.0174325 3.82641

Atoms # full

1 1 5 0 0.01079218443872042 5.401125149856753 5.838171729776614 0 0 0
2 1 5 0 1.3860671254489152 1.2786497133405057 6.488304899160126 0 0 0
3 1 5 0 3.8973327538599785 2.512208948794957 5.000000016785084 0 0 0
4 1 4 0 0.8670752036447572 4.689818402110477 7.1212459003961435 0 0 0
5 1 4 0 -1.137852211181683 6.509011609925343 6.454691551998187 0 0 0
6 1 4 0 2.9471332240157 1.7838849687199554 6.227478610119596 0 0 0
7 1 4 0 -0.952566941264061 4.119327711005977 5.156645178845751 0 0 0
8 1 4 0 0.4420214281599668 1.8610455362273786 5.210083924698077 0 0 0
9 1 4 0 0.8734609439643249 1.79135024526291 7.986817631372736 0 0 0
10 1 5 0 0.10633270803208936 1.0635374531609885 9.29484350822377 0 0 0
11 1 5 0 -0.9361484869098395 3.887327864821145 9.954135907012521 0 0 0
12 1 5 0 1.5327958815348302 5.101011410792859 8.582673194717376 0 0 0
13 1 4 0 1.2519038834293963 0.5382204597988511 10.370770956761286 0 0 0
14 1 4 0 4.047559029369378 2.232880134798104 9.98861986224857 0 0 0
15 1 4 0 0.6152169822272101 4.5012813472688995 9.856871118811098 0 0 0
16 1 4 0 1.5592384683927554 6.749662594904074 8.753122432308652 0 0 0
17 1 4 0 3.040775440221368 4.401920979127473 8.668534850425658 0 0 0
18 1 4 0 3.375438898404097 4.547928933531055 11.378055892594642 0 0 0
19 1 5 0 -2.4471940899688565 12.301709203735262 5.837762442374076 0 0 0
20 1 5 0 -1.0717054265692922 8.179600072596486 6.487941389463356 0 0 0
21 1 5 0 1.4398496638599798 9.412694546544953 5.000000016785084 0 0 0
22 1 4 0 -1.5897678201395544 11.591438136071382 7.12085386099175 0 0 0
23 1 4 0 -3.5950530346739655 13.40932930505978 6.454412257369934 0 0 0
24 1 4 0 0.4896973668406898 8.684531402988268 6.227736317630674 0 0 0
25 1 4 0 -3.4100500312640674 11.01981330875598 5.156645178845751 0 0 0
26 1 4 0 -2.015461661840034 8.761531133977378 5.210083924698077 0 0 0
27 1 4 0 -1.5842928525429354 8.691977496181261 7.98683628958457 0 0 0
28 1 5 0 -2.3507117114064133 7.964318226082918 9.29492334801393 0 0 0
29 1 5 0 -3.3938677410347897 10.78807929687831 9.953433005888924 0 0 0
30 1 5 0 -0.924329251478283 12.000910881296187 8.582623981875706 0 0 0
31 1 4 0 -1.205537055820646 7.439224146007531 10.371214631682138 0 0 0
32 1 4 0 1.5904606042824911 9.133687515992493 9.988018858103539 0 0 0
33 1 4 0 -1.842480184039726 11.401301935095434 9.857112590785137 0 0 0
34 1 4 0 -0.8981499003790222 13.649943082620164 8.753989243653615 0 0 0
35 1 4 0 0.5837949743228058 11.301536204828055 8.668071794106469 0 0 0
36 1 4 0 0.9175048405972165 11.44857561621685 11.377749659269078 0 0 0
73 1 5 0 4.925606462493961 5.401036078388658 5.837623445927803 0 0 0
74 1 5 0 6.300659423971601 1.2792474610049245 6.4883710707253375 0 0 0
75 1 5 0 8.812298914200115 2.512208948794957 5.000000016785084 0 0 0
76 1 4 0 5.782029980923223 4.690050175620734 7.121161685327629 0 0 0
77 1 4 0 3.777360316753194 6.5084644014174415 6.454655103398332 0 0 0
78 1 4 0 7.862144051568479 1.7843868824403935 6.227580290142209 0 0 0
79 1 4 0 3.962399219076075 4.119327711005977 5.156645178845751 0 0 0
80 1 4 0 5.356987588500105 1.8610455362273786 5.210083924698077 0 0 0
81 1 4 0 5.787139992621109 1.7917228714851885 7.986709695786855 0 0 0
82 1 5 0 5.020970224243633 1.0639694787632923 9.295111484983222 0 0 0
83 1 5 0 3.9782281330669353 3.8873528169770664 9.953663376950113 0 0 0
84 1 5 0 6.447973945726855 5.100639309007486 8.582700784282544 0 0 0
85 1 4 0 6.16679203342632 0.5377165311366184 10.370566511936303 0 0 0
86 1 4 0 8.962647719816385 2.232970724373032 9.987991268538373 0 0 0
87 1 4 0 5.52970662676627 4.5011938767134625 9.857058930346462 0 0 0
88 1 4 0 6.474555075651457 6.749631073485867 8.753610908633494 0 0 0
89 1 4 0 7.956328781741095 4.401494418709762 8.669126344668147 0 0 0
90 1 4 0 8.290473425923809 4.547807098557341 11.378660548831528 0 0 0
91 1 5 0 2.468341164475335 12.30197881950853 5.838455182727273 0 0 0
92 1 5 0 3.8429689813783985 8.179406086145361 6.488263243617435 0 0 0
93 1 5 0 6.354815824200115 9.412694546544953 5.000000016785084 0 0 0
94 1 4 0 3.325028498629265 11.590872020232942 7.121365443125431 0 0 0
95 1 4 0 1.3195109143238035 13.409031038470305 6.455948667099934 0 0 0
96 1 4 0 5.404673239153998 8.684071720239686 6.227332273330299 0 0 0
97 1 4 0 1.5049161290760722 11.01981330875598 5.156645178845751 0 0 0
98 1 4 0 2.899504498500105 8.761531133977378 5.210083924698077 0 0 0
99 1 4 0 3.3299424130065027 8.691508870403347 7.987099167879157 0 0 0
100 1 5 0 2.5633884908724034 7.9639001946654036 9.294634073411906 0 0 0
101 1 5 0 1.5214128296918827 10.787912636350155 9.953737105814302 0 0 0
102 1 5 0 3.9904534430042853 12.001190709788144 8.582532028711588 0 0 0
103 1 4 0 3.7087022203412032 7.4384354757075934 10.370348290408401 0 0 0
104 1 4 0 6.505099250936255 9.13363120803002 9.987846161166136 0 0 0
105 1 4 0 3.0720264564523765 11.401461115497206 9.85695800966968 0 0 0
106 1 4 0 4.017867846465129 13.649842197520725 8.754009384397783 0 0 0
107 1 4 0 5.49842946291518 11.301932596322736 8.668332719797494 0 0 0
108 1 4 0 5.832376092940428 11.448785639396501 11.377983863218738 0 0 0
145 1 5 0 9.84093495414089 5.401191698139856 5.838479915705746 0 0 0
146 1 5 0 11.214999525749677 1.2794534543009892 6.487659165929758 0 0 0
147 1 5 0 13.727265104030051 2.512208948794957 5.000000016785084 0 0 0
148 1 4 0 10.696989240650838 4.690727610092836 7.1214039528068245 0 0 0
149 1 4 0 8.69187702309603 6.5090360100424185 6.454382895997829 0 0 0
150 1 4 0 12.777063873607478 1.783875335642061 6.22764852278896 0 0 0
151 1 4 0 8.877365408906018 4.119327711005977 5.156645178845751 0 0 0
152 1 4 0 10.271953778330042 1.8610455362273786 5.210083924698077 0 0 0
153 1 4 0 10.702253759225558 1.7913944359726781 7.986611342422168 0 0 0
154 1 5 0 9.936058275745031 1.0640850480960835 9.294771948919099 0 0 0
155 1 5 0 8.893997320241438 3.8875320363890102 9.954600626660673 0 0 0
156 1 5 0 11.36262291380959 5.100926728033604 8.58283616479629 0 0 0
157 1 4 0 11.081618028760934 0.5380069311725145 10.370143339352866 0 0 0
158 1 4 0 13.877819148804074 2.233548819454469 9.987814702553164 0 0 0
159 1 4 0 10.444587748361549 4.501526562925101 9.85752527716425 0 0 0
160 1 4 0 11.389463121431483 6.7496323707771575 8.753964944587047 0 0 0
161 1 4 0 12.870788051789164 4.402307875553965 8.66902188037749 0 0 0
163 1 5 0 7.382984185448995 12.302023672664918 5.8375401348424205 0 0 0
164 1 5 0 8.758350279421968 8.179943054332634 6.487715719114451 0 0 0
165 1 5 0 11.269782014030064 9.412694546544953 5.000000016785084 0 0 0
166 1 4 0 8.239768246137352 11.59100961591576 7.1206728474095335 0 0 0
167 1 4 0 6.234414969151283 13.40944092731481 6.454061078003079 0 0 0
168 1 4 0 10.319851106747373 8.68479213093609 6.227564958588301 0 0 0
169 1 4 0 6.419882318906003 11.01981330875598 5.156645178845751 0 0 0
170 1 4 0 7.814470688330043 8.761531133977378 5.210083924698077 0 0 0
171 1 4 0 8.245316604008968 8.69230543485881 7.986637630251626 0 0 0
172 1 5 0 7.47884192095962 7.964391868065217 9.294875943138523 0 0 0
173 1 5 0 6.43615617495521 10.787940017477009 9.953617526925692 0 0 0
174 1 5 0 8.905418315623299 12.001216351992626 8.582129937014775 0 0 0
175 1 4 0 8.624300061964723 7.439188153074653 10.371025337614439 0 0 0
176 1 4 0 11.420160751790359 9.13317726648546 9.988400411303608 0 0 0
177 1 4 0 7.987568808107733 11.401008774865298 9.856809611798845 0 0 0
178 1 4 0 8.932166652697347 13.65027684530756 8.753568927656875 0 0 0
179 1 4 0 10.413822714156506 11.30181388036851 8.66763813531871 0 0 0
378 1 4 0 -1.540290634823254 4.548071607971274 11.377908073273007 1 0 0
396 1 4 0 -3.9967230131832165 11.448681938898941 11.377831777096723 1 0 0
434 1 2 0 2.432195559514103 4.351024791484725 11.54339223775447 0 0 0
435 1 2 0 -1.3748979827640515 6.622711297546664 10.887774747350514 0 0 0
436 1 2 0 -0.026135067253975422 11.252023868169022 11.54197898668628 0 0 0
437 1 2 0 -3.8321146914270265 13.523500544264904 10.888211262724967 0 0 0
442 1 2 0 7.346912816136951 4.3514801683302915 11.543562801291687 0 0 0
443 1 2 0 3.5396239629327435 6.623358452687965 10.888379729021324 0 0 0
444 1 2 0 4.889548245631414 11.251435394757248 11.542940390826109 0 0 0
445 1 2 0 1.082684124144615 13.523670102997018 10.888450348183538 0 0 0
450 1 2 0 12.261939597669949 4.351183668265126 11.54300793644568 0 0 0
451 1 2 0 8.455112977375105 6.6230694603511315 10.88775297943671 0 0 0
452 1 2 0 9.802855034749724 11.251272708908797 11.540980880831322 0 0 0
453 1 2 0 5.998601507379361 13.523544900586325 10.888279640009019 0 0 0
509 2 1 0 6.058330228249749 7.0954837544714495 13.405574202528484 0 0 0
510 2 1 0 5.450749535352599 8.505803505143549 13.182402391030799 0 0 0
511 2 1 0 4.857820157771843 9.19448439739155 14.45191195008482 0 0 0
512 2 1 0 5.845782339301232 10.005263246635932 15.3409911933202 0 0 0
513 2 1 0 7.001517148451942 9.190561415085428 15.987071044186164 0 0 0
518 2 2 0 6.367151956521052 6.6399403015096 12.433579971296226 0 0 0
519 2 2 0 5.311407410804398 6.409535460261129 13.876140203658098 0 0 0
520 2 2 0 6.956305604501674 7.112991279875204 14.065956719134668 0 0 0
521 2 2 0 6.216092488168066 9.176601722517836 12.714536422828532 0 0 0
522 2 2 0 4.634221116052903 8.411528033199117 12.42352531775196 0 0 0
523 2 2 0 4.0589182485136615 9.90494594072812 14.123243266666229 0 0 0
524 2 2 0 4.334914373483619 8.425822635157596 15.078440140725094 0 0 0
525 2 2 0 6.284684161475943 10.83784875055072 14.741089300878324 0 0 0
526 2 2 0 5.248152218328826 10.490565977780665 16.155238868557056 0 0 0
527 2 2 0 7.744948710504644 8.89617487525157 15.208254820461216 0 0 0
536 2 4 0 8.605227320305762 11.46988701861829 15.378673445594625 0 0 0
528 2 2 0 6.583376049309343 8.244292589567635 16.40745101710432 0 0 0
517 2 1 0 8.511202445811508 11.183377427154575 16.644349528576434 0 0 0
537 2 3 0 9.577934757046771 13.162868222482189 15.958393285438115 0 0 0
514 2 1 0 7.7529594280323195 9.931840081173975 17.12904973052947 0 0 0
535 2 4 0 9.074054166184608 11.96147558223938 17.52002990231917 0 0 0
529 2 2 0 7.00833103057526 10.318610884975115 17.872359373086464 0 0 0
530 2 2 0 9.526500700148958 8.626541973230234 17.2064926808417 0 0 0
533 2 2 0 7.5886824175076395 7.132292285700327 18.014738819079952 0 0 0
515 2 1 0 8.761679242362861 9.025954952397056 17.919323101384833 0 0 0
531 2 2 0 9.308745829908949 9.679797055482508 18.63964726692153 0 0 0
532 2 2 0 8.871837052248615 7.28664387932681 19.260932243390094 0 0 0
516 2 1 0 8.101170515126116 7.857002947812806 18.689981458059126 0 0 0
534 2 2 0 7.344647498350494 8.23098804644353 19.421990582240344 0 0 0
37 1 5 0 -4.903929033646869 19.202615482689243 5.838429220331741 0 0 0
38 1 5 0 -3.529095908776533 15.079472051565192 6.488584989293534 0 0 0
39 1 5 0 -1.0176334261400146 16.31318014429496 5.000000016785084 0 0 0
40 1 4 0 -4.047222373845914 18.49116145097837 7.121047096425902 0 0 0
41 1 4 0 -6.052699596449113 20.310005052590913 6.455105395475708 0 0 0
42 1 4 0 -1.9677477697904664 15.584450691686234 6.227506199684765 0 0 0
43 1 4 0 -5.867533121264063 17.920298906505973 5.156645178845751 0 0 0
44 1 4 0 -4.472944751840034 15.662016731727377 5.210083924698077 0 0 0
45 1 4 0 -4.042327873585085 15.592166814681633 7.9870066361658365 0 0 0
46 1 5 0 -4.80911246491195 14.8642610316358 9.294862202594928 0 0 0
47 1 5 0 -5.851108100515024 17.688420729683205 9.954092588140869 0 0 0
48 1 5 0 -3.382120106830542 18.901526925825927 8.582262063189248 0 0 0
49 1 4 0 -3.663478368117608 14.339347661477245 10.370636516389993 0 0 0
50 1 4 0 -0.867535087200288 16.03356137189329 9.989634818349096 0 0 0
51 1 4 0 -4.300118645950608 18.302287486827968 9.856574503866048 0 0 0
52 1 4 0 -3.3551512155641197 20.550380901407888 8.753711250761071 0 0 0
53 1 4 0 -1.8741478419538111 18.202309332011946 8.669084978400058 0 0 0
54 1 4 0 -1.5392481016869481 18.34890741594385 11.379159619838665 0 0 0
55 1 5 0 -7.3617032862433724 26.102762929043013 5.837400234413016 0 0 0
56 1 5 0 -5.986884581883799 21.98035539330504 6.488151005071847 0 0 0
57 1 5 0 -3.4751165161400186 23.21366574204495 5.000000016785084 0 0 0
58 1 4 0 -6.505039327668589 25.391773686440047 7.120475887564882 0 0 0
59 1 4 0 -8.510053865185535 27.21018573168332 6.453978924016102 0 0 0
60 1 4 0 -4.425523290448239 22.485164943926993 6.22763977223225 0 0 0
61 1 4 0 -8.325016211264064 24.82078450425598 5.156645178845751 0 0 0
62 1 4 0 -6.930427841840036 22.562502329477372 5.210083924698077 0 0 0
63 1 4 0 -6.499438183060201 22.49254136981739 7.9868493431009835 0 0 0
64 1 5 0 -7.266168316561787 21.76548810036425 9.294889032814266 0 0 0
65 1 5 0 -8.309228592819045 24.58873784517685 9.953840919237104 0 0 0
66 1 5 0 -5.839812544900014 25.802073882693865 8.582585761468914 0 0 0
67 1 4 0 -6.1208825041008925 21.239659173776587 10.370846710547688 0 0 0
68 1 4 0 -3.3247339348761633 22.93317405821516 9.988827633731473 0 0 0
69 1 4 0 -6.75779039201246 25.202003017987202 9.856961661761533 0 0 0
70 1 4 0 -5.812884074315463 27.450641074094385 8.753550703356948 0 0 0
71 1 4 0 -4.331090590401911 25.102219180845598 8.668171268410239 0 0 0
72 1 4 0 -3.9973843415426016 25.24957744987289 11.37882930440248 0 0 0
109 1 5 0 0.010866105530074523 19.201990243490197 5.83813177372221 0 0 0
110 1 5 0 1.3860639700406243 15.080077196550173 6.487886246492345 0 0 0
111 1 5 0 3.8973327342001283 16.31318014429496 5.000000016785084 0 0 0
112 1 4 0 0.8672094018813364 18.491068460034455 7.121635119373167 0 0 0
113 1 4 0 -1.1372089895577013 20.309782139304165 6.454633118528579 0 0 0
114 1 4 0 2.9471324081313135 15.58560646781997 6.2271435216524775 0 0 0
115 1 4 0 -0.9525669609239261 17.920298906505973 5.156645178845751 0 0 0
116 1 4 0 0.44202140850010546 15.662016731727377 5.210083924698077 0 0 0
117 1 4 0 0.8722682094615594 15.592955070952438 7.98672817320206 0 0 0
118 1 5 0 0.10640603932749437 14.8647068582093 9.295250155995568 0 0 0
119 1 5 0 -0.9363178566443949 17.688584795628778 9.954498151132901 0 0 0
120 1 5 0 1.5328426621829383 18.901821466153184 8.582741897435357 0 0 0
121 1 4 0 1.2530482939846772 14.338766640589915 10.370337731885426 0 0 0
122 1 4 0 4.0473172818428464 16.033589581078413 9.98872146995253 0 0 0
123 1 4 0 0.6149972832389708 18.302061620133376 9.85706214852641 0 0 0
124 1 4 0 1.5596525248036255 20.550652311307424 8.753634339876259 0 0 0
125 1 4 0 3.04088696080399 18.202381317877702 8.668763847432485 0 0 0
126 1 4 0 3.3751525033247867 18.348887625351153 11.378367369022374 0 0 0
127 1 5 0 -2.446855035941889 26.102564967912176 5.83809185382713 0 0 0
128 1 5 0 -1.0722377960460374 21.980400522480856 6.4882344246352055 0 0 0
129 1 5 0 1.4398496442001127 23.21366574204495 5.000000016785084 0 0 0
130 1 4 0 -1.5907552171852504 25.390971325576686 7.121457107014947 0 0 0
131 1 4 0 -3.5955348979582467 27.21043036769873 6.455006391243166 0 0 0
132 1 4 0 0.4891121221577715 22.485169305033896 6.228223600697784 0 0 0
133 1 4 0 -3.4100500509239278 24.82078450425598 5.156645178845751 0 0 0
134 1 4 0 -2.015461681499898 22.562502329477372 5.210083924698077 0 0 0
135 1 4 0 -1.5849017480431107 22.4928239032997 7.987040445134945 0 0 0
136 1 5 0 -2.3512656969044246 21.764707545035364 9.294449009985263 0 0 0
137 1 5 0 -3.3943330015633215 24.58821716213559 9.954690518743249 0 0 0
138 1 5 0 -0.9248993285755603 25.802513940461388 8.582715790402522 0 0 0
139 1 4 0 -1.205987709069681 21.23930592411787 10.370874336272182 0 0 0
140 1 4 0 1.5902162419939514 22.933951439320673 9.988772563079113 0 0 0
141 1 4 0 -1.8425478139743547 25.20202824616255 9.856952368814945 0 0 0
142 1 4 0 -0.8977085757357902 27.4510356714628 8.753631953360792 0 0 0
143 1 4 0 0.5836371645887041 25.10299137278593 8.668455263750777 0 0 0
144 1 4 0 0.9173989329059844 25.249577670688446 11.378752176561717 0 0 0
181 1 5 0 4.925735991512669 19.202154916678506 5.8373192013651245 0 0 0
182 1 5 0 6.300963424459772 15.07975359137758 6.48863590162349 0 0 0
183 1 5 0 8.812298924030065 16.31318014429496 5.000000016785084 0 0 0
184 1 4 0 5.782388036209446 18.49139902089652 7.121019796135336 0 0 0
185 1 4 0 3.777392558931336 20.309945183977867 6.454249359609669 0 0 0
186 1 4 0 7.862185356944255 15.584661653331926 6.227506525118692 0 0 0
187 1 4 0 3.962399228906004 17.920298906505973 5.156645178845751 0 0 0
188 1 4 0 5.356987598330043 15.662016731727377 5.210083924698077 0 0 0
189 1 4 0 5.787740247610737 15.592322738054202 7.986953626595012 0 0 0
190 1 5 0 5.021420100928021 14.864573264808126 9.295391538957306 0 0 0
191 1 5 0 3.9785317206979474 17.688115396996476 9.954196763156919 0 0 0
192 1 5 0 6.448010100218081 18.901563912428724 8.582449693927988 0 0 0
193 1 4 0 6.166946245405198 14.339459973780835 10.371562375913097 0 0 0
194 1 4 0 8.962822554993334 16.033556099922293 9.988701039933762 0 0 0
195 1 4 0 5.529741188808439 18.301579331393985 9.85680834622246 0 0 0
196 1 4 0 6.474256511115887 20.550311841348023 8.7536580242343 0 0 0
197 1 4 0 7.956104816562215 18.20220229167935 8.668463182643007 0 0 0
199 1 5 0 2.4680753434444513 26.102517216551842 5.838157302205838 0 0 0
200 1 5 0 3.8431442589023077 21.98038934369419 6.4883360684984925 0 0 0
201 1 5 0 6.354815834030054 23.21366574204495 5.000000016785084 0 0 0
202 1 4 0 3.3241733240037483 25.391536944580174 7.121048795914189 0 0 0
203 1 4 0 1.319360437719236 27.210351177726007 6.454229001909551 0 0 0
204 1 4 0 5.404356921760601 22.48552672258592 6.227823606241835 0 0 0
205 1 4 0 1.5049161389060035 24.82078450425598 5.156645178845751 0 0 0
206 1 4 0 2.8995045083300357 22.562502329477372 5.210083924698077 0 0 0
207 1 4 0 3.3300003211380496 22.493213697930152 7.986855345548977 0 0 0
208 1 5 0 2.5638712388506035 21.765034793664363 9.294797188128124 0 0 0
209 1 5 0 1.5205689103389084 24.58843507947076 9.954454253712045 0 0 0
210 1 5 0 3.990027118837843 25.80287867252815 8.582382148308414 0 0 0
211 1 4 0 3.7092227349195217 21.239723210282936 10.370347277947294 0 0 0
212 1 4 0 6.504699919764072 22.934083845838316 9.988611473285111 0 0 0
213 1 4 0 3.072015171690029 25.20254086943663 9.856953851347278 0 0 0
214 1 4 0 4.016892913773668 27.45123134163241 8.753686083870695 0 0 0
215 1 4 0 5.4984937801626215 25.103013040310707 8.668704076067842 0 0 0
414 1 4 0 -6.455165701180208 18.348894525836744 11.377853617329176 1 0 0
432 1 4 0 -8.912612607199181 25.249256908515918 11.377637818476067 1 0 0
433 1 2 0 -8.74705219751433 27.32441209196739 10.88796190801802 0 -1 0
438 1 2 0 -2.482801024466678 18.15192684411903 11.544267184947616 0 0 0
439 1 2 0 -6.289388934684107 20.423494026984017 10.887663051194806 0 0 0
440 1 2 0 -4.941646592241443 25.052490996997083 11.543107953139332 0 0 0
441 1 2 0 -3.8332006925242252 27.324510216872596 10.88814581434626 0 -1 0
446 1 2 0 2.431519889283405 18.151690626696055 11.542793728602886 0 0 0
447 1 2 0 -1.3751307457323996 20.424209579738566 10.888347619540495 0 0 0
448 1 2 0 -0.026385366821657125 25.052581614173945 11.543499197038567 0 0 0
449 1 2 0 1.0818666964593588 27.324952841620778 10.888185264170108 0 -1 0
454 1 2 0 7.346925437770116 18.152126378560578 11.543211043375626 0 0 0
455 1 2 0 3.5399524301225425 20.424128512833764 10.888012748029332 0 0 0
456 1 2 0 4.888504051236554 25.052202970728224 11.54385963319269 0 0 0
507 2 4 0 9.311821951853126 15.178004276540037 15.900330751838341 0 0 0
162 1 4 0 13.205231132718312 4.54799918047444 11.37750533070834 0 0 0
180 1 4 0 10.746746343121027 11.448618150810072 11.37747249804101 0 0 0
217 1 5 0 14.75568260491459 5.400784183062395 5.837460656645514 0 0 0
218 1 5 0 16.1303477657307 1.279147790390951 6.4882604955087135 0 0 0
219 1 5 0 18.642231293859982 2.512208948794957 5.000000016785084 0 0 0
220 1 4 0 15.612262183349996 4.69015517340959 7.1210668032581665 0 0 0
221 1 4 0 13.606713182580704 6.508441077776122 6.453572312403631 0 0 0
222 1 4 0 17.691896297717843 1.7839505233331339 6.227681825527519 0 0 0
223 1 4 0 13.792331598735943 4.119327711005977 5.156645178845751 0 0 0
224 1 4 0 15.186919968159964 1.8610455362273786 5.210083924698077 0 0 0
225 1 4 0 15.617511465529558 1.7913809110209062 7.98673609209429 0 0 0
226 1 5 0 14.851004835200046 1.064272741304342 9.29504379472635 0 0 0
227 1 5 0 13.808191221435491 3.8876365649448457 9.953754064537845 0 0 0
228 1 5 0 16.277233584475855 5.101105064183391 8.582806658786884 0 0 0
229 1 4 0 15.99629207300115 0.5381855985456115 10.370147280719321 0 0 0
230 1 4 0 18.79243351552489 2.2323790491359388 9.988811036601183 0 0 0
231 1 4 0 15.35929631532421 4.501000911534207 9.85701105539983 0 0 0
232 1 4 0 16.304180338734614 6.74986063884073 8.753413767992216 0 0 0
233 1 4 0 17.78606065044068 4.401585781139077 8.66808549849074 0 0 0
234 1 4 0 18.12000989522794 4.548464770038692 11.378672770683458 0 0 0
235 1 5 0 12.29809181817566 12.30151679059485 5.838084441165454 0 0 0
236 1 5 0 13.67361244851525 8.178841764433178 6.488372480939025 0 0 0
237 1 5 0 16.184748203859982 9.412694546544953 5.000000016785084 0 0 0
238 1 4 0 13.154856612196587 11.59046011644664 7.121378532801171 0 0 0
239 1 4 0 11.149726002838333 13.409516225413654 6.454516396226663 0 0 0
240 1 4 0 15.23477810463699 8.68416951392158 6.22681573736906 0 0 0
241 1 4 0 11.334848508735936 11.01981330875598 5.156645178845751 0 0 0
242 1 4 0 12.729436878159964 8.761531133977378 5.210083924698077 0 0 0
243 1 4 0 13.160911722741227 8.691682155397674 7.987137135170671 0 0 0
244 1 5 0 12.393959619537018 7.963835688926038 9.294979467286723 0 0 0
245 1 5 0 11.35108027301478 10.787585387721164 9.953538338003385 0 0 0
246 1 5 0 13.820410446644734 12.001373959083676 8.58261382110531 0 0 0
247 1 4 0 13.539600449835026 7.4388728560867206 10.37097836665094 0 0 0
248 1 4 0 16.334966369675186 9.133136277601006 9.988719083437063 0 0 0
249 1 4 0 12.902596631613564 11.40090178973659 9.856724709703151 0 0 0
250 1 4 0 13.846592353526399 13.649998617728262 8.753815678892401 0 0 0
251 1 4 0 15.328739105549095 11.302376932391345 8.668473451891378 0 0 0
252 1 4 0 15.662993038919765 11.448952686351854 11.378646265898048 0 0 0
289 1 5 0 19.670460581029634 5.400775019217524 5.838066903892706 0 0 0
290 1 5 0 21.045014231093038 1.2791798086441248 6.488168470025945 0 0 0
291 1 5 0 23.55719745420012 2.512208948794957 5.000000016785084 0 0 0
292 1 4 0 20.527046067254414 4.689845728033442 7.1214730532773824 0 0 0
293 1 4 0 18.521693901050664 6.508836751620296 6.454575444404801 0 0 0
294 1 4 0 22.606703183663956 1.7836746971228203 6.227487577632259 0 0 0
295 1 4 0 18.70729775907607 4.119327711005977 5.156645178845751 0 0 0
296 1 4 0 20.101886128500098 1.8610455362273786 5.210083924698077 0 0 0
297 1 4 0 20.53208478245286 1.791619833434243 7.986917141835832 0 0 0
298 1 5 0 19.766055464148945 1.063332950369813 9.294716769788764 0 0 0
299 1 5 0 18.723073866670312 3.887096256922542 9.954120033068731 0 0 0
300 1 5 0 21.192488734997447 5.101430518686124 8.58285757111684 0 0 0
301 1 4 0 20.911826383771807 0.5381274688549357 10.371165961230348 0 0 0
302 1 4 0 23.707457770765295 2.2323561947276387 9.987848620000252 0 0 0
303 1 4 0 20.274765551942647 4.501166744004092 9.857261784161137 0 0 0
304 1 4 0 21.21985605308227 6.7504764657774174 8.753593696794674 0 0 0
305 1 4 0 22.700709942911196 4.401781285697032 8.668567249181084 0 0 0
306 1 4 0 23.034902783252285 4.547991175911147 11.378218537239631 0 0 0
307 1 5 0 17.212916093272124 12.301897393778479 5.837184833312486 0 0 0
308 1 5 0 18.587697443888704 8.179429216573086 6.4880727562919995 0 0 0
309 1 5 0 21.09971436420012 9.412694546544953 5.000000016785084 0 0 0
310 1 4 0 18.07004919519871 11.591221350415843 7.120612063583783 0 0 0
311 1 4 0 16.06459533834474 13.409425415023179 6.454286712192655 0 0 0
312 1 4 0 20.149172674070247 8.684115331308666 6.227728398738444 0 0 0
313 1 4 0 16.24981466907607 11.01981330875598 5.156645178845751 0 0 0
314 1 4 0 17.64440303850013 8.761531133977378 5.210083924698077 0 0 0
315 1 4 0 18.075003363148983 8.691778541380504 7.986566251743577 0 0 0
316 1 5 0 17.308457540879115 7.964333103529867 9.294602217046359 0 0 0
317 1 5 0 16.2663491952716 10.787849151882657 9.954072338918722 0 0 0
318 1 5 0 18.73573442635269 12.001341692413025 8.582310299729135 0 0 0
319 1 4 0 18.453736128339724 7.43848670491267 10.370757794766892 0 0 0
320 1 4 0 21.25020224369941 9.133585416407595 9.988443151626058 0 0 0
321 1 4 0 17.81784012383536 11.401077724517394 9.856683307275734 0 0 0
322 1 4 0 18.762046697797338 13.650248166889414 8.753733778020704 0 0 0
323 1 4 0 20.24393363487783 11.30173427636665 8.668747720373423 0 0 0
324 1 4 0 20.577786536497992 11.448183420217417 11.378116387145791 0 0 0
361 1 5 0 24.58546182439836 5.4015875375956846 5.837484196366254 0 0 0
362 1 5 0 25.960326808079472 1.279229823363737 6.487865382561674 0 0 0
363 1 5 0 28.472163644030076 2.512208948794957 5.000000016785084 0 0 0
364 1 4 0 25.4422571501892 4.690790763337027 7.12073504144897 0 0 0
365 1 4 0 23.436951194497535 6.50932014443739 6.4546617205548555 0 0 0
366 1 4 0 27.522176735622725 1.783851846389086 6.228128501672368 0 0 0
367 1 4 0 23.622263948906003 4.119327711005977 5.156645178845751 0 0 0
368 1 4 0 25.01685231833003 1.8610455362273786 5.210083924698077 0 0 0
369 1 4 0 25.447080049222745 1.7914042898661118 7.986602519546807 0 0 0
370 1 5 0 24.68124328946382 1.0631470788897524 9.294643438677147 0 0 0
371 1 5 0 23.638130334599023 3.8870011682310053 9.9537940929109 0 0 0
372 1 5 0 26.107915073791084 5.100475298265798 8.582605721416453 0 0 0
373 1 4 0 25.82672200451734 0.5386397057018283 10.370861608189694 0 0 0
374 1 4 0 28.623031715823235 2.2328266146318088 9.988293596656812 0 0 0
375 1 4 0 25.189814794871086 4.500803281626688 9.856933927559062 0 0 0
376 1 4 0 26.134910034038136 6.749334076585738 8.754152973078362 0 0 0
377 1 4 0 27.61594199309174 4.4006743926032685 8.66854960343036 0 0 0
379 1 5 0 22.128011586032322 12.302036783587553 5.838551221895145 0 0 0
380 1 5 0 23.502802491343164 8.179695796132698 6.4883698413082795 0 0 0
381 1 5 0 26.014680554030043 9.412694546544953 5.000000016785084 0 0 0
382 1 4 0 22.98496402363206 11.590446922718174 7.121354306053252 0 0 0
383 1 4 0 20.979741828793998 13.409417051634643 6.4551934072733745 0 0 0
384 1 4 0 25.064119764341605 8.684331178498164 6.227960107694666 0 0 0
385 1 4 0 21.164780858906003 11.01981330875598 5.156645178845751 0 0 0
386 1 4 0 22.559369228330063 8.761531133977378 5.210083924698077 0 0 0
387 1 4 0 22.990215252138224 8.69164881225127 7.987142812184736 0 0 0
388 1 5 0 22.22366875160309 7.964540559728878 9.29503898553609 0 0 0
389 1 5 0 21.181643596713133 10.787970241603926 9.954076135647874 0 0 0
390 1 5 0 23.650362073312156 12.001150907787219 8.582582470970316 0 0 0
391 1 4 0 23.36862943905116 7.439080119072135 10.37101116315894 0 0 0
392 1 4 0 26.165141892711993 9.133435123831273 9.987765851304744 0 0 0
393 1 4 0 22.73261094375966 11.401712596794326 9.856667614128575 0 0 0
394 1 4 0 23.677179485320888 13.64998879143677 8.753685324524865 0 0 0
395 1 4 0 25.158352671012747 11.302803548012935 8.668540418961747 0 0 0
458 1 2 0 17.17599214443668 4.351303957530067 11.542197931400688 0 0 0
459 1 2 0 13.371264273680286 6.623063415525747 10.888570831055285 0 0 0
460 1 2 0 14.720085195621227 11.251367328367312 11.543864442382947 0 0 0
461 1 2 0 10.912206939672698 13.523519092770188 10.887911755033896 0 0 0
466 1 2 0 22.09109801760548 4.350906103132443 11.542267429623825 0 0 0
467 1 2 0 18.284978484005116 6.623454976680506 10.88824445698555 0 0 0
468 1 2 0 19.63399334068161 11.251683757034877 11.542577170403947 0 0 0
469 1 2 0 15.827110139296067 13.523839302903871 10.88801954598248 0 0 0
474 1 2 0 27.005889539367285 4.35078023827514 11.542072783975987 0 0 0
475 1 2 0 23.20032447293164 6.622973792018803 10.888086223778242 0 0 0
476 1 2 0 24.549946976706867 11.251259763597815 11.54359881597964 0 0 0
477 1 2 0 20.742516700265817 13.523632371141767 10.888300720895646 0 0 0
198 1 4 0 8.290139847169165 18.349363565643795 11.378022734493385 0 0 0
216 1 4 0 5.832111638270134 25.24960115994142 11.377962131464265 0 0 0
253 1 5 0 9.84078695467927 19.20213473965862 5.837606921116163 0 0 0
254 1 5 0 11.215308165965899 15.08003077008307 6.488165288005322 0 0 0
255 1 5 0 13.727265113859982 16.31318014429496 5.000000016785084 0 0 0
256 1 4 0 10.696681347509466 18.491172160532013 7.12124441786381 0 0 0
257 1 4 0 8.692361481482461 20.30982961464507 6.454024231650643 0 0 0
258 1 4 0 12.776738571655882 15.58442698161772 6.227713031025211 0 0 0
259 1 4 0 8.877365418735945 17.920298906505973 5.156645178845751 0 0 0
260 1 4 0 10.271953788159966 15.662016731727377 5.210083924698077 0 0 0
261 1 4 0 10.702316071166797 15.592203856488325 7.986948311174201 0 0 0
262 1 5 0 9.935965412374026 14.864941750739046 9.29470176366878 0 0 0
263 1 5 0 8.893510532161024 17.68824482250435 9.954116055542952 0 0 0
264 1 5 0 11.362934876542973 18.901699493169748 8.58252812350446 0 0 0
265 1 4 0 11.081206233234507 14.338690072801722 10.370819627213073 0 0 0
266 1 4 0 13.877940381359856 16.033697201051783 9.988359334310125 0 0 0
267 1 4 0 10.444509757678206 18.30237446054843 9.857029966726934 0 0 0
268 1 4 0 11.38930203832991 20.550607347743266 8.753012471800558 0 0 0
269 1 4 0 12.871192347077207 18.202518306317785 8.668567140703109 0 0 0
270 1 4 0 13.205098399141647 18.34870277514296 11.378196877803804 0 0 0
271 1 5 0 7.383263748725313 26.10264603481698 5.838751544557049 0 0 0
272 1 5 0 8.757717929703173 21.980491222463552 6.487815084940249 0 0 0
273 1 5 0 11.269782023859985 23.21366574204495 5.000000016785084 0 0 0
274 1 4 0 8.239157964616718 25.391563966881762 7.121606517346891 0 0 0
275 1 4 0 6.2343441936382975 27.210462165136367 6.454731363415292 0 0 0
276 1 4 0 10.319448934724724 22.48535310636828 6.2277941002324315 0 0 0
277 1 4 0 6.419882328735942 24.82078450425598 5.156645178845751 0 0 0