
     Program PWSCF v.7.3 starts on 16Apr2024 at  9:26:34 

     This program is part of the open-source Quantum ESPRESSO suite
     for quantum simulation of materials; please cite
         "P. Giannozzi et al., J. Phys.:Condens. Matter 21 395502 (2009);
         "P. Giannozzi et al., J. Phys.:Condens. Matter 29 465901 (2017);
         "P. Giannozzi et al., J. Chem. Phys. 152 154105 (2020);
          URL http://www.quantum-espresso.org", 
     in publications or presentations arising from this work. More details at
     http://www.quantum-espresso.org/quote

     Parallel version (MPI & OpenMP), running on      36 processor cores
     Number of MPI processes:                36
     Threads/MPI process:                     1

     MPI processes distributed on     1 nodes
     560164 MiB available memory on the printing compute node when the environment starts
 
     Waiting for input...
     Reading input from standard input
Warning: card &CELL ignored
Warning: card / ignored

     Current dimensions of program PWSCF are:
     Max number of different atomic species (ntypx) = 10
     Max number of k-points (npk) =  40000
     Max angular momentum in pseudopotentials (lmaxx) =  4
     file Mo.pbe-spn-kjpaw_psl.1.0.0.UPF: wavefunction(s)  4S 4D renormalized
     file S.pbe-n-kjpaw_psl.1.0.0.UPF: wavefunction(s)  3S 3P renormalized
     file Pt.pbe-spfn-kjpaw_psl.1.0.0.UPF: wavefunction(s)  5P 4F renormalized
     file Pd.pbe-spn-kjpaw_psl.1.0.0.UPF: wavefunction(s)  4S 5S 4D renormalized
 
     R & G space division:  proc/nbgrp/npool/nimage =      36
     Subspace diagonalization in iterative solution of the eigenvalue problem:
     one sub-group per band group will be used
     scalapack distributed-memory algorithm (size of sub-group:  6*  6 procs)

 
     Parallelization info
     --------------------
     sticks:   dense  smooth     PW     G-vecs:    dense   smooth      PW
     Min         586     335     89               165416    71459    9765
     Max         587     337     90               165425    71461    9778
     Sum       21109   12085   3205              5955087  2572543  351657
 
     Using Slab Decomposition
 


     bravais-lattice index     =            0
     lattice parameter (alat)  =      23.8395  a.u.
     unit-cell volume          =   28182.8498 (a.u.)^3
     number of atoms/cell      =          147
     number of atomic types    =            4
     number of electrons       =      1330.00
     number of Kohn-Sham states=          798
     kinetic-energy cutoff     =      77.0000  Ry
     charge density cutoff     =     539.0000  Ry
     scf convergence threshold =      1.0E-06
     mixing beta               =       0.2000
     number of iterations used =            8  plain     mixing
     energy convergence thresh.=      1.0E-04
     force convergence thresh. =      1.0E-03
     Exchange-correlation= SLA  PW   PBX  PBC
                           (   1   4   3   4   0   0   0)
     nstep                     =         1000


     Effective Screening Medium Method
     =================================
     Boundary Conditions: Vacuum-Slab-Vacuum
     total charge in unit cell        =   0.0000
     grid points for fit at edges     =        4 
 

     celldm(1)=  23.839504  celldm(2)=   0.000000  celldm(3)=   0.000000
     celldm(4)=   0.000000  celldm(5)=   0.000000  celldm(6)=   0.000000

     crystal axes: (cart. coord. in units of alat)
               a(1) = (   1.000000   0.000000   0.000000 )  
               a(2) = (  -0.500001   0.866026   0.000000 )  
               a(3) = (   0.000000   0.000000   2.401941 )  

     reciprocal axes: (cart. coord. in units 2 pi/alat)
               b(1) = (  1.000000  0.577351  0.000000 )  
               b(2) = (  0.000000  1.154700  0.000000 )  
               b(3) = (  0.000000  0.000000  0.416330 )  


     PseudoPot. # 1 for Mo read from file:
     ./pseudo/Mo.pbe-spn-kjpaw_psl.1.0.0.UPF
     MD5 check sum: 317bf72632116215fd98f72de1686f13
     Pseudo is Projector augmented-wave + core cor, Zval = 14.0
     Generated using 'atomic' code by A. Dal Corso  v.7.2
     Shape of augmentation charge: PSQ
     Using radial grid of 1229 points,  6 beta functions with: 
                l(1) =   0
                l(2) =   0
                l(3) =   1
                l(4) =   1
                l(5) =   2
                l(6) =   2
     Q(r) pseudized with 0 coefficients 


     PseudoPot. # 2 for S  read from file:
     ./pseudo/S.pbe-n-kjpaw_psl.1.0.0.UPF
     MD5 check sum: 8b7b5302570d38d5e87fed6a1065abda
     Pseudo is Projector augmented-wave + core cor, Zval =  6.0
     Generated using 'atomic' code by A. Dal Corso  v.7.2
     Shape of augmentation charge: PSQ
     Using radial grid of 1151 points,  6 beta functions with: 
                l(1) =   0
                l(2) =   0
                l(3) =   1
                l(4) =   1
                l(5) =   2
                l(6) =   2
     Q(r) pseudized with 0 coefficients 


     PseudoPot. # 3 for Pt read from file:
     ./pseudo/Pt.pbe-spfn-kjpaw_psl.1.0.0.UPF
     MD5 check sum: 620096ebf4e6ebacc94de60fd67efcb5
     Pseudo is Projector augmented-wave + core cor, Zval = 32.0
     Generated using 'atomic' code by A. Dal Corso  v.7.2
     Shape of augmentation charge: PSQ
     Using radial grid of 1277 points,  8 beta functions with: 
                l(1) =   0
                l(2) =   0
                l(3) =   1
                l(4) =   1
                l(5) =   2
                l(6) =   2
                l(7) =   3
                l(8) =   3
     Q(r) pseudized with 0 coefficients 


     PseudoPot. # 4 for Pd read from file:
     ./pseudo/Pd.pbe-spn-kjpaw_psl.1.0.0.UPF
     MD5 check sum: a60571a671f2502b8a6a4569d20a6edb
     Pseudo is Projector augmented-wave + core cor, Zval = 18.0
     Generated using 'atomic' code by A. Dal Corso  v.7.2
     Shape of augmentation charge: PSQ
     Using radial grid of 1235 points,  6 beta functions with: 
                l(1) =   0
                l(2) =   0
                l(3) =   1
                l(4) =   1
                l(5) =   2
                l(6) =   2
     Q(r) pseudized with 0 coefficients 


     atomic species   valence    mass     pseudopotential
     Mo               14.00    95.95000     Mo( 1.00)
     S                 6.00    32.06000     S ( 1.00)
     Pt               32.00   195.08400     Pt( 1.00)
     Pd               18.00   106.42000     Pd( 1.00)

     No symmetry found



   Cartesian axes

     site n.     atom                  positions (alat units)
         1        Mo     tau(   1) = (   0.1246074   0.2157200   0.4826345  )
         2        Mo     tau(   2) = (   0.1250004   0.0721694  -0.4825273  )
         3        Mo     tau(   3) = (   0.0000068   0.1443549  -0.0000406  )
         4        S      tau(   4) = (   0.0000004   0.0000006  -0.6064556  )
         5        S      tau(   5) = (   0.1249873   0.0722031  -0.1241756  )
         6        S      tau(   6) = (   0.0000973   0.1450650   0.3573519  )
         7        S      tau(   7) = (   0.0000004   0.0000005  -0.3584711  )
         8        S      tau(   8) = (   0.1249847   0.0720950   0.1240801  )
         9        S      tau(   9) = (  -0.0005301   0.1434694   0.6062599  )
        10        Mo     tau(  10) = (  -0.0009156   0.4330317   0.4832560  )
        11        Mo     tau(  11) = (   0.0000001   0.2886759  -0.4825273  )
        12        Mo     tau(  12) = (  -0.1249829   0.3608507   0.0000027  )
        13        S      tau(  13) = (  -0.1249999   0.2165071  -0.6064556  )
        14        S      tau(  14) = (   0.0000128   0.2886930  -0.1241006  )
        15        S      tau(  15) = (  -0.1248837   0.3612581   0.3580377  )
        16        S      tau(  16) = (  -0.1249998   0.2165070  -0.3584711  )
        17        S      tau(  17) = (   0.0000764   0.2887257   0.1242499  )
        18        S      tau(  18) = (  -0.1253220   0.3603286   0.6073134  )
        19        Mo     tau(  19) = (  -0.1249684   0.6493789   0.4818062  )
        20        Mo     tau(  20) = (  -0.1250002   0.5051824  -0.4825273  )
        21        Mo     tau(  21) = (  -0.2500040   0.5773207  -0.0001409  )
        22        S      tau(  22) = (  -0.2500002   0.4330136  -0.6064556  )
        23        S      tau(  23) = (  -0.1249903   0.5051158  -0.1241917  )
        24        S      tau(  24) = (  -0.2499555   0.5769406   0.3578597  )
        25        S      tau(  25) = (  -0.2500001   0.4330135  -0.3584711  )
        26        S      tau(  26) = (  -0.1249930   0.5052458   0.1241101  )
        27        S      tau(  27) = (  -0.2497899   0.5778453   0.6063597  )
        28        Mo     tau(  28) = (   0.2497834  -0.0005160   0.4806710  )
        29        Mo     tau(  29) = (  -0.2500004   0.7216889  -0.4825273  )
        30        Mo     tau(  30) = (  -0.3750188   0.7938286  -0.0001549  )
        31        S      tau(  31) = (  -0.3750004   0.6495201  -0.6064556  )
        32        S      tau(  32) = (  -0.2500074   0.7216649  -0.1242513  )
        33        S      tau(  33) = (  -0.3752234   0.7935039   0.3566636  )
        34        S      tau(  34) = (  -0.3750004   0.6495200  -0.3584711  )
        35        S      tau(  35) = (  -0.2499996   0.7216607   0.1240200  )
        36        S      tau(  36) = (  -0.3746819   0.7948899   0.6057341  )
        37        Mo     tau(  37) = (   0.3750034   0.2123618   0.4807886  )
        38        Mo     tau(  38) = (   0.3750004   0.0721694  -0.4825273  )
        39        Mo     tau(  39) = (   0.2499981   0.1443415  -0.0000413  )
        40        S      tau(  40) = (   0.2500004   0.0000006  -0.6064556  )
        41        S      tau(  41) = (   0.3750280   0.0722231  -0.1241519  )
        42        S      tau(  42) = (   0.2489233   0.1437373   0.3564531  )
        43        S      tau(  43) = (   0.2500004   0.0000005  -0.3584711  )
        44        S      tau(  44) = (   0.3749877   0.0720947   0.1241383  )
        45        S      tau(  45) = (   0.2497122   0.1423104   0.6055821  )
        46        Mo     tau(  46) = (   0.2490774   0.4329018   0.4862977  )
        47        Mo     tau(  47) = (   0.2500001   0.2886759  -0.4825273  )
        48        Mo     tau(  48) = (   0.1250319   0.3608540  -0.0000126  )
        49        S      tau(  49) = (   0.1250001   0.2165071  -0.6064556  )
        50        S      tau(  50) = (   0.2500259   0.2886851  -0.1240979  )
        51        S      tau(  51) = (   0.1263042   0.3620125   0.3614359  )
        52        S      tau(  52) = (   0.1250002   0.2165070  -0.3584711  )
        53        S      tau(  53) = (   0.2500168   0.2886898   0.1242904  )
        54        S      tau(  54) = (   0.1173694   0.3566575   0.6132890  )
        55        Mo     tau(  55) = (   0.1240062   0.6506471   0.4823696  )
        56        Mo     tau(  56) = (   0.1249998   0.5051824  -0.4825273  )
        57        Mo     tau(  57) = (   0.0000191   0.5773226  -0.0001255  )
        58        S      tau(  58) = (  -0.0000002   0.4330136  -0.6064556  )
        59        S      tau(  59) = (   0.1250359   0.5051398  -0.1241676  )
        60        S      tau(  60) = (   0.0000697   0.5768181   0.3580317  )
        61        S      tau(  61) = (  -0.0000001   0.4330135  -0.3584711  )
        62        S      tau(  62) = (   0.1250059   0.5052001   0.1242069  )
        63        S      tau(  63) = (  -0.0003304   0.5778980   0.6066479  )
        64        Mo     tau(  64) = (   0.5003257  -0.0004925   0.4803774  )
        65        Mo     tau(  65) = (  -0.0000004   0.7216889  -0.4825273  )
        66        Mo     tau(  66) = (  -0.1249927   0.7938427  -0.0001655  )
        67        S      tau(  67) = (  -0.1250004   0.6495201  -0.6064556  )
        68        S      tau(  68) = (   0.0000418   0.7216760  -0.1242215  )
        69        S      tau(  69) = (  -0.1250504   0.7929751   0.3566577  )
        70        S      tau(  70) = (  -0.1250004   0.6495200  -0.3584711  )
        71        S      tau(  71) = (  -0.0000163   0.7216479   0.1240623  )
        72        S      tau(  72) = (  -0.1248984   0.7939509   0.6051552  )
        73        Mo     tau(  73) = (   0.6254010   0.2160480   0.4824065  )
        74        Mo     tau(  74) = (   0.6250004   0.0721694  -0.4825273  )
        75        Mo     tau(  75) = (   0.5000167   0.1443371   0.0000092  )
        76        S      tau(  76) = (   0.5000004   0.0000006  -0.6064556  )
        77        S      tau(  77) = (   0.6250207   0.0721868  -0.1241145  )
        78        S      tau(  78) = (   0.5010641   0.1438734   0.3562763  )
        79        S      tau(  79) = (   0.5000004   0.0000005  -0.3584711  )
        80        S      tau(  80) = (   0.6250414   0.0720927   0.1241409  )
        81        S      tau(  81) = (   0.5005473   0.1420509   0.6053992  )
        82        Mo     tau(  82) = (   0.5016373   0.4329758   0.4857863  )
        83        Mo     tau(  83) = (   0.5000001   0.2886759  -0.4825273  )
        84        Mo     tau(  84) = (   0.3750027   0.3608467   0.0000234  )
        85        S      tau(  85) = (   0.3750001   0.2165071  -0.6064556  )
        86        S      tau(  86) = (   0.5000046   0.2886693  -0.1240592  )
        87        S      tau(  87) = (   0.3745963   0.3620572   0.3631324  )
        88        S      tau(  88) = (   0.3750002   0.2165070  -0.3584711  )
        89        S      tau(  89) = (   0.4999634   0.2887051   0.1243131  )
        90        S      tau(  90) = (   0.3781068   0.3490112   0.6089630  )
        91        Mo     tau(  91) = (   0.3753335   0.6518408   0.4830502  )
        92        Mo     tau(  92) = (   0.3749998   0.5051824  -0.4825273  )
        93        Mo     tau(  93) = (   0.2500203   0.5772987  -0.0000555  )
        94        S      tau(  94) = (   0.2499998   0.4330136  -0.6064556  )
        95        S      tau(  95) = (   0.3750008   0.5051221  -0.1241383  )
        96        S      tau(  96) = (   0.2501878   0.5758780   0.3616377  )
        97        S      tau(  97) = (   0.2499999   0.4330135  -0.3584711  )
        98        S      tau(  98) = (   0.3750015   0.5051839   0.1242620  )
        99        S      tau(  99) = (   0.2495016   0.5878580   0.6113208  )
       100        Mo     tau( 100) = (   0.7500199   0.0003818   0.4811571  )
       101        Mo     tau( 101) = (   0.2499996   0.7216889  -0.4825273  )
       102        Mo     tau( 102) = (   0.1250316   0.7938162  -0.0000875  )
       103        S      tau( 103) = (   0.1249996   0.6495201  -0.6064556  )
       104        S      tau( 104) = (   0.2500359   0.7216507  -0.1241461  )
       105        S      tau( 105) = (   0.1254554   0.7934228   0.3566219  )
       106        S      tau( 106) = (   0.1249996   0.6495200  -0.3584711  )
       107        S      tau( 107) = (   0.2500086   0.7215741   0.1241838  )
       108        S      tau( 108) = (   0.1244907   0.7952297   0.6057917  )
       109        Mo     tau( 109) = (  -0.1249741   0.2166510   0.4819241  )
       110        Mo     tau( 110) = (   0.8750004   0.0721694  -0.4825273  )
       111        Mo     tau( 111) = (   0.7500133   0.1443436  -0.0000073  )
       112        S      tau( 112) = (   0.7500004   0.0000006  -0.6064556  )
       113        S      tau( 113) = (   0.8749956   0.0721731  -0.1241058  )
       114        S      tau( 114) = (   0.7500203   0.1449522   0.3574598  )
       115        S      tau( 115) = (   0.7500004   0.0000005  -0.3584711  )
       116        S      tau( 116) = (   0.8750238   0.0721604   0.1241841  )
       117        S      tau( 117) = (   0.7504201   0.1437382   0.6062629  )
       118        Mo     tau( 118) = (  -0.2493495   0.4328575   0.4828262  )
       119        Mo     tau( 119) = (   0.7500001   0.2886759  -0.4825273  )
       120        Mo     tau( 120) = (   0.6249856   0.3608477   0.0000279  )
       121        S      tau( 121) = (   0.6250001   0.2165071  -0.6064556  )
       122        S      tau( 122) = (   0.7499958   0.2886820  -0.1240679  )
       123        S      tau( 123) = (   0.6241512   0.3616755   0.3603414  )
       124        S      tau( 124) = (   0.6250002   0.2165070  -0.3584711  )
       125        S      tau( 125) = (   0.7499862   0.2887159   0.1242658  )
       126        S      tau( 126) = (   0.6305969   0.3581080   0.6112211  )
       127        Mo     tau( 127) = (  -0.3742668   0.6505223   0.4820597  )
       128        Mo     tau( 128) = (   0.6249998   0.5051824  -0.4825273  )
       129        Mo     tau( 129) = (   0.4999851   0.5773046  -0.0000631  )
       130        S      tau( 130) = (   0.4999998   0.4330136  -0.6064556  )
       131        S      tau( 131) = (   0.6249723   0.5051139  -0.1241565  )
       132        S      tau( 132) = (   0.4998783   0.5762956   0.3606843  )
       133        S      tau( 133) = (   0.4999999   0.4330135  -0.3584711  )
       134        S      tau( 134) = (   0.6250095   0.5052263   0.1241915  )
       135        S      tau( 135) = (   0.5006407   0.5846211   0.6091832  )
       136        Mo     tau( 136) = (   0.0000410   0.0004185   0.4809769  )
       137        Mo     tau( 137) = (   0.4999996   0.7216889  -0.4825273  )
       138        Mo     tau( 138) = (   0.3750036   0.7938273  -0.0000272  )
       139        S      tau( 139) = (   0.3749996   0.6495201  -0.6064556  )
       140        S      tau( 140) = (   0.4999499   0.7216482  -0.1241729  )
       141        S      tau( 141) = (   0.3750006   0.7941054   0.3569117  )
       142        S      tau( 142) = (   0.3749996   0.6495200  -0.3584711  )
       143        S      tau( 143) = (   0.5000314   0.7216102   0.1241515  )
       144        S      tau( 144) = (   0.3752329   0.7966920   0.6062052  )
       145        Pt     tau( 145) = (   0.2580795   0.4348292   0.7095693  )
       146        Pd     tau( 146) = (   0.4899479   0.4358638   0.7204770  )
       147        Pt     tau( 147) = (   0.2580988   0.4348680   0.8997788  )

     --------------------------------------------
     DFT-D3 Dispersion Correction (3-body terms):
     --------------------------------------------
       Reference C6 values for interpolation: 

         atom   Coordination number   C6
         S          0.000           268.01
         S          0.995           261.99
         S          1.990           251.62
         Mo         0.000          1691.79
         Mo         1.942          1004.01
         Mo        11.056           674.22
         Pd         0.000          1217.01
         Pd         1.863           573.90
         Pd         5.710           531.75
         Pt         0.000           782.29
         Pt         1.919           692.72
         Pt         6.667           673.75

       Values used:

         atom   Coordination number  R0_AB[au]  C6      C8
         Mo        10.200            3.547    674.22  77634.20
         Mo        10.189            3.547    674.22  77634.20
         Mo        10.200            3.547    674.22  77634.20
         S          3.753            3.128    251.62  12327.25
         S          3.858            3.128    251.62  12327.25
         S          3.854            3.128    251.62  12327.25
         S          3.858            3.128    251.62  12327.25
         S          3.864            3.128    251.62  12327.25
         S          3.814            3.128    251.62  12327.25
         Mo        10.207            3.547    674.22  77634.20
         Mo        10.189            3.547    674.22  77634.20
         Mo        10.201            3.547    674.22  77634.20
         S          3.753            3.128    251.62  12327.25
         S          3.859            3.128    251.62  12327.25
         S          3.853            3.128    251.62  12327.25
         S          3.858            3.128    251.62  12327.25
         S          3.855            3.128    251.62  12327.25
         S          3.817            3.128    251.62  12327.25
         Mo        10.231            3.547    674.22  77634.20
         Mo        10.189            3.547    674.22  77634.20
         Mo        10.201            3.547    674.22  77634.20
         S          3.753            3.128    251.62  12327.25
         S          3.858            3.128    251.62  12327.25
         S          3.865            3.128    251.62  12327.25
         S          3.859            3.128    251.62  12327.25
         S          3.860            3.128    251.62  12327.25
         S          3.761            3.128    251.62  12327.25
         Mo        10.258            3.547    674.22  77634.20
         Mo        10.189            3.547    674.22  77634.20
         Mo        10.200            3.547    674.22  77634.20
         S          3.753            3.128    251.62  12327.25
         S          3.857            3.128    251.62  12327.25
         S          3.856            3.128    251.62  12327.25
         S          3.859            3.128    251.62  12327.25
         S          3.864            3.128    251.62  12327.25
         S          3.803            3.128    251.62  12327.25
         Mo        10.158            3.547    674.22  77634.20
         Mo        10.189            3.547    674.22  77634.20
         Mo        10.200            3.547    674.22  77634.20
         S          3.753            3.128    251.62  12327.25
         S          3.858            3.128    251.62  12327.25
         S          3.842            3.128    251.62  12327.25
         S          3.859            3.128    251.62  12327.25
         S          3.863            3.128    251.62  12327.25
         S          3.812            3.128    251.62  12327.25
         Mo        10.849            3.547    674.22  77634.20
         Mo        10.189            3.547    674.22  77634.20
         Mo        10.202            3.547    674.22  77634.20
         S          3.753            3.128    251.62  12327.25
         S          3.859            3.128    251.62  12327.25
         S          3.851            3.128    251.62  12327.25
         S          3.858            3.128    251.62  12327.25
         S          3.851            3.128    251.62  12327.25
         S          4.641            3.128    251.62  12327.25
         Mo        10.195            3.547    674.22  77634.20
         Mo        10.189            3.547    674.22  77634.20
         Mo        10.201            3.547    674.22  77634.20
         S          3.753            3.128    251.62  12327.25
         S          3.859            3.128    251.62  12327.25
         S          3.864            3.128    251.62  12327.25
         S          3.859            3.128    251.62  12327.25
         S          3.853            3.128    251.62  12327.25
         S          3.758            3.128    251.62  12327.25
         Mo        10.259            3.547    674.22  77634.20
         Mo        10.189            3.547    674.22  77634.20
         Mo        10.200            3.547    674.22  77634.20
         S          3.753            3.128    251.62  12327.25
         S          3.858            3.128    251.62  12327.25
         S          3.858            3.128    251.62  12327.25
         S          3.859            3.128    251.62  12327.25
         S          3.863            3.128    251.62  12327.25
         S          3.783            3.128    251.62  12327.25
         Mo        10.209            3.547    674.22  77634.20
         Mo        10.189            3.547    674.22  77634.20
         Mo        10.200            3.547    674.22  77634.20
         S          3.753            3.128    251.62  12327.25
         S          3.859            3.128    251.62  12327.25
         S          3.839            3.128    251.62  12327.25
         S          3.859            3.128    251.62  12327.25
         S          3.863            3.128    251.62  12327.25
         S          3.835            3.128    251.62  12327.25
         Mo        10.708            3.547    674.21  77634.20
         Mo        10.189            3.547    674.22  77634.20
         Mo        10.202            3.547    674.22  77634.20
         S          3.753            3.128    251.62  12327.25
         S          3.859            3.128    251.62  12327.25
         S          3.873            3.128    251.62  12327.25
         S          3.858            3.128    251.62  12327.25
         S          3.851            3.128    251.62  12327.25
         S          5.643            3.128    251.62  12327.25
         Mo        10.151            3.547    674.22  77634.20
         Mo        10.189            3.547    674.22  77634.20
         Mo        10.203            3.547    674.22  77634.20
         S          3.753            3.128    251.62  12327.25
         S          3.859            3.128    251.62  12327.25
         S          3.861            3.128    251.62  12327.25
         S          3.859            3.128    251.62  12327.25
         S          3.849            3.128    251.62  12327.25
         S          4.673            3.128    251.62  12327.25
         Mo        10.241            3.547    674.22  77634.20
         Mo        10.189            3.547    674.22  77634.20
         Mo        10.200            3.547    674.22  77634.20
         S          3.753            3.128    251.62  12327.25
         S          3.858            3.128    251.62  12327.25
         S          3.852            3.128    251.62  12327.25
         S          3.859            3.128    251.62  12327.25
         S          3.858            3.128    251.62  12327.25
         S          3.820            3.128    251.62  12327.25
         Mo        10.231            3.547    674.22  77634.20
         Mo        10.189            3.547    674.22  77634.20
         Mo        10.200            3.547    674.22  77634.20
         S          3.753            3.128    251.62  12327.25
         S          3.858            3.128    251.62  12327.25
         S          3.857            3.128    251.62  12327.25
         S          3.858            3.128    251.62  12327.25
         S          3.861            3.128    251.62  12327.25
         S          3.803            3.128    251.62  12327.25
         Mo        10.222            3.547    674.22  77634.20
         Mo        10.189            3.547    674.22  77634.20
         Mo        10.201            3.547    674.22  77634.20
         S          3.753            3.128    251.62  12327.25
         S          3.859            3.128    251.62  12327.25
         S          3.849            3.128    251.62  12327.25
         S          3.858            3.128    251.62  12327.25
         S          3.855            3.128    251.62  12327.25
         S          4.617            3.128    251.62  12327.25
         Mo        10.206            3.547    674.22  77634.20
         Mo        10.189            3.547    674.22  77634.20
         Mo        10.202            3.547    674.22  77634.20
         S          3.753            3.128    251.62  12327.25
         S          3.858            3.128    251.62  12327.25
         S          3.862            3.128    251.62  12327.25
         S          3.858            3.128    251.62  12327.25
         S          3.855            3.128    251.62  12327.25
         S          4.663            3.128    251.62  12327.25
         Mo        10.248            3.547    674.22  77634.20
         Mo        10.189            3.547    674.22  77634.20
         Mo        10.201            3.547    674.22  77634.20
         S          3.753            3.128    251.62  12327.25
         S          3.858            3.128    251.62  12327.25
         S          3.844            3.128    251.62  12327.25
         S          3.859            3.128    251.62  12327.25
         S          3.859            3.128    251.62  12327.25
         S          3.836            3.128    251.62  12327.25
         Pt         5.435            3.168    673.75  70061.90
         Pd         4.152            3.168    531.75  48720.78
         Pt         1.050            3.168    709.57  73786.91

         Molecular C6 ( Ry / a.u.^6 ) =   8081352.14


     number of k points=     4  Gaussian smearing, width (Ry)=  0.0100
                       cart. coord. in units 2pi/alat
        k(    1) = (   0.0000000   0.0000000   0.0000000), wk =   0.5000000
        k(    2) = (   0.0000000  -0.5773499   0.0000000), wk =   0.5000000
        k(    3) = (  -0.5000000  -0.2886755   0.0000000), wk =   0.5000000
        k(    4) = (  -0.5000000  -0.8660254   0.0000000), wk =   0.5000000

     Dense  grid:  5955087 G-vectors     FFT dimensions: ( 180, 180, 432)

     Smooth grid:  2572543 G-vectors     FFT dimensions: ( 135, 135, 320)

     Estimated max dynamical RAM per process >       3.09 GB

     Estimated total dynamical RAM >     111.14 GB

     Atomic positions and unit cell read from directory:
     ./outdir/pwscf.save/
     Atomic positions from file used, from input discarded
 

     The initial density is read from file :
     ./outdir/pwscf.save/charge-density


     negative rho (up, down):  8.633E-04 0.000E+00
     Cannot read wfcs: file not found
     Starting wfcs are  908 randomized atomic wfcs
     Checking if some PAW data can be deallocated... 

     total cpu time spent up to now is      102.6 secs

     Self-consistent Calculation

     iteration #  1     ecut=    77.00 Ry     beta= 0.20
     Davidson diagonalization with overlap
     c_bands:  5 eigenvalues not converged
     c_bands:  7 eigenvalues not converged
     c_bands:  6 eigenvalues not converged
     ethr =  1.00E-05,  avg # of iterations =108.0

     negative rho (up, down):  8.040E-04 0.000E+00

     total cpu time spent up to now is     5660.7 secs

     total energy              =  -27706.46001754 Ry
     estimated scf accuracy    <       0.73923204 Ry

     iteration #  2     ecut=    77.00 Ry     beta= 0.20
     Davidson diagonalization with overlap
     ethr =  5.56E-05,  avg # of iterations = 10.2

     negative rho (up, down):  7.786E-04 0.000E+00

     total cpu time spent up to now is     5912.4 secs

     total energy              =  -27706.44388333 Ry
     estimated scf accuracy    <       0.50810679 Ry

     iteration #  3     ecut=    77.00 Ry     beta= 0.20
     Davidson diagonalization with overlap
     ethr =  3.82E-05,  avg # of iterations =  7.8

     negative rho (up, down):  7.468E-04 0.000E+00

     total cpu time spent up to now is     6151.9 secs

     total energy              =  -27706.44001598 Ry
     estimated scf accuracy    <       0.25346451 Ry

     iteration #  4     ecut=    77.00 Ry     beta= 0.20
     Davidson diagonalization with overlap
     ethr =  1.91E-05,  avg # of iterations = 11.0

     negative rho (up, down):  7.188E-04 0.000E+00

     total cpu time spent up to now is     6408.1 secs

     total energy              =  -27706.44572626 Ry
     estimated scf accuracy    <       0.09399829 Ry

     iteration #  5     ecut=    77.00 Ry     beta= 0.20
     Davidson diagonalization with overlap
     c_bands:  2 eigenvalues not converged
     c_bands:  1 eigenvalues not converged
     ethr =  7.07E-06,  avg # of iterations = 16.0

     negative rho (up, down):  7.157E-04 0.000E+00

     total cpu time spent up to now is     6692.8 secs

     total energy              =  -27706.45474770 Ry
     estimated scf accuracy    <       0.02878880 Ry

     iteration #  6     ecut=    77.00 Ry     beta= 0.20
     Davidson diagonalization with overlap
     c_bands:  2 eigenvalues not converged
     c_bands:  5 eigenvalues not converged
     ethr =  2.16E-06,  avg # of iterations = 15.2

     negative rho (up, down):  7.159E-04 0.000E+00

     total cpu time spent up to now is     6993.4 secs

     total energy              =  -27706.45645589 Ry
     estimated scf accuracy    <       0.01324685 Ry

     iteration #  7     ecut=    77.00 Ry     beta= 0.20
     Davidson diagonalization with overlap
     c_bands:  2 eigenvalues not converged
     c_bands:  2 eigenvalues not converged
     ethr =  9.96E-07,  avg # of iterations = 15.5

     negative rho (up, down):  7.275E-04 0.000E+00

     total cpu time spent up to now is     7344.8 secs

     total energy              =  -27706.45993467 Ry
     estimated scf accuracy    <       0.00539251 Ry

     iteration #  8     ecut=    77.00 Ry     beta= 0.20
     Davidson diagonalization with overlap
     c_bands:  2 eigenvalues not converged
     c_bands:  2 eigenvalues not converged
     ethr =  4.05E-07,  avg # of iterations = 15.0

     negative rho (up, down):  7.518E-04 0.000E+00

     total cpu time spent up to now is     7677.6 secs

     total energy              =  -27706.46165958 Ry
     estimated scf accuracy    <       0.00138293 Ry

     iteration #  9     ecut=    77.00 Ry     beta= 0.20
     Davidson diagonalization with overlap
     c_bands:  2 eigenvalues not converged
     c_bands:  2 eigenvalues not converged
     ethr =  1.04E-07,  avg # of iterations = 17.2

     negative rho (up, down):  7.914E-04 0.000E+00

     total cpu time spent up to now is     8153.0 secs

     total energy              =  -27706.46253949 Ry
     estimated scf accuracy    <       0.00082086 Ry

     iteration # 10     ecut=    77.00 Ry     beta= 0.20
     Davidson diagonalization with overlap
     c_bands:  2 eigenvalues not converged
     c_bands:  2 eigenvalues not converged
     ethr =  6.17E-08,  avg # of iterations = 12.5

     negative rho (up, down):  8.205E-04 0.000E+00

     total cpu time spent up to now is     8418.8 secs

     total energy              =  -27706.46251936 Ry
     estimated scf accuracy    <       0.00022956 Ry

     iteration # 11     ecut=    77.00 Ry     beta= 0.20
     Davidson diagonalization with overlap
     c_bands:  4 eigenvalues not converged
     c_bands:  2 eigenvalues not converged
     c_bands:  1 eigenvalues not converged
     ethr =  1.73E-08,  avg # of iterations = 19.0

     negative rho (up, down):  8.253E-04 0.000E+00

     total cpu time spent up to now is     8975.9 secs

     total energy              =  -27706.46281005 Ry
     estimated scf accuracy    <       0.00010784 Ry

     iteration # 12     ecut=    77.00 Ry     beta= 0.20
     Davidson diagonalization with overlap
     c_bands:  4 eigenvalues not converged
     c_bands:  2 eigenvalues not converged
     ethr =  8.11E-09,  avg # of iterations = 15.0

     negative rho (up, down):  8.308E-04 0.000E+00

     total cpu time spent up to now is     9288.6 secs

     total energy              =  -27706.46281739 Ry
     estimated scf accuracy    <       0.00005385 Ry

     iteration # 13     ecut=    77.00 Ry     beta= 0.20
     Davidson diagonalization with overlap
     c_bands:  1 eigenvalues not converged
     c_bands:  2 eigenvalues not converged
     ethr =  4.05E-09,  avg # of iterations = 18.2

     negative rho (up, down):  8.463E-04 0.000E+00

     total cpu time spent up to now is     9731.4 secs

     total energy              =  -27706.46284147 Ry
     estimated scf accuracy    <       0.00002659 Ry

     iteration # 14     ecut=    77.00 Ry     beta= 0.20
     Davidson diagonalization with overlap
     c_bands:  1 eigenvalues not converged
     c_bands:  2 eigenvalues not converged
     ethr =  2.00E-09,  avg # of iterations = 15.2

     negative rho (up, down):  8.548E-04 0.000E+00

     total cpu time spent up to now is    10037.7 secs

     total energy              =  -27706.46284111 Ry
     estimated scf accuracy    <       0.00000894 Ry

     iteration # 15     ecut=    77.00 Ry     beta= 0.20
     Davidson diagonalization with overlap
     c_bands:  4 eigenvalues not converged
     c_bands:  2 eigenvalues not converged
     ethr =  6.72E-10,  avg # of iterations = 18.0

     negative rho (up, down):  8.578E-04 0.000E+00

     total cpu time spent up to now is    10603.8 secs

     total energy              =  -27706.46285135 Ry
     estimated scf accuracy    <       0.00000326 Ry

     iteration # 16     ecut=    77.00 Ry     beta= 0.20
     Davidson diagonalization with overlap
     c_bands:  2 eigenvalues not converged
     c_bands:  2 eigenvalues not converged
     ethr =  2.45E-10,  avg # of iterations = 18.5

     negative rho (up, down):  8.589E-04 0.000E+00

     total cpu time spent up to now is    11039.3 secs

     total energy              =  -27706.46285241 Ry
     estimated scf accuracy    <       0.00000170 Ry

     iteration # 17     ecut=    77.00 Ry     beta= 0.20
     Davidson diagonalization with overlap
     c_bands:  2 eigenvalues not converged
     ethr =  1.27E-10,  avg # of iterations = 15.0

     negative rho (up, down):  8.635E-04 0.000E+00

     total cpu time spent up to now is    11411.1 secs

     End of self-consistent calculation

          k = 0.0000 0.0000 0.0000 (321495 PWs)   bands (ev):

  -103.4460-101.3910 -89.2685 -71.8733 -71.8616 -71.8019 -71.7401 -71.7253
   -71.7012 -71.6942 -69.8690 -69.8659 -69.7680 -69.7610 -69.7290 -69.6741
   -69.6729 -66.8603 -66.8392 -66.8392 -66.8392 -66.8392 -66.8392 -66.8392
   -66.8181 -66.8180 -66.8180 -66.8180 -66.8180 -66.8180 -66.8180 -66.8180
   -66.8180 -66.7946 -66.7741 -66.7738 -66.7737 -66.7732 -66.7730 -66.7729
   -66.7531 -66.7530 -66.7529 -66.7528 -66.7526 -66.7525 -66.7522 -66.7517
   -66.7517 -66.7509 -66.7250 -66.7156 -66.7106 -66.7095 -66.6993 -66.6979
   -66.6896 -66.6881 -66.6876 -66.6748 -66.6732 -66.6686 -66.6469 -66.6431
   -66.6358 -57.8042 -57.6678 -57.3972 -55.9088 -55.5922 -55.2121 -55.1594
   -55.1120 -54.7844 -41.1867 -41.1867 -41.1867 -41.1200 -41.1198 -41.1195
   -41.1119 -41.1119 -41.1119 -41.1119 -41.1119 -41.1119 -41.0556 -41.0502
   -41.0454 -41.0453 -41.0451 -41.0448 -41.0448 -41.0446 -41.0425 -41.0203
   -40.9863 -40.9863 -40.9863 -40.9863 -40.9863 -40.9863 -40.9836 -40.9789
   -40.9789 -40.9789 -40.9789 -40.9789 -40.9789 -40.9779 -40.9674 -40.9650
   -40.9580 -40.9551 -40.9515 -40.9515 -40.9515 -40.9515 -40.9515 -40.9515
   -40.9498 -40.9372 -40.9372 -40.9372 -40.9372 -40.9372 -40.9372 -40.9371
   -40.9371 -40.9371 -40.9256 -40.9199 -40.9199 -40.9198 -40.9194 -40.9193
   -40.9192 -40.9143 -40.9141 -40.9139 -40.9134 -40.9133 -40.9132 -40.8991
   -40.8897 -40.8851 -40.8851 -40.8849 -40.8846 -40.8845 -40.8845 -40.8749
   -40.8737 -40.8737 -40.8737 -40.8728 -40.8726 -40.8725 -40.8724 -40.8723
   -40.8720 -40.8716 -40.8715 -40.8708 -40.8639 -40.8566 -40.8553 -40.8484
   -40.8436 -40.8407 -40.8392 -40.8354 -40.8318 -40.8275 -40.8269 -40.8269
   -40.8269 -40.8269 -40.8269 -40.8269 -40.8246 -40.8164 -40.8153 -40.8114
   -40.8097 -40.8072 -40.8071 -40.8069 -40.8061 -40.8045 -40.8017 -40.7966
   -40.7924 -40.7878 -40.7868 -40.7830 -40.7796 -40.7796 -40.7743 -40.7607
   -40.7606 -40.7605 -40.7600 -40.7600 -40.7599 -40.7367 -40.7290 -40.7223
   -40.7130 -40.7130 -40.6898 -40.6887 -40.6791 -40.6776 -40.6657 -40.6595
   -40.6274 -40.6173 -20.3431 -20.2692 -20.1124 -19.8103 -19.4413 -19.4298
   -19.4270 -19.4263 -19.4249 -19.4190 -19.3889 -19.3576 -19.3282 -19.3208
   -19.3091 -19.2750 -19.2527 -19.2417 -19.2173 -19.2047 -19.1805 -19.0496
   -18.9252 -18.8580 -18.7080 -18.6867 -18.6774 -18.6420 -18.6342 -18.6273
   -18.6058 -18.5620 -18.5521 -18.5208 -18.5067 -18.4730 -18.4471 -18.4188
   -18.3871 -18.3841 -18.3716 -18.3342 -18.3255 -18.3210 -18.3202 -18.3201
   -18.3196 -18.3195 -18.3186 -18.3160 -18.2797 -18.2795 -18.2794 -18.2462
   -18.2451 -18.2414 -18.2392 -18.2340 -18.2329 -18.2175 -18.2082 -18.2060
   -18.1989 -18.1753 -18.1568 -18.1508 -18.1401 -18.1392 -18.1332 -18.1251
   -18.1200 -18.1186 -18.1098 -18.0949 -18.0945 -18.0903 -18.0894 -18.0857
   -18.0689 -18.0597 -18.0558 -18.0487 -18.0344 -18.0244 -18.0234 -18.0178
   -18.0174 -17.9994 -17.9928 -17.9884 -17.9766 -17.9520 -17.9465 -17.9386
   -17.9354 -17.9333 -12.4199 -12.2053 -12.0831 -11.9790 -11.9360 -11.9337
   -11.9283 -11.8865 -11.8502 -11.8428 -11.8386 -11.6308 -11.5407 -11.4785
   -11.4177 -11.3907 -11.3834 -11.3825 -11.3767 -11.3683 -11.3472 -11.3168
   -11.3085 -11.3081 -11.3057 -11.3030 -11.2968 -11.2645 -11.2598 -11.2332
   -11.1873 -11.1746 -11.1692 -11.1606 -11.1567 -11.1481 -11.1195 -11.1018
   -11.0944 -11.0911 -11.0884 -11.0868 -11.0608 -11.0572 -11.0497 -11.0236
   -11.0177 -11.0137 -11.0110 -11.0107 -11.0098 -11.0056 -11.0008 -10.9965
   -10.9826 -10.9817 -10.9800 -10.9668 -10.9653 -10.9630 -10.9599 -10.9572
   -10.9521 -10.9485 -10.9057 -10.9030 -10.8965 -10.8764 -10.8602 -10.8296
   -10.8043 -10.8013 -10.7813 -10.7761 -10.7711 -10.6702 -10.5444 -10.4105
   -10.2530 -10.2285 -10.2258 -10.2171 -10.0874 -10.0763 -10.0663 -10.0519
    -9.9817  -9.9733  -9.9613  -9.9553  -9.9504  -9.9397  -9.9253  -9.9155
    -9.8934  -9.8792  -9.8752  -9.8622  -9.8579  -9.8436  -9.8337  -9.8101
    -9.8035  -9.8025  -9.7969  -9.7938  -9.7824  -9.7683  -9.7588  -9.7565
    -9.7545  -9.7542  -9.7522  -9.7509  -9.7484  -9.7313  -9.7156  -9.7050
    -9.6953  -9.6909  -9.6473  -9.6376  -9.6265  -9.6162  -9.6135  -9.6079
    -9.5976  -9.5533  -9.5366  -9.5210  -9.5172  -9.5093  -9.4992  -9.4796
    -9.4777  -9.4387  -9.4308  -9.4054  -9.3977  -9.3862  -9.3777  -9.3718
    -9.3646  -9.3551  -9.3179  -9.3041  -9.2849  -9.2536  -9.2227  -9.1998
    -9.1986  -9.1983  -9.1978  -9.1958  -9.1942  -9.1834  -9.1728  -9.1284
    -9.1211  -9.1203  -9.1144  -9.0683  -9.0639  -9.0359  -9.0304  -9.0211
    -8.9957  -8.9898  -8.9811  -8.9783  -8.9751  -8.9731  -8.9699  -8.9662
    -8.9397  -8.9356  -8.9272  -8.9241  -8.9057  -8.8996  -8.8960  -8.8820
    -8.8799  -8.8747  -8.7067  -8.6685  -8.6094  -8.6094  -8.5851  -8.5417
    -8.5368  -8.5368  -8.5084  -8.4974  -8.4972  -8.4972  -8.4971  -8.4970
    -8.4965  -8.4664  -8.4539  -8.4300  -8.4251  -8.4234  -8.4211  -8.4202
    -8.4196  -8.3987  -8.3737  -8.3525  -8.3246  -8.2017  -8.1836  -8.1454
    -8.1158  -8.1001  -8.0928  -8.0135  -7.9063  -7.8874  -7.8805  -7.8456
    -7.7959  -7.7622  -7.7619  -7.7618  -7.7617  -7.7615  -7.7611  -7.7308
    -7.7170  -7.7159  -7.7154  -7.7153  -7.7150  -7.7148  -7.7074  -7.7018
    -7.6902  -7.6871  -7.6852  -7.6828  -7.6817  -7.6785  -7.6606  -7.6545
    -7.6521  -7.6445  -7.6418  -7.6406  -7.6379  -7.6338  -7.6308  -7.6167
    -7.6018  -7.5980  -7.5949  -7.5929  -7.5921  -7.5767  -7.5690  -7.5540
    -7.5135  -7.4826  -7.4805  -7.4805  -7.4683  -7.4595  -7.4119  -7.4115
    -7.4008  -7.3941  -7.3767  -7.3683  -7.3309  -7.3016  -7.2453  -7.2205
    -7.2095  -7.0978  -7.0957  -7.0769  -7.0415  -7.0168  -7.0085  -6.9910
    -6.9811  -6.9786  -6.9627  -6.9071  -6.8831  -6.8792  -6.8478  -6.8136
    -6.8082  -6.8061  -6.8025  -6.7958  -6.7890  -6.7862  -6.7712  -6.7252
    -6.7154  -6.7073  -6.6993  -6.6956  -6.6880  -6.6837  -6.6779  -6.6677
    -6.6476  -6.6400  -6.6286  -6.6198  -6.6068  -6.6030  -6.5997  -6.5955
    -6.5752  -6.5427  -6.5353  -6.5285  -6.5285  -6.5284  -6.5284  -6.5284
    -6.5284  -6.5200  -6.4652  -6.4536  -6.4528  -6.4518  -6.4508  -6.4506
    -6.4429  -6.4231  -6.4015  -6.3908  -6.3773  -6.3602  -6.2798  -6.1359
    -6.0610  -5.8245  -5.7418  -5.5751  -5.4539  -5.3004  -5.1799  -5.1407
    -5.0519  -4.8095  -4.0246  -4.0181  -4.0136  -4.0112  -4.0082  -3.9972
    -3.9840  -3.9817  -3.9811  -3.9787  -3.9769  -3.9687  -3.8358  -3.7871
    -3.7860  -3.7820  -3.7694  -3.7596  -3.7558  -3.7496  -3.7481  -3.7421
    -3.7377  -3.6861  -3.6692  -3.6691  -3.6691  -3.6592  -3.6524  -3.6509
    -3.6503  -3.6497  -3.6491  -3.6090  -3.6023  -3.6019  -3.5995  -3.5778
    -3.5640  -3.5597  -3.5551  -3.5536  -3.5502  -3.5468  -3.5388  -3.5374
    -3.5317  -3.5288  -3.5196  -3.5146  -3.5014  -3.4882  -3.4801  -3.4506
    -3.4418  -3.4388  -3.4312  -3.4226  -3.4104  -3.3949  -3.3829  -3.3693
    -3.3362  -3.2039  -3.2034  -3.2029  -3.1981  -3.1976  -3.1513  -3.1343
    -3.1327  -3.1317  -3.1316  -3.1315  -3.1313  -3.1312  -3.1308  -3.1205
    -3.1148  -3.1122  -3.1060  -3.1005  -3.0943  -3.0755  -3.0696  -3.0671
    -3.0654  -3.0645  -3.0600  -3.0587  -3.0567  -3.0495  -3.0471  -3.0399
    -3.0340  -3.0219  -2.9941  -2.9864  -2.9817  -2.9661  -2.9522  -2.9439
    -2.9434  -2.9413  -2.9278  -2.9244  -2.9237  -2.9227  -2.9190  -2.9174
    -2.8769  -2.8691  -2.8586  -2.8414  -2.8349  -2.8122  -2.8069  -2.7868
    -2.7828  -2.7706  -2.7512  -2.7500  -2.7484  -2.7453  -2.7419  -2.7399
    -2.6815  -2.6723  -2.6626  -2.6565  -2.6404  -2.6314

          k = 0.0000-0.5773 0.0000 (321564 PWs)   bands (ev):

  -103.4460-101.3910 -89.2685 -71.8733 -71.8616 -71.8019 -71.7401 -71.7253
   -71.7012 -71.6942 -69.8690 -69.8659 -69.7680 -69.7610 -69.7290 -69.6741
   -69.6729 -66.8541 -66.8541 -66.8436 -66.8436 -66.8286 -66.8286 -66.8286
   -66.8286 -66.8242 -66.8242 -66.8180 -66.8180 -66.8180 -66.8180 -66.8136
   -66.8136 -66.7888 -66.7879 -66.7779 -66.7778 -66.7634 -66.7631 -66.7625
   -66.7625 -66.7590 -66.7580 -66.7530 -66.7528 -66.7527 -66.7526 -66.7510
   -66.7479 -66.7478 -66.7240 -66.7182 -66.7109 -66.7081 -66.6991 -66.6972
   -66.6903 -66.6882 -66.6870 -66.6747 -66.6732 -66.6689 -66.6468 -66.6432
   -66.6357 -57.8043 -57.6678 -57.3972 -55.9088 -55.5922 -55.2121 -55.1594
   -55.1120 -54.7844 -41.1553 -41.1553 -41.1553 -41.1553 -41.1287 -41.1286
   -41.1167 -41.1167 -41.0888 -41.0887 -41.0885 -41.0874 -41.0663 -41.0663
   -41.0663 -41.0663 -41.0621 -41.0614 -41.0499 -41.0498 -41.0400 -41.0299
   -41.0085 -41.0082 -41.0082 -40.9996 -40.9995 -40.9994 -40.9993 -40.9984
   -40.9984 -40.9946 -40.9887 -40.9875 -40.9875 -40.9830 -40.9747 -40.9641
   -40.9581 -40.9581 -40.9581 -40.9581 -40.9494 -40.9494 -40.9434 -40.9426
   -40.9374 -40.9374 -40.9372 -40.9372 -40.9372 -40.9371 -40.9319 -40.9317
   -40.9316 -40.9286 -40.9285 -40.9271 -40.9224 -40.9222 -40.9199 -40.9164
   -40.9115 -40.9066 -40.9066 -40.9066 -40.9066 -40.8983 -40.8934 -40.8932
   -40.8926 -40.8925 -40.8900 -40.8847 -40.8838 -40.8725 -40.8725 -40.8724
   -40.8721 -40.8721 -40.8721 -40.8721 -40.8721 -40.8709 -40.8707 -40.8706
   -40.8635 -40.8634 -40.8600 -40.8600 -40.8593 -40.8547 -40.8506 -40.8416
   -40.8409 -40.8408 -40.8406 -40.8404 -40.8398 -40.8390 -40.8334 -40.8300
   -40.8240 -40.8239 -40.8237 -40.8133 -40.8108 -40.8068 -40.8056 -40.8055
   -40.8055 -40.8053 -40.8048 -40.8037 -40.7938 -40.7935 -40.7935 -40.7930
   -40.7913 -40.7877 -40.7839 -40.7791 -40.7748 -40.7739 -40.7737 -40.7717
   -40.7574 -40.7573 -40.7537 -40.7449 -40.7332 -40.7325 -40.7274 -40.7274
   -40.7264 -40.7207 -40.7124 -40.7012 -40.6958 -40.6869 -40.6714 -40.6650
   -40.6472 -40.6227 -20.2501 -20.0562 -20.0447 -19.9423 -19.8882 -19.8180
   -19.6668 -19.6252 -19.6070 -19.5442 -19.4629 -19.4259 -19.2386 -18.9628
   -18.9348 -18.9221 -18.9142 -18.9124 -18.9094 -18.8881 -18.8587 -18.8266
   -18.8152 -18.7866 -18.7808 -18.7745 -18.7498 -18.7208 -18.7127 -18.7115
   -18.6665 -18.6642 -18.6405 -18.6210 -18.6006 -18.5902 -18.5748 -18.5659
   -18.5389 -18.5024 -18.4687 -18.4571 -18.4329 -18.4034 -18.3925 -18.3901
   -18.3631 -18.3390 -18.3110 -18.3005 -18.3002 -18.3001 -18.2997 -18.2961
   -18.2832 -18.2721 -18.2540 -18.2309 -18.2271 -18.2256 -18.2222 -18.2184
   -18.2120 -18.1881 -18.1824 -18.1639 -18.1567 -18.1504 -18.1481 -18.1389
   -18.1243 -18.1117 -18.1094 -18.0994 -18.0929 -18.0810 -18.0633 -18.0461
   -18.0366 -18.0366 -18.0362 -18.0294 -17.9965 -17.9803 -17.9771 -17.9767
   -17.9664 -17.9609 -17.9604 -17.9509 -17.9262 -17.9225 -17.9151 -17.9101
   -17.8664 -17.8526 -12.3738 -12.1290 -11.8617 -11.8519 -11.7704 -11.7019
   -11.6480 -11.6477 -11.6450 -11.6443 -11.6231 -11.6136 -11.5695 -11.5691
   -11.5621 -11.5489 -11.5409 -11.5201 -11.4859 -11.4829 -11.4694 -11.4678
   -11.4551 -11.4483 -11.4294 -11.4294 -11.4175 -11.3912 -11.3839 -11.3834
   -11.3650 -11.3275 -11.3240 -11.3231 -11.3003 -11.2369 -11.1877 -11.1737
   -11.1635 -11.1415 -11.1351 -11.1219 -11.0910 -11.0883 -11.0850 -11.0811
   -11.0569 -11.0455 -11.0350 -11.0201 -11.0127 -11.0050 -11.0032 -11.0028
   -11.0015 -11.0002 -10.9722 -10.9633 -10.9476 -10.9404 -10.9375 -10.9288
   -10.9197 -10.8811 -10.8507 -10.7913 -10.7573 -10.7358 -10.6667 -10.6631
   -10.6317 -10.5531 -10.5260 -10.4237 -10.3503 -10.3244 -10.3026 -10.2969
   -10.2810 -10.2756 -10.2387 -10.2190 -10.2054 -10.1744 -10.1532 -10.1375
   -10.1161 -10.1098 -10.1043 -10.1022 -10.0943 -10.0830 -10.0743 -10.0648
   -10.0573 -10.0487 -10.0013  -9.9752  -9.9669  -9.9569  -9.9294  -9.9191
    -9.9066  -9.8932  -9.8895  -9.8858  -9.8758  -9.8705  -9.8470  -9.8372
    -9.8282  -9.8199  -9.8066  -9.7873  -9.7837  -9.7674  -9.7623  -9.7193
    -9.7041  -9.7020  -9.6901  -9.6662  -9.6433  -9.6415  -9.6250  -9.6002
    -9.5236  -9.5041  -9.4785  -9.4505  -9.4333  -9.3961  -9.3840  -9.3719
    -9.3628  -9.3576  -9.3204  -9.3117  -9.3033  -9.3029  -9.2917  -9.2835
    -9.2776  -9.2625  -9.2250  -9.2082  -9.2047  -9.1978  -9.1793  -9.1687
    -9.1572  -9.1466  -9.1394  -9.1327  -9.1181  -9.1160  -9.1094  -9.1048
    -9.1034  -9.0956  -9.0777  -9.0661  -9.0571  -9.0539  -9.0417  -9.0307
    -9.0269  -9.0262  -9.0121  -9.0117  -9.0063  -9.0026  -8.9889  -8.9806
    -8.9659  -8.9550  -8.9433  -8.9346  -8.9244  -8.9088  -8.9014  -8.8834
    -8.8769  -8.7681  -8.7371  -8.6910  -8.6843  -8.6814  -8.6062  -8.5982
    -8.5797  -8.5651  -8.5192  -8.4885  -8.4141  -8.3658  -8.3658  -8.3540
    -8.2987  -8.2945  -8.2929  -8.2680  -8.2266  -8.2062  -8.1657  -8.1277
    -8.1056  -8.1047  -8.0622  -8.0380  -8.0333  -8.0262  -8.0208  -8.0203
    -8.0191  -8.0191  -8.0155  -8.0110  -8.0036  -7.9737  -7.9727  -7.9726
    -7.9717  -7.9554  -7.9495  -7.9483  -7.9334  -7.9303  -7.9274  -7.9134
    -7.9070  -7.9005  -7.8969  -7.8927  -7.8877  -7.8770  -7.8670  -7.8619
    -7.8551  -7.8391  -7.8365  -7.8338  -7.8336  -7.8225  -7.8111  -7.7986
    -7.7965  -7.7891  -7.7650  -7.7620  -7.7615  -7.7419  -7.7280  -7.7198
    -7.7070  -7.6989  -7.6408  -7.6317  -7.6041  -7.5962  -7.5348  -7.5304
    -7.4616  -7.4366  -7.4143  -7.4019  -7.3931  -7.3880  -7.3631  -7.3171
    -7.2886  -7.2721  -7.2355  -7.2245  -7.2039  -7.1954  -7.1862  -7.1833
    -7.1748  -7.1420  -7.1258  -7.1130  -7.1109  -7.1051  -7.0884  -7.0789
    -7.0499  -7.0245  -7.0063  -7.0000  -6.9985  -6.9651  -6.9320  -6.9022
    -6.8728  -6.8406  -6.8309  -6.8308  -6.8307  -6.8304  -6.8272  -6.7957
    -6.7749  -6.7654  -6.7635  -6.7620  -6.7584  -6.7536  -6.7346  -6.6968
    -6.6841  -6.6814  -6.6460  -6.6132  -6.5766  -6.5619  -6.4996  -6.4995
    -6.4992  -6.4986  -6.4444  -6.4344  -6.4334  -6.4233  -6.4192  -6.4155
    -6.4115  -6.3790  -6.3787  -6.3693  -6.3567  -6.3311  -6.3223  -6.1520
    -6.1506  -6.1503  -6.1309  -6.0748  -6.0738  -6.0143  -5.9808  -5.9645
    -5.9038  -5.7965  -5.7501  -5.7266  -5.5447  -5.3766  -5.1806  -5.1446
    -5.0515  -4.7854  -4.1913  -4.1888  -4.1838  -4.1739  -4.0662  -4.0662
    -4.0522  -4.0420  -4.0018  -4.0015  -3.9651  -3.9543  -3.9484  -3.9342
    -3.9219  -3.9000  -3.8578  -3.8337  -3.7800  -3.7706  -3.7665  -3.7657
    -3.7525  -3.7517  -3.7371  -3.7351  -3.7069  -3.6888  -3.6797  -3.6736
    -3.6629  -3.6600  -3.6576  -3.6538  -3.6422  -3.6385  -3.6309  -3.6282
    -3.6025  -3.5800  -3.5470  -3.5370  -3.5313  -3.5195  -3.5188  -3.5109
    -3.4933  -3.4891  -3.4846  -3.4801  -3.4677  -3.4436  -3.4431  -3.4424
    -3.4420  -3.4374  -3.4245  -3.4207  -3.4131  -3.4039  -3.3994  -3.3864
    -3.3767  -3.3697  -3.3605  -3.3544  -3.3512  -3.3401  -3.3056  -3.3026
    -3.2927  -3.2879  -3.2786  -3.2620  -3.2398  -3.2370  -3.2077  -3.2006
    -3.1985  -3.1868  -3.1798  -3.1793  -3.1788  -3.1751  -3.1482  -3.1411
    -3.1312  -3.1304  -3.1204  -3.1086  -3.1061  -3.0958  -3.0925  -3.0827
    -3.0788  -3.0670  -3.0565  -3.0501  -3.0394  -3.0345  -3.0287  -3.0115
    -3.0068  -2.9877  -2.9719  -2.9707  -2.9651  -2.9349  -2.9032  -2.8999
    -2.8748  -2.8702  -2.8210  -2.8163  -2.8140  -2.8096  -2.8035  -2.8002
    -2.7398  -2.7326  -2.6848  -2.6767  -2.6665  -2.6659  -2.6550  -2.6346
    -2.5397  -2.5249  -2.4841  -2.4723  -2.3235  -2.1961

          k =-0.5000-0.2887 0.0000 (321564 PWs)   bands (ev):

  -103.4460-101.3910 -89.2685 -71.8733 -71.8616 -71.8019 -71.7401 -71.7253
   -71.7012 -71.6942 -69.8690 -69.8659 -69.7680 -69.7610 -69.7290 -69.6741
   -69.6729 -66.8541 -66.8541 -66.8436 -66.8436 -66.8286 -66.8286 -66.8286
   -66.8286 -66.8242 -66.8242 -66.8180 -66.8180 -66.8180 -66.8180 -66.8136
   -66.8136 -66.7885 -66.7883 -66.7779 -66.7778 -66.7630 -66.7630 -66.7629
   -66.7628 -66.7586 -66.7584 -66.7530 -66.7524 -66.7523 -66.7522 -66.7521
   -66.7478 -66.7478 -66.7253 -66.7156 -66.7132 -66.7049 -66.7035 -66.6937
   -66.6909 -66.6897 -66.6867 -66.6752 -66.6728 -66.6687 -66.6464 -66.6437
   -66.6357 -57.8043 -57.6678 -57.3972 -55.9088 -55.5922 -55.2121 -55.1594
   -55.1120 -54.7844 -41.1553 -41.1553 -41.1553 -41.1553 -41.1287 -41.1286
   -41.1167 -41.1167 -41.0885 -41.0884 -41.0883 -41.0883 -41.0663 -41.0663
   -41.0663 -41.0663 -41.0618 -41.0617 -41.0498 -41.0498 -41.0267 -41.0232
   -41.0158 -41.0108 -41.0082 -41.0082 -41.0038 -40.9995 -40.9995 -40.9995
   -40.9994 -40.9984 -40.9984 -40.9888 -40.9875 -40.9875 -40.9714 -40.9581
   -40.9581 -40.9581 -40.9581 -40.9494 -40.9494 -40.9490 -40.9431 -40.9429
   -40.9374 -40.9374 -40.9372 -40.9372 -40.9372 -40.9371 -40.9317 -40.9316
   -40.9288 -40.9285 -40.9285 -40.9241 -40.9223 -40.9223 -40.9185 -40.9112
   -40.9066 -40.9066 -40.9066 -40.9066 -40.9061 -40.8992 -40.8930 -40.8930
   -40.8929 -40.8928 -40.8901 -40.8843 -40.8842 -40.8722 -40.8721 -40.8721
   -40.8721 -40.8721 -40.8721 -40.8721 -40.8720 -40.8719 -40.8707 -40.8706
   -40.8634 -40.8634 -40.8618 -40.8600 -40.8600 -40.8551 -40.8487 -40.8453
   -40.8409 -40.8408 -40.8401 -40.8401 -40.8398 -40.8398 -40.8372 -40.8293
   -40.8240 -40.8240 -40.8233 -40.8159 -40.8115 -40.8056 -40.8055 -40.8055
   -40.8055 -40.8054 -40.8022 -40.8004 -40.7935 -40.7935 -40.7935 -40.7933
   -40.7910 -40.7898 -40.7859 -40.7792 -40.7744 -40.7741 -40.7740 -40.7721
   -40.7616 -40.7574 -40.7573 -40.7527 -40.7368 -40.7324 -40.7270 -40.7268
   -40.7237 -40.7195 -40.7087 -40.7012 -40.6968 -40.6802 -40.6732 -40.6505
   -40.6415 -40.6390 -20.2476 -20.0564 -20.0450 -19.9476 -19.8890 -19.8267
   -19.6580 -19.6237 -19.6053 -19.5356 -19.4628 -19.4202 -19.2492 -18.9637
   -18.9538 -18.9159 -18.9131 -18.9125 -18.9095 -18.8792 -18.8586 -18.8408
   -18.8055 -18.7879 -18.7831 -18.7741 -18.7436 -18.7243 -18.7198 -18.7092
   -18.6656 -18.6644 -18.6335 -18.6276 -18.6069 -18.5835 -18.5718 -18.5638
   -18.5494 -18.4855 -18.4783 -18.4433 -18.4273 -18.4074 -18.3969 -18.3898
   -18.3599 -18.3319 -18.3234 -18.3004 -18.3002 -18.3000 -18.3000 -18.2957
   -18.2771 -18.2758 -18.2424 -18.2369 -18.2282 -18.2239 -18.2230 -18.2173
   -18.2071 -18.1999 -18.1740 -18.1672 -18.1593 -18.1522 -18.1468 -18.1378
   -18.1178 -18.1151 -18.1128 -18.1025 -18.0931 -18.0865 -18.0560 -18.0539
   -18.0408 -18.0365 -18.0365 -18.0296 -17.9910 -17.9890 -17.9767 -17.9764
   -17.9735 -17.9603 -17.9597 -17.9488 -17.9263 -17.9180 -17.9130 -17.9019
   -17.8617 -17.8591 -12.3644 -12.0911 -11.8741 -11.8469 -11.8139 -11.7418
   -11.6521 -11.6478 -11.6456 -11.6434 -11.6236 -11.6176 -11.6126 -11.5686
   -11.5565 -11.5477 -11.5381 -11.5185 -11.4987 -11.4836 -11.4775 -11.4572
   -11.4552 -11.4327 -11.4294 -11.4294 -11.4203 -11.3837 -11.3836 -11.3676
   -11.3492 -11.3269 -11.3268 -11.3234 -11.3000 -11.2228 -11.2074 -11.1619
   -11.1551 -11.1464 -11.1321 -11.1248 -11.0930 -11.0869 -11.0847 -11.0753
   -11.0624 -11.0368 -11.0313 -11.0144 -11.0082 -11.0038 -11.0026 -11.0017
   -10.9998 -10.9953 -10.9785 -10.9653 -10.9624 -10.9459 -10.9378 -10.9326
   -10.9224 -10.9195 -10.8194 -10.7614 -10.7439 -10.7002 -10.6662 -10.6566
   -10.5738 -10.5375 -10.4923 -10.4603 -10.4290 -10.3937 -10.3038 -10.2986
   -10.2887 -10.2840 -10.2253 -10.2149 -10.1906 -10.1783 -10.1276 -10.1185
   -10.1160 -10.1100 -10.1085 -10.1005 -10.0871 -10.0717 -10.0669 -10.0640
   -10.0541 -10.0262  -9.9788  -9.9719  -9.9669  -9.9426  -9.9297  -9.9231
    -9.9068  -9.9029  -9.8862  -9.8831  -9.8729  -9.8694  -9.8594  -9.8285
    -9.8267  -9.8122  -9.7978  -9.7908  -9.7816  -9.7745  -9.7461  -9.7292
    -9.7052  -9.7023  -9.6946  -9.6875  -9.6445  -9.6439  -9.6389  -9.6013
    -9.5685  -9.5331  -9.5096  -9.4869  -9.4359  -9.4082  -9.3853  -9.3709
    -9.3597  -9.3356  -9.3253  -9.3101  -9.3026  -9.2958  -9.2871  -9.2782
    -9.2663  -9.2548  -9.2187  -9.2093  -9.2001  -9.1893  -9.1863  -9.1777
    -9.1586  -9.1524  -9.1412  -9.1374  -9.1247  -9.1160  -9.1060  -9.1038
    -9.1001  -9.0971  -9.0796  -9.0645  -9.0466  -9.0402  -9.0341  -9.0310
    -9.0275  -9.0237  -9.0121  -9.0120  -9.0099  -9.0039  -8.9957  -8.9836
    -8.9770  -8.9564  -8.9388  -8.9347  -8.9275  -8.9160  -8.8887  -8.8859
    -8.8744  -8.7756  -8.7265  -8.7072  -8.6845  -8.6836  -8.6102  -8.6001
    -8.5923  -8.5794  -8.5145  -8.4565  -8.4056  -8.3658  -8.3658  -8.3637
    -8.2991  -8.2939  -8.2922  -8.2757  -8.2420  -8.1959  -8.1708  -8.1072
    -8.1035  -8.0750  -8.0428  -8.0368  -8.0355  -8.0261  -8.0200  -8.0191
    -8.0191  -8.0175  -8.0135  -8.0083  -7.9753  -7.9732  -7.9728  -7.9721
    -7.9601  -7.9502  -7.9482  -7.9411  -7.9343  -7.9315  -7.9255  -7.9169
    -7.9116  -7.8983  -7.8967  -7.8910  -7.8839  -7.8698  -7.8665  -7.8604
    -7.8550  -7.8450  -7.8339  -7.8338  -7.8316  -7.8239  -7.8102  -7.8035
    -7.7972  -7.7800  -7.7730  -7.7645  -7.7602  -7.7423  -7.7398  -7.7332
    -7.6955  -7.6703  -7.6652  -7.6541  -7.6315  -7.5906  -7.5595  -7.4810
    -7.4781  -7.4354  -7.4149  -7.4106  -7.3991  -7.3920  -7.3795  -7.3153
    -7.2947  -7.2881  -7.2744  -7.2470  -7.2350  -7.1886  -7.1850  -7.1821
    -7.1777  -7.1523  -7.1194  -7.1139  -7.0994  -7.0940  -7.0819  -7.0710
    -7.0457  -7.0362  -7.0132  -6.9974  -6.9919  -6.9457  -6.9075  -6.8901
    -6.8783  -6.8421  -6.8309  -6.8308  -6.8307  -6.8306  -6.8018  -6.7869
    -6.7817  -6.7640  -6.7634  -6.7621  -6.7554  -6.7524  -6.7314  -6.7047
    -6.6837  -6.6683  -6.6435  -6.6085  -6.5837  -6.5017  -6.4994  -6.4993
    -6.4993  -6.4841  -6.4386  -6.4367  -6.4273  -6.4216  -6.4209  -6.4120
    -6.4068  -6.3935  -6.3793  -6.3697  -6.3440  -6.3386  -6.3249  -6.2246
    -6.1506  -6.1506  -6.1166  -6.0758  -6.0740  -6.0222  -5.9949  -5.9543
    -5.9454  -5.8129  -5.7575  -5.6946  -5.5281  -5.3788  -5.1735  -5.1438
    -5.0562  -4.7938  -4.1935  -4.1931  -4.1852  -4.1743  -4.0662  -4.0662
    -4.0495  -4.0372  -4.0020  -4.0014  -3.9679  -3.9613  -3.9519  -3.9423
    -3.9296  -3.9023  -3.8539  -3.8194  -3.7728  -3.7703  -3.7677  -3.7665
    -3.7522  -3.7518  -3.7482  -3.7276  -3.7196  -3.6930  -3.6792  -3.6698
    -3.6625  -3.6518  -3.6508  -3.6462  -3.6398  -3.6336  -3.6313  -3.6089
    -3.6040  -3.5559  -3.5430  -3.5336  -3.5295  -3.5230  -3.5196  -3.5192
    -3.4932  -3.4889  -3.4825  -3.4802  -3.4656  -3.4515  -3.4440  -3.4429
    -3.4418  -3.4416  -3.4251  -3.4168  -3.4104  -3.4043  -3.3942  -3.3903
    -3.3782  -3.3730  -3.3678  -3.3622  -3.3591  -3.3444  -3.3190  -3.2965
    -3.2926  -3.2827  -3.2677  -3.2551  -3.2397  -3.2378  -3.2032  -3.2007
    -3.1983  -3.1908  -3.1796  -3.1795  -3.1792  -3.1788  -3.1486  -3.1373
    -3.1311  -3.1301  -3.1218  -3.1159  -3.0986  -3.0917  -3.0893  -3.0845
    -3.0717  -3.0675  -3.0590  -3.0467  -3.0416  -3.0327  -3.0210  -3.0101
    -2.9971  -2.9876  -2.9769  -2.9745  -2.9731  -2.9589  -2.9025  -2.9024
    -2.8735  -2.8720  -2.8387  -2.8169  -2.8159  -2.8064  -2.8030  -2.7958
    -2.7396  -2.7317  -2.6938  -2.6794  -2.6733  -2.6605  -2.6540  -2.6369
    -2.5395  -2.5252  -2.4896  -2.4777  -2.3916  -2.3604

          k =-0.5000-0.8660 0.0000 (321564 PWs)   bands (ev):

  -103.4460-101.3910 -89.2685 -71.8733 -71.8616 -71.8019 -71.7401 -71.7253
   -71.7012 -71.6942 -69.8690 -69.8659 -69.7680 -69.7610 -69.7290 -69.6741
   -69.6729 -66.8541 -66.8541 -66.8436 -66.8436 -66.8286 -66.8286 -66.8286
   -66.8286 -66.8242 -66.8242 -66.8180 -66.8180 -66.8180 -66.8180 -66.8136
   -66.8136 -66.7885 -66.7883 -66.7779 -66.7778 -66.7631 -66.7631 -66.7629
   -66.7626 -66.7586 -66.7584 -66.7530 -66.7526 -66.7522 -66.7522 -66.7520
   -66.7478 -66.7477 -66.7247 -66.7167 -66.7124 -66.7065 -66.7021 -66.6941
   -66.6911 -66.6890 -66.6866 -66.6747 -66.6735 -66.6688 -66.6465 -66.6435
   -66.6357 -57.8043 -57.6678 -57.3972 -55.9088 -55.5922 -55.2121 -55.1594
   -55.1120 -54.7844 -41.1553 -41.1553 -41.1553 -41.1553 -41.1286 -41.1286
   -41.1167 -41.1167 -41.0886 -41.0883 -41.0883 -41.0882 -41.0663 -41.0663
   -41.0663 -41.0663 -41.0618 -41.0617 -41.0498 -41.0497 -41.0371 -41.0283
   -41.0082 -41.0082 -41.0080 -41.0052 -40.9995 -40.9995 -40.9994 -40.9994
   -40.9984 -40.9984 -40.9924 -40.9899 -40.9875 -40.9875 -40.9663 -40.9581
   -40.9581 -40.9581 -40.9581 -40.9541 -40.9494 -40.9494 -40.9431 -40.9429
   -40.9374 -40.9374 -40.9372 -40.9372 -40.9372 -40.9372 -40.9317 -40.9316
   -40.9316 -40.9285 -40.9285 -40.9236 -40.9223 -40.9223 -40.9214 -40.9150
   -40.9126 -40.9066 -40.9066 -40.9066 -40.9066 -40.8956 -40.8932 -40.8930
   -40.8928 -40.8927 -40.8924 -40.8844 -40.8841 -40.8724 -40.8721 -40.8721
   -40.8721 -40.8721 -40.8720 -40.8720 -40.8718 -40.8717 -40.8707 -40.8706
   -40.8634 -40.8634 -40.8614 -40.8600 -40.8600 -40.8575 -40.8462 -40.8428
   -40.8414 -40.8408 -40.8408 -40.8402 -40.8400 -40.8398 -40.8397 -40.8273
   -40.8240 -40.8239 -40.8213 -40.8157 -40.8123 -40.8069 -40.8056 -40.8055
   -40.8054 -40.8054 -40.8040 -40.8022 -40.7935 -40.7935 -40.7935 -40.7933
   -40.7901 -40.7872 -40.7850 -40.7766 -40.7744 -40.7741 -40.7741 -40.7659
   -40.7595 -40.7574 -40.7573 -40.7567 -40.7355 -40.7271 -40.7268 -40.7267
   -40.7233 -40.7202 -40.7166 -40.6965 -40.6947 -40.6890 -40.6657 -40.6614
   -40.6511 -40.6257 -20.2463 -20.0568 -20.0450 -19.9505 -19.8892 -19.8302
   -19.6537 -19.6232 -19.6044 -19.5317 -19.4626 -19.4171 -19.2550 -18.9807
   -18.9421 -18.9170 -18.9131 -18.9125 -18.9096 -18.8851 -18.8604 -18.8271
   -18.8076 -18.7904 -18.7799 -18.7720 -18.7451 -18.7234 -18.7193 -18.7102
   -18.6661 -18.6647 -18.6364 -18.6294 -18.6075 -18.5799 -18.5720 -18.5646
   -18.5501 -18.4777 -18.4673 -18.4601 -18.4244 -18.4101 -18.3957 -18.3903
   -18.3591 -18.3367 -18.3186 -18.3003 -18.3001 -18.2999 -18.2997 -18.2976
   -18.2772 -18.2756 -18.2409 -18.2371 -18.2281 -18.2229 -18.2220 -18.2149
   -18.2096 -18.2000 -18.1754 -18.1667 -18.1581 -18.1515 -18.1485 -18.1355
   -18.1179 -18.1143 -18.1119 -18.1034 -18.0923 -18.0841 -18.0562 -18.0539
   -18.0410 -18.0367 -18.0367 -18.0288 -17.9937 -17.9904 -17.9778 -17.9774
   -17.9756 -17.9617 -17.9609 -17.9486 -17.9279 -17.9199 -17.9138 -17.9010
   -17.8572 -17.8567 -12.3544 -12.1047 -11.8748 -11.8575 -11.8244 -11.7293
   -11.6497 -11.6472 -11.6449 -11.6430 -11.6256 -11.6192 -11.6005 -11.5701
   -11.5532 -11.5464 -11.5449 -11.5148 -11.5110 -11.4851 -11.4803 -11.4561
   -11.4549 -11.4295 -11.4294 -11.4272 -11.4113 -11.3842 -11.3835 -11.3715
   -11.3463 -11.3284 -11.3261 -11.3234 -11.3005 -11.2206 -11.1898 -11.1811
   -11.1592 -11.1415 -11.1325 -11.1094 -11.0982 -11.0973 -11.0798 -11.0743
   -11.0712 -11.0390 -11.0255 -11.0199 -11.0036 -11.0028 -11.0024 -11.0019
   -10.9951 -10.9937 -10.9805 -10.9721 -10.9615 -10.9416 -10.9370 -10.9342
   -10.9260 -10.9015 -10.8212 -10.7597 -10.7392 -10.6820 -10.6675 -10.6637
   -10.6010 -10.5538 -10.4990 -10.4625 -10.4007 -10.3780 -10.3018 -10.2958
   -10.2894 -10.2810 -10.2343 -10.2076 -10.1924 -10.1840 -10.1367 -10.1213
   -10.1135 -10.1075 -10.1058 -10.0980 -10.0881 -10.0742 -10.0718 -10.0676
   -10.0527 -10.0479  -9.9889  -9.9650  -9.9547  -9.9380  -9.9286  -9.9237
    -9.9091  -9.8965  -9.8893  -9.8811  -9.8731  -9.8690  -9.8569  -9.8366
    -9.8228  -9.8108  -9.7994  -9.7884  -9.7790  -9.7715  -9.7391  -9.7238
    -9.7113  -9.7026  -9.6952  -9.6832  -9.6698  -9.6441  -9.6415  -9.6142
    -9.5759  -9.5440  -9.5015  -9.4852  -9.4386  -9.3881  -9.3810  -9.3791
    -9.3446  -9.3419  -9.3222  -9.3149  -9.3078  -9.2970  -9.2859  -9.2830
    -9.2635  -9.2497  -9.2314  -9.2134  -9.1998  -9.1897  -9.1757  -9.1702
    -9.1591  -9.1528  -9.1395  -9.1350  -9.1216  -9.1138  -9.1064  -9.1041
    -9.1020  -9.0993  -9.0765  -9.0632  -9.0441  -9.0404  -9.0326  -9.0294
    -9.0242  -9.0185  -9.0120  -9.0116  -9.0051  -9.0034  -8.9925  -8.9880
    -8.9757  -8.9676  -8.9422  -8.9351  -8.9315  -8.9160  -8.8959  -8.8769
    -8.8635  -8.7770  -8.7249  -8.6853  -8.6845  -8.6625  -8.6130  -8.6066
    -8.5944  -8.5805  -8.5400  -8.4762  -8.3751  -8.3658  -8.3658  -8.3576
    -8.3247  -8.2942  -8.2933  -8.2763  -8.2553  -8.2045  -8.1621  -8.1061
    -8.1043  -8.0583  -8.0403  -8.0360  -8.0324  -8.0252  -8.0227  -8.0209
    -8.0191  -8.0191  -8.0176  -8.0044  -7.9864  -7.9735  -7.9727  -7.9723
    -7.9709  -7.9495  -7.9485  -7.9373  -7.9355  -7.9305  -7.9238  -7.9180
    -7.9095  -7.8990  -7.8969  -7.8925  -7.8843  -7.8749  -7.8666  -7.8616
    -7.8561  -7.8366  -7.8339  -7.8338  -7.8293  -7.8206  -7.8127  -7.8011
    -7.7958  -7.7803  -7.7764  -7.7650  -7.7624  -7.7447  -7.7384  -7.7156
    -7.7019  -7.6881  -7.6823  -7.6644  -7.6406  -7.5860  -7.5390  -7.4981
    -7.4650  -7.4330  -7.4126  -7.4081  -7.4015  -7.3926  -7.3257  -7.3159
    -7.3024  -7.2899  -7.2651  -7.2416  -7.2275  -7.1919  -7.1865  -7.1825
    -7.1810  -7.1609  -7.1197  -7.1085  -7.1033  -7.0958  -7.0799  -7.0700
    -7.0483  -7.0386  -7.0195  -7.0021  -6.9929  -6.9425  -6.9047  -6.8977
    -6.8799  -6.8458  -6.8308  -6.8308  -6.8307  -6.8306  -6.8039  -6.7962
    -6.7781  -6.7639  -6.7629  -6.7617  -6.7576  -6.7443  -6.7334  -6.6965
    -6.6828  -6.6697  -6.6421  -6.6057  -6.5687  -6.5079  -6.4994  -6.4993
    -6.4991  -6.4954  -6.4373  -6.4367  -6.4281  -6.4222  -6.4200  -6.4146
    -6.4073  -6.3956  -6.3771  -6.3725  -6.3569  -6.3404  -6.3325  -6.2118
    -6.1507  -6.1507  -6.1274  -6.0761  -6.0747  -6.0142  -5.9988  -5.9507
    -5.9348  -5.8093  -5.7546  -5.7011  -5.5276  -5.3748  -5.1718  -5.1414
    -5.0584  -4.7996  -4.1947  -4.1920  -4.1906  -4.1726  -4.0662  -4.0662
    -4.0483  -4.0379  -4.0022  -4.0015  -3.9744  -3.9560  -3.9508  -3.9499
    -3.9292  -3.8951  -3.8485  -3.8208  -3.7731  -3.7705  -3.7675  -3.7662
    -3.7521  -3.7518  -3.7458  -3.7238  -3.7204  -3.6877  -3.6772  -3.6710
    -3.6629  -3.6522  -3.6484  -3.6442  -3.6410  -3.6344  -3.6317  -3.6174
    -3.5976  -3.5622  -3.5482  -3.5360  -3.5256  -3.5255  -3.5194  -3.5189
    -3.4932  -3.4901  -3.4829  -3.4797  -3.4568  -3.4511  -3.4437  -3.4431
    -3.4419  -3.4412  -3.4279  -3.4159  -3.4111  -3.4061  -3.3951  -3.3858
    -3.3773  -3.3722  -3.3657  -3.3594  -3.3555  -3.3360  -3.3254  -3.3059
    -3.2963  -3.2857  -3.2637  -3.2581  -3.2403  -3.2383  -3.2062  -3.2002
    -3.1970  -3.1903  -3.1798  -3.1794  -3.1790  -3.1786  -3.1530  -3.1379
    -3.1306  -3.1297  -3.1175  -3.1122  -3.1001  -3.0927  -3.0899  -3.0808
    -3.0761  -3.0670  -3.0600  -3.0467  -3.0401  -3.0351  -3.0244  -3.0115
    -2.9952  -2.9899  -2.9756  -2.9701  -2.9689  -2.9606  -2.9050  -2.8997
    -2.8772  -2.8705  -2.8268  -2.8171  -2.8148  -2.8115  -2.8050  -2.7966
    -2.7379  -2.7347  -2.6881  -2.6769  -2.6696  -2.6549  -2.6520  -2.6472
    -2.5417  -2.5338  -2.4837  -2.4724  -2.4410  -2.3930

     the Fermi energy is    -4.9216 ev

!    total energy              =  -27706.46285017 Ry
     total all-electron energy =   -549111.725289 Ry
     estimated scf accuracy    <       0.00000084 Ry
     smearing contrib. (-TS)   =      -0.00519699 Ry
     internal energy E=F+TS    =  -27706.45765317 Ry

     The total energy is F=E-TS. E is the sum of the following terms:
     one-electron contribution =  532723.32652366 Ry
     hartree contribution      = -266549.73408777 Ry
     xc contribution           =   -1609.91402515 Ry
     ewald contribution        = -275486.32961805 Ry
     DFT-D3 Dispersion         =      -4.04185348 Ry
     one-center paw contrib.   =  -16779.76459239 Ry

     convergence has been achieved in  17 iterations

     negative rho (up, down):  8.635E-04 0.000E+00

     Forces acting on atoms (cartesian axes, Ry/au):

     atom    1 type  1   force =     0.00022361    0.00007218    0.00027889
     atom    2 type  1   force =     0.00002202    0.00002991    0.00189423
     atom    3 type  1   force =     0.00000320    0.00006917   -0.00006767
     atom    4 type  2   force =     0.00001965    0.00002456   -0.00332989
     atom    5 type  2   force =    -0.00004350    0.00001691   -0.00006236
     atom    6 type  2   force =     0.00015738   -0.00004351   -0.00008757
     atom    7 type  2   force =     0.00001391    0.00003590    0.00153487
     atom    8 type  2   force =     0.00000500    0.00001854    0.00001515
     atom    9 type  2   force =     0.00009648   -0.00025992   -0.00033569
     atom   10 type  1   force =     0.00037943    0.00006049    0.00040433
     atom   11 type  1   force =     0.00002895    0.00002786    0.00188293
     atom   12 type  1   force =    -0.00003150    0.00001465    0.00003235
     atom   13 type  2   force =     0.00002309    0.00002400   -0.00332927
     atom   14 type  2   force =    -0.00003292    0.00006265   -0.00006503
     atom   15 type  2   force =    -0.00012709    0.00024764    0.00009502
     atom   16 type  2   force =     0.00001943    0.00002840    0.00154761
     atom   17 type  2   force =     0.00005925    0.00005464   -0.00000276
     atom   18 type  2   force =     0.00017952    0.00031941   -0.00020341
     atom   19 type  1   force =    -0.00048104    0.00004742   -0.00008925
     atom   20 type  1   force =     0.00002627    0.00002600    0.00188445
     atom   21 type  1   force =    -0.00008071    0.00002559    0.00000373
     atom   22 type  2   force =     0.00002292    0.00002565   -0.00333004
     atom   23 type  2   force =    -0.00002759   -0.00004692    0.00001253
     atom   24 type  2   force =     0.00016225   -0.00050541   -0.00014032
     atom   25 type  2   force =     0.00001235    0.00002173    0.00151850
     atom   26 type  2   force =    -0.00003298    0.00004704    0.00005138
     atom   27 type  2   force =    -0.00009002   -0.00004655    0.00016771
     atom   28 type  1   force =    -0.00042308   -0.00044375    0.00005058
     atom   29 type  1   force =     0.00002058    0.00003244    0.00188970
     atom   30 type  1   force =    -0.00005895    0.00001856   -0.00005070
     atom   31 type  2   force =     0.00002026    0.00002683   -0.00332991
     atom   32 type  2   force =    -0.00002618    0.00003457   -0.00005031
     atom   33 type  2   force =     0.00021807   -0.00016363   -0.00036901
     atom   34 type  2   force =     0.00000836    0.00002796    0.00153928
     atom   35 type  2   force =    -0.00007358   -0.00001859    0.00006940
     atom   36 type  2   force =    -0.00013993   -0.00045669    0.00015412
     atom   37 type  1   force =     0.00049703    0.00003923    0.00002484
     atom   38 type  1   force =     0.00001366    0.00002963    0.00188917
     atom   39 type  1   force =    -0.00005018    0.00001072   -0.00003386
     atom   40 type  2   force =     0.00002064    0.00002256   -0.00333066
     atom   41 type  2   force =    -0.00002036   -0.00001225   -0.00002504
     atom   42 type  2   force =    -0.00022463   -0.00054668   -0.00027024
     atom   43 type  2   force =     0.00000524    0.00003793    0.00153882
     atom   44 type  2   force =    -0.00001757    0.00004320    0.00000104
     atom   45 type  2   force =    -0.00047916   -0.00057203   -0.00023768
     atom   46 type  1   force =    -0.00002655    0.00026648   -0.00012959
     atom   47 type  1   force =     0.00001450    0.00002785    0.00188101
     atom   48 type  1   force =    -0.00003194    0.00006981   -0.00005000
     atom   49 type  2   force =     0.00001862    0.00002876   -0.00333037
     atom   50 type  2   force =    -0.00002710    0.00003730   -0.00000865
     atom   51 type  2   force =    -0.00036146   -0.00015112    0.00001304
     atom   52 type  2   force =     0.00000762    0.00003456    0.00154226
     atom   53 type  2   force =     0.00000824    0.00001219    0.00003829
     atom   54 type  2   force =     0.00063197    0.00035450    0.00111758
     atom   55 type  1   force =    -0.00007551    0.00001556    0.00001247
     atom   56 type  1   force =     0.00002072    0.00000843    0.00188209
     atom   57 type  1   force =    -0.00006255    0.00003114    0.00002518
     atom   58 type  2   force =     0.00002193    0.00002644   -0.00332827
     atom   59 type  2   force =    -0.00004364    0.00007170   -0.00004650
     atom   60 type  2   force =     0.00034820    0.00038311    0.00019593
     atom   61 type  2   force =     0.00001353    0.00001702    0.00152400
     atom   62 type  2   force =    -0.00002377    0.00003936    0.00004335
     atom   63 type  2   force =    -0.00041845   -0.00015451   -0.00034387
     atom   64 type  1   force =     0.00002413   -0.00027268   -0.00050374
     atom   65 type  1   force =     0.00001615    0.00002348    0.00188948
     atom   66 type  1   force =    -0.00008823    0.00002563    0.00002147
     atom   67 type  2   force =     0.00002462    0.00002313   -0.00333212
     atom   68 type  2   force =    -0.00001028    0.00003911   -0.00000462
     atom   69 type  2   force =    -0.00017760    0.00005092   -0.00038030
     atom   70 type  2   force =     0.00000978    0.00002351    0.00152656
     atom   71 type  2   force =    -0.00004052    0.00003650    0.00000864
     atom   72 type  2   force =     0.00020252    0.00025991    0.00021864
     atom   73 type  1   force =    -0.00034894   -0.00004437   -0.00017090
     atom   74 type  1   force =     0.00001543    0.00002913    0.00188381
     atom   75 type  1   force =    -0.00004905    0.00002399    0.00007411
     atom   76 type  2   force =     0.00002345    0.00002227   -0.00332883
     atom   77 type  2   force =    -0.00003165    0.00000736    0.00000840
     atom   78 type  2   force =     0.00075424   -0.00024448   -0.00058409
     atom   79 type  2   force =     0.00001029    0.00003479    0.00153215
     atom   80 type  2   force =    -0.00002592    0.00007054    0.00014543
     atom   81 type  2   force =     0.00018085   -0.00078097    0.00015658
     atom   82 type  1   force =     0.00081059    0.00046552   -0.00094246
     atom   83 type  1   force =     0.00001396    0.00002807    0.00187747
     atom   84 type  1   force =    -0.00005960    0.00004586    0.00003269
     atom   85 type  2   force =     0.00002050    0.00002509   -0.00333231
     atom   86 type  2   force =    -0.00004427    0.00004929    0.00001363
     atom   87 type  2   force =     0.00032953    0.00066023   -0.00007544
     atom   88 type  2   force =     0.00000678    0.00003495    0.00153866
     atom   89 type  2   force =    -0.00008198    0.00004689    0.00005676
     atom   90 type  2   force =     0.00047654    0.00057245    0.00144324
     atom   91 type  1   force =     0.00036279    0.00003663   -0.00022862
     atom   92 type  1   force =     0.00001538    0.00001398    0.00188361
     atom   93 type  1   force =    -0.00007705    0.00004464    0.00003503
     atom   94 type  2   force =     0.00001924    0.00002831   -0.00332920
     atom   95 type  2   force =    -0.00003139    0.00006874   -0.00001826
     atom   96 type  2   force =     0.00038254   -0.00123647    0.00017503
     atom   97 type  2   force =     0.00000981    0.00002183    0.00151565
     atom   98 type  2   force =    -0.00001891    0.00001500    0.00006389
     atom   99 type  2   force =     0.00003073    0.00060977   -0.00046683
     atom  100 type  1   force =    -0.00021974   -0.00015955   -0.00032334
     atom  101 type  1   force =     0.00002372    0.00002514    0.00188773
     atom  102 type  1   force =    -0.00005999    0.00007647    0.00009900
     atom  103 type  2   force =     0.00002057    0.00002471   -0.00332810
     atom  104 type  2   force =    -0.00004860    0.00002115    0.00000374
     atom  105 type  2   force =     0.00020189   -0.00064153   -0.00022709
     atom  106 type  2   force =     0.00001657    0.00002105    0.00153840
     atom  107 type  2   force =     0.00000230   -0.00000213    0.00005037
     atom  108 type  2   force =     0.00033396   -0.00035132   -0.00014742
     atom  109 type  1   force =     0.00021142   -0.00000259   -0.00006444
     atom  110 type  1   force =     0.00002829    0.00002742    0.00188728
     atom  111 type  1   force =    -0.00009761    0.00004225    0.00001239
     atom  112 type  2   force =     0.00002181    0.00002381   -0.00332750
     atom  113 type  2   force =     0.00000138    0.00002473   -0.00001100
     atom  114 type  2   force =    -0.00037407    0.00042462    0.00023780
     atom  115 type  2   force =     0.00001822    0.00003234    0.00152792
     atom  116 type  2   force =    -0.00004058    0.00006547    0.00000476
     atom  117 type  2   force =     0.00004176    0.00016756   -0.00019612
     atom  118 type  1   force =     0.00008536   -0.00036149   -0.00021245
     atom  119 type  1   force =     0.00001881    0.00002521    0.00187499
     atom  120 type  1   force =    -0.00005990    0.00001663    0.00006071
     atom  121 type  2   force =     0.00002171    0.00002269   -0.00333003
     atom  122 type  2   force =     0.00001917    0.00006399   -0.00003549
     atom  123 type  2   force =     0.00030621   -0.00000814   -0.00073903
     atom  124 type  2   force =     0.00001876    0.00003509    0.00153101
     atom  125 type  2   force =    -0.00003247   -0.00001462   -0.00000252
     atom  126 type  2   force =    -0.00021430    0.00039017   -0.00001459
     atom  127 type  1   force =     0.00003462   -0.00001121   -0.00022254
     atom  128 type  1   force =     0.00001355    0.00002214    0.00188094
     atom  129 type  1   force =    -0.00004483    0.00000749    0.00001837
     atom  130 type  2   force =     0.00001870    0.00002645   -0.00333196
     atom  131 type  2   force =    -0.00001856    0.00002595   -0.00003795
     atom  132 type  2   force =    -0.00025891    0.00095098   -0.00046551
     atom  133 type  2   force =     0.00001370    0.00002635    0.00151601
     atom  134 type  2   force =    -0.00002385    0.00002704    0.00001713
     atom  135 type  2   force =     0.00023381    0.00017984   -0.00021105
     atom  136 type  1   force =     0.00005764   -0.00027126    0.00015524
     atom  137 type  1   force =     0.00002121    0.00003435    0.00189160
     atom  138 type  1   force =    -0.00007225    0.00001435   -0.00000229
     atom  139 type  2   force =     0.00001870    0.00002680   -0.00332972
     atom  140 type  2   force =    -0.00004234    0.00001631   -0.00004876
     atom  141 type  2   force =     0.00001029   -0.00049412    0.00025884
     atom  142 type  2   force =     0.00001681    0.00002709    0.00152088
     atom  143 type  2   force =    -0.00002626    0.00000863   -0.00002146
     atom  144 type  2   force =    -0.00039153   -0.00009940    0.00004265
     atom  145 type  3   force =    -0.00042357    0.00002394   -0.00149443
     atom  146 type  4   force =     0.00037869   -0.00017303    0.00004745
     atom  147 type  3   force =    -0.00222670   -0.00084300   -0.00158865

     Total force =     0.005624     Total SCF correction =     0.005337
     SCF correction compared to forces is large: reduce conv_thr to get better values
     Energy error            =      4.9E-05 Ry
     Gradient error          =      2.2E-03 Ry/Bohr

     number of scf cycles    =  34
     number of bfgs steps    =  33

     energy             old  =  -27706.4628010714 Ry
     energy             new  =  -27706.4628501660 Ry

     CASE: energy            _new < energy            _old

     new trust radius        =       0.0240743804 bohr
     new conv_thr            =       0.0000000100 Ry


ATOMIC_POSITIONS (angstrom)
Mo               1.5539788482        2.7269368401        6.0875528075
Mo               1.5769197498        0.9104407117       -6.0872367793    0   0   0
Mo              -0.0018824416        1.8217014388       -0.0000811697
S                0.0000044503        0.0000077495       -7.6506323570    0   0   0
[...]
     atom   72 type  2   force =     0.00004380    0.00033646    0.00020457
     atom   73 type  1   force =     0.00016719   -0.00007934    0.00001789
     atom   74 type  1   force =    -0.00000543    0.00000075    0.00189436
     atom   75 type  1   force =    -0.00001997   -0.00001187   -0.00002680
     atom   76 type  2   force =     0.00000235   -0.00000149   -0.00328349
     atom   77 type  2   force =    -0.00000614    0.00003643   -0.00000452
     atom   78 type  2   force =     0.00049479   -0.00020003   -0.00031755
     atom   79 type  2   force =    -0.00002228    0.00000926    0.00149587
     atom   80 type  2   force =    -0.00006034   -0.00003475    0.00003018
     atom   81 type  2   force =    -0.00011691    0.00024298    0.00007674
     atom   82 type  1   force =     0.00030250   -0.00045411    0.00034835
     atom   83 type  1   force =    -0.00000471    0.00000224    0.00189216
     atom   84 type  1   force =    -0.00000041    0.00000900   -0.00000671
     atom   85 type  2   force =     0.00000290   -0.00000165   -0.00328223
     atom   86 type  2   force =    -0.00001092   -0.00000992   -0.00001303
     atom   87 type  2   force =     0.00022817   -0.00006536    0.00052187
     atom   88 type  2   force =    -0.00002331    0.00000838    0.00150235
     atom   89 type  2   force =    -0.00001369   -0.00002322   -0.00002204
     atom   90 type  2   force =    -0.00021856    0.00032203    0.00065005
     atom   91 type  1   force =     0.00019230    0.00014127   -0.00007980
     atom   92 type  1   force =    -0.00000905   -0.00000475    0.00189212
     atom   93 type  1   force =    -0.00001554   -0.00001184   -0.00004135
     atom   94 type  2   force =     0.00000353   -0.00000130   -0.00328440
     atom   95 type  2   force =     0.00004953    0.00001239   -0.00002010
     atom   96 type  2   force =    -0.00005882    0.00024138   -0.00026112
     atom   97 type  2   force =    -0.00003154   -0.00000093    0.00147319
     atom   98 type  2   force =    -0.00002312    0.00000325   -0.00001196
     atom   99 type  2   force =    -0.00013516    0.00043516   -0.00028316
     atom  100 type  1   force =     0.00015438   -0.00027546   -0.00002219
     atom  101 type  1   force =    -0.00000566    0.00000177    0.00189487
     atom  102 type  1   force =    -0.00000547   -0.00000027   -0.00006809
     atom  103 type  2   force =     0.00000274   -0.00000132   -0.00328203
     atom  104 type  2   force =    -0.00000027   -0.00002737   -0.00007137
     atom  105 type  2   force =    -0.00053100    0.00051175   -0.00000273
     atom  106 type  2   force =    -0.00002349    0.00000260    0.00150130
     atom  107 type  2   force =    -0.00007213   -0.00001639   -0.00001422
     atom  108 type  2   force =    -0.00013816    0.00034275    0.00033697
     atom  109 type  1   force =     0.00007111   -0.00012389    0.00008285
     atom  110 type  1   force =    -0.00000622    0.00000066    0.00189290
     atom  111 type  1   force =    -0.00005809    0.00001823    0.00001585
     atom  112 type  2   force =     0.00000264   -0.00000181   -0.00328364
     atom  113 type  2   force =    -0.00003850   -0.00001456    0.00004955
     atom  114 type  2   force =     0.00012341   -0.00028381    0.00026688
     atom  115 type  2   force =    -0.00002502    0.00000928    0.00149998
     atom  116 type  2   force =    -0.00004031   -0.00003437   -0.00005052
     atom  117 type  2   force =     0.00024181   -0.00045235   -0.00015334
     atom  118 type  1   force =    -0.00038083   -0.00013528   -0.00000346
     atom  119 type  1   force =    -0.00000603    0.00000149    0.00189099
     atom  120 type  1   force =    -0.00001947    0.00002148   -0.00002502
     atom  121 type  2   force =     0.00000249   -0.00000148   -0.00328302
     atom  122 type  2   force =    -0.00004258    0.00000579   -0.00004863
     atom  123 type  2   force =    -0.00002648   -0.00041020   -0.00053753
     atom  124 type  2   force =    -0.00001904    0.00000830    0.00151164
     atom  125 type  2   force =    -0.00007515    0.00002427   -0.00000632
     atom  126 type  2   force =     0.00036482   -0.00049647    0.00047437
     atom  127 type  1   force =     0.00002228   -0.00019420    0.00021372
     atom  128 type  1   force =    -0.00000591   -0.00000505    0.00189433
     atom  129 type  1   force =     0.00000320    0.00000513   -0.00000934
     atom  130 type  2   force =     0.00000272   -0.00000106   -0.00328345
     atom  131 type  2   force =    -0.00002736    0.00001547   -0.00002945
     atom  132 type  2   force =     0.00019077   -0.00021885    0.00004425
     atom  133 type  2   force =    -0.00002820   -0.00000566    0.00148721
     atom  134 type  2   force =    -0.00000668    0.00001773   -0.00001102
     atom  135 type  2   force =    -0.00000755   -0.00020774    0.00028527
     atom  136 type  1   force =     0.00019719    0.00020233   -0.00000903
     atom  137 type  1   force =    -0.00000779    0.00000143    0.00189705
     atom  138 type  1   force =    -0.00001010   -0.00006058    0.00000006
     atom  139 type  2   force =     0.00000318   -0.00000190   -0.00328266
     atom  140 type  2   force =     0.00003644    0.00001061    0.00002021
     atom  141 type  2   force =     0.00057481    0.00013393   -0.00021142
     atom  142 type  2   force =    -0.00003586    0.00000017    0.00148666
     atom  143 type  2   force =    -0.00000792   -0.00007253    0.00005820
     atom  144 type  2   force =     0.00020123    0.00002105    0.00003287
     atom  145 type  3   force =    -0.00008124   -0.00047506   -0.00084296
     atom  146 type  4   force =    -0.00064514    0.00032140   -0.00051699
     atom  147 type  3   force =     0.00027438    0.00083978   -0.00025767

     Total force =     0.003780     Total SCF correction =     0.000639
     SCF correction compared to forces is large: reduce conv_thr to get better values
     Energy error            =      2.7E-05 Ry
     Gradient error          =      8.4E-04 Ry/Bohr

     bfgs converged in  47 scf cycles and  46 bfgs steps
     (criteria: energy <  1.0E-04 Ry, force <  1.0E-03 Ry/Bohr)

     End of BFGS Geometry Optimization

     Final energy             =  -27706.4631432207 Ry

     File ./outdir/pwscf.bfgs deleted, as requested
Begin final coordinates

ATOMIC_POSITIONS (angstrom)
Mo               1.5565751718        2.7229021080        6.0923357240
Mo               1.5769197498        0.9104407117       -6.0872367793    0   0   0
Mo              -0.0044841197        1.8220996671       -0.0004456005
S                0.0000044503        0.0000077495       -7.6506323570    0   0   0
S                1.5722481700        0.9121108412       -1.5668381291
S               -0.0199347129        1.8291450147        4.5125067705
S                0.0000053241        0.0000068460       -4.5222282367    0   0   0
S                1.5720475865        0.9103930199        1.5647924774
S               -0.0314353693        1.8056582774        7.6487924253
Mo              -0.0278346389        5.4672321676        6.0977153537
Mo               0.0000011799        3.6417399547       -6.0872367793    0   0   0
Mo              -1.5810698463        4.5532305308        0.0002026339
S               -1.5769141197        2.7313069925       -7.6506323570    0   0   0
S               -0.0039974757        3.6430881550       -1.5653663266
S               -1.5909109646        4.5598363761        4.5166850626
S               -1.5769132459        2.7313060890       -4.5222282367    0   0   0
S               -0.0032539669        3.6433598570        1.5675884784
S               -1.6008690007        4.5502313365        7.6615648721
Mo              -1.6009848862        8.1924551871        6.0706546807
Mo              -1.5769173901        6.3730391977       -6.0872367793    0   0   0
Mo              -3.1586557795        7.2837188866       -0.0022951665
S               -3.1538326896        5.4626062355       -7.6506323570    0   0   0
S               -1.5809521321        6.3729951712       -1.5668476079
S               -3.1765146331        7.2786501750        4.5060539375
S               -3.1538318159        5.4626053320       -4.5222282367    0   0   0
S               -1.5818772152        6.3747131263        1.5654485601
S               -3.1728807328        7.2941969707        7.6467404260
Mo               3.1272302161       -0.0052191085        6.0623819957
Mo              -3.1538359601        9.1043384407       -6.0872367793    0   0   0
Mo              -4.7358155502       10.0153259766       -0.0026449829
S               -4.7307512596        8.1939054785       -7.6506323570    0   0   0
S               -3.1580593783        9.1048577913       -1.5674928320
S               -4.7585770586       10.0132772724        4.4971392812
S               -4.7307503859        8.1939045750       -4.5222282367    0   0   0
S               -3.1596759493        9.1043790808        1.5643171622
S               -4.7510116954       10.0245346236        7.6395480075
Mo               4.7070692206        2.6788056680        6.0596018897
Mo               4.7307503218        0.9104407117       -6.0872367793    0   0   0
Mo               3.1491190404        1.8222404984       -0.0009053821
S                3.1538350223        0.0000077495       -7.6506323570    0   0   0
S                4.7266277086        0.9117865749       -1.5657963710
S                3.1177203665        1.8193648101        4.4979290783
S                3.1538358961        0.0000068460       -4.5222282367    0   0   0
S                4.7252433354        0.9112946021        1.5664968225
S                3.1328689352        1.7942504734        7.6451925412
Mo               3.1088508879        5.4657621874        6.1434567082
Mo               3.1538317519        3.6417399547       -6.0872367793    0   0   0
Mo               1.5729716769        4.5535596812       -0.0003344910
S                1.5769164523        2.7313069925       -7.6506323570    0   0   0
S                3.1494379473        3.6429337088       -1.5663357329
S                1.5720646365        4.5651514146        4.5609234412
S                1.5769173261        2.7313060890       -4.5222282367    0   0   0
S                3.1496712055        3.6433327814        1.5674100641
S                1.4463319652        4.4879064148        7.7593250690
Mo               1.5379129275        8.2052430697        6.0753289207
Mo               1.5769131819        6.3730391977       -6.0872367793    0   0   0
Mo              -0.0045842067        7.2842257626       -0.0015206244
S               -0.0000021176        5.4626062355       -7.6506323570    0   0   0
S                1.5724585763        6.3737754661       -1.5667809721
S               -0.0243321720        7.2728600582        4.5105263943
S               -0.0000012439        5.4626053320       -4.5222282367    0   0   0
S                1.5722067894        6.3745511772        1.5664965864
S               -0.0306059989        7.2980675123        7.6536320691
Mo               6.2889358222       -0.0062984584        6.0575962166
Mo              -0.0000053881        9.1043384407       -6.0872367793    0   0   0
Mo              -1.5818243704       10.0155813549       -0.0010867356
S               -1.5769206876        8.1939054785       -7.6506323570    0   0   0
S               -0.0042997803        9.1056685053       -1.5662514197
S               -1.6013654016       10.0072472738        4.4952385674
S               -1.5769198139        8.1939045750       -4.5222282367    0   0   0
S               -0.0053733782        9.1045107949        1.5659918305
S               -1.5992227637       10.0136607560        7.6295022249
Mo               7.8612149208        2.7256309143        6.0825830278
Mo               7.8845808939        0.9104407117       -6.0872367793    0   0   0
Mo               6.3030452861        1.8220845676        0.0001863162
S                6.3076655943        0.0000077495       -7.6506323570    0   0   0
S                7.8802363988        0.9115499121       -1.5653283495
S                6.2950859006        1.8170925343        4.4919898437
S                6.3076664681        0.0000068460       -4.5222282367    0   0   0
S                7.8801962805        0.9110495495        1.5662632526
S                6.2903301191        1.7932964996        7.6378593332
Mo               6.3132524915        5.4688836722        6.1300242465
Mo               6.3076623239        3.6417399547       -6.0872367793    0   0   0
Mo               4.7260163289        4.5534207869       -0.0008252176
S                4.7307470244        2.7313069925       -7.6506323570    0   0   0
S                6.3032629743        3.6423668426       -1.5656419158
S                4.7025964977        4.5755526577        4.5755646817
S                4.7307478981        2.7313060890       -4.5222282367    0   0   0
S                6.3020666500        3.6437627222        1.5677034166
S                4.7320381273        4.4489866131        7.6318142802
Mo               4.7060986470        8.2156159283        6.0947196836
Mo               4.7307437539        6.3730391977       -6.0872367793    0   0   0
Mo               3.1492087351        7.2840405032       -0.0015672190
S                3.1538284544        5.4626062355       -7.6506323570    0   0   0
S                4.7256279030        6.3733864790       -1.5674960520
S                3.1317319360        7.2611362738        4.5549874155
S                3.1538293281        5.4626053320       -4.5222282367    0   0   0
S                4.7260685173        6.3744655920        1.5656229764
S                3.1082922274        7.3891967530        7.7030106035
Mo               9.4378778820        0.0017380219        6.0676286707
Mo               3.1538251839        9.1043384407       -6.0872367793    0   0   0
Mo               1.5723351834       10.0154311029       -0.0003286268
S                1.5769098844        8.1939054785       -7.6506323570    0   0   0
S                3.1490685705        9.1055956952       -1.5661356075
S                1.5595345885       10.0083892435        4.4949067679
S                1.5769107581        8.1939045750       -4.5222282367    0   0   0
S                3.1493079129        9.1036955419        1.5665339616
S                1.5486846181       10.0270665150        7.6383568766
Mo              -1.5983609738        2.7356995044        6.0807684016
Mo              11.0384114659        0.9104407117       -6.0872367793    0   0   0
Mo               9.4571660000        1.8219934668        0.0001153470
S                9.4614961663        0.0000077495       -7.6506323570    0   0   0
S               11.0338609359        0.9118477207       -1.5658031228
S                9.4402786237        1.8302983569        4.5088192921
S                9.4614970401        0.0000068460       -4.5222282367    0   0   0
S               11.0340913591        0.9111797987        1.5669100094
S                9.4419480728        1.8114095391        7.6442365337
Mo              -3.1656893636        5.4660940255        6.0877106144
Mo               9.4614928959        3.6417399547       -6.0872367793    0   0   0
Mo               7.8797041077        4.5531275096       -0.0002527908
S                7.8845775964        2.7313069925       -7.6506323570    0   0   0
S                9.4573728674        3.6426229260       -1.5651073199
S                7.8544836503        4.5649162050        4.5447908884
S                7.8845784701        2.7313060890       -4.5222282367    0   0   0
S                9.4564410559        3.6435311980        1.5676475413
S                7.9574228847        4.5018511761        7.7155626493
Mo              -4.7441949733        8.2056730523        6.0733961061
Mo               7.8845743259        6.3730391977       -6.0872367793    0   0   0
Mo               6.3026096477        7.2839340576       -0.0025497517
S                6.3076590264        5.4626062355       -7.6506323570    0   0   0
S                7.8799674269        6.3728012241       -1.5672649951
S                6.2791053687        7.2714347900        4.5437270452
S                6.3076599001        5.4626053320       -4.5222282367    0   0   0
S                7.8791344126        6.3745746995        1.5655920675
S                6.3016846211        7.3633262450        7.6803409994
Mo              -0.0252700452        0.0001157281        6.0688657239
Mo               6.3076557559        9.1043384407       -6.0872367793    0   0   0
Mo               4.7259622655       10.0156482165       -0.0007222589
S                4.7307404564        8.1939054785       -7.6506323570    0   0   0
S                6.3021127387        9.1053024702       -1.5675123739
S                4.7053129013       10.0086306002        4.5040319279
S                4.7307413301        8.1939045750       -4.5222282367    0   0   0
S                6.3029981152        9.1040417776        1.5651063370
S                4.7053826872       10.0427781708        7.6500480648
Pt               3.2182551222        5.4103979806        9.0123711968
Pd               6.2272359864        5.3646159515        9.1002178700
Pt               4.6144346431        5.6425917220       11.0567005996
End final coordinates



     Writing all to output data dir ./outdir/pwscf.save/ :
     XML data file, charge density, pseudopotentials, collected wavefunctions
 
     init_run     :     99.67s CPU    102.11s WALL (       1 calls)
     electrons    :  80182.73s CPU  81377.99s WALL (      14 calls)
     update_pot   :     20.90s CPU     21.47s WALL (      13 calls)
     forces       :   1033.02s CPU   1056.10s WALL (      14 calls)
     force_dftd3  :      5.39s CPU      5.61s WALL (      14 calls)

     Called by init_run:
     wfcinit      :     80.94s CPU     82.11s WALL (       1 calls)
     potinit      :      1.44s CPU      1.58s WALL (       1 calls)
     hinit0       :      9.49s CPU      9.57s WALL (       1 calls)

     Called by electrons:
     c_bands      :  70219.95s CPU  70950.59s WALL (     224 calls)
     sum_band     :   8515.36s CPU   8757.46s WALL (     224 calls)
     v_of_rho     :     65.54s CPU     73.30s WALL (     227 calls)
     newd         :   1160.06s CPU   1377.47s WALL (     227 calls)
     PAW_pot      :    254.08s CPU    255.76s WALL (     240 calls)
     mix_rho      :     18.91s CPU     21.24s WALL (     224 calls)
     energy_dftd3 :      3.01s CPU      3.02s WALL (      14 calls)

     Called by c_bands:
     init_us_2    :    312.35s CPU    313.74s WALL (    1904 calls)
     init_us_2:cp :    312.34s CPU    313.73s WALL (    1904 calls)
     cegterg      :  68845.45s CPU  69565.39s WALL (     914 calls)

     Called by *egterg:
     cdiaghg      :   3643.50s CPU   3799.93s WALL (   12016 calls)
     h_psi        :  35384.84s CPU  35609.85s WALL (   12134 calls)
     s_psi        :   7679.53s CPU   7714.40s WALL (   12134 calls)
     g_psi        :     77.56s CPU     77.89s WALL (   11216 calls)

     Called by h_psi:
     h_psi:calbec :   7446.85s CPU   7472.87s WALL (   12134 calls)
     vloc_psi     :  20051.65s CPU  20159.35s WALL (   12134 calls)
     add_vuspsi   :   7719.58s CPU   7757.09s WALL (   12134 calls)

     General routines
     calbec       :  10334.14s CPU  10371.13s WALL (   13306 calls)
     fft          :     46.23s CPU     53.21s WALL (    3101 calls)
     ffts         :      2.87s CPU      2.96s WALL (     451 calls)
     fftw         :  15093.40s CPU  15172.81s WALL ( 5195544 calls)
     interpolate  :      5.35s CPU      5.90s WALL (     227 calls)
 
     Parallel routines
 
     PWSCF        :     22h41m CPU     23h 2m WALL

 
   This run was terminated on:   8:29:20  17Apr2024            

=------------------------------------------------------------------------------=
   JOB DONE.
=------------------------------------------------------------------------------=
