
     Program PWSCF v.7.3 starts on  7May2024 at  4: 2:33 

     This program is part of the open-source Quantum ESPRESSO suite
     for quantum simulation of materials; please cite
         "P. Giannozzi et al., J. Phys.:Condens. Matter 21 395502 (2009);
         "P. Giannozzi et al., J. Phys.:Condens. Matter 29 465901 (2017);
         "P. Giannozzi et al., J. Chem. Phys. 152 154105 (2020);
          URL http://www.quantum-espresso.org", 
     in publications or presentations arising from this work. More details at
     http://www.quantum-espresso.org/quote

     Parallel version (MPI & OpenMP), running on      36 processor cores
     Number of MPI processes:                36
     Threads/MPI process:                     1

     MPI processes distributed on     1 nodes
     556217 MiB available memory on the printing compute node when the environment starts
 
     Waiting for input...
     Reading input from standard input
Warning: card &CELL ignored
Warning: card / ignored

     Current dimensions of program PWSCF are:
     Max number of different atomic species (ntypx) = 10
     Max number of k-points (npk) =  40000
     Max angular momentum in pseudopotentials (lmaxx) =  4
     file Mo.pbe-spn-kjpaw_psl.1.0.0.UPF: wavefunction(s)  4S 4D renormalized
     file S.pbe-n-kjpaw_psl.1.0.0.UPF: wavefunction(s)  3S 3P renormalized
     file Pt.pbe-spfn-kjpaw_psl.1.0.0.UPF: wavefunction(s)  5P 4F renormalized
     file Pd.pbe-spn-kjpaw_psl.1.0.0.UPF: wavefunction(s)  4S 5S 4D renormalized
 
     R & G space division:  proc/nbgrp/npool/nimage =      36
     Subspace diagonalization in iterative solution of the eigenvalue problem:
     one sub-group per band group will be used
     scalapack distributed-memory algorithm (size of sub-group:  6*  6 procs)

 
     Parallelization info
     --------------------
     sticks:   dense  smooth     PW     G-vecs:    dense   smooth      PW
     Min         585     334     89               198743    85850   11735
     Max         586     335     90               198750    85861   11748
     Sum       21073   12049   3205              7154885  3090769  422587
 
     Using Slab Decomposition
 


     bravais-lattice index     =            0
     lattice parameter (alat)  =      23.8199  a.u.
     unit-cell volume          =   33861.0370 (a.u.)^3
     number of atoms/cell      =          195
     number of atomic types    =            4
     number of electrons       =      1732.00
     number of Kohn-Sham states=         1039
     kinetic-energy cutoff     =      77.0000  Ry
     charge density cutoff     =     539.0000  Ry
     scf convergence threshold =      1.0E-06
     mixing beta               =       0.2000
     number of iterations used =            8  plain     mixing
     energy convergence thresh.=      1.0E-04
     force convergence thresh. =      1.0E-03
     Exchange-correlation= SLA  PW   PBX  PBC
                           (   1   4   3   4   0   0   0)
     nstep                     =         1000


     Effective Screening Medium Method
     =================================
     Boundary Conditions: Vacuum-Slab-Vacuum
     total charge in unit cell        =   0.0000
     grid points for fit at edges     =        4 
 

     celldm(1)=  23.819920  celldm(2)=   0.000000  celldm(3)=   0.000000
     celldm(4)=   0.000000  celldm(5)=   0.000000  celldm(6)=   0.000000

     crystal axes: (cart. coord. in units of alat)
               a(1) = (   1.000000   0.000000   0.000000 )  
               a(2) = (  -0.499999   0.866026   0.000000 )  
               a(3) = (   0.000000   0.000000   2.893000 )  

     reciprocal axes: (cart. coord. in units 2 pi/alat)
               b(1) = (  1.000000  0.577349  0.000000 )  
               b(2) = (  0.000000  1.154700  0.000000 )  
               b(3) = (  0.000000  0.000000  0.345662 )  


     PseudoPot. # 1 for Mo read from file:
     ./pseudo/Mo.pbe-spn-kjpaw_psl.1.0.0.UPF
     MD5 check sum: 317bf72632116215fd98f72de1686f13
     Pseudo is Projector augmented-wave + core cor, Zval = 14.0
     Generated using 'atomic' code by A. Dal Corso  v.7.2
     Shape of augmentation charge: PSQ
     Using radial grid of 1229 points,  6 beta functions with: 
                l(1) =   0
                l(2) =   0
                l(3) =   1
                l(4) =   1
                l(5) =   2
                l(6) =   2
     Q(r) pseudized with 0 coefficients 


     PseudoPot. # 2 for S  read from file:
     ./pseudo/S.pbe-n-kjpaw_psl.1.0.0.UPF
     MD5 check sum: 8b7b5302570d38d5e87fed6a1065abda
     Pseudo is Projector augmented-wave + core cor, Zval =  6.0
     Generated using 'atomic' code by A. Dal Corso  v.7.2
     Shape of augmentation charge: PSQ
     Using radial grid of 1151 points,  6 beta functions with: 
                l(1) =   0
                l(2) =   0
                l(3) =   1
                l(4) =   1
                l(5) =   2
                l(6) =   2
     Q(r) pseudized with 0 coefficients 


     PseudoPot. # 3 for Pt read from file:
     ./pseudo/Pt.pbe-spfn-kjpaw_psl.1.0.0.UPF
     MD5 check sum: 620096ebf4e6ebacc94de60fd67efcb5
     Pseudo is Projector augmented-wave + core cor, Zval = 32.0
     Generated using 'atomic' code by A. Dal Corso  v.7.2
     Shape of augmentation charge: PSQ
     Using radial grid of 1277 points,  8 beta functions with: 
                l(1) =   0
                l(2) =   0
                l(3) =   1
                l(4) =   1
                l(5) =   2
                l(6) =   2
                l(7) =   3
                l(8) =   3
     Q(r) pseudized with 0 coefficients 


     PseudoPot. # 4 for Pd read from file:
     ./pseudo/Pd.pbe-spn-kjpaw_psl.1.0.0.UPF
     MD5 check sum: a60571a671f2502b8a6a4569d20a6edb
     Pseudo is Projector augmented-wave + core cor, Zval = 18.0
     Generated using 'atomic' code by A. Dal Corso  v.7.2
     Shape of augmentation charge: PSQ
     Using radial grid of 1235 points,  6 beta functions with: 
                l(1) =   0
                l(2) =   0
                l(3) =   1
                l(4) =   1
                l(5) =   2
                l(6) =   2
     Q(r) pseudized with 0 coefficients 


     atomic species   valence    mass     pseudopotential
     Mo               14.00    95.95000     Mo( 1.00)
     S                 6.00    32.06000     S ( 1.00)
     Pt               32.00   195.08400     Pt( 1.00)
     Pd               18.00   106.42000     Pd( 1.00)

     No symmetry found



   Cartesian axes

     site n.     atom                  positions (alat units)
         1        Mo     tau(   1) = (   0.0000010   0.1443372  -0.7272732  )
         2        Mo     tau(   2) = (   0.1249995   0.0721706  -0.2424038  )
         3        S      tau(   3) = (   0.0000015   0.1443386  -0.3667807  )
         4        S      tau(   4) = (   0.1250010   0.0721682  -0.6030489  )
         5        S      tau(   5) = (   0.1250010   0.0721683  -0.8514963  )
         6        S      tau(   6) = (   0.0000015   0.1443389  -0.1180260  )
         7        Mo     tau(   7) = (   0.0000005   0.1443381   0.2424561  )
         8        Mo     tau(   8) = (   0.1251981   0.0716023   0.7276027  )
         9        S      tau(   9) = (  -0.0003031   0.1454842   0.6052312  )
        10        S      tau(  10) = (   0.1249558   0.0721599   0.3668208  )
        11        S      tau(  11) = (   0.1250088   0.0721517   0.1180857  )
        12        S      tau(  12) = (  -0.0004157   0.1382876   0.8564685  )
        13        Mo     tau(  13) = (  -0.1249989   0.3608437  -0.7272732  )
        14        Mo     tau(  14) = (   0.0000030   0.2886752  -0.2424042  )
        15        S      tau(  15) = (  -0.1249977   0.3608450  -0.3667802  )
        16        S      tau(  16) = (   0.0000012   0.2886747  -0.6030489  )
        17        S      tau(  17) = (   0.0000012   0.2886748  -0.8514963  )
        18        S      tau(  18) = (  -0.1249977   0.3608454  -0.1180274  )
        19        Mo     tau(  19) = (  -0.1249623   0.3608201   0.2425155  )
        20        Mo     tau(  20) = (  -0.0007801   0.2872696   0.7308518  )
        21        S      tau(  21) = (  -0.1240398   0.3604107   0.6055268  )
        22        S      tau(  22) = (   0.0000411   0.2886546   0.3669163  )
        23        S      tau(  23) = (   0.0000035   0.2886726   0.1180964  )
        24        S      tau(  24) = (  -0.1315418   0.3638985   0.8543850  )
        25        Mo     tau(  25) = (  -0.2499987   0.5773502  -0.7272732  )
        26        Mo     tau(  26) = (  -0.1249977   0.5051839  -0.2424055  )
        27        S      tau(  27) = (  -0.2499981   0.5773518  -0.3667809  )
        28        S      tau(  28) = (  -0.1249986   0.5051812  -0.6030489  )
        29        S      tau(  29) = (  -0.1249986   0.5051813  -0.8514963  )
        30        S      tau(  30) = (  -0.2499979   0.5773512  -0.1180266  )
        31        Mo     tau(  31) = (  -0.2499787   0.5773156   0.2425145  )
        32        Mo     tau(  32) = (  -0.1271807   0.5060660   0.7281741  )
        33        S      tau(  33) = (  -0.2502658   0.5775034   0.6017985  )
        34        S      tau(  34) = (  -0.1249543   0.5051367   0.3669386  )
        35        S      tau(  35) = (  -0.1249864   0.5051552   0.1181399  )
        36        S      tau(  36) = (  -0.2525628   0.5785576   0.8514793  )
        37        Mo     tau(  37) = (  -0.3749985   0.7938567  -0.7272732  )
        38        Mo     tau(  38) = (  -0.2500001   0.7216874  -0.2424031  )
        39        S      tau(  39) = (  -0.3749980   0.7938584  -0.3667800  )
        40        S      tau(  40) = (  -0.2499984   0.7216877  -0.6030489  )
        41        S      tau(  41) = (  -0.2499984   0.7216878  -0.8514963  )
        42        S      tau(  42) = (  -0.3749982   0.7938585  -0.1180264  )
        43        Mo     tau(  43) = (  -0.3750043   0.7938372   0.2424536  )
        44        Mo     tau(  44) = (  -0.2503619   0.7218808   0.7263407  )
        45        S      tau(  45) = (  -0.3755748   0.7941519   0.6023691  )
        46        S      tau(  46) = (  -0.2500067   0.7216811   0.3668312  )
        47        S      tau(  47) = (  -0.2499793   0.7216445   0.1181126  )
        48        S      tau(  48) = (  -0.3746959   0.7932047   0.8515893  )
        49        Mo     tau(  49) = (   0.2500010   0.1443372  -0.7272732  )
        50        Mo     tau(  50) = (   0.3750034   0.0721723  -0.2424032  )
        51        S      tau(  51) = (   0.2500017   0.1443391  -0.3667788  )
        52        S      tau(  52) = (   0.3750010   0.0721682  -0.6030489  )
        53        S      tau(  53) = (   0.3750010   0.0721683  -0.8514963  )
        54        S      tau(  54) = (   0.2500016   0.1443391  -0.1180271  )
        55        Mo     tau(  55) = (   0.2500033   0.1443124   0.2424881  )
        56        Mo     tau(  56) = (   0.3752595   0.0716472   0.7255395  )
        57        S      tau(  57) = (   0.2498544   0.1431280   0.6011361  )
        58        S      tau(  58) = (   0.3750516   0.0721435   0.3668117  )
        59        S      tau(  59) = (   0.3750079   0.0721203   0.1180977  )
        60        S      tau(  60) = (   0.2517312   0.1427646   0.8506906  )
        61        Mo     tau(  61) = (   0.1250012   0.3608437  -0.7272732  )
        62        Mo     tau(  62) = (   0.2500029   0.2886782  -0.2424031  )
        63        S      tau(  63) = (   0.1250024   0.3608455  -0.3667794  )
        64        S      tau(  64) = (   0.2500012   0.2886747  -0.6030489  )
        65        S      tau(  65) = (   0.2500012   0.2886748  -0.8514963  )
        66        S      tau(  66) = (   0.1250021   0.3608455  -0.1180270  )
        67        Mo     tau(  67) = (   0.1249995   0.3608273   0.2424838  )
        68        Mo     tau(  68) = (   0.2535704   0.2866116   0.7259154  )
        69        S      tau(  69) = (   0.1241106   0.3617788   0.6079553  )
        70        S      tau(  70) = (   0.2499752   0.2886689   0.3668869  )
        71        S      tau(  71) = (   0.2500098   0.2886475   0.1181123  )
        72        S      tau(  72) = (   0.1336503   0.3523048   0.8541313  )
        73        Mo     tau(  73) = (   0.0000014   0.5773502  -0.7272732  )
        74        Mo     tau(  74) = (   0.1250045   0.5051840  -0.2424036  )
        75        S      tau(  75) = (   0.0000030   0.5773520  -0.3667799  )
        76        S      tau(  76) = (   0.1250014   0.5051812  -0.6030489  )
        77        S      tau(  77) = (   0.1250014   0.5051813  -0.8514963  )
        78        S      tau(  78) = (   0.0000026   0.5773517  -0.1180274  )
        79        Mo     tau(  79) = (   0.0000276   0.5772927   0.2425177  )
        80        Mo     tau(  80) = (   0.1255270   0.5059369   0.7313762  )
        81        S      tau(  81) = (   0.0011816   0.5764663   0.6064450  )
        82        S      tau(  82) = (   0.1250222   0.5051261   0.3669341  )
        83        S      tau(  83) = (   0.1249880   0.5051467   0.1180950  )
        84        S      tau(  84) = (  -0.0088763   0.5830479   0.8565830  )
        85        Mo     tau(  85) = (  -0.1249984   0.7938567  -0.7272732  )
        86        Mo     tau(  86) = (   0.0000069   0.7216896  -0.2424039  )
        87        S      tau(  87) = (  -0.1249975   0.7938582  -0.3667782  )
        88        S      tau(  88) = (   0.0000016   0.7216877  -0.6030489  )
        89        S      tau(  89) = (   0.0000016   0.7216878  -0.8514963  )
        90        S      tau(  90) = (  -0.1249973   0.7938582  -0.1180279  )
        91        Mo     tau(  91) = (  -0.1249699   0.7938095   0.2424907  )
        92        Mo     tau(  92) = (  -0.0004895   0.7231014   0.7275053  )
        93        S      tau(  93) = (  -0.1248847   0.7932555   0.6014963  )
        94        S      tau(  94) = (   0.0000405   0.7216116   0.3668908  )
        95        S      tau(  95) = (   0.0000242   0.7216332   0.1181249  )
        96        S      tau(  96) = (  -0.1259194   0.7949777   0.8510667  )
        97        Mo     tau(  97) = (   0.5000010   0.1443372  -0.7272732  )
        98        Mo     tau(  98) = (   0.6250001   0.0721662  -0.2424040  )
        99        S      tau(  99) = (   0.5000017   0.1443386  -0.3667801  )
       100        S      tau( 100) = (   0.6250010   0.0721682  -0.6030489  )
       101        S      tau( 101) = (   0.6250010   0.0721683  -0.8514963  )
       102        S      tau( 102) = (   0.5000020   0.1443388  -0.1180261  )
       103        Mo     tau( 103) = (   0.5000355   0.1442968   0.2424343  )
       104        Mo     tau( 104) = (   0.6251054   0.0720760   0.7269638  )
       105        S      tau( 105) = (   0.5007812   0.1439212   0.6015111  )
       106        S      tau( 106) = (   0.6250309   0.0721295   0.3668346  )
       107        S      tau( 107) = (   0.6250410   0.0721183   0.1180973  )
       108        S      tau( 108) = (   0.4998652   0.1442971   0.8504179  )
       109        Mo     tau( 109) = (   0.3750012   0.3608437  -0.7272732  )
       110        Mo     tau( 110) = (   0.4999991   0.2886761  -0.2424038  )
       111        S      tau( 111) = (   0.3750012   0.3608452  -0.3667804  )
       112        S      tau( 112) = (   0.5000012   0.2886747  -0.6030489  )
       113        S      tau( 113) = (   0.5000012   0.2886748  -0.8514963  )
       114        S      tau( 114) = (   0.3750014   0.3608455  -0.1180261  )
       115        Mo     tau( 115) = (   0.3749988   0.3608207   0.2424913  )
       116        Mo     tau( 116) = (   0.5005676   0.2886014   0.7258090  )
       117        S      tau( 117) = (   0.3761076   0.3615161   0.6013079  )
       118        S      tau( 118) = (   0.5000282   0.2886169   0.3668001  )
       119        S      tau( 119) = (   0.5000158   0.2886613   0.1180928  )
       120        S      tau( 120) = (   0.3768791   0.3600665   0.8508100  )
       121        Mo     tau( 121) = (   0.2500014   0.5773502  -0.7272732  )
       122        Mo     tau( 122) = (   0.3749983   0.5051825  -0.2424043  )
       123        S      tau( 123) = (   0.2500017   0.5773519  -0.3667810  )
       124        S      tau( 124) = (   0.3750014   0.5051812  -0.6030489  )
       125        S      tau( 125) = (   0.3750014   0.5051813  -0.8514963  )
       126        S      tau( 126) = (   0.2500018   0.5773519  -0.1180256  )
       127        Mo     tau( 127) = (   0.2499755   0.5773110   0.2424609  )
       128        Mo     tau( 128) = (   0.3758691   0.5051374   0.7277779  )
       129        S      tau( 129) = (   0.2483182   0.5768077   0.6062789  )
       130        S      tau( 130) = (   0.3749464   0.5051844   0.3668408  )
       131        S      tau( 131) = (   0.3749944   0.5051486   0.1180923  )
       132        S      tau( 132) = (   0.2574557   0.5818559   0.8585037  )
       133        Mo     tau( 133) = (   0.1250016   0.7938567  -0.7272732  )
       134        Mo     tau( 134) = (   0.2499995   0.7216883  -0.2424036  )
       135        S      tau( 135) = (   0.1250024   0.7938578  -0.3667813  )
       136        S      tau( 136) = (   0.2500016   0.7216877  -0.6030489  )
       137        S      tau( 137) = (   0.2500016   0.7216878  -0.8514963  )
       138        S      tau( 138) = (   0.1250024   0.7938579  -0.1180253  )
       139        Mo     tau( 139) = (   0.1250229   0.7938069   0.2425006  )
       140        Mo     tau( 140) = (   0.2504358   0.7224862   0.7284223  )
       141        S      tau( 141) = (   0.1254429   0.7935457   0.6029055  )
       142        S      tau( 142) = (   0.2500049   0.7216116   0.3668842  )
       143        S      tau( 143) = (   0.2500022   0.7216616   0.1181021  )
       144        S      tau( 144) = (   0.1246626   0.7944127   0.8519137  )
       145        Mo     tau( 145) = (   0.7500010   0.1443372  -0.7272732  )
       146        Mo     tau( 146) = (   0.8750038   0.0721696  -0.2424038  )
       147        S      tau( 147) = (   0.7500016   0.1443382  -0.3667789  )
       148        S      tau( 148) = (   0.8750010   0.0721682  -0.6030489  )
       149        S      tau( 149) = (   0.8750010   0.0721683  -0.8514963  )
       150        S      tau( 150) = (   0.7500016   0.1443384  -0.1180279  )
       151        Mo     tau( 151) = (   0.7500289   0.1443141   0.2424936  )
       152        Mo     tau( 152) = (   0.8748115   0.0715393   0.7280420  )
       153        S      tau( 153) = (   0.7503587   0.1440662   0.6027403  )
       154        S      tau( 154) = (   0.8750369   0.0721618   0.3668742  )
       155        S      tau( 155) = (   0.8750002   0.0721408   0.1181001  )
       156        S      tau( 156) = (   0.7494385   0.1444101   0.8516821  )
       157        Mo     tau( 157) = (   0.6250012   0.3608437  -0.7272732  )
       158        Mo     tau( 158) = (   0.7500028   0.2886769  -0.2424041  )
       159        S      tau( 159) = (   0.6250015   0.3608451  -0.3667792  )
       160        S      tau( 160) = (   0.7500012   0.2886747  -0.6030489  )
       161        S      tau( 161) = (   0.7500012   0.2886748  -0.8514963  )
       162        S      tau( 162) = (   0.6250016   0.3608454  -0.1180280  )
       163        Mo     tau( 163) = (   0.6250302   0.3608127   0.2424760  )
       164        Mo     tau( 164) = (   0.7487590   0.2885376   0.7272130  )
       165        S      tau( 165) = (   0.6254237   0.3608917   0.6015174  )
       166        S      tau( 166) = (   0.7500486   0.2886525   0.3668797  )
       167        S      tau( 167) = (   0.7500385   0.2886557   0.1181169  )
       168        S      tau( 168) = (   0.6239430   0.3610912   0.8510113  )
       169        Mo     tau( 169) = (   0.5000014   0.5773502  -0.7272732  )
       170        Mo     tau( 170) = (   0.6250029   0.5051841  -0.2424047  )
       171        S      tau( 171) = (   0.5000014   0.5773518  -0.3667794  )
       172        S      tau( 172) = (   0.6250014   0.5051812  -0.6030489  )
       173        S      tau( 173) = (   0.6250014   0.5051813  -0.8514963  )
       174        S      tau( 174) = (   0.5000016   0.5773516  -0.1180277  )
       175        Mo     tau( 175) = (   0.4999859   0.5773250   0.2424709  )
       176        Mo     tau( 176) = (   0.6245890   0.5053660   0.7261562  )
       177        S      tau( 177) = (   0.4993068   0.5776651   0.6022414  )
       178        S      tau( 178) = (   0.6249823   0.5051501   0.3668388  )
       179        S      tau( 179) = (   0.6250205   0.5051637   0.1181147  )
       180        S      tau( 180) = (   0.5009766   0.5773609   0.8515797  )
       181        Mo     tau( 181) = (   0.3750016   0.7938567  -0.7272732  )
       182        Mo     tau( 182) = (   0.5000025   0.7216901  -0.2424039  )
       183        S      tau( 183) = (   0.3750019   0.7938578  -0.3667793  )
       184        S      tau( 184) = (   0.5000016   0.7216877  -0.6030489  )
       185        S      tau( 185) = (   0.5000016   0.7216878  -0.8514963  )
       186        S      tau( 186) = (   0.3750020   0.7938579  -0.1180272  )
       187        Mo     tau( 187) = (   0.3749951   0.7938323   0.2424893  )
       188        Mo     tau( 188) = (   0.4998599   0.7217391   0.7271366  )
       189        S      tau( 189) = (   0.3746033   0.7939741   0.6029663  )
       190        S      tau( 190) = (   0.4999946   0.7216688   0.3668260  )
       191        S      tau( 191) = (   0.4999891   0.7216628   0.1180901  )
       192        S      tau( 192) = (   0.3755955   0.7938624   0.8526444  )
       193        Pt     tau( 193) = (   0.1194898   0.4990527   0.9549993  )
       194        Pd     tau( 194) = (   0.0026419   0.2990244   0.9662205  )
       195        Pd     tau( 195) = (   0.0026180   0.2990093   1.1645417  )

     --------------------------------------------
     DFT-D3 Dispersion Correction (3-body terms):
     --------------------------------------------
       Reference C6 values for interpolation: 

         atom   Coordination number   C6
         S          0.000           268.01
         S          0.995           261.99
         S          1.990           251.62
         Mo         0.000          1691.79
         Mo         1.942          1004.01
         Mo        11.056           674.22
         Pd         0.000          1217.01
         Pd         1.863           573.90
         Pd         5.710           531.75
         Pt         0.000           782.29
         Pt         1.919           692.72
         Pt         6.667           673.75

       Values used:

         atom   Coordination number  R0_AB[au]  C6      C8
         Mo        10.208            3.547    674.22  77634.20
         Mo        10.221            3.547    674.22  77634.20
         S          3.858            3.128    251.62  12327.25
         S          3.859            3.128    251.62  12327.25
         S          3.758            3.128    251.62  12327.25
         S          3.859            3.128    251.62  12327.25
         Mo        10.221            3.547    674.22  77634.20
         Mo        10.228            3.547    674.22  77634.20
         S          3.849            3.128    251.62  12327.25
         S          3.859            3.128    251.62  12327.25
         S          3.859            3.128    251.62  12327.25
         S          4.624            3.128    251.62  12327.25
         Mo        10.208            3.547    674.22  77634.20
         Mo        10.221            3.547    674.22  77634.20
         S          3.858            3.128    251.62  12327.25
         S          3.859            3.128    251.62  12327.25
         S          3.758            3.128    251.62  12327.25
         S          3.859            3.128    251.62  12327.25
         Mo        10.222            3.547    674.22  77634.20
         Mo        10.722            3.547    674.22  77634.20
         S          3.862            3.128    251.62  12327.25
         S          3.850            3.128    251.62  12327.25
         S          3.859            3.128    251.62  12327.25
         S          4.671            3.128    251.62  12327.25
         Mo        10.208            3.547    674.22  77634.20
         Mo        10.221            3.547    674.22  77634.20
         S          3.858            3.128    251.62  12327.25
         S          3.859            3.128    251.62  12327.25
         S          3.758            3.128    251.62  12327.25
         S          3.859            3.128    251.62  12327.25
         Mo        10.220            3.547    674.22  77634.20
         Mo        10.171            3.547    674.22  77634.20
         S          3.842            3.128    251.62  12327.25
         S          3.853            3.128    251.62  12327.25
         S          3.859            3.128    251.62  12327.25
         S          3.843            3.128    251.62  12327.25
         Mo        10.208            3.547    674.21  77634.20
         Mo        10.220            3.547    674.22  77634.20
         S          3.858            3.128    251.62  12327.25
         S          3.859            3.128    251.62  12327.25
         S          3.758            3.128    251.62  12327.25
         S          3.859            3.128    251.62  12327.25
         Mo        10.220            3.547    674.22  77634.20
         Mo        10.260            3.547    674.22  77634.20
         S          3.856            3.128    251.62  12327.25
         S          3.861            3.128    251.62  12327.25
         S          3.859            3.128    251.62  12327.25
         S          3.808            3.128    251.62  12327.25
         Mo        10.208            3.547    674.22  77634.20
         Mo        10.221            3.547    674.22  77634.20
         S          3.858            3.128    251.62  12327.25
         S          3.859            3.128    251.62  12327.25
         S          3.758            3.128    251.62  12327.25
         S          3.859            3.128    251.62  12327.25
         Mo        10.220            3.547    674.22  77634.20
         Mo        10.278            3.547    674.22  77634.20
         S          3.837            3.128    251.62  12327.25
         S          3.863            3.128    251.62  12327.25
         S          3.859            3.128    251.62  12327.25
         S          3.842            3.128    251.62  12327.25
         Mo        10.208            3.547    674.22  77634.20
         Mo        10.221            3.547    674.22  77634.20
         S          3.858            3.128    251.62  12327.25
         S          3.859            3.128    251.62  12327.25
         S          3.758            3.128    251.62  12327.25
         S          3.859            3.128    251.62  12327.25
         Mo        10.222            3.547    674.22  77634.20
         Mo        10.177            3.547    674.22  77634.20
         S          3.873            3.128    251.62  12327.25
         S          3.855            3.128    251.62  12327.25
         S          3.859            3.128    251.62  12327.25
         S          5.646            3.128    251.62  12327.25
         Mo        10.208            3.547    674.22  77634.20
         Mo        10.221            3.547    674.22  77634.20
         S          3.858            3.128    251.62  12327.25
         S          3.859            3.128    251.62  12327.25
         S          3.758            3.128    251.62  12327.25
         S          3.859            3.128    251.62  12327.25
         Mo        10.222            3.547    674.22  77634.20
         Mo        10.867            3.547    674.22  77634.20
         S          3.860            3.128    251.62  12327.25
         S          3.850            3.128    251.62  12327.25
         S          3.859            3.128    251.62  12327.25
         S          4.673            3.128    251.62  12327.25
         Mo        10.208            3.547    674.22  77634.20
         Mo        10.221            3.547    674.22  77634.20
         S          3.858            3.128    251.62  12327.25
         S          3.859            3.128    251.62  12327.25
         S          3.758            3.128    251.62  12327.25
         S          3.859            3.128    251.62  12327.25
         Mo        10.220            3.547    674.22  77634.20
         Mo        10.214            3.547    674.22  77634.20
         S          3.850            3.128    251.62  12327.25
         S          3.856            3.128    251.62  12327.25
         S          3.859            3.128    251.62  12327.25
         S          3.827            3.128    251.62  12327.25
         Mo        10.208            3.547    674.22  77634.20
         Mo        10.221            3.547    674.22  77634.20
         S          3.858            3.128    251.62  12327.25
         S          3.859            3.128    251.62  12327.25
         S          3.758            3.128    251.62  12327.25
         S          3.859            3.128    251.62  12327.25
         Mo        10.220            3.547    674.22  77634.20
         Mo        10.250            3.547    674.22  77634.20
         S          3.856            3.128    251.62  12327.25
         S          3.861            3.128    251.62  12327.25
         S          3.859            3.128    251.62  12327.25
         S          3.790            3.128    251.62  12327.25
         Mo        10.208            3.547    674.22  77634.20
         Mo        10.221            3.547    674.22  77634.20
         S          3.858            3.128    251.62  12327.25
         S          3.859            3.128    251.62  12327.25
         S          3.758            3.128    251.62  12327.25
         S          3.859            3.128    251.62  12327.25
         Mo        10.220            3.547    674.22  77634.20
         Mo        10.277            3.547    674.22  77634.20
         S          3.839            3.128    251.62  12327.25
         S          3.863            3.128    251.62  12327.25
         S          3.859            3.128    251.62  12327.25
         S          3.819            3.128    251.62  12327.25
         Mo        10.208            3.547    674.22  77634.20
         Mo        10.221            3.547    674.22  77634.20
         S          3.858            3.128    251.62  12327.25
         S          3.859            3.128    251.62  12327.25
         S          3.758            3.128    251.62  12327.25
         S          3.859            3.128    251.62  12327.25
         Mo        10.222            3.547    674.22  77634.20
         Mo        10.220            3.547    674.22  77634.20
         S          3.850            3.128    251.62  12327.25
         S          3.858            3.128    251.62  12327.25
         S          3.859            3.128    251.62  12327.25
         S          4.642            3.128    251.62  12327.25
         Mo        10.208            3.547    674.22  77634.20
         Mo        10.221            3.547    674.22  77634.20
         S          3.858            3.128    251.62  12327.25
         S          3.859            3.128    251.62  12327.25
         S          3.758            3.128    251.62  12327.25
         S          3.859            3.128    251.62  12327.25
         Mo        10.221            3.547    674.22  77634.20
         Mo        10.226            3.547    674.22  77634.20
         S          3.863            3.128    251.62  12327.25
         S          3.856            3.128    251.62  12327.25
         S          3.859            3.128    251.62  12327.25
         S          3.764            3.128    251.62  12327.25
         Mo        10.208            3.547    674.22  77634.20
         Mo        10.221            3.547    674.22  77634.20
         S          3.858            3.128    251.62  12327.25
         S          3.859            3.128    251.62  12327.25
         S          3.758            3.128    251.62  12327.25
         S          3.859            3.128    251.62  12327.25
         Mo        10.221            3.547    674.22  77634.20
         Mo        10.241            3.547    674.22  77634.20
         S          3.864            3.128    251.62  12327.25
         S          3.857            3.128    251.62  12327.25
         S          3.859            3.128    251.62  12327.25
         S          3.767            3.128    251.62  12327.25
         Mo        10.208            3.547    674.21  77634.20
         Mo        10.220            3.547    674.22  77634.20
         S          3.858            3.128    251.62  12327.25
         S          3.859            3.128    251.62  12327.25
         S          3.758            3.128    251.62  12327.25
         S          3.859            3.128    251.62  12327.25
         Mo        10.220            3.547    674.22  77634.20
         Mo        10.226            3.547    674.22  77634.20
         S          3.854            3.128    251.62  12327.25
         S          3.857            3.128    251.62  12327.25
         S          3.859            3.128    251.62  12327.25
         S          3.809            3.128    251.62  12327.25
         Mo        10.208            3.547    674.22  77634.20
         Mo        10.221            3.547    674.22  77634.20
         S          3.858            3.128    251.62  12327.25
         S          3.859            3.128    251.62  12327.25
         S          3.758            3.128    251.62  12327.25
         S          3.859            3.128    251.62  12327.25
         Mo        10.220            3.547    674.21  77634.20
         Mo        10.267            3.547    674.22  77634.20
         S          3.853            3.128    251.62  12327.25
         S          3.861            3.128    251.62  12327.25
         S          3.859            3.128    251.62  12327.25
         S          3.820            3.128    251.62  12327.25
         Mo        10.208            3.547    674.22  77634.20
         Mo        10.221            3.547    674.22  77634.20
         S          3.858            3.128    251.62  12327.25
         S          3.859            3.128    251.62  12327.25
         S          3.758            3.128    251.62  12327.25
         S          3.859            3.128    251.62  12327.25
         Mo        10.221            3.547    674.22  77634.20
         Mo        10.250            3.547    674.22  77634.20
         S          3.853            3.128    251.62  12327.25
         S          3.860            3.128    251.62  12327.25
         S          3.859            3.128    251.62  12327.25
         S          3.823            3.128    251.62  12327.25
         Pt         4.477            3.168    673.76  70063.64
         Pd         5.033            3.168    531.75  48720.73
         Pd         0.956            3.168    802.71  73546.80

         Molecular C6 ( Ry / a.u.^6 ) =  14186509.88


     number of k points=     4  Gaussian smearing, width (Ry)=  0.0100
                       cart. coord. in units 2pi/alat
        k(    1) = (   0.0000000   0.0000000   0.0000000), wk =   0.5000000
        k(    2) = (   0.0000000  -0.5773499   0.0000000), wk =   0.5000000
        k(    3) = (  -0.5000000  -0.2886744   0.0000000), wk =   0.5000000
        k(    4) = (  -0.5000000  -0.8660242   0.0000000), wk =   0.5000000

     Dense  grid:  7154885 G-vectors     FFT dimensions: ( 180, 180, 512)

     Smooth grid:  3090769 G-vectors     FFT dimensions: ( 135, 135, 400)

     Estimated max dynamical RAM per process >       4.32 GB

     Estimated total dynamical RAM >     155.52 GB

     Atomic positions and unit cell read from directory:
     ./outdir/pwscf.save/
     Atomic positions from file used, from input discarded
 

     The initial density is read from file :
     ./outdir/pwscf.save/charge-density


     negative rho (up, down):  9.122E-04 0.000E+00
     Cannot read wfcs: file not found
     Starting wfcs are 1189 randomized atomic wfcs
     Checking if some PAW data can be deallocated... 

     total cpu time spent up to now is      185.5 secs

     Self-consistent Calculation

     iteration #  1     ecut=    77.00 Ry     beta= 0.20
     Davidson diagonalization with overlap
     c_bands:  3 eigenvalues not converged
     c_bands:  9 eigenvalues not converged
     c_bands:  5 eigenvalues not converged
     c_bands: 11 eigenvalues not converged
     ethr =  1.00E-05,  avg # of iterations =120.0

     negative rho (up, down):  8.539E-04 0.000E+00

     total cpu time spent up to now is    11038.4 secs

     total energy              =  -34492.22262618 Ry
     estimated scf accuracy    <       0.49051675 Ry

     iteration #  2     ecut=    77.00 Ry     beta= 0.20
     Davidson diagonalization with overlap
     ethr =  2.83E-05,  avg # of iterations = 13.0

     negative rho (up, down):  8.231E-04 0.000E+00

     total cpu time spent up to now is    11511.8 secs

     total energy              =  -34492.22349601 Ry
     estimated scf accuracy    <       0.25506542 Ry

     iteration #  3     ecut=    77.00 Ry     beta= 0.20
     Davidson diagonalization with overlap
     ethr =  1.47E-05,  avg # of iterations =  9.8

     negative rho (up, down):  7.853E-04 0.000E+00

     total cpu time spent up to now is    11960.4 secs

     total energy              =  -34492.21576871 Ry
     estimated scf accuracy    <       0.09976894 Ry

     iteration #  4     ecut=    77.00 Ry     beta= 0.20
     Davidson diagonalization with overlap
     ethr =  5.76E-06,  avg # of iterations = 14.0

     negative rho (up, down):  7.695E-04 0.000E+00

     total cpu time spent up to now is    12476.3 secs

     total energy              =  -34492.23170782 Ry
     estimated scf accuracy    <       0.04291030 Ry

     iteration #  5     ecut=    77.00 Ry     beta= 0.20
     Davidson diagonalization with overlap
     c_bands:  4 eigenvalues not converged
     c_bands:  2 eigenvalues not converged
     c_bands:  3 eigenvalues not converged
     ethr =  2.48E-06,  avg # of iterations = 33.0

     negative rho (up, down):  7.693E-04 0.000E+00

     total cpu time spent up to now is    13296.9 secs

     total energy              =  -34492.23632280 Ry
     estimated scf accuracy    <       0.00975819 Ry

     iteration #  6     ecut=    77.00 Ry     beta= 0.20
     Davidson diagonalization with overlap
     c_bands:  1 eigenvalues not converged
     ethr =  5.63E-07,  avg # of iterations = 14.5

     negative rho (up, down):  8.060E-04 0.000E+00

     total cpu time spent up to now is    13989.8 secs

     total energy              =  -34492.24043497 Ry
     estimated scf accuracy    <       0.00520724 Ry

     iteration #  7     ecut=    77.00 Ry     beta= 0.20
     Davidson diagonalization with overlap
     ethr =  3.01E-07,  avg # of iterations = 12.2

     negative rho (up, down):  8.270E-04 0.000E+00

     total cpu time spent up to now is    14483.8 secs

     total energy              =  -34492.24093709 Ry
     estimated scf accuracy    <       0.00193559 Ry

     iteration #  8     ecut=    77.00 Ry     beta= 0.20
     Davidson diagonalization with overlap
     c_bands:  1 eigenvalues not converged
     c_bands:  1 eigenvalues not converged
     c_bands:  1 eigenvalues not converged
     ethr =  1.12E-07,  avg # of iterations = 19.0

     negative rho (up, down):  8.472E-04 0.000E+00

     total cpu time spent up to now is    15336.1 secs

     total energy              =  -34492.24221158 Ry
     estimated scf accuracy    <       0.00054264 Ry

     iteration #  9     ecut=    77.00 Ry     beta= 0.20
     Davidson diagonalization with overlap
     ethr =  3.13E-08,  avg # of iterations = 15.0

     negative rho (up, down):  8.699E-04 0.000E+00

     total cpu time spent up to now is    16177.2 secs

     total energy              =  -34492.24254789 Ry
     estimated scf accuracy    <       0.00023753 Ry

     iteration # 10     ecut=    77.00 Ry     beta= 0.20
     Davidson diagonalization with overlap
     ethr =  1.37E-08,  avg # of iterations = 11.5

     negative rho (up, down):  8.874E-04 0.000E+00

     total cpu time spent up to now is    16784.6 secs

     total energy              =  -34492.24259091 Ry
     estimated scf accuracy    <       0.00009890 Ry

     iteration # 11     ecut=    77.00 Ry     beta= 0.20
     Davidson diagonalization with overlap
     ethr =  5.71E-09,  avg # of iterations = 14.0

     negative rho (up, down):  8.946E-04 0.000E+00

     total cpu time spent up to now is    17612.1 secs

     total energy              =  -34492.24265891 Ry
     estimated scf accuracy    <       0.00002964 Ry

     iteration # 12     ecut=    77.00 Ry     beta= 0.20
     Davidson diagonalization with overlap
     c_bands:  1 eigenvalues not converged
     ethr =  1.71E-09,  avg # of iterations = 17.2

     negative rho (up, down):  9.010E-04 0.000E+00

     total cpu time spent up to now is    18465.5 secs

     total energy              =  -34492.24267799 Ry
     estimated scf accuracy    <       0.00001440 Ry

     iteration # 13     ecut=    77.00 Ry     beta= 0.20
     Davidson diagonalization with overlap
     c_bands:  1 eigenvalues not converged
     ethr =  8.31E-10,  avg # of iterations = 18.5

     negative rho (up, down):  9.068E-04 0.000E+00

     total cpu time spent up to now is    19116.9 secs

     total energy              =  -34492.24267606 Ry
     estimated scf accuracy    <       0.00000542 Ry

     iteration # 14     ecut=    77.00 Ry     beta= 0.20
     Davidson diagonalization with overlap
     ethr =  3.13E-10,  avg # of iterations = 15.5

     negative rho (up, down):  9.085E-04 0.000E+00

     total cpu time spent up to now is    20152.3 secs

     total energy              =  -34492.24268148 Ry
     estimated scf accuracy    <       0.00000239 Ry

     iteration # 15     ecut=    77.00 Ry     beta= 0.20
     Davidson diagonalization with overlap
     ethr =  1.38E-10,  avg # of iterations = 10.5

     negative rho (up, down):  9.092E-04 0.000E+00

     total cpu time spent up to now is    20790.6 secs

     total energy              =  -34492.24268188 Ry
     estimated scf accuracy    <       0.00000120 Ry

     iteration # 16     ecut=    77.00 Ry     beta= 0.20
     Davidson diagonalization with overlap
     c_bands:  2 eigenvalues not converged
     c_bands:  2 eigenvalues not converged
     ethr =  6.92E-11,  avg # of iterations = 18.2

     negative rho (up, down):  9.123E-04 0.000E+00

     total cpu time spent up to now is    21589.4 secs

     End of self-consistent calculation

          k = 0.0000 0.0000 0.0000 (386245 PWs)   bands (ev):

  -103.1755 -89.0844 -87.2630 -71.5610 -71.5560 -71.5086 -71.4650 -71.4503
   -71.4479 -71.4386 -66.6388 -66.6164 -66.6164 -66.6152 -66.6141 -66.6052
   -66.6011 -66.5953 -66.5953 -66.5952 -66.5952 -66.5952 -66.5951 -66.5951
   -66.5951 -66.5951 -66.5950 -66.5948 -66.5948 -66.5940 -66.5939 -66.5939
   -66.5939 -66.5939 -66.5939 -66.5939 -66.5900 -66.5879 -66.5841 -66.5788
   -66.5742 -66.5739 -66.5738 -66.5738 -66.5738 -66.5738 -66.5737 -66.5737
   -66.5737 -66.5737 -66.5737 -66.5737 -66.5737 -66.5737 -66.5736 -66.5735
   -66.5734 -66.5732 -66.5725 -66.5725 -66.5725 -66.5725 -66.5725 -66.5725
   -66.5725 -66.5725 -66.5725 -66.5681 -66.5611 -66.5561 -66.5448 -66.5330
   -66.5300 -66.5233 -57.4618 -57.4269 -57.2079 -54.9667 -54.9384 -54.6691
   -53.2452 -53.1333 -52.7772 -40.9442 -40.9438 -40.9438 -40.9438 -40.9438
   -40.9436 -40.9435 -40.9433 -40.9433 -40.9433 -40.9405 -40.9359 -40.8740
   -40.8699 -40.8686 -40.8685 -40.8685 -40.8685 -40.8685 -40.8685 -40.8685
   -40.8685 -40.8684 -40.8683 -40.8682 -40.8681 -40.8679 -40.8679 -40.8679
   -40.8679 -40.8679 -40.8679 -40.8594 -40.8541 -40.8454 -40.8341 -40.8051
   -40.7760 -40.7759 -40.7755 -40.7729 -40.7627 -40.7531 -40.7513 -40.7478
   -40.7423 -40.7422 -40.7422 -40.7422 -40.7421 -40.7421 -40.7421 -40.7421
   -40.7421 -40.7420 -40.7420 -40.7418 -40.7418 -40.7414 -40.7414 -40.7414
   -40.7414 -40.7414 -40.7414 -40.7402 -40.7364 -40.7345 -40.7344 -40.7344
   -40.7343 -40.7343 -40.7343 -40.7343 -40.7343 -40.7343 -40.7342 -40.7341
   -40.7340 -40.7337 -40.7337 -40.7337 -40.7337 -40.7337 -40.7337 -40.7318
   -40.7285 -40.7229 -40.7215 -40.7167 -40.7116 -40.7090 -40.7073 -40.7072
   -40.7071 -40.7071 -40.7071 -40.7071 -40.7071 -40.7071 -40.7071 -40.7070
   -40.7069 -40.7068 -40.7068 -40.7064 -40.7064 -40.7063 -40.7063 -40.7063
   -40.7063 -40.7027 -40.7018 -40.6946 -40.6927 -40.6925 -40.6925 -40.6924
   -40.6923 -40.6923 -40.6923 -40.6923 -40.6923 -40.6923 -40.6923 -40.6923
   -40.6922 -40.6922 -40.6922 -40.6921 -40.6921 -40.6919 -40.6917 -40.6917
   -40.6917 -40.6917 -40.6917 -40.6917 -40.6916 -40.6916 -40.6916 -40.6903
   -40.6902 -40.6855 -40.6823 -40.6744 -40.6723 -40.6680 -40.6622 -40.6288
   -40.6288 -40.6288 -40.6288 -40.6286 -40.6285 -40.6279 -40.6279 -40.6279
   -40.6247 -40.6185 -40.6115 -40.5818 -40.5817 -40.5817 -40.5817 -40.5817
   -40.5817 -40.5817 -40.5817 -40.5816 -40.5814 -40.5813 -40.5812 -40.5808
   -40.5808 -40.5808 -40.5808 -40.5808 -40.5808 -40.5769 -40.5751 -40.5646
   -40.5599 -40.5523 -40.5500 -40.5341 -40.5340 -40.5339 -40.5339 -40.5331
   -40.5331 -40.5110 -40.4969 -20.2091 -20.0934 -19.9929 -19.8843 -19.6829
   -19.3176 -19.2837 -19.2483 -19.2457 -19.2395 -19.2294 -19.2228 -19.2188
   -19.1985 -19.1936 -19.1787 -19.1440 -19.1322 -19.1286 -19.1144 -19.1098
   -19.0940 -19.0392 -19.0321 -19.0308 -19.0264 -19.0244 -19.0178 -18.9031
   -18.8100 -18.7563 -18.6222 -18.5552 -18.5511 -18.5042 -18.4964 -18.4732
   -18.4630 -18.4420 -18.4212 -18.4117 -18.4026 -18.3893 -18.3582 -18.3317
   -18.3175 -18.2788 -18.2772 -18.2695 -18.2461 -18.2371 -18.2348 -18.1817
   -18.1774 -18.1755 -18.1681 -18.1676 -18.1661 -18.1281 -18.1175 -18.1144
   -18.1134 -18.1113 -18.1109 -18.1088 -18.0947 -18.0858 -18.0825 -18.0779
   -18.0755 -18.0730 -18.0684 -18.0679 -18.0665 -18.0566 -18.0454 -18.0434
   -18.0423 -18.0393 -18.0356 -18.0267 -18.0224 -18.0197 -18.0094 -18.0027
   -17.9971 -17.9966 -17.9925 -17.9908 -17.9812 -17.9792 -17.9774 -17.9501
   -17.9421 -17.9386 -17.9284 -17.9149 -17.9143 -17.9104 -17.9090 -17.9080
   -17.8901 -17.8866 -17.8839 -17.8756 -17.8693 -17.8643 -17.8615 -17.8603
   -17.8584 -17.8522 -17.8499 -17.8488 -17.8335 -17.8330 -17.8325 -17.8236
   -17.8212 -17.8183 -17.8156 -17.8151 -17.8127 -17.7897 -17.7894 -17.7883
   -17.7877 -17.7872 -17.7865 -12.2635 -12.0625 -11.9575 -11.8897 -11.8183
   -11.7922 -11.7802 -11.7770 -11.6792 -11.6711 -11.6599 -11.5920 -11.5548
   -11.5467 -11.5415 -11.4335 -11.3643 -11.3511 -11.2749 -11.2379 -11.2306
   -11.2287 -11.2284 -11.2227 -11.1973 -11.1775 -11.1570 -11.1268 -11.1233
   -11.1219 -11.1199 -11.1167 -11.1129 -11.0846 -11.0713 -11.0639 -11.0629
   -11.0546 -11.0530 -11.0489 -11.0445 -11.0402 -11.0378 -11.0250 -11.0185
   -10.9981 -10.9779 -10.9627 -10.9569 -10.9413 -10.9355 -10.9302 -10.9165
   -10.9022 -10.8938 -10.8859 -10.8805 -10.8790 -10.8719 -10.8564 -10.8435
   -10.8417 -10.8364 -10.8340 -10.8260 -10.8249 -10.8235 -10.8216 -10.8204
   -10.8167 -10.8074 -10.8015 -10.8002 -10.7995 -10.7969 -10.7946 -10.7734
   -10.7733 -10.7709 -10.7689 -10.7674 -10.7629 -10.7610 -10.7506 -10.7475
   -10.7302 -10.7299 -10.7294 -10.7288 -10.7264 -10.7253 -10.6718 -10.6572
   -10.6504 -10.6223 -10.5919 -10.5886 -10.5795 -10.5736 -10.5707 -10.5505
   -10.4644 -10.3328 -10.2317 -10.1655 -10.1412 -10.1008  -9.9653  -9.9575
    -9.9337  -9.9184  -9.8320  -9.8186  -9.8031  -9.7971  -9.7941  -9.7855
    -9.7718  -9.7673  -9.7648  -9.7623  -9.7599  -9.7566  -9.7534  -9.7507
    -9.7444  -9.7420  -9.7387  -9.7319  -9.7289  -9.7217  -9.7068  -9.6872
    -9.6697  -9.6342  -9.6284  -9.6223  -9.6211  -9.6190  -9.6171  -9.6101
    -9.6093  -9.6091  -9.6082  -9.6064  -9.6046  -9.6003  -9.5940  -9.5712
    -9.5510  -9.5340  -9.5338  -9.5336  -9.5333  -9.5331  -9.5328  -9.5296
    -9.5281  -9.5144  -9.5126  -9.4976  -9.4926  -9.4755  -9.4699  -9.4482
    -9.4409  -9.4269  -9.3613  -9.3573  -9.3548  -9.3502  -9.3449  -9.3394
    -9.3266  -9.3236  -9.3190  -9.3057  -9.3017  -9.2947  -9.2566  -9.2522
    -9.2441  -9.2302  -9.2181  -9.2105  -9.1964  -9.1905  -9.1802  -9.1748
    -9.1725  -9.1710  -9.1698  -9.1686  -9.1343  -9.1271  -9.1149  -9.1001
    -9.0985  -9.0746  -9.0644  -9.0202  -8.9751  -8.9739  -8.9718  -8.9611
    -8.9544  -8.9483  -8.9470  -8.9403  -8.9322  -8.9251  -8.9095  -8.9093
    -8.9083  -8.9056  -8.8971  -8.8914  -8.8834  -8.8797  -8.8664  -8.8146
    -8.8137  -8.8134  -8.8131  -8.8128  -8.8124  -8.8039  -8.7580  -8.7477
    -8.7393  -8.7378  -8.7290  -8.7233  -8.6731  -8.6609  -8.6593  -8.6565
    -8.6500  -8.6445  -8.5953  -8.5915  -8.5856  -8.5850  -8.5833  -8.5815
    -8.5572  -8.5520  -8.4566  -8.4208  -8.3991  -8.3585  -8.3584  -8.3537
    -8.3533  -8.3489  -8.3472  -8.3455  -8.3403  -8.3008  -8.2744  -8.2691
    -8.2678  -8.2675  -8.2673  -8.2658  -8.2597  -8.2492  -8.2427  -8.2408
    -8.2405  -8.2382  -8.2356  -8.2288  -8.2168  -8.2128  -8.2127  -8.2117
    -8.2113  -8.2094  -8.2031  -8.0972  -8.0151  -7.9548  -7.9142  -7.8685
    -7.8516  -7.8506  -7.8441  -7.7791  -7.7710  -7.7653  -7.7082  -7.7008
    -7.6937  -7.6605  -7.6417  -7.6356  -7.6344  -7.6287  -7.6193  -7.6143
    -7.5997  -7.5978  -7.5884  -7.5762  -7.5619  -7.5543  -7.5396  -7.5356
    -7.5271  -7.5265  -7.5264  -7.5258  -7.5241  -7.5201  -7.5132  -7.5008
    -7.5000  -7.4991  -7.4983  -7.4972  -7.4940  -7.4922  -7.4757  -7.4747
    -7.4744  -7.4742  -7.4737  -7.4724  -7.4651  -7.4473  -7.4404  -7.4260
    -7.4168  -7.4160  -7.4111  -7.4026  -7.3997  -7.3940  -7.3865  -7.3738
    -7.3583  -7.3530  -7.3442  -7.3281  -7.3137  -7.3098  -7.2947  -7.2908
    -7.2871  -7.2833  -7.2817  -7.2784  -7.2706  -7.2533  -7.2429  -7.2423
    -7.2310  -7.2244  -7.2221  -7.2060  -7.2053  -7.1766  -7.1583  -7.1363
    -7.1161  -7.0895  -7.0838  -7.0733  -7.0254  -6.9554  -6.9414  -6.8881
    -6.8650  -6.8573  -6.8505  -6.8252  -6.7980  -6.7795  -6.7783  -6.7728
    -6.7611  -6.7445  -6.7260  -6.7127  -6.6929  -6.6744  -6.6679  -6.6434
    -6.6419  -6.6168  -6.6129  -6.6077  -6.6034  -6.6017  -6.5934  -6.5725
    -6.5600  -6.5560  -6.5415  -6.5388  -6.5289  -6.5126  -6.5078  -6.5061
    -6.5045  -6.5029  -6.5003  -6.4993  -6.4987  -6.4963  -6.4895  -6.4894
    -6.4893  -6.4890  -6.4889  -6.4884  -6.4734  -6.4577  -6.4544  -6.4328
    -6.4243  -6.4151  -6.4014  -6.4006  -6.3958  -6.3642  -6.3510  -6.3412
    -6.3283  -6.3277  -6.3263  -6.3224  -6.3199  -6.3147  -6.2998  -6.2979
    -6.2942  -6.2832  -6.2792  -6.2763  -6.2686  -6.2644  -6.2606  -6.2460
    -6.2439  -6.2434  -6.2415  -6.2395  -6.2380  -6.2131  -6.1220  -5.9609
    -5.8797  -5.7255  -5.6288  -5.5115  -5.4032  -5.2521  -5.1705  -5.1221
    -5.0670  -5.0406  -4.5669  -3.8682  -3.8458  -3.8436  -3.8420  -3.8381
    -3.8251  -3.8215  -3.8193  -3.8181  -3.8151  -3.8135  -3.8029  -3.7375
    -3.6955  -3.6940  -3.6886  -3.6831  -3.6778  -3.6731  -3.6730  -3.6686
    -3.6668  -3.6644  -3.6018  -3.5376  -3.5123  -3.5058  -3.5007  -3.4933
    -3.4876  -3.4822  -3.4745  -3.4663  -3.4644  -3.4622  -3.4599  -3.4553
    -3.4503  -3.4484  -3.4430  -3.4390  -3.4357  -3.4343  -3.4336  -3.4324
    -3.4235  -3.4189  -3.4184  -3.4115  -3.4103  -3.4038  -3.4017  -3.4004
    -3.3959  -3.3944  -3.3928  -3.3881  -3.3801  -3.3767  -3.3678  -3.3534
    -3.3439  -3.3394  -3.3375  -3.3362  -3.3358  -3.3320  -3.3278  -3.3167
    -3.3092  -3.3029  -3.2987  -3.2806  -3.2764  -3.2712  -3.2702  -3.2673
    -3.2521  -3.2152  -3.2025  -3.1956  -3.1942  -3.1881  -3.1596  -3.0740
    -3.0568  -3.0558  -3.0548  -3.0528  -3.0499  -3.0392  -3.0376  -3.0347
    -3.0147  -2.9910  -2.9807  -2.9771  -2.9701  -2.9677  -2.9655  -2.9650
    -2.9636  -2.9631  -2.9584  -2.9542  -2.9539  -2.9479  -2.9470  -2.9442
    -2.9421  -2.9384  -2.9300  -2.9269  -2.9261  -2.9245  -2.9235  -2.9232
    -2.9227  -2.9216  -2.9167  -2.9153  -2.9132  -2.8860  -2.8811  -2.8711
    -2.8665  -2.8621  -2.8595  -2.8465  -2.8374  -2.8085  -2.7979  -2.7978
    -2.7977  -2.7975  -2.7974  -2.7972  -2.7969  -2.7965  -2.7935  -2.7783
    -2.7756  -2.7591  -2.7466  -2.7460  -2.7301  -2.7251  -2.7136  -2.7109
    -2.6983  -2.6644  -2.6578  -2.6306  -2.6302  -2.6259  -2.6180  -2.6154
    -2.6150  -2.6117  -2.6090  -2.5659  -2.5564  -2.5491  -2.5312  -2.5292
    -2.5128  -2.4515  -2.4474  -2.4388  -2.4309  -2.4287  -2.4214

          k = 0.0000-0.5773 0.0000 (386352 PWs)   bands (ev):

  -103.1755 -89.0844 -87.2630 -71.5610 -71.5560 -71.5086 -71.4650 -71.4504
   -71.4480 -71.4386 -66.6386 -66.6129 -66.6102 -66.6102 -66.6102 -66.6101
   -66.6091 -66.6090 -66.6090 -66.5996 -66.5996 -66.5995 -66.5995 -66.5984
   -66.5984 -66.5978 -66.5951 -66.5899 -66.5867 -66.5845 -66.5845 -66.5845
   -66.5844 -66.5844 -66.5844 -66.5843 -66.5843 -66.5843 -66.5832 -66.5832
   -66.5832 -66.5832 -66.5800 -66.5800 -66.5800 -66.5799 -66.5794 -66.5788
   -66.5788 -66.5738 -66.5738 -66.5737 -66.5737 -66.5737 -66.5737 -66.5736
   -66.5735 -66.5725 -66.5725 -66.5725 -66.5725 -66.5693 -66.5693 -66.5692
   -66.5692 -66.5681 -66.5681 -66.5678 -66.5614 -66.5561 -66.5446 -66.5332
   -66.5300 -66.5233 -57.4618 -57.4269 -57.2079 -54.9667 -54.9384 -54.6691
   -53.2453 -53.1333 -52.7772 -40.9245 -40.9200 -40.9122 -40.9122 -40.9122
   -40.9122 -40.9122 -40.9121 -40.9120 -40.9118 -40.9116 -40.9116 -40.9116
   -40.9116 -40.9003 -40.8958 -40.8856 -40.8854 -40.8854 -40.8853 -40.8852
   -40.8848 -40.8848 -40.8802 -40.8733 -40.8733 -40.8732 -40.8731 -40.8727
   -40.8727 -40.8588 -40.8402 -40.8226 -40.8226 -40.8226 -40.8226 -40.8225
   -40.8225 -40.8224 -40.8224 -40.8220 -40.8220 -40.8220 -40.8220 -40.8190
   -40.8105 -40.8049 -40.8010 -40.7924 -40.7695 -40.7677 -40.7639 -40.7638
   -40.7638 -40.7637 -40.7633 -40.7632 -40.7589 -40.7543 -40.7543 -40.7542
   -40.7541 -40.7536 -40.7536 -40.7437 -40.7430 -40.7430 -40.7429 -40.7429
   -40.7424 -40.7424 -40.7401 -40.7352 -40.7319 -40.7303 -40.7218 -40.7146
   -40.7134 -40.7134 -40.7133 -40.7133 -40.7133 -40.7133 -40.7132 -40.7132
   -40.7127 -40.7127 -40.7127 -40.7127 -40.7118 -40.7053 -40.7046 -40.7046
   -40.7046 -40.7045 -40.7040 -40.7040 -40.6974 -40.6929 -40.6928 -40.6928
   -40.6927 -40.6925 -40.6923 -40.6923 -40.6923 -40.6923 -40.6922 -40.6922
   -40.6921 -40.6921 -40.6921 -40.6917 -40.6917 -40.6916 -40.6916 -40.6897
   -40.6886 -40.6839 -40.6836 -40.6836 -40.6836 -40.6836 -40.6830 -40.6830
   -40.6783 -40.6754 -40.6627 -40.6619 -40.6619 -40.6619 -40.6619 -40.6619
   -40.6618 -40.6617 -40.6617 -40.6611 -40.6611 -40.6611 -40.6611 -40.6605
   -40.6549 -40.6495 -40.6442 -40.6272 -40.6272 -40.6272 -40.6272 -40.6271
   -40.6270 -40.6270 -40.6270 -40.6263 -40.6263 -40.6263 -40.6263 -40.6212
   -40.6158 -40.6150 -40.6150 -40.6150 -40.6148 -40.6142 -40.6142 -40.6089
   -40.6078 -40.6022 -40.5957 -40.5957 -40.5956 -40.5955 -40.5949 -40.5948
   -40.5843 -40.5823 -40.5787 -40.5787 -40.5786 -40.5785 -40.5778 -40.5778
   -40.5754 -40.5528 -40.5481 -40.5480 -40.5480 -40.5478 -40.5472 -40.5471
   -40.5399 -40.5372 -40.5068 -20.1051 -19.8834 -19.8608 -19.8275 -19.7653
   -19.7344 -19.6553 -19.6406 -19.5367 -19.4554 -19.4235 -19.4040 -19.3354
   -19.3130 -19.2320 -19.2172 -19.1411 -18.8650 -18.8146 -18.7694 -18.7387
   -18.7345 -18.7154 -18.7104 -18.7089 -18.6986 -18.6832 -18.6567 -18.6482
   -18.6375 -18.6291 -18.6157 -18.5894 -18.5734 -18.5656 -18.5466 -18.5431
   -18.5386 -18.5232 -18.5154 -18.5070 -18.4749 -18.4699 -18.4687 -18.4605
   -18.4292 -18.4047 -18.4011 -18.3970 -18.3695 -18.3632 -18.3529 -18.3277
   -18.3130 -18.3094 -18.2871 -18.2487 -18.2414 -18.2385 -18.2259 -18.1922
   -18.1843 -18.1730 -18.1562 -18.1273 -18.1130 -18.1089 -18.1030 -18.0949
   -18.0918 -18.0890 -18.0882 -18.0791 -18.0651 -18.0634 -18.0615 -18.0572
   -18.0559 -18.0475 -18.0448 -18.0411 -18.0343 -18.0320 -18.0204 -18.0009
   -18.0001 -17.9968 -17.9929 -17.9910 -17.9889 -17.9861 -17.9802 -17.9795
   -17.9688 -17.9406 -17.9384 -17.9288 -17.9258 -17.9231 -17.9115 -17.8847
   -17.8834 -17.8776 -17.8667 -17.8433 -17.8402 -17.8367 -17.8316 -17.8278
   -17.8158 -17.8106 -17.8104 -17.8102 -17.8092 -17.8083 -17.8070 -17.7961
   -17.7955 -17.7768 -17.7762 -17.7523 -17.7516 -17.7324 -17.7313 -17.7176
   -17.7168 -17.7106 -17.7104 -12.1803 -11.9559 -11.7534 -11.7223 -11.7015
   -11.6196 -11.5418 -11.5126 -11.4937 -11.4910 -11.4866 -11.4725 -11.4694
   -11.4628 -11.4501 -11.4074 -11.3938 -11.3784 -11.3751 -11.3706 -11.3559
   -11.3294 -11.3163 -11.3108 -11.2910 -11.2758 -11.2722 -11.2648 -11.2593
   -11.2531 -11.2507 -11.2438 -11.2413 -11.2034 -11.1952 -11.1876 -11.1849
   -11.1768 -11.1633 -11.1590 -11.1575 -11.1506 -11.1385 -11.1375 -11.1254
   -11.1110 -11.0933 -11.0744 -11.0695 -11.0567 -11.0527 -11.0187 -10.9847
   -10.9809 -10.9463 -10.9400 -10.9234 -10.9089 -10.9017 -10.8982 -10.8847
   -10.8530 -10.8504 -10.8299 -10.8264 -10.8217 -10.8131 -10.8057 -10.8025
   -10.8022 -10.8005 -10.8001 -10.7937 -10.7914 -10.7869 -10.7866 -10.7833
   -10.7827 -10.7762 -10.7753 -10.7721 -10.7698 -10.7366 -10.7349 -10.7339
   -10.7337 -10.7077 -10.6211 -10.5541 -10.5355 -10.5228 -10.5185 -10.5008
   -10.4763 -10.4233 -10.3946 -10.3363 -10.3332 -10.2500 -10.2397 -10.1573
   -10.1499 -10.1270 -10.1235 -10.1048 -10.1004 -10.0843 -10.0785 -10.0462
   -10.0428 -10.0266 -10.0251 -10.0246 -10.0198 -10.0098 -10.0052  -9.9811
    -9.9692  -9.9279  -9.9233  -9.9196  -9.9093  -9.9018  -9.8908  -9.8830
    -9.8808  -9.8596  -9.8541  -9.8414  -9.8352  -9.8061  -9.7907  -9.7788
    -9.7716  -9.7600  -9.7555  -9.7320  -9.7309  -9.7071  -9.6949  -9.6784
    -9.6749  -9.6518  -9.6493  -9.6251  -9.6104  -9.6096  -9.5976  -9.5918
    -9.5642  -9.5582  -9.5549  -9.5372  -9.5279  -9.5268  -9.5202  -9.4900
    -9.4837  -9.4794  -9.4675  -9.4653  -9.4608  -9.4563  -9.4503  -9.4456
    -9.4404  -9.4257  -9.4179  -9.4003  -9.3839  -9.3518  -9.3449  -9.2905
    -9.2852  -9.2655  -9.2204  -9.2090  -9.2022  -9.1978  -9.1939  -9.1827
    -9.1640  -9.1505  -9.1472  -9.1311  -9.1264  -9.1179  -9.1032  -9.0797
    -9.0659  -9.0525  -9.0426  -9.0338  -9.0328  -9.0249  -9.0209  -8.9960
    -8.9846  -8.9743  -8.9649  -8.9489  -8.9419  -8.9394  -8.9350  -8.9210
    -8.9179  -8.8947  -8.8826  -8.8817  -8.8792  -8.8780  -8.8763  -8.8685
    -8.8637  -8.8601  -8.8584  -8.8568  -8.8505  -8.8493  -8.8453  -8.8419
    -8.8310  -8.8306  -8.8238  -8.8120  -8.8038  -8.7839  -8.7829  -8.7822
    -8.7805  -8.7764  -8.7751  -8.7573  -8.7534  -8.7518  -8.7311  -8.7242
    -8.7221  -8.7197  -8.7096  -8.6937  -8.6526  -8.6488  -8.6386  -8.6153
    -8.5919  -8.5178  -8.4977  -8.4944  -8.4680  -8.4386  -8.4242  -8.4118
    -8.3695  -8.3496  -8.3358  -8.2804  -8.2781  -8.2290  -8.1773  -8.1266
    -8.1185  -8.1184  -8.1100  -8.1093  -8.1013  -8.0981  -8.0960  -8.0604
    -8.0469  -8.0345  -7.9747  -7.9609  -7.9498  -7.9184  -7.8811  -7.8489
    -7.8411  -7.8347  -7.8332  -7.8232  -7.8144  -7.8100  -7.8070  -7.7986
    -7.7950  -7.7931  -7.7880  -7.7874  -7.7856  -7.7799  -7.7745  -7.7722
    -7.7697  -7.7670  -7.7602  -7.7595  -7.7565  -7.7560  -7.7543  -7.7529
    -7.7492  -7.7489  -7.7429  -7.7337  -7.7295  -7.7222  -7.7205  -7.7162
    -7.7123  -7.6929  -7.6884  -7.6877  -7.6871  -7.6846  -7.6588  -7.6575
    -7.6573  -7.6567  -7.6539  -7.6500  -7.6410  -7.6326  -7.6176  -7.6096
    -7.6039  -7.5993  -7.5982  -7.5945  -7.5894  -7.5847  -7.5758  -7.5746
    -7.5565  -7.5550  -7.5539  -7.5470  -7.5438  -7.5402  -7.5315  -7.4884
    -7.4566  -7.4520  -7.4492  -7.4448  -7.4116  -7.4049  -7.3852  -7.3176
    -7.2814  -7.2189  -7.1920  -7.1714  -7.1607  -7.1573  -7.1528  -7.1419
    -7.1194  -7.1080  -7.0962  -7.0919  -7.0787  -7.0710  -7.0479  -7.0341
    -7.0212  -7.0154  -7.0077  -6.9899  -6.9893  -6.9678  -6.9642  -6.9612
    -6.9349  -6.9081  -6.9060  -6.8954  -6.8836  -6.8746  -6.8610  -6.8518
    -6.8485  -6.8311  -6.8260  -6.7964  -6.7770  -6.7623  -6.7550  -6.7392
    -6.7260  -6.6904  -6.6793  -6.6624  -6.6378  -6.6181  -6.6144  -6.6062
    -6.5981  -6.5963  -6.5950  -6.5934  -6.5843  -6.5786  -6.5779  -6.5771
    -6.5747  -6.5698  -6.5698  -6.5695  -6.5692  -6.5465  -6.5247  -6.4793
    -6.4755  -6.4325  -6.4059  -6.3778  -6.3545  -6.3192  -6.3174  -6.3152
    -6.3046  -6.2980  -6.2819  -6.2725  -6.2689  -6.2678  -6.2673  -6.2641
    -6.2632  -6.2564  -6.2438  -6.2346  -6.2219  -6.2212  -6.2102  -6.1954
    -6.1928  -6.1888  -6.1876  -6.1556  -6.0716  -5.9892  -5.9810  -5.9536
    -5.9249  -5.9198  -5.8822  -5.8731  -5.8564  -5.8505  -5.8330  -5.8229
    -5.7016  -5.6794  -5.6077  -5.5863  -5.5632  -5.4609  -5.2567  -5.1349
    -5.0717  -5.0389  -4.5701  -4.0839  -4.0821  -4.0801  -4.0614  -3.9359
    -3.9214  -3.9118  -3.9106  -3.9067  -3.8628  -3.8349  -3.8322  -3.8224
    -3.8177  -3.8041  -3.8015  -3.7893  -3.7886  -3.7838  -3.7450  -3.7008
    -3.6802  -3.6782  -3.6316  -3.6067  -3.5939  -3.5905  -3.5891  -3.5877
    -3.5537  -3.5451  -3.5401  -3.5300  -3.5194  -3.5128  -3.5078  -3.5036
    -3.4997  -3.4851  -3.4749  -3.4738  -3.4668  -3.4632  -3.4614  -3.4571
    -3.4456  -3.4389  -3.4346  -3.4249  -3.4173  -3.4096  -3.4066  -3.3979
    -3.3816  -3.3567  -3.3478  -3.3396  -3.3390  -3.3361  -3.3342  -3.3322
    -3.3269  -3.3034  -3.2977  -3.2879  -3.2847  -3.2764  -3.2734  -3.2694
    -3.2680  -3.2650  -3.2626  -3.2445  -3.2414  -3.2350  -3.2277  -3.2237
    -3.2196  -3.2143  -3.2068  -3.2010  -3.1991  -3.1947  -3.1857  -3.1816
    -3.1732  -3.1643  -3.1623  -3.1583  -3.1513  -3.1513  -3.1497  -3.1389
    -3.1236  -3.0979  -3.0862  -3.0815  -3.0627  -3.0575  -3.0557  -3.0497
    -3.0390  -3.0177  -3.0151  -3.0121  -3.0120  -3.0118  -3.0094  -3.0044
    -3.0035  -2.9990  -2.9955  -2.9924  -2.9842  -2.9810  -2.9782  -2.9712
    -2.9684  -2.9665  -2.9615  -2.9589  -2.9513  -2.9496  -2.9431  -2.9382
    -2.9363  -2.9343  -2.9324  -2.9228  -2.9207  -2.9165  -2.8980  -2.8883
    -2.8803  -2.8777  -2.8758  -2.8686  -2.8652  -2.8540  -2.8408  -2.7873
    -2.7817  -2.7799  -2.7768  -2.7297  -2.7135  -2.7096  -2.6971  -2.6081
    -2.6018  -2.5758  -2.5676  -2.5456  -2.5433  -2.5412  -2.5326  -2.5221
    -2.5209  -2.5174  -2.5143  -2.5127  -2.5059  -2.4098  -2.3966  -2.3934
    -2.3850  -2.3838  -2.3759  -2.3658  -2.3591  -2.3326  -2.3322

          k =-0.5000-0.2887 0.0000 (386352 PWs)   bands (ev):

  -103.1755 -89.0844 -87.2630 -71.5610 -71.5560 -71.5086 -71.4650 -71.4504
   -71.4480 -71.4386 -66.6386 -66.6132 -66.6102 -66.6102 -66.6102 -66.6101
   -66.6094 -66.6090 -66.6090 -66.5996 -66.5996 -66.5995 -66.5995 -66.5984
   -66.5984 -66.5968 -66.5952 -66.5886 -66.5869 -66.5856 -66.5845 -66.5845
   -66.5845 -66.5845 -66.5844 -66.5844 -66.5844 -66.5843 -66.5832 -66.5832
   -66.5832 -66.5832 -66.5800 -66.5800 -66.5800 -66.5799 -66.5797 -66.5788
   -66.5788 -66.5738 -66.5738 -66.5737 -66.5737 -66.5737 -66.5737 -66.5736
   -66.5736 -66.5725 -66.5725 -66.5725 -66.5725 -66.5693 -66.5693 -66.5692
   -66.5692 -66.5681 -66.5681 -66.5678 -66.5613 -66.5561 -66.5444 -66.5335
   -66.5299 -66.5232 -57.4618 -57.4269 -57.2079 -54.9667 -54.9384 -54.6691
   -53.2453 -53.1333 -52.7772 -40.9150 -40.9122 -40.9122 -40.9122 -40.9122
   -40.9121 -40.9120 -40.9120 -40.9119 -40.9116 -40.9116 -40.9116 -40.9116
   -40.9099 -40.9089 -40.9016 -40.8980 -40.8854 -40.8854 -40.8852 -40.8852
   -40.8848 -40.8848 -40.8815 -40.8733 -40.8733 -40.8731 -40.8731 -40.8727
   -40.8727 -40.8611 -40.8373 -40.8226 -40.8226 -40.8226 -40.8226 -40.8225
   -40.8225 -40.8224 -40.8224 -40.8220 -40.8220 -40.8220 -40.8220 -40.8159
   -40.8126 -40.7993 -40.7991 -40.7863 -40.7764 -40.7638 -40.7638 -40.7638
   -40.7637 -40.7633 -40.7633 -40.7612 -40.7558 -40.7544 -40.7543 -40.7543
   -40.7541 -40.7536 -40.7536 -40.7481 -40.7430 -40.7430 -40.7429 -40.7429
   -40.7424 -40.7424 -40.7402 -40.7356 -40.7331 -40.7274 -40.7232 -40.7172
   -40.7134 -40.7134 -40.7133 -40.7133 -40.7133 -40.7133 -40.7133 -40.7132
   -40.7127 -40.7127 -40.7127 -40.7127 -40.7112 -40.7046 -40.7046 -40.7046
   -40.7046 -40.7040 -40.7040 -40.7038 -40.6950 -40.6929 -40.6928 -40.6928
   -40.6927 -40.6923 -40.6923 -40.6923 -40.6923 -40.6923 -40.6923 -40.6922
   -40.6922 -40.6921 -40.6921 -40.6917 -40.6917 -40.6917 -40.6917 -40.6913
   -40.6850 -40.6836 -40.6836 -40.6836 -40.6836 -40.6833 -40.6830 -40.6830
   -40.6804 -40.6762 -40.6643 -40.6619 -40.6619 -40.6619 -40.6619 -40.6619
   -40.6618 -40.6618 -40.6617 -40.6617 -40.6611 -40.6611 -40.6611 -40.6611
   -40.6592 -40.6500 -40.6457 -40.6272 -40.6272 -40.6272 -40.6272 -40.6271
   -40.6270 -40.6270 -40.6270 -40.6265 -40.6263 -40.6263 -40.6263 -40.6263
   -40.6223 -40.6150 -40.6150 -40.6149 -40.6149 -40.6142 -40.6142 -40.6103
   -40.5977 -40.5965 -40.5957 -40.5957 -40.5957 -40.5954 -40.5949 -40.5949
   -40.5885 -40.5855 -40.5787 -40.5787 -40.5786 -40.5785 -40.5778 -40.5778
   -40.5696 -40.5571 -40.5481 -40.5480 -40.5480 -40.5479 -40.5471 -40.5471
   -40.5332 -40.5237 -40.5211 -20.1067 -19.8817 -19.8608 -19.8249 -19.7651
   -19.7324 -19.6551 -19.6400 -19.5431 -19.4581 -19.4237 -19.4057 -19.3355
   -19.3140 -19.2317 -19.2176 -19.1353 -18.8436 -18.8299 -18.7714 -18.7460
   -18.7317 -18.7154 -18.7102 -18.7092 -18.7025 -18.6784 -18.6562 -18.6474
   -18.6397 -18.6273 -18.6148 -18.5889 -18.5732 -18.5662 -18.5457 -18.5452
   -18.5379 -18.5223 -18.5148 -18.5077 -18.4768 -18.4696 -18.4686 -18.4606
   -18.4292 -18.4042 -18.4005 -18.3975 -18.3754 -18.3704 -18.3458 -18.3268
   -18.3143 -18.3105 -18.2766 -18.2503 -18.2445 -18.2384 -18.2235 -18.1923
   -18.1825 -18.1751 -18.1540 -18.1288 -18.1130 -18.1098 -18.1034 -18.0937
   -18.0922 -18.0891 -18.0876 -18.0790 -18.0649 -18.0643 -18.0609 -18.0582
   -18.0572 -18.0489 -18.0446 -18.0408 -18.0338 -18.0311 -18.0217 -18.0020
   -18.0004 -17.9969 -17.9928 -17.9912 -17.9892 -17.9860 -17.9808 -17.9799
   -17.9700 -17.9412 -17.9398 -17.9293 -17.9264 -17.9211 -17.9127 -17.8846
   -17.8831 -17.8757 -17.8676 -17.8438 -17.8394 -17.8364 -17.8306 -17.8254
   -17.8150 -17.8107 -17.8100 -17.8098 -17.8090 -17.8078 -17.8070 -17.7950
   -17.7942 -17.7759 -17.7742 -17.7528 -17.7511 -17.7347 -17.7326 -17.7191
   -17.7182 -17.7106 -17.7105 -12.1938 -11.9391 -11.7388 -11.7097 -11.7072
   -11.6292 -11.5507 -11.5093 -11.4971 -11.4889 -11.4870 -11.4773 -11.4669
   -11.4607 -11.4418 -11.4181 -11.3996 -11.3815 -11.3696 -11.3617 -11.3531
   -11.3308 -11.3200 -11.3098 -11.2967 -11.2763 -11.2729 -11.2619 -11.2582
   -11.2529 -11.2504 -11.2446 -11.2406 -11.2042 -11.1971 -11.1887 -11.1855
   -11.1696 -11.1637 -11.1588 -11.1580 -11.1484 -11.1384 -11.1377 -11.1288
   -11.1138 -11.0967 -11.0750 -11.0625 -11.0588 -11.0525 -11.0246 -11.0022
   -10.9575 -10.9422 -10.9317 -10.9279 -10.9185 -10.9002 -10.8916 -10.8816
   -10.8706 -10.8565 -10.8290 -10.8274 -10.8229 -10.8175 -10.8074 -10.8028
   -10.8019 -10.8013 -10.8005 -10.7983 -10.7904 -10.7873 -10.7858 -10.7834
   -10.7828 -10.7751 -10.7742 -10.7722 -10.7710 -10.7359 -10.7344 -10.7341
   -10.7338 -10.7004 -10.6511 -10.5361 -10.5310 -10.5207 -10.5162 -10.4857
   -10.4641 -10.4097 -10.3823 -10.3741 -10.3508 -10.2556 -10.2452 -10.1595
   -10.1459 -10.1250 -10.1212 -10.1019 -10.0986 -10.0830 -10.0724 -10.0470
   -10.0414 -10.0275 -10.0231 -10.0208 -10.0195 -10.0103 -10.0033  -9.9824
    -9.9651  -9.9322  -9.9226  -9.9174  -9.9033  -9.8997  -9.8890  -9.8835
    -9.8799  -9.8665  -9.8544  -9.8483  -9.8322  -9.8103  -9.7924  -9.7784
    -9.7720  -9.7585  -9.7564  -9.7303  -9.7283  -9.7175  -9.6908  -9.6813
    -9.6738  -9.6506  -9.6454  -9.6197  -9.6132  -9.6085  -9.5978  -9.5912
    -9.5668  -9.5578  -9.5421  -9.5354  -9.5310  -9.5259  -9.5125  -9.4886
    -9.4831  -9.4794  -9.4662  -9.4649  -9.4600  -9.4579  -9.4510  -9.4458
    -9.4370  -9.4250  -9.4148  -9.3992  -9.3805  -9.3568  -9.3436  -9.2924
    -9.2838  -9.2544  -9.2397  -9.2129  -9.2083  -9.1971  -9.1932  -9.1842
    -9.1586  -9.1524  -9.1428  -9.1325  -9.1227  -9.1099  -9.1002  -9.0911
    -9.0795  -9.0538  -9.0406  -9.0338  -9.0326  -9.0248  -9.0215  -9.0018
    -8.9867  -8.9712  -8.9689  -8.9478  -8.9421  -8.9363  -8.9347  -8.9224
    -8.9141  -8.8921  -8.8836  -8.8826  -8.8807  -8.8776  -8.8751  -8.8698
    -8.8615  -8.8602  -8.8575  -8.8550  -8.8518  -8.8482  -8.8455  -8.8413
    -8.8310  -8.8307  -8.8280  -8.8102  -8.8014  -8.7840  -8.7836  -8.7822
    -8.7807  -8.7771  -8.7750  -8.7594  -8.7536  -8.7517  -8.7270  -8.7243
    -8.7219  -8.7192  -8.7104  -8.6919  -8.6570  -8.6460  -8.6398  -8.6234
    -8.5935  -8.5132  -8.5043  -8.4952  -8.4888  -8.4418  -8.4312  -8.4014
    -8.3565  -8.3505  -8.3279  -8.2886  -8.2735  -8.2144  -8.1828  -8.1336
    -8.1185  -8.1183  -8.1094  -8.1088  -8.0982  -8.0979  -8.0864  -8.0641
    -8.0522  -8.0415  -7.9882  -7.9592  -7.9542  -7.8981  -7.8789  -7.8509
    -7.8454  -7.8326  -7.8310  -7.8214  -7.8138  -7.8057  -7.8032  -7.7994
    -7.7946  -7.7931  -7.7908  -7.7884  -7.7839  -7.7803  -7.7737  -7.7722
    -7.7691  -7.7677  -7.7603  -7.7593  -7.7563  -7.7556  -7.7541  -7.7526
    -7.7492  -7.7488  -7.7430  -7.7325  -7.7274  -7.7218  -7.7203  -7.7167
    -7.7150  -7.6922  -7.6879  -7.6874  -7.6869  -7.6854  -7.6601  -7.6583
    -7.6575  -7.6561  -7.6545  -7.6515  -7.6394  -7.6330  -7.6174  -7.6065
    -7.6031  -7.5991  -7.5983  -7.5917  -7.5885  -7.5832  -7.5759  -7.5744
    -7.5576  -7.5549  -7.5543  -7.5482  -7.5464  -7.5393  -7.5264  -7.4850
    -7.4556  -7.4513  -7.4498  -7.4465  -7.4126  -7.4070  -7.3725  -7.3232
    -7.2863  -7.2255  -7.1915  -7.1689  -7.1621  -7.1597  -7.1564  -7.1375
    -7.1183  -7.1102  -7.0992  -7.0928  -7.0835  -7.0726  -7.0482  -7.0425
    -7.0251  -7.0158  -7.0097  -6.9966  -6.9904  -6.9682  -6.9676  -6.9582
    -6.9456  -6.9072  -6.9062  -6.8930  -6.8835  -6.8747  -6.8628  -6.8516
    -6.8496  -6.8277  -6.8180  -6.8001  -6.7747  -6.7627  -6.7449  -6.7401
    -6.7133  -6.6844  -6.6741  -6.6557  -6.6391  -6.6219  -6.6145  -6.6064
    -6.5977  -6.5961  -6.5953  -6.5936  -6.5807  -6.5785  -6.5780  -6.5771
    -6.5705  -6.5698  -6.5697  -6.5696  -6.5643  -6.5426  -6.5144  -6.4847
    -6.4785  -6.4599  -6.4070  -6.3913  -6.3394  -6.3178  -6.3167  -6.3161
    -6.3033  -6.2968  -6.2844  -6.2693  -6.2688  -6.2681  -6.2665  -6.2640
    -6.2630  -6.2534  -6.2440  -6.2357  -6.2270  -6.2188  -6.2125  -6.1950
    -6.1934  -6.1888  -6.1875  -6.1458  -6.0793  -5.9881  -5.9805  -5.9462
    -5.9262  -5.9165  -5.8837  -5.8677  -5.8621  -5.8549  -5.8326  -5.8270
    -5.7057  -5.6824  -5.6065  -5.5870  -5.5575  -5.4609  -5.2576  -5.1421
    -5.0693  -5.0375  -4.5647  -4.0838  -4.0837  -4.0749  -4.0624  -3.9343
    -3.9197  -3.9160  -3.9120  -3.8990  -3.8654  -3.8387  -3.8320  -3.8241
    -3.8167  -3.8046  -3.8003  -3.7898  -3.7883  -3.7877  -3.7492  -3.7027
    -3.6802  -3.6755  -3.6414  -3.6055  -3.5939  -3.5919  -3.5891  -3.5873
    -3.5595  -3.5471  -3.5396  -3.5288  -3.5181  -3.5136  -3.5110  -3.5035
    -3.4990  -3.4870  -3.4770  -3.4728  -3.4657  -3.4638  -3.4623  -3.4538
    -3.4502  -3.4393  -3.4306  -3.4271  -3.4176  -3.4083  -3.4056  -3.3969
    -3.3826  -3.3597  -3.3466  -3.3403  -3.3370  -3.3350  -3.3332  -3.3328
    -3.3283  -3.2994  -3.2977  -3.2904  -3.2804  -3.2764  -3.2729  -3.2696
    -3.2687  -3.2658  -3.2620  -3.2447  -3.2381  -3.2322  -3.2307  -3.2226
    -3.2202  -3.2122  -3.2032  -3.2008  -3.1990  -3.1914  -3.1878  -3.1815
    -3.1708  -3.1682  -3.1630  -3.1584  -3.1516  -3.1513  -3.1510  -3.1397
    -3.1085  -3.0948  -3.0868  -3.0838  -3.0633  -3.0577  -3.0550  -3.0490
    -3.0381  -3.0152  -3.0136  -3.0127  -3.0122  -3.0108  -3.0104  -3.0037
    -3.0006  -2.9998  -2.9984  -2.9942  -2.9864  -2.9808  -2.9800  -2.9700
    -2.9693  -2.9659  -2.9611  -2.9583  -2.9551  -2.9505  -2.9439  -2.9381
    -2.9364  -2.9331  -2.9311  -2.9223  -2.9205  -2.9135  -2.9006  -2.8878
    -2.8833  -2.8772  -2.8711  -2.8676  -2.8637  -2.8583  -2.8490  -2.7872
    -2.7813  -2.7800  -2.7759  -2.7398  -2.7170  -2.7083  -2.6931  -2.6135
    -2.5993  -2.5819  -2.5730  -2.5652  -2.5541  -2.5463  -2.5364  -2.5304
    -2.5202  -2.5170  -2.5158  -2.5117  -2.5058  -2.4115  -2.3964  -2.3942
    -2.3873  -2.3803  -2.3746  -2.3680  -2.3604  -2.3325  -2.3316

          k =-0.5000-0.8660 0.0000 (386352 PWs)   bands (ev):

  -103.1755 -89.0844 -87.2630 -71.5610 -71.5560 -71.5086 -71.4650 -71.4503
   -71.4480 -71.4386 -66.6386 -66.6131 -66.6103 -66.6102 -66.6102 -66.6100
   -66.6090 -66.6090 -66.6074 -66.6015 -66.5996 -66.5996 -66.5995 -66.5995
   -66.5984 -66.5984 -66.5934 -66.5890 -66.5870 -66.5847 -66.5846 -66.5845
   -66.5845 -66.5845 -66.5844 -66.5842 -66.5841 -66.5838 -66.5832 -66.5832
   -66.5832 -66.5832 -66.5801 -66.5800 -66.5800 -66.5800 -66.5798 -66.5788
   -66.5788 -66.5742 -66.5738 -66.5738 -66.5737 -66.5737 -66.5737 -66.5736
   -66.5732 -66.5725 -66.5725 -66.5725 -66.5725 -66.5693 -66.5693 -66.5693
   -66.5692 -66.5681 -66.5681 -66.5677 -66.5615 -66.5561 -66.5447 -66.5332
   -66.5299 -66.5233 -57.4618 -57.4269 -57.2079 -54.9667 -54.9384 -54.6691
   -53.2452 -53.1333 -52.7773 -40.9274 -40.9244 -40.9123 -40.9122 -40.9122
   -40.9122 -40.9122 -40.9121 -40.9120 -40.9116 -40.9116 -40.9116 -40.9116
   -40.9116 -40.8981 -40.8907 -40.8854 -40.8854 -40.8853 -40.8851 -40.8848
   -40.8848 -40.8767 -40.8733 -40.8733 -40.8732 -40.8731 -40.8727 -40.8727
   -40.8687 -40.8662 -40.8528 -40.8226 -40.8226 -40.8226 -40.8226 -40.8225
   -40.8225 -40.8224 -40.8224 -40.8220 -40.8220 -40.8220 -40.8220 -40.8204
   -40.8130 -40.8070 -40.8001 -40.7932 -40.7754 -40.7639 -40.7638 -40.7638
   -40.7638 -40.7637 -40.7633 -40.7633 -40.7543 -40.7543 -40.7542 -40.7541
   -40.7536 -40.7536 -40.7516 -40.7479 -40.7430 -40.7430 -40.7429 -40.7429
   -40.7427 -40.7424 -40.7424 -40.7373 -40.7276 -40.7267 -40.7234 -40.7163
   -40.7135 -40.7135 -40.7133 -40.7133 -40.7133 -40.7133 -40.7131 -40.7131
   -40.7127 -40.7127 -40.7127 -40.7127 -40.7082 -40.7047 -40.7046 -40.7046
   -40.7044 -40.7040 -40.7040 -40.7035 -40.6981 -40.6929 -40.6929 -40.6927
   -40.6927 -40.6927 -40.6923 -40.6923 -40.6923 -40.6923 -40.6923 -40.6922
   -40.6921 -40.6921 -40.6919 -40.6917 -40.6917 -40.6917 -40.6916 -40.6916
   -40.6862 -40.6836 -40.6836 -40.6836 -40.6836 -40.6833 -40.6830 -40.6830
   -40.6781 -40.6751 -40.6639 -40.6625 -40.6622 -40.6619 -40.6619 -40.6619
   -40.6619 -40.6619 -40.6616 -40.6614 -40.6611 -40.6611 -40.6611 -40.6611
   -40.6611 -40.6409 -40.6358 -40.6272 -40.6272 -40.6272 -40.6272 -40.6271
   -40.6270 -40.6270 -40.6270 -40.6263 -40.6263 -40.6263 -40.6263 -40.6230
   -40.6184 -40.6150 -40.6150 -40.6150 -40.6147 -40.6142 -40.6142 -40.6126
   -40.6036 -40.6005 -40.5959 -40.5957 -40.5957 -40.5953 -40.5949 -40.5948
   -40.5857 -40.5815 -40.5787 -40.5787 -40.5786 -40.5785 -40.5778 -40.5778
   -40.5764 -40.5590 -40.5481 -40.5481 -40.5480 -40.5477 -40.5472 -40.5471
   -40.5470 -40.5350 -40.5012 -20.1092 -19.8797 -19.8607 -19.8207 -19.7648
   -19.7287 -19.6551 -19.6387 -19.5477 -19.4653 -19.4238 -19.4091 -19.3356
   -19.3164 -19.2313 -19.2184 -19.1304 -18.8381 -18.8114 -18.7799 -18.7520
   -18.7311 -18.7153 -18.7101 -18.7091 -18.6980 -18.6921 -18.6547 -18.6463
   -18.6378 -18.6311 -18.6162 -18.5769 -18.5750 -18.5627 -18.5452 -18.5401
   -18.5388 -18.5368 -18.5135 -18.4883 -18.4797 -18.4774 -18.4690 -18.4589
   -18.4279 -18.4042 -18.4023 -18.3930 -18.3878 -18.3655 -18.3503 -18.3232
   -18.3113 -18.3090 -18.3039 -18.2544 -18.2375 -18.2293 -18.2237 -18.1990
   -18.1829 -18.1644 -18.1578 -18.1420 -18.1163 -18.1047 -18.1015 -18.0942
   -18.0925 -18.0899 -18.0876 -18.0690 -18.0658 -18.0650 -18.0630 -18.0588
   -18.0562 -18.0532 -18.0409 -18.0390 -18.0330 -18.0285 -18.0235 -18.0039
   -17.9982 -17.9947 -17.9919 -17.9916 -17.9886 -17.9851 -17.9807 -17.9788
   -17.9687 -17.9468 -17.9294 -17.9279 -17.9249 -17.9191 -17.9127 -17.8867
   -17.8794 -17.8732 -17.8691 -17.8438 -17.8412 -17.8340 -17.8320 -17.8269
   -17.8231 -17.8114 -17.8100 -17.8096 -17.8090 -17.8088 -17.8080 -17.7964
   -17.7946 -17.7775 -17.7745 -17.7531 -17.7509 -17.7339 -17.7315 -17.7186
   -17.7174 -17.7106 -17.7105 -12.2084 -11.9743 -11.7258 -11.7152 -11.6644
   -11.5988 -11.5103 -11.5084 -11.4948 -11.4908 -11.4779 -11.4734 -11.4703
   -11.4470 -11.4395 -11.4264 -11.3986 -11.3891 -11.3836 -11.3595 -11.3391
   -11.3333 -11.3287 -11.3089 -11.2942 -11.2890 -11.2847 -11.2675 -11.2545
   -11.2517 -11.2514 -11.2465 -11.2419 -11.2010 -11.1985 -11.1898 -11.1853
   -11.1704 -11.1614 -11.1604 -11.1581 -11.1459 -11.1407 -11.1375 -11.1294
   -11.1166 -11.1042 -11.0870 -11.0639 -11.0606 -11.0430 -11.0350 -10.9926
   -10.9766 -10.9483 -10.9375 -10.9279 -10.9174 -10.8944 -10.8857 -10.8750
   -10.8629 -10.8417 -10.8281 -10.8246 -10.8239 -10.8216 -10.8054 -10.8032
   -10.8023 -10.8012 -10.8010 -10.7950 -10.7921 -10.7885 -10.7875 -10.7827
   -10.7825 -10.7763 -10.7741 -10.7713 -10.7648 -10.7516 -10.7346 -10.7339
   -10.7334 -10.7324 -10.6666 -10.5483 -10.5365 -10.5258 -10.5213 -10.5102
   -10.4767 -10.4437 -10.3825 -10.3451 -10.2681 -10.2412 -10.2036 -10.1788
   -10.1520 -10.1340 -10.1138 -10.1088 -10.0984 -10.0877 -10.0695 -10.0521
   -10.0430 -10.0351 -10.0314 -10.0209 -10.0173 -10.0089 -10.0032 -10.0012
    -9.9705  -9.9392  -9.9356  -9.9170  -9.9117  -9.9073  -9.8969  -9.8909
    -9.8843  -9.8733  -9.8687  -9.8405  -9.8179  -9.8118  -9.7928  -9.7903
    -9.7734  -9.7661  -9.7578  -9.7391  -9.7201  -9.7159  -9.7019  -9.6881
    -9.6643  -9.6551  -9.6527  -9.6221  -9.6198  -9.6063  -9.5968  -9.5708
    -9.5519  -9.5473  -9.5427  -9.5378  -9.5295  -9.5277  -9.5072  -9.4833
    -9.4796  -9.4763  -9.4702  -9.4670  -9.4541  -9.4500  -9.4482  -9.4319
    -9.4250  -9.4200  -9.4178  -9.3702  -9.3582  -9.3354  -9.3210  -9.3053
    -9.2908  -9.2628  -9.2188  -9.2112  -9.2049  -9.1979  -9.1956  -9.1788
    -9.1719  -9.1474  -9.1469  -9.1336  -9.1276  -9.1164  -9.0963  -9.0812
    -9.0641  -9.0574  -9.0531  -9.0372  -9.0340  -9.0272  -9.0186  -9.0044
    -8.9936  -8.9780  -8.9547  -8.9508  -8.9441  -8.9423  -8.9347  -8.9154
    -8.9111  -8.8987  -8.8836  -8.8807  -8.8800  -8.8752  -8.8750  -8.8734
    -8.8716  -8.8694  -8.8599  -8.8589  -8.8493  -8.8446  -8.8397  -8.8370
    -8.8311  -8.8304  -8.8178  -8.8146  -8.8036  -8.7866  -8.7846  -8.7830
    -8.7770  -8.7746  -8.7744  -8.7546  -8.7523  -8.7499  -8.7248  -8.7227
    -8.7217  -8.7198  -8.7084  -8.6946  -8.6603  -8.6474  -8.6333  -8.6202
    -8.5769  -8.5185  -8.4973  -8.4942  -8.4869  -8.4416  -8.4316  -8.3945
    -8.3698  -8.3468  -8.3394  -8.3121  -8.2897  -8.2460  -8.1656  -8.1266
    -8.1184  -8.1180  -8.1095  -8.1091  -8.1042  -8.0980  -8.0968  -8.0626
    -8.0460  -8.0313  -7.9930  -7.9630  -7.9595  -7.9410  -7.9113  -7.8381
    -7.8315  -7.8305  -7.8234  -7.8200  -7.8108  -7.8076  -7.8000  -7.7968
    -7.7950  -7.7913  -7.7877  -7.7850  -7.7827  -7.7815  -7.7755  -7.7725
    -7.7722  -7.7706  -7.7618  -7.7601  -7.7589  -7.7566  -7.7556  -7.7548
    -7.7496  -7.7494  -7.7455  -7.7384  -7.7329  -7.7278  -7.7239  -7.7182
    -7.7119  -7.7087  -7.6978  -7.6874  -7.6868  -7.6858  -7.6855  -7.6577
    -7.6575  -7.6558  -7.6556  -7.6504  -7.6386  -7.6266  -7.6076  -7.6011
    -7.5992  -7.5990  -7.5965  -7.5874  -7.5860  -7.5832  -7.5767  -7.5748
    -7.5551  -7.5545  -7.5518  -7.5468  -7.5403  -7.5321  -7.5000  -7.4656
    -7.4522  -7.4488  -7.4440  -7.4418  -7.4293  -7.3967  -7.3887  -7.3155
    -7.2972  -7.1982  -7.1737  -7.1622  -7.1586  -7.1577  -7.1416  -7.1201
    -7.1140  -7.1047  -7.0999  -7.0859  -7.0818  -7.0688  -7.0437  -7.0321
    -7.0230  -7.0198  -7.0076  -6.9918  -6.9717  -6.9679  -6.9659  -6.9625
    -6.9420  -6.9147  -6.9093  -6.8895  -6.8845  -6.8780  -6.8603  -6.8579
    -6.8526  -6.8354  -6.8314  -6.8090  -6.7812  -6.7756  -6.7501  -6.7454
    -6.7416  -6.6844  -6.6715  -6.6588  -6.6346  -6.6297  -6.6091  -6.6042
    -6.5980  -6.5974  -6.5958  -6.5952  -6.5919  -6.5803  -6.5797  -6.5779
    -6.5775  -6.5702  -6.5701  -6.5696  -6.5695  -6.5455  -6.5409  -6.4936
    -6.4782  -6.4606  -6.4149  -6.3945  -6.3631  -6.3205  -6.3171  -6.3151
    -6.3094  -6.2895  -6.2802  -6.2756  -6.2686  -6.2677  -6.2642  -6.2635
    -6.2618  -6.2512  -6.2443  -6.2330  -6.2205  -6.2132  -6.2063  -6.1954
[...]
     atom  171 type  2   force =    -0.00000002    0.00000355    0.00000011
     atom  172 type  2   force =     0.00000019   -0.00000137    0.00161412
     atom  173 type  2   force =     0.00000008   -0.00000193   -0.00236178
     atom  174 type  2   force =    -0.00002996   -0.00004635    0.00009880
     atom  175 type  1   force =     0.00001482   -0.00000247   -0.00003745
     atom  176 type  1   force =     0.00014413   -0.00034561    0.00016963
     atom  177 type  2   force =     0.00060608    0.00024514    0.00011120
     atom  178 type  2   force =     0.00003613    0.00000090   -0.00006933
     atom  179 type  2   force =     0.00001240   -0.00003540   -0.00003130
     atom  180 type  2   force =     0.00043543    0.00047492    0.00001456
     atom  181 type  1   force =     0.00000212   -0.00000158    0.00068563
     atom  182 type  1   force =    -0.00002576   -0.00003711    0.00002029
     atom  183 type  2   force =     0.00000174    0.00000219    0.00000021
     atom  184 type  2   force =     0.00000014   -0.00000128    0.00161414
     atom  185 type  2   force =    -0.00000007   -0.00000187   -0.00236175
     atom  186 type  2   force =    -0.00002908   -0.00004779    0.00009943
     atom  187 type  1   force =     0.00001297    0.00001853   -0.00003074
     atom  188 type  1   force =     0.00036059    0.00048820    0.00003063
     atom  189 type  2   force =     0.00005752    0.00018171   -0.00003635
     atom  190 type  2   force =     0.00000846   -0.00001911   -0.00009220
     atom  191 type  2   force =    -0.00000153    0.00002532   -0.00006497
     atom  192 type  2   force =    -0.00005498    0.00002952   -0.00022791
     atom  193 type  3   force =     0.00038087    0.00018889    0.00035944
     atom  194 type  4   force =    -0.00097734   -0.00060263    0.00091463
     atom  195 type  4   force =    -0.00058806   -0.00044918   -0.00090139

     Total force =     0.004546     Total SCF correction =     0.000454
     Energy error            =      3.3E-05 Ry
     Gradient error          =      9.8E-04 Ry/Bohr

     bfgs converged in  63 scf cycles and  62 bfgs steps
     (criteria: energy <  1.0E-04 Ry, force <  1.0E-03 Ry/Bohr)

     End of BFGS Geometry Optimization

     Final energy             =  -34492.2430880886 Ry

     File ./outdir/pwscf.bfgs deleted, as requested
Begin final coordinates

ATOMIC_POSITIONS (angstrom)
Mo               0.0000119917        1.8193638619       -9.1672481230    0   0   0
Mo               1.5756136568        0.9097075315       -3.0554901653    0   0   0
S                0.0000188998        1.8193822938       -4.6232556019    0   0   0
S                1.5756321638        0.9096773839       -7.6014065489    0   0   0
S                1.5756326175        0.9096785128      -10.7330757790    0   0   0
S                0.0000189190        1.8193860094       -1.4877129945    0   0   0
Mo              -0.0066463358        1.8093644624        3.0627656713
Mo               1.5769572756        0.8827383995        9.1747416224
S               -0.0046757313        1.8154814086        7.6321229845
S                1.5684542254        0.8996429617        4.6308371963
S                1.5691741540        0.8996825376        1.4952356025
S               -0.0087240187        1.6839726904       10.8034829996
Mo              -1.5756053507        4.5484193819       -9.1672481230    0   0   0
Mo               0.0000378379        3.6387394919       -3.0554952701    0   0   0
S               -1.5755913433        4.5484363582       -4.6232494962    0   0   0
S                0.0000148214        3.6387329039       -7.6014065489    0   0   0
S                0.0000152751        3.6387340328      -10.7330757790    0   0   0
S               -1.5755906502        4.5484413613       -1.4877305502    0   0   0
Mo              -1.5817436109        4.5380037013        3.0634342307
Mo              -0.0187384455        3.5957508307        9.2280111799
S               -1.5602917372        4.5233900238        7.6385445173
S               -0.0063138459        3.6281073105        4.6315275006
S               -0.0067406462        3.6286282188        1.4948075356
S               -1.6596325933        4.5604857681       10.7757832775
Mo              -3.1512226931        7.2774749019       -9.1672481230    0   0   0
Mo              -1.5755910988        6.3678216792       -3.0555115988    0   0   0
S               -3.1512162438        7.2774954350       -4.6232578178    0   0   0
S               -1.5756025210        6.3677884239       -7.6014065489    0   0   0
S               -1.5756020673        6.3677895528      -10.7330757790    0   0   0
S               -3.1512127704        7.2774877076       -1.4877200710    0   0   0
Mo              -3.1574638998        7.2672756714        3.0636646737
Mo              -1.6012845366        6.3616613808        9.1856852059
S               -3.1491082413        7.2593142515        7.5897600237
S               -1.5816815368        6.3568642401        4.6319398266
S               -1.5821004728        6.3576872259        1.4958609560
S               -3.1815643100        7.2763320526       10.7366756443
Mo              -4.7268400355       10.0065304219       -9.1672481230    0   0   0
Mo              -3.1512405618        9.0968403586       -3.0554816746    0   0   0
S               -4.7268341792       10.0065523623       -4.6232463762    0   0   0
S               -3.1512198634        9.0968439439       -7.6014065489    0   0   0
S               -3.1512194097        9.0968450728      -10.7330757790    0   0   0
S               -4.7268370797       10.0065537885       -1.4877176751    0   0   0
Mo              -4.7333485301        9.9964975772        3.0629499501
Mo              -3.1537904701        9.0807488905        9.1569931339
S               -4.7342254827        9.9892453501        7.5948402320
S               -3.1576322283        9.0869659045        4.6306468212
S               -3.1572591156        9.0867199768        1.4956008435
S               -4.7255086039        9.9719543326       10.7326584461
Mo               3.1512517547        1.8193638619       -9.1672481230    0   0   0
Mo               4.7269020221        0.9097289540       -3.0554823951    0   0   0
S                3.1512612351        1.8193882564       -4.6232320683    0   0   0
S                4.7268719268        0.9096773839       -7.6014065489    0   0   0
S                4.7268723805        0.9096785128      -10.7330757790    0   0   0
S                3.1512592485        1.8193890201       -1.4877261251    0   0   0
Mo               3.1444983327        1.8093513308        3.0634027320
Mo               4.7265285548        0.8896806278        9.1540699925
S                3.1451090657        1.7961675645        7.5905662921
S                4.7204284271        0.8997371497        4.6306477587
S                4.7204619930        0.8996578867        1.4955485049
S                3.1654668999        1.7779848375       10.7362812213
Mo               1.5756344123        4.5484193819       -9.1672481230    0   0   0
Mo               3.1512756394        3.6387769522       -3.0554814834    0   0   0
S                1.5756504879        4.5484423799       -4.6232390542    0   0   0
S                3.1512545844        3.6387329039       -7.6014065489    0   0   0
S                3.1512550381        3.6387340328      -10.7330757790    0   0   0
S                1.5756466253        4.5484431864       -1.4877251801    0   0   0
Mo               1.5686291321        4.5380297146        3.0630386799
Mo               3.1864103319        3.5989013460        9.1735208922
S                1.5547405083        4.5426680342        7.6807965947
S                3.1436904335        3.6286998284        4.6317172274
S                3.1446834286        3.6287138271        1.4956245933
S                1.6515758190        4.4594708572       10.7746035145
Mo               0.0000170699        7.2774749019       -9.1672481230    0   0   0
Mo               1.5756764447        6.3678236689       -3.0554877708    0   0   0
S                0.0000381981        7.2774979204       -4.6232454413    0   0   0
S                1.5756372420        6.3677884239       -7.6014065489    0   0   0
S                1.5756376957        6.3677895528      -10.7330757790    0   0   0
S                0.0000328088        7.2774946042       -1.4877307940    0   0   0
Mo              -0.0063211050        7.2667368863        3.0636727903
Mo               1.5775404323        6.3714003487        9.2305483676
S                0.0102544071        7.2502357282        7.6452248704
S                1.5688133698        6.3564695259        4.6317302067
S                1.5688078530        6.3574404877        1.4954343154
S               -0.0973020975        7.3383539081       10.7946851371
Mo              -1.5756002725       10.0065304219       -9.1672481230    0   0   0
Mo               0.0000873425        9.0968676911       -3.0554912329    0   0   0
S               -1.5755883952       10.0065504530       -4.6232240150    0   0   0
S                0.0000198996        9.0968439439       -7.6014065489    0   0   0
S                0.0000203533        9.0968450728      -10.7330757790    0   0   0
S               -1.5755859047       10.0065492576       -1.4877362381    0   0   0
Mo              -1.5816655162        9.9962912249        3.0634041656
Mo              -0.0080652621        9.1012077865        9.1662263420
S               -1.5761576999        9.9898859852        7.5846908791
S               -0.0061946171        9.0857261965        4.6315469205
S               -0.0061714786        9.0863352810        1.4956835091
S               -1.5863152521       10.0016741968       10.7305952901
Mo               6.3024915177        1.8193638619       -9.1672481230    0   0   0
Mo               7.8781001445        0.9096521684       -3.0554919963    0   0   0
S                6.3025008696        1.8193826232       -4.6232480596    0   0   0
S                7.8781116898        0.9096773839       -7.6014065489    0   0   0
S                7.8781121435        0.9096785128      -10.7330757790    0   0   0
S                6.3025042007        1.8193849068       -1.4877147524    0   0   0
Mo               6.2961194056        1.8092864059        3.0631349370
Mo               7.8755887499        0.8912492599        9.1611360148
S                6.3051039418        1.8023945691        7.5863412843
S                7.8717624729        0.8994027067        4.6308939793
S                7.8716116674        0.8992730686        1.4956427753
S                6.3024231409        1.8041232984       10.7228955574
Mo               4.7268741753        4.5484193819       -9.1672481230    0   0   0
Mo               6.3024679138        3.6387501714       -3.0554895197    0   0   0
S                4.7268748770        4.5484386753       -4.6232519432    0   0   0
S                6.3024943474        3.6387329039       -7.6014065489    0   0   0
S                6.3024948011        3.6387340328      -10.7330757790    0   0   0
S                4.7268770533        4.5484432419       -1.4877137856    0   0   0
Mo               4.7199176955        4.5384180761        3.0637046629
Mo               6.3050612685        3.6234149065        9.1535513737
S                4.7246906028        4.5340613088        7.5896175217
S                6.2960629347        3.6286352553        4.6305757294
S                6.2958258780        3.6290192752        1.4957096598
S                4.7508164939        4.5247711737       10.7368063555
Mo               3.1512568329        7.2774749019       -9.1672481230    0   0   0
Mo               4.7268384135        6.3678043337       -3.0554959052    0   0   0
S                3.1512606125        7.2774972547       -4.6232589675    0   0   0
S                4.7268770050        6.3677884239       -7.6014065489    0   0   0
S                4.7268774587        6.3677895528      -10.7330757790    0   0   0
S                3.1512629079        7.2774963749       -1.4877081835    0   0   0
Mo               3.1441408865        7.2668429332        3.0633397756
Mo               4.7307188682        6.3458218685        9.1745668706
S                3.1229908121        7.2475993070        7.6418523509
S                4.7196157998        6.3578251013        4.6312748994
S                4.7201062755        6.3576844076        1.4956251258
S                3.2598657175        7.3290797324       10.8292641434
Mo               1.5756394905       10.0065304219       -9.1672481230    0   0   0
Mo               3.1512330605        9.0968514907       -3.0554878870    0   0   0
S                1.5756499830       10.0065443759       -4.6232632674    0   0   0
S                3.1512596626        9.0968439439       -7.6014065489    0   0   0
S                3.1512601163        9.0968450728      -10.7330757790    0   0   0
S                1.5756503041       10.0065459699       -1.4877044377    0   0   0
Mo               1.5691773781        9.9960018016        3.0637340689
Mo               3.1513887764        9.0875034752        9.1750758213
S                1.5770848032        9.9859813214        7.5940982907
S                3.1446664518        9.0857718548        4.6313993164
S                3.1444386680        9.0864602509        1.4956981068
S                1.5696343712        9.9962433693       10.7362330656
Mo               9.4537312807        1.8193638619       -9.1672481230    0   0   0
Mo              11.0293863460        0.9096952246       -3.0554894007    0   0   0
S                9.4537395970        1.8193770750       -4.6232328036    0   0   0
S               11.0293514528        0.9096773839       -7.6014065489    0   0   0
S               11.0293519066        0.9096785128      -10.7330757790    0   0   0
S                9.4537393632        1.8193794783       -1.4877366147    0   0   0
Mo               9.4473618165        1.8090638286        3.0633910013
Mo              11.0215720032        0.8815755137        9.1736301204
S                9.4541213768        1.7986031509        7.5956466729
S               11.0232067032        0.8993877224        4.6310434334
S               11.0226179164        0.8992524499        1.4953280953
S                9.4415926309        1.7991919822       10.7346037699
Mo               7.8781139383        4.5484193819       -9.1672481230    0   0   0
Mo               9.4537539161        3.6387607911       -3.0554933032    0   0   0
S                7.8781175448        4.5484378232       -4.6232366318    0   0   0
S                9.4537341104        3.6387329039       -7.6014065489    0   0   0
S                9.4537345641        3.6387340328      -10.7330757790    0   0   0
S                7.8781194018        4.5484411585       -1.4877377057    0   0   0
Mo               7.8718402446        4.5384209468        3.0632939388
Mo               9.4365298048        3.6175203064        9.1672137196
S                7.8797219054        4.5335454870        7.5852750281
S                9.4477026782        3.6284457011        4.6312608760
S                9.4473594177        3.6285815359        1.4956467539
S                7.8648112847        4.5367053732       10.7272794026
Mo               6.3024965959        7.2774749019       -9.1672481230    0   0   0
Mo               7.8781361655        6.3678242352       -3.0555014130    0   0   0
S                6.3024973331        7.2774953556       -4.6232392528    0   0   0
S                7.8781167680        6.3677884239       -7.6014065489    0   0   0
S                7.8781172217        6.3677895528      -10.7330757790    0   0   0
S                6.3024989866        7.2774929744       -1.4877349119    0   0   0
Mo               6.2958094660        7.2673242347        3.0633306393
Mo               7.8728235300        6.3539506311        9.1547715863
S                6.2883700751        7.2588009926        7.5913493314
S                7.8715484442        6.3576326460        4.6309435859
S                7.8717997149        6.3580150656        1.4955766443
S                6.3113543479        7.2582099897       10.7337813653
Mo               4.7268792535       10.0065304219       -9.1672481230    0   0   0
Mo               6.3025111524        9.0968738021       -3.0554915260    0   0   0
S                4.7268840634       10.0065452125       -4.6232380477    0   0   0
S                6.3024994256        9.0968439439       -7.6014065489    0   0   0
S                6.3024998793        9.0968450728      -10.7330757790    0   0   0
S                4.7268847312       10.0065459141       -1.4877283294    0   0   0
Mo               4.7202555022        9.9961037007        3.0633437001
Mo               6.2957140909        9.0761550596        9.1636121078
S                4.7189778586        9.9874459086        7.5952767007
S                6.2960543879        9.0867082966        4.6306680499
S                6.2959435486        9.0866337096        1.4953489184
S                4.7274829969        9.9852843851       10.7434385451
Pt               1.5565848397        6.3015142391       12.0678424183
Pd               0.0491202782        3.6266899567       12.1627380613
Pd               0.4621706605        5.2698027804       14.1245418638
End final coordinates



     Writing all to output data dir ./outdir/pwscf.save/ :
     XML data file, charge density, pseudopotentials, collected wavefunctions
 
     init_run     :    177.49s CPU    183.22s WALL (       1 calls)
     electrons    : 124910.97s CPU 126443.79s WALL (      12 calls)
     update_pot   :     18.59s CPU     19.28s WALL (      11 calls)
     forces       :   1566.21s CPU   1595.74s WALL (      12 calls)
     force_dftd3  :      8.26s CPU      9.02s WALL (      12 calls)

     Called by init_run:
     wfcinit      :    153.39s CPU    155.45s WALL (       1 calls)
     potinit      :      1.37s CPU      2.86s WALL (       1 calls)
     hinit0       :     13.07s CPU     13.53s WALL (       1 calls)

     Called by electrons:
     c_bands      : 111903.02s CPU 112970.16s WALL (     180 calls)
     sum_band     :  11643.32s CPU  11882.71s WALL (     180 calls)
     v_of_rho     :     64.82s CPU     73.58s WALL (     181 calls)
     newd         :   1143.55s CPU   1360.14s WALL (     181 calls)
     PAW_pot      :    172.21s CPU    175.12s WALL (     192 calls)
     mix_rho      :     18.62s CPU     22.11s WALL (     180 calls)
     energy_dftd3 :      4.83s CPU      4.91s WALL (      12 calls)

     Called by c_bands:
     init_us_2    :    384.87s CPU    387.16s WALL (    1536 calls)
     init_us_2:cp :    384.86s CPU    387.10s WALL (    1536 calls)
     cegterg      : 110171.28s CPU 111216.59s WALL (     747 calls)

     Called by *egterg:
     cdiaghg      :   6759.92s CPU   6990.78s WALL (   10473 calls)
     h_psi        :  54899.56s CPU  55244.63s WALL (   10585 calls)
     s_psi        :  12842.47s CPU  12922.29s WALL (   10585 calls)
     g_psi        :    101.32s CPU    101.73s WALL (    9834 calls)

     Called by h_psi:
     h_psi:calbec :  12485.16s CPU  12530.69s WALL (   10585 calls)
     vloc_psi     :  29271.19s CPU  29420.00s WALL (   10585 calls)
     add_vuspsi   :  12922.43s CPU  13002.87s WALL (   10585 calls)

     General routines
     calbec       :  17158.86s CPU  17221.46s WALL (   11541 calls)
     fft          :     70.30s CPU     77.67s WALL (    2483 calls)
     ffts         :      3.23s CPU      3.52s WALL (     361 calls)
     fftw         :  21642.33s CPU  21752.34s WALL ( 5653514 calls)
     interpolate  :      5.62s CPU      6.18s WALL (     181 calls)
 
     Parallel routines
 
     PWSCF        :   1d11h18m CPU   1d11h46m WALL

 
   This run was terminated on:  15:49:18   8May2024            

=------------------------------------------------------------------------------=
   JOB DONE.
=------------------------------------------------------------------------------=
