
     Program PWSCF v.7.3 starts on 26Apr2024 at  4:23:43 

     This program is part of the open-source Quantum ESPRESSO suite
     for quantum simulation of materials; please cite
         "P. Giannozzi et al., J. Phys.:Condens. Matter 21 395502 (2009);
         "P. Giannozzi et al., J. Phys.:Condens. Matter 29 465901 (2017);
         "P. Giannozzi et al., J. Chem. Phys. 152 154105 (2020);
          URL http://www.quantum-espresso.org", 
     in publications or presentations arising from this work. More details at
     http://www.quantum-espresso.org/quote

     Parallel version (MPI & OpenMP), running on      36 processor cores
     Number of MPI processes:                36
     Threads/MPI process:                     1

     MPI processes distributed on     1 nodes
     558729 MiB available memory on the printing compute node when the environment starts
 
     Waiting for input...
     Reading input from standard input
Warning: card &CELL ignored
Warning: card / ignored

     Current dimensions of program PWSCF are:
     Max number of different atomic species (ntypx) = 10
     Max number of k-points (npk) =  40000
     Max angular momentum in pseudopotentials (lmaxx) =  4
     file Mo.pbe-spn-kjpaw_psl.1.0.0.UPF: wavefunction(s)  4S 4D renormalized
     file S.pbe-n-kjpaw_psl.1.0.0.UPF: wavefunction(s)  3S 3P renormalized
     file Pt.pbe-spfn-kjpaw_psl.1.0.0.UPF: wavefunction(s)  5P 4F renormalized
     file Pd.pbe-spn-kjpaw_psl.1.0.0.UPF: wavefunction(s)  4S 5S 4D renormalized
 
     R & G space division:  proc/nbgrp/npool/nimage =      36
     Subspace diagonalization in iterative solution of the eigenvalue problem:
     one sub-group per band group will be used
     scalapack distributed-memory algorithm (size of sub-group:  6*  6 procs)

 
     Parallelization info
     --------------------
     sticks:   dense  smooth     PW     G-vecs:    dense   smooth      PW
     Min         585     334     89               198743    85850   11735
     Max         586     335     90               198750    85861   11748
     Sum       21073   12049   3205              7154885  3090769  422587
 
     Using Slab Decomposition
 


     bravais-lattice index     =            0
     lattice parameter (alat)  =      23.8199  a.u.
     unit-cell volume          =   33861.0370 (a.u.)^3
     number of atoms/cell      =          195
     number of atomic types    =            4
     number of electrons       =      1732.00
     number of Kohn-Sham states=         1039
     kinetic-energy cutoff     =      77.0000  Ry
     charge density cutoff     =     539.0000  Ry
     scf convergence threshold =      1.0E-06
     mixing beta               =       0.2000
     number of iterations used =            8  plain     mixing
     energy convergence thresh.=      1.0E-04
     force convergence thresh. =      1.0E-03
     Exchange-correlation= SLA  PW   PBX  PBC
                           (   1   4   3   4   0   0   0)
     nstep                     =         1000


     Effective Screening Medium Method
     =================================
     Boundary Conditions: Vacuum-Slab-Vacuum
     total charge in unit cell        =   0.0000
     grid points for fit at edges     =        4 
 

     celldm(1)=  23.819920  celldm(2)=   0.000000  celldm(3)=   0.000000
     celldm(4)=   0.000000  celldm(5)=   0.000000  celldm(6)=   0.000000

     crystal axes: (cart. coord. in units of alat)
               a(1) = (   1.000000   0.000000   0.000000 )  
               a(2) = (  -0.499999   0.866026   0.000000 )  
               a(3) = (   0.000000   0.000000   2.893000 )  

     reciprocal axes: (cart. coord. in units 2 pi/alat)
               b(1) = (  1.000000  0.577349  0.000000 )  
               b(2) = (  0.000000  1.154700  0.000000 )  
               b(3) = (  0.000000  0.000000  0.345662 )  


     PseudoPot. # 1 for Mo read from file:
     ./pseudo/Mo.pbe-spn-kjpaw_psl.1.0.0.UPF
     MD5 check sum: 317bf72632116215fd98f72de1686f13
     Pseudo is Projector augmented-wave + core cor, Zval = 14.0
     Generated using 'atomic' code by A. Dal Corso  v.7.2
     Shape of augmentation charge: PSQ
     Using radial grid of 1229 points,  6 beta functions with: 
                l(1) =   0
                l(2) =   0
                l(3) =   1
                l(4) =   1
                l(5) =   2
                l(6) =   2
     Q(r) pseudized with 0 coefficients 


     PseudoPot. # 2 for S  read from file:
     ./pseudo/S.pbe-n-kjpaw_psl.1.0.0.UPF
     MD5 check sum: 8b7b5302570d38d5e87fed6a1065abda
     Pseudo is Projector augmented-wave + core cor, Zval =  6.0
     Generated using 'atomic' code by A. Dal Corso  v.7.2
     Shape of augmentation charge: PSQ
     Using radial grid of 1151 points,  6 beta functions with: 
                l(1) =   0
                l(2) =   0
                l(3) =   1
                l(4) =   1
                l(5) =   2
                l(6) =   2
     Q(r) pseudized with 0 coefficients 


     PseudoPot. # 3 for Pt read from file:
     ./pseudo/Pt.pbe-spfn-kjpaw_psl.1.0.0.UPF
     MD5 check sum: 620096ebf4e6ebacc94de60fd67efcb5
     Pseudo is Projector augmented-wave + core cor, Zval = 32.0
     Generated using 'atomic' code by A. Dal Corso  v.7.2
     Shape of augmentation charge: PSQ
     Using radial grid of 1277 points,  8 beta functions with: 
                l(1) =   0
                l(2) =   0
                l(3) =   1
                l(4) =   1
                l(5) =   2
                l(6) =   2
                l(7) =   3
                l(8) =   3
     Q(r) pseudized with 0 coefficients 


     PseudoPot. # 4 for Pd read from file:
     ./pseudo/Pd.pbe-spn-kjpaw_psl.1.0.0.UPF
     MD5 check sum: a60571a671f2502b8a6a4569d20a6edb
     Pseudo is Projector augmented-wave + core cor, Zval = 18.0
     Generated using 'atomic' code by A. Dal Corso  v.7.2
     Shape of augmentation charge: PSQ
     Using radial grid of 1235 points,  6 beta functions with: 
                l(1) =   0
                l(2) =   0
                l(3) =   1
                l(4) =   1
                l(5) =   2
                l(6) =   2
     Q(r) pseudized with 0 coefficients 


     atomic species   valence    mass     pseudopotential
     Mo               14.00    95.95000     Mo( 1.00)
     S                 6.00    32.06000     S ( 1.00)
     Pt               32.00   195.08400     Pt( 1.00)
     Pd               18.00   106.42000     Pd( 1.00)

     No symmetry found



   Cartesian axes

     site n.     atom                  positions (alat units)
         1        Mo     tau(   1) = (   0.0000010   0.1443372  -0.7272732  )
         2        Mo     tau(   2) = (   0.1249995   0.0721706  -0.2424038  )
         3        S      tau(   3) = (   0.0000015   0.1443386  -0.3667807  )
         4        S      tau(   4) = (   0.1250010   0.0721682  -0.6030489  )
         5        S      tau(   5) = (   0.1250010   0.0721683  -0.8514963  )
         6        S      tau(   6) = (   0.0000015   0.1443389  -0.1180260  )
         7        Mo     tau(   7) = (   0.0000005   0.1443381   0.2424561  )
         8        Mo     tau(   8) = (   0.1251981   0.0716023   0.7276027  )
         9        S      tau(   9) = (  -0.0003031   0.1454842   0.6052312  )
        10        S      tau(  10) = (   0.1249558   0.0721599   0.3668208  )
        11        S      tau(  11) = (   0.1250088   0.0721517   0.1180857  )
        12        S      tau(  12) = (  -0.0004157   0.1382876   0.8564685  )
        13        Mo     tau(  13) = (  -0.1249989   0.3608437  -0.7272732  )
        14        Mo     tau(  14) = (   0.0000030   0.2886752  -0.2424042  )
        15        S      tau(  15) = (  -0.1249977   0.3608450  -0.3667802  )
        16        S      tau(  16) = (   0.0000012   0.2886747  -0.6030489  )
        17        S      tau(  17) = (   0.0000012   0.2886748  -0.8514963  )
        18        S      tau(  18) = (  -0.1249977   0.3608454  -0.1180274  )
        19        Mo     tau(  19) = (  -0.1249623   0.3608201   0.2425155  )
        20        Mo     tau(  20) = (  -0.0007801   0.2872696   0.7308518  )
        21        S      tau(  21) = (  -0.1240398   0.3604107   0.6055268  )
        22        S      tau(  22) = (   0.0000411   0.2886546   0.3669163  )
        23        S      tau(  23) = (   0.0000035   0.2886726   0.1180964  )
        24        S      tau(  24) = (  -0.1315418   0.3638985   0.8543850  )
        25        Mo     tau(  25) = (  -0.2499987   0.5773502  -0.7272732  )
        26        Mo     tau(  26) = (  -0.1249977   0.5051839  -0.2424055  )
        27        S      tau(  27) = (  -0.2499981   0.5773518  -0.3667809  )
        28        S      tau(  28) = (  -0.1249986   0.5051812  -0.6030489  )
        29        S      tau(  29) = (  -0.1249986   0.5051813  -0.8514963  )
        30        S      tau(  30) = (  -0.2499979   0.5773512  -0.1180266  )
        31        Mo     tau(  31) = (  -0.2499787   0.5773156   0.2425145  )
        32        Mo     tau(  32) = (  -0.1271807   0.5060660   0.7281741  )
        33        S      tau(  33) = (  -0.2502658   0.5775034   0.6017985  )
        34        S      tau(  34) = (  -0.1249543   0.5051367   0.3669386  )
        35        S      tau(  35) = (  -0.1249864   0.5051552   0.1181399  )
        36        S      tau(  36) = (  -0.2525628   0.5785576   0.8514793  )
        37        Mo     tau(  37) = (  -0.3749985   0.7938567  -0.7272732  )
        38        Mo     tau(  38) = (  -0.2500001   0.7216874  -0.2424031  )
        39        S      tau(  39) = (  -0.3749980   0.7938584  -0.3667800  )
        40        S      tau(  40) = (  -0.2499984   0.7216877  -0.6030489  )
        41        S      tau(  41) = (  -0.2499984   0.7216878  -0.8514963  )
        42        S      tau(  42) = (  -0.3749982   0.7938585  -0.1180264  )
        43        Mo     tau(  43) = (  -0.3750043   0.7938372   0.2424536  )
        44        Mo     tau(  44) = (  -0.2503619   0.7218808   0.7263407  )
        45        S      tau(  45) = (  -0.3755748   0.7941519   0.6023691  )
        46        S      tau(  46) = (  -0.2500067   0.7216811   0.3668312  )
        47        S      tau(  47) = (  -0.2499793   0.7216445   0.1181126  )
        48        S      tau(  48) = (  -0.3746959   0.7932047   0.8515893  )
        49        Mo     tau(  49) = (   0.2500010   0.1443372  -0.7272732  )
        50        Mo     tau(  50) = (   0.3750034   0.0721723  -0.2424032  )
        51        S      tau(  51) = (   0.2500017   0.1443391  -0.3667788  )
        52        S      tau(  52) = (   0.3750010   0.0721682  -0.6030489  )
        53        S      tau(  53) = (   0.3750010   0.0721683  -0.8514963  )
        54        S      tau(  54) = (   0.2500016   0.1443391  -0.1180271  )
        55        Mo     tau(  55) = (   0.2500033   0.1443124   0.2424881  )
        56        Mo     tau(  56) = (   0.3752595   0.0716472   0.7255395  )
        57        S      tau(  57) = (   0.2498544   0.1431280   0.6011361  )
        58        S      tau(  58) = (   0.3750516   0.0721435   0.3668117  )
        59        S      tau(  59) = (   0.3750079   0.0721203   0.1180977  )
        60        S      tau(  60) = (   0.2517312   0.1427646   0.8506906  )
        61        Mo     tau(  61) = (   0.1250012   0.3608437  -0.7272732  )
        62        Mo     tau(  62) = (   0.2500029   0.2886782  -0.2424031  )
        63        S      tau(  63) = (   0.1250024   0.3608455  -0.3667794  )
        64        S      tau(  64) = (   0.2500012   0.2886747  -0.6030489  )
        65        S      tau(  65) = (   0.2500012   0.2886748  -0.8514963  )
        66        S      tau(  66) = (   0.1250021   0.3608455  -0.1180270  )
        67        Mo     tau(  67) = (   0.1249995   0.3608273   0.2424838  )
        68        Mo     tau(  68) = (   0.2535704   0.2866116   0.7259154  )
        69        S      tau(  69) = (   0.1241106   0.3617788   0.6079553  )
        70        S      tau(  70) = (   0.2499752   0.2886689   0.3668869  )
        71        S      tau(  71) = (   0.2500098   0.2886475   0.1181123  )
        72        S      tau(  72) = (   0.1336503   0.3523048   0.8541313  )
        73        Mo     tau(  73) = (   0.0000014   0.5773502  -0.7272732  )
        74        Mo     tau(  74) = (   0.1250045   0.5051840  -0.2424036  )
        75        S      tau(  75) = (   0.0000030   0.5773520  -0.3667799  )
        76        S      tau(  76) = (   0.1250014   0.5051812  -0.6030489  )
        77        S      tau(  77) = (   0.1250014   0.5051813  -0.8514963  )
        78        S      tau(  78) = (   0.0000026   0.5773517  -0.1180274  )
        79        Mo     tau(  79) = (   0.0000276   0.5772927   0.2425177  )
        80        Mo     tau(  80) = (   0.1255270   0.5059369   0.7313762  )
        81        S      tau(  81) = (   0.0011816   0.5764663   0.6064450  )
        82        S      tau(  82) = (   0.1250222   0.5051261   0.3669341  )
        83        S      tau(  83) = (   0.1249880   0.5051467   0.1180950  )
        84        S      tau(  84) = (  -0.0088763   0.5830479   0.8565830  )
        85        Mo     tau(  85) = (  -0.1249984   0.7938567  -0.7272732  )
        86        Mo     tau(  86) = (   0.0000069   0.7216896  -0.2424039  )
        87        S      tau(  87) = (  -0.1249975   0.7938582  -0.3667782  )
        88        S      tau(  88) = (   0.0000016   0.7216877  -0.6030489  )
        89        S      tau(  89) = (   0.0000016   0.7216878  -0.8514963  )
        90        S      tau(  90) = (  -0.1249973   0.7938582  -0.1180279  )
        91        Mo     tau(  91) = (  -0.1249699   0.7938095   0.2424907  )
        92        Mo     tau(  92) = (  -0.0004895   0.7231014   0.7275053  )
        93        S      tau(  93) = (  -0.1248847   0.7932555   0.6014963  )
        94        S      tau(  94) = (   0.0000405   0.7216116   0.3668908  )
        95        S      tau(  95) = (   0.0000242   0.7216332   0.1181249  )
        96        S      tau(  96) = (  -0.1259194   0.7949777   0.8510667  )
        97        Mo     tau(  97) = (   0.5000010   0.1443372  -0.7272732  )
        98        Mo     tau(  98) = (   0.6250001   0.0721662  -0.2424040  )
        99        S      tau(  99) = (   0.5000017   0.1443386  -0.3667801  )
       100        S      tau( 100) = (   0.6250010   0.0721682  -0.6030489  )
       101        S      tau( 101) = (   0.6250010   0.0721683  -0.8514963  )
       102        S      tau( 102) = (   0.5000020   0.1443388  -0.1180261  )
       103        Mo     tau( 103) = (   0.5000355   0.1442968   0.2424343  )
       104        Mo     tau( 104) = (   0.6251054   0.0720760   0.7269638  )
       105        S      tau( 105) = (   0.5007812   0.1439212   0.6015111  )
       106        S      tau( 106) = (   0.6250309   0.0721295   0.3668346  )
       107        S      tau( 107) = (   0.6250410   0.0721183   0.1180973  )
       108        S      tau( 108) = (   0.4998652   0.1442971   0.8504179  )
       109        Mo     tau( 109) = (   0.3750012   0.3608437  -0.7272732  )
       110        Mo     tau( 110) = (   0.4999991   0.2886761  -0.2424038  )
       111        S      tau( 111) = (   0.3750012   0.3608452  -0.3667804  )
       112        S      tau( 112) = (   0.5000012   0.2886747  -0.6030489  )
       113        S      tau( 113) = (   0.5000012   0.2886748  -0.8514963  )
       114        S      tau( 114) = (   0.3750014   0.3608455  -0.1180261  )
       115        Mo     tau( 115) = (   0.3749988   0.3608207   0.2424913  )
       116        Mo     tau( 116) = (   0.5005676   0.2886014   0.7258090  )
       117        S      tau( 117) = (   0.3761076   0.3615161   0.6013079  )
       118        S      tau( 118) = (   0.5000282   0.2886169   0.3668001  )
       119        S      tau( 119) = (   0.5000158   0.2886613   0.1180928  )
       120        S      tau( 120) = (   0.3768791   0.3600665   0.8508100  )
       121        Mo     tau( 121) = (   0.2500014   0.5773502  -0.7272732  )
       122        Mo     tau( 122) = (   0.3749983   0.5051825  -0.2424043  )
       123        S      tau( 123) = (   0.2500017   0.5773519  -0.3667810  )
       124        S      tau( 124) = (   0.3750014   0.5051812  -0.6030489  )
       125        S      tau( 125) = (   0.3750014   0.5051813  -0.8514963  )
       126        S      tau( 126) = (   0.2500018   0.5773519  -0.1180256  )
       127        Mo     tau( 127) = (   0.2499755   0.5773110   0.2424609  )
       128        Mo     tau( 128) = (   0.3758691   0.5051374   0.7277779  )
       129        S      tau( 129) = (   0.2483182   0.5768077   0.6062789  )
       130        S      tau( 130) = (   0.3749464   0.5051844   0.3668408  )
       131        S      tau( 131) = (   0.3749944   0.5051486   0.1180923  )
       132        S      tau( 132) = (   0.2574557   0.5818559   0.8585037  )
       133        Mo     tau( 133) = (   0.1250016   0.7938567  -0.7272732  )
       134        Mo     tau( 134) = (   0.2499995   0.7216883  -0.2424036  )
       135        S      tau( 135) = (   0.1250024   0.7938578  -0.3667813  )
       136        S      tau( 136) = (   0.2500016   0.7216877  -0.6030489  )
       137        S      tau( 137) = (   0.2500016   0.7216878  -0.8514963  )
       138        S      tau( 138) = (   0.1250024   0.7938579  -0.1180253  )
       139        Mo     tau( 139) = (   0.1250229   0.7938069   0.2425006  )
       140        Mo     tau( 140) = (   0.2504358   0.7224862   0.7284223  )
       141        S      tau( 141) = (   0.1254429   0.7935457   0.6029055  )
       142        S      tau( 142) = (   0.2500049   0.7216116   0.3668842  )
       143        S      tau( 143) = (   0.2500022   0.7216616   0.1181021  )
       144        S      tau( 144) = (   0.1246626   0.7944127   0.8519137  )
       145        Mo     tau( 145) = (   0.7500010   0.1443372  -0.7272732  )
       146        Mo     tau( 146) = (   0.8750038   0.0721696  -0.2424038  )
       147        S      tau( 147) = (   0.7500016   0.1443382  -0.3667789  )
       148        S      tau( 148) = (   0.8750010   0.0721682  -0.6030489  )
       149        S      tau( 149) = (   0.8750010   0.0721683  -0.8514963  )
       150        S      tau( 150) = (   0.7500016   0.1443384  -0.1180279  )
       151        Mo     tau( 151) = (   0.7500289   0.1443141   0.2424936  )
       152        Mo     tau( 152) = (   0.8748115   0.0715393   0.7280420  )
       153        S      tau( 153) = (   0.7503587   0.1440662   0.6027403  )
       154        S      tau( 154) = (   0.8750369   0.0721618   0.3668742  )
       155        S      tau( 155) = (   0.8750002   0.0721408   0.1181001  )
       156        S      tau( 156) = (   0.7494385   0.1444101   0.8516821  )
       157        Mo     tau( 157) = (   0.6250012   0.3608437  -0.7272732  )
       158        Mo     tau( 158) = (   0.7500028   0.2886769  -0.2424041  )
       159        S      tau( 159) = (   0.6250015   0.3608451  -0.3667792  )
       160        S      tau( 160) = (   0.7500012   0.2886747  -0.6030489  )
       161        S      tau( 161) = (   0.7500012   0.2886748  -0.8514963  )
       162        S      tau( 162) = (   0.6250016   0.3608454  -0.1180280  )
       163        Mo     tau( 163) = (   0.6250302   0.3608127   0.2424760  )
       164        Mo     tau( 164) = (   0.7487590   0.2885376   0.7272130  )
       165        S      tau( 165) = (   0.6254237   0.3608917   0.6015174  )
       166        S      tau( 166) = (   0.7500486   0.2886525   0.3668797  )
       167        S      tau( 167) = (   0.7500385   0.2886557   0.1181169  )
       168        S      tau( 168) = (   0.6239430   0.3610912   0.8510113  )
       169        Mo     tau( 169) = (   0.5000014   0.5773502  -0.7272732  )
       170        Mo     tau( 170) = (   0.6250029   0.5051841  -0.2424047  )
       171        S      tau( 171) = (   0.5000014   0.5773518  -0.3667794  )
       172        S      tau( 172) = (   0.6250014   0.5051812  -0.6030489  )
       173        S      tau( 173) = (   0.6250014   0.5051813  -0.8514963  )
       174        S      tau( 174) = (   0.5000016   0.5773516  -0.1180277  )
       175        Mo     tau( 175) = (   0.4999859   0.5773250   0.2424709  )
       176        Mo     tau( 176) = (   0.6245890   0.5053660   0.7261562  )
       177        S      tau( 177) = (   0.4993068   0.5776651   0.6022414  )
       178        S      tau( 178) = (   0.6249823   0.5051501   0.3668388  )
       179        S      tau( 179) = (   0.6250205   0.5051637   0.1181147  )
       180        S      tau( 180) = (   0.5009766   0.5773609   0.8515797  )
       181        Mo     tau( 181) = (   0.3750016   0.7938567  -0.7272732  )
       182        Mo     tau( 182) = (   0.5000025   0.7216901  -0.2424039  )
       183        S      tau( 183) = (   0.3750019   0.7938578  -0.3667793  )
       184        S      tau( 184) = (   0.5000016   0.7216877  -0.6030489  )
       185        S      tau( 185) = (   0.5000016   0.7216878  -0.8514963  )
       186        S      tau( 186) = (   0.3750020   0.7938579  -0.1180272  )
       187        Mo     tau( 187) = (   0.3749951   0.7938323   0.2424893  )
       188        Mo     tau( 188) = (   0.4998599   0.7217391   0.7271366  )
       189        S      tau( 189) = (   0.3746033   0.7939741   0.6029663  )
       190        S      tau( 190) = (   0.4999946   0.7216688   0.3668260  )
       191        S      tau( 191) = (   0.4999891   0.7216628   0.1180901  )
       192        S      tau( 192) = (   0.3755955   0.7938624   0.8526444  )
       193        Pt     tau( 193) = (   0.1194898   0.4990527   0.9549993  )
       194        Pd     tau( 194) = (   0.0026419   0.2990244   0.9662205  )
       195        Pd     tau( 195) = (   0.0026180   0.2990093   1.1645417  )

     --------------------------------------------
     DFT-D3 Dispersion Correction (3-body terms):
     --------------------------------------------
       Reference C6 values for interpolation: 

         atom   Coordination number   C6
         S          0.000           268.01
         S          0.995           261.99
         S          1.990           251.62
         Mo         0.000          1691.79
         Mo         1.942          1004.01
         Mo        11.056           674.22
         Pd         0.000          1217.01
         Pd         1.863           573.90
         Pd         5.710           531.75
         Pt         0.000           782.29
         Pt         1.919           692.72
         Pt         6.667           673.75

       Values used:

         atom   Coordination number  R0_AB[au]  C6      C8
         Mo        10.208            3.547    674.22  77634.20
         Mo        10.221            3.547    674.22  77634.20
         S          3.858            3.128    251.62  12327.25
         S          3.859            3.128    251.62  12327.25
         S          3.758            3.128    251.62  12327.25
         S          3.859            3.128    251.62  12327.25
         Mo        10.221            3.547    674.22  77634.20
         Mo        10.228            3.547    674.22  77634.20
         S          3.849            3.128    251.62  12327.25
         S          3.859            3.128    251.62  12327.25
         S          3.859            3.128    251.62  12327.25
         S          4.624            3.128    251.62  12327.25
         Mo        10.208            3.547    674.22  77634.20
         Mo        10.221            3.547    674.22  77634.20
         S          3.858            3.128    251.62  12327.25
         S          3.859            3.128    251.62  12327.25
         S          3.758            3.128    251.62  12327.25
         S          3.859            3.128    251.62  12327.25
         Mo        10.222            3.547    674.22  77634.20
         Mo        10.722            3.547    674.22  77634.20
         S          3.862            3.128    251.62  12327.25
         S          3.850            3.128    251.62  12327.25
         S          3.859            3.128    251.62  12327.25
         S          4.671            3.128    251.62  12327.25
         Mo        10.208            3.547    674.22  77634.20
         Mo        10.221            3.547    674.22  77634.20
         S          3.858            3.128    251.62  12327.25
         S          3.859            3.128    251.62  12327.25
         S          3.758            3.128    251.62  12327.25
         S          3.859            3.128    251.62  12327.25
         Mo        10.220            3.547    674.22  77634.20
         Mo        10.171            3.547    674.22  77634.20
         S          3.842            3.128    251.62  12327.25
         S          3.853            3.128    251.62  12327.25
         S          3.859            3.128    251.62  12327.25
         S          3.843            3.128    251.62  12327.25
         Mo        10.208            3.547    674.21  77634.20
         Mo        10.220            3.547    674.22  77634.20
         S          3.858            3.128    251.62  12327.25
         S          3.859            3.128    251.62  12327.25
         S          3.758            3.128    251.62  12327.25
         S          3.859            3.128    251.62  12327.25
         Mo        10.220            3.547    674.22  77634.20
         Mo        10.260            3.547    674.22  77634.20
         S          3.856            3.128    251.62  12327.25
         S          3.861            3.128    251.62  12327.25
         S          3.859            3.128    251.62  12327.25
         S          3.808            3.128    251.62  12327.25
         Mo        10.208            3.547    674.22  77634.20
         Mo        10.221            3.547    674.22  77634.20
         S          3.858            3.128    251.62  12327.25
         S          3.859            3.128    251.62  12327.25
         S          3.758            3.128    251.62  12327.25
         S          3.859            3.128    251.62  12327.25
         Mo        10.220            3.547    674.22  77634.20
         Mo        10.278            3.547    674.22  77634.20
         S          3.837            3.128    251.62  12327.25
         S          3.863            3.128    251.62  12327.25
         S          3.859            3.128    251.62  12327.25
         S          3.842            3.128    251.62  12327.25
         Mo        10.208            3.547    674.22  77634.20
         Mo        10.221            3.547    674.22  77634.20
         S          3.858            3.128    251.62  12327.25
         S          3.859            3.128    251.62  12327.25
         S          3.758            3.128    251.62  12327.25
         S          3.859            3.128    251.62  12327.25
         Mo        10.222            3.547    674.22  77634.20
         Mo        10.177            3.547    674.22  77634.20
         S          3.873            3.128    251.62  12327.25
         S          3.855            3.128    251.62  12327.25
         S          3.859            3.128    251.62  12327.25
         S          5.646            3.128    251.62  12327.25
         Mo        10.208            3.547    674.22  77634.20
         Mo        10.221            3.547    674.22  77634.20
         S          3.858            3.128    251.62  12327.25
         S          3.859            3.128    251.62  12327.25
         S          3.758            3.128    251.62  12327.25
         S          3.859            3.128    251.62  12327.25
         Mo        10.222            3.547    674.22  77634.20
         Mo        10.867            3.547    674.22  77634.20
         S          3.860            3.128    251.62  12327.25
         S          3.850            3.128    251.62  12327.25
         S          3.859            3.128    251.62  12327.25
         S          4.673            3.128    251.62  12327.25
         Mo        10.208            3.547    674.22  77634.20
         Mo        10.221            3.547    674.22  77634.20
         S          3.858            3.128    251.62  12327.25
         S          3.859            3.128    251.62  12327.25
         S          3.758            3.128    251.62  12327.25
         S          3.859            3.128    251.62  12327.25
         Mo        10.220            3.547    674.22  77634.20
         Mo        10.214            3.547    674.22  77634.20
         S          3.850            3.128    251.62  12327.25
         S          3.856            3.128    251.62  12327.25
         S          3.859            3.128    251.62  12327.25
         S          3.827            3.128    251.62  12327.25
         Mo        10.208            3.547    674.22  77634.20
         Mo        10.221            3.547    674.22  77634.20
         S          3.858            3.128    251.62  12327.25
         S          3.859            3.128    251.62  12327.25
         S          3.758            3.128    251.62  12327.25
         S          3.859            3.128    251.62  12327.25
         Mo        10.220            3.547    674.22  77634.20
         Mo        10.250            3.547    674.22  77634.20
         S          3.856            3.128    251.62  12327.25
         S          3.861            3.128    251.62  12327.25
         S          3.859            3.128    251.62  12327.25
         S          3.790            3.128    251.62  12327.25
         Mo        10.208            3.547    674.22  77634.20
         Mo        10.221            3.547    674.22  77634.20
         S          3.858            3.128    251.62  12327.25
         S          3.859            3.128    251.62  12327.25
         S          3.758            3.128    251.62  12327.25
         S          3.859            3.128    251.62  12327.25
         Mo        10.220            3.547    674.22  77634.20
         Mo        10.277            3.547    674.22  77634.20
         S          3.839            3.128    251.62  12327.25
         S          3.863            3.128    251.62  12327.25
         S          3.859            3.128    251.62  12327.25
         S          3.819            3.128    251.62  12327.25
         Mo        10.208            3.547    674.22  77634.20
         Mo        10.221            3.547    674.22  77634.20
         S          3.858            3.128    251.62  12327.25
         S          3.859            3.128    251.62  12327.25
         S          3.758            3.128    251.62  12327.25
         S          3.859            3.128    251.62  12327.25
         Mo        10.222            3.547    674.22  77634.20
         Mo        10.220            3.547    674.22  77634.20
         S          3.850            3.128    251.62  12327.25
         S          3.858            3.128    251.62  12327.25
         S          3.859            3.128    251.62  12327.25
         S          4.642            3.128    251.62  12327.25
         Mo        10.208            3.547    674.22  77634.20
         Mo        10.221            3.547    674.22  77634.20
         S          3.858            3.128    251.62  12327.25
         S          3.859            3.128    251.62  12327.25
         S          3.758            3.128    251.62  12327.25
         S          3.859            3.128    251.62  12327.25
         Mo        10.221            3.547    674.22  77634.20
         Mo        10.226            3.547    674.22  77634.20
         S          3.863            3.128    251.62  12327.25
         S          3.856            3.128    251.62  12327.25
         S          3.859            3.128    251.62  12327.25
         S          3.764            3.128    251.62  12327.25
         Mo        10.208            3.547    674.22  77634.20
         Mo        10.221            3.547    674.22  77634.20
         S          3.858            3.128    251.62  12327.25
         S          3.859            3.128    251.62  12327.25
         S          3.758            3.128    251.62  12327.25
         S          3.859            3.128    251.62  12327.25
         Mo        10.221            3.547    674.22  77634.20
         Mo        10.241            3.547    674.22  77634.20
         S          3.864            3.128    251.62  12327.25
         S          3.857            3.128    251.62  12327.25
         S          3.859            3.128    251.62  12327.25
         S          3.767            3.128    251.62  12327.25
         Mo        10.208            3.547    674.21  77634.20
         Mo        10.220            3.547    674.22  77634.20
         S          3.858            3.128    251.62  12327.25
         S          3.859            3.128    251.62  12327.25
         S          3.758            3.128    251.62  12327.25
         S          3.859            3.128    251.62  12327.25
         Mo        10.220            3.547    674.22  77634.20
         Mo        10.226            3.547    674.22  77634.20
         S          3.854            3.128    251.62  12327.25
         S          3.857            3.128    251.62  12327.25
         S          3.859            3.128    251.62  12327.25
         S          3.809            3.128    251.62  12327.25
         Mo        10.208            3.547    674.22  77634.20
         Mo        10.221            3.547    674.22  77634.20
         S          3.858            3.128    251.62  12327.25
         S          3.859            3.128    251.62  12327.25
         S          3.758            3.128    251.62  12327.25
         S          3.859            3.128    251.62  12327.25
         Mo        10.220            3.547    674.21  77634.20
         Mo        10.267            3.547    674.22  77634.20
         S          3.853            3.128    251.62  12327.25
         S          3.861            3.128    251.62  12327.25
         S          3.859            3.128    251.62  12327.25
         S          3.820            3.128    251.62  12327.25
         Mo        10.208            3.547    674.22  77634.20
         Mo        10.221            3.547    674.22  77634.20
         S          3.858            3.128    251.62  12327.25
         S          3.859            3.128    251.62  12327.25
         S          3.758            3.128    251.62  12327.25
         S          3.859            3.128    251.62  12327.25
         Mo        10.221            3.547    674.22  77634.20
         Mo        10.250            3.547    674.22  77634.20
         S          3.853            3.128    251.62  12327.25
         S          3.860            3.128    251.62  12327.25
         S          3.859            3.128    251.62  12327.25
         S          3.823            3.128    251.62  12327.25
         Pt         4.477            3.168    673.76  70063.64
         Pd         5.033            3.168    531.75  48720.73
         Pd         0.956            3.168    802.71  73546.80

         Molecular C6 ( Ry / a.u.^6 ) =  14186509.88


     number of k points=     4  Gaussian smearing, width (Ry)=  0.0100
                       cart. coord. in units 2pi/alat
        k(    1) = (   0.0000000   0.0000000   0.0000000), wk =   0.5000000
        k(    2) = (   0.0000000  -0.5773499   0.0000000), wk =   0.5000000
        k(    3) = (  -0.5000000  -0.2886744   0.0000000), wk =   0.5000000
        k(    4) = (  -0.5000000  -0.8660242   0.0000000), wk =   0.5000000

     Dense  grid:  7154885 G-vectors     FFT dimensions: ( 180, 180, 512)

     Smooth grid:  3090769 G-vectors     FFT dimensions: ( 135, 135, 400)

     Estimated max dynamical RAM per process >       4.32 GB

     Estimated total dynamical RAM >     155.52 GB

     Initial potential from superposition of free atoms

     starting charge    1731.9386, renormalised to    1732.0000

     negative rho (up, down):  8.948E-04 0.000E+00
     Starting wfcs are 1189 randomized atomic wfcs
     Checking if some PAW data can be deallocated... 

     total cpu time spent up to now is      183.2 secs

     Self-consistent Calculation

     iteration #  1     ecut=    77.00 Ry     beta= 0.20
     Davidson diagonalization with overlap
     ethr =  1.00E-02,  avg # of iterations =  2.0

     Threshold (ethr) on eigenvalues was too large:
     Diagonalizing with lowered threshold

     Davidson diagonalization with overlap
     ethr =  2.07E-04,  avg # of iterations = 14.2

     negative rho (up, down):  2.306E-04 0.000E+00

     total cpu time spent up to now is     2075.6 secs

     total energy              =  -34491.91460857 Ry
     estimated scf accuracy    <       6.29524815 Ry

     iteration #  2     ecut=    77.00 Ry     beta= 0.20
     Davidson diagonalization with overlap
     ethr =  3.63E-04,  avg # of iterations =  7.5

     negative rho (up, down):  3.634E-05 0.000E+00

     total cpu time spent up to now is     2513.1 secs

     total energy              =  -34491.11330619 Ry
     estimated scf accuracy    <       3.04021422 Ry

     iteration #  3     ecut=    77.00 Ry     beta= 0.20
     Davidson diagonalization with overlap
     ethr =  1.76E-04,  avg # of iterations =  9.8

     negative rho (up, down):  1.335E-05 0.000E+00

     total cpu time spent up to now is     2976.1 secs

     total energy              =  -34491.04667378 Ry
     estimated scf accuracy    <       1.14730218 Ry

     iteration #  4     ecut=    77.00 Ry     beta= 0.20
     Davidson diagonalization with overlap
     c_bands:  1 eigenvalues not converged
     ethr =  6.62E-05,  avg # of iterations = 19.8

     negative rho (up, down):  1.242E-05 0.000E+00

     total cpu time spent up to now is     3946.5 secs

     total energy              =  -34491.73102228 Ry
     estimated scf accuracy    <       0.35475314 Ry

     iteration #  5     ecut=    77.00 Ry     beta= 0.20
     Davidson diagonalization with overlap
     c_bands:  3 eigenvalues not converged
     c_bands:  1 eigenvalues not converged
     ethr =  2.05E-05,  avg # of iterations = 16.8

     negative rho (up, down):  2.288E-05 0.000E+00

     total cpu time spent up to now is     4981.0 secs

     total energy              =  -34492.07155183 Ry
     estimated scf accuracy    <       0.20203107 Ry

     iteration #  6     ecut=    77.00 Ry     beta= 0.20
     Davidson diagonalization with overlap
     c_bands:  1 eigenvalues not converged
     ethr =  1.17E-05,  avg # of iterations = 21.5

     negative rho (up, down):  3.041E-05 0.000E+00

     total cpu time spent up to now is     5678.9 secs

     total energy              =  -34492.08297598 Ry
     estimated scf accuracy    <       0.30288555 Ry

     iteration #  7     ecut=    77.00 Ry     beta= 0.20
     Davidson diagonalization with overlap
     ethr =  1.17E-05,  avg # of iterations =  7.8

     negative rho (up, down):  2.378E-04 0.000E+00

     total cpu time spent up to now is     6116.5 secs

     total energy              =  -34492.08072226 Ry
     estimated scf accuracy    <       0.12834648 Ry

     iteration #  8     ecut=    77.00 Ry     beta= 0.20
     Davidson diagonalization with overlap
     ethr =  7.41E-06,  avg # of iterations = 15.5

     negative rho (up, down):  6.095E-04 0.000E+00

     total cpu time spent up to now is     6754.7 secs

     total energy              =  -34492.11153426 Ry
     estimated scf accuracy    <       0.05209620 Ry

     iteration #  9     ecut=    77.00 Ry     beta= 0.20
     Davidson diagonalization with overlap
     c_bands:  5 eigenvalues not converged
     c_bands:  3 eigenvalues not converged
     c_bands:  4 eigenvalues not converged
     c_bands:  2 eigenvalues not converged
     ethr =  3.01E-06,  avg # of iterations = 30.0

     negative rho (up, down):  4.687E-04 0.000E+00

     total cpu time spent up to now is     7940.9 secs

     total energy              =  -34492.12891962 Ry
     estimated scf accuracy    <       0.04230869 Ry

     iteration # 10     ecut=    77.00 Ry     beta= 0.20
     Davidson diagonalization with overlap
     c_bands:  1 eigenvalues not converged
     c_bands:  2 eigenvalues not converged
     ethr =  2.44E-06,  avg # of iterations = 15.0

     negative rho (up, down):  4.033E-04 0.000E+00

     total cpu time spent up to now is     8428.4 secs

     total energy              =  -34492.13157812 Ry
     estimated scf accuracy    <       0.00583115 Ry

     iteration # 11     ecut=    77.00 Ry     beta= 0.20
     Davidson diagonalization with overlap
     c_bands:  3 eigenvalues not converged
     c_bands:  5 eigenvalues not converged
     c_bands:  5 eigenvalues not converged
     ethr =  3.37E-07,  avg # of iterations = 25.5

     negative rho (up, down):  4.685E-04 0.000E+00

     total cpu time spent up to now is    10550.4 secs

     total energy              =  -34492.14755521 Ry
     estimated scf accuracy    <       0.01359177 Ry

     iteration # 12     ecut=    77.00 Ry     beta= 0.20
     Davidson diagonalization with overlap
     c_bands:  3 eigenvalues not converged
     ethr =  3.37E-07,  avg # of iterations = 15.5

     negative rho (up, down):  6.184E-04 0.000E+00

     total cpu time spent up to now is    11103.1 secs

     total energy              =  -34492.14396609 Ry
     estimated scf accuracy    <       0.00645007 Ry

     iteration # 13     ecut=    77.00 Ry     beta= 0.20
     Davidson diagonalization with overlap
     ethr =  3.37E-07,  avg # of iterations =  9.5

     negative rho (up, down):  6.946E-04 0.000E+00

     total cpu time spent up to now is    11830.0 secs

     total energy              =  -34492.14760743 Ry
     estimated scf accuracy    <       0.00100182 Ry

     iteration # 14     ecut=    77.00 Ry     beta= 0.20
     Davidson diagonalization with overlap
     c_bands:  1 eigenvalues not converged
     ethr =  5.78E-08,  avg # of iterations = 18.0

     negative rho (up, down):  6.876E-04 0.000E+00

     total cpu time spent up to now is    12929.0 secs

     total energy              =  -34492.14784569 Ry
     estimated scf accuracy    <       0.00200434 Ry

     iteration # 15     ecut=    77.00 Ry     beta= 0.20
     Davidson diagonalization with overlap
     ethr =  5.78E-08,  avg # of iterations =  5.8

     negative rho (up, down):  7.167E-04 0.000E+00

     total cpu time spent up to now is    13378.6 secs

     total energy              =  -34492.14767483 Ry
     estimated scf accuracy    <       0.00046595 Ry

     iteration # 16     ecut=    77.00 Ry     beta= 0.20
     Davidson diagonalization with overlap
     c_bands:  3 eigenvalues not converged
     c_bands:  4 eigenvalues not converged
     ethr =  2.69E-08,  avg # of iterations = 29.5

     negative rho (up, down):  7.722E-04 0.000E+00

     total cpu time spent up to now is    14686.9 secs

     total energy              =  -34492.14809050 Ry
     estimated scf accuracy    <       0.00039822 Ry

     iteration # 17     ecut=    77.00 Ry     beta= 0.20
     Davidson diagonalization with overlap
     ethr =  2.30E-08,  avg # of iterations =  2.0

     negative rho (up, down):  8.178E-04 0.000E+00

     total cpu time spent up to now is    15102.5 secs

     total energy              =  -34492.14804195 Ry
     estimated scf accuracy    <       0.00007599 Ry

     iteration # 18     ecut=    77.00 Ry     beta= 0.20
     Davidson diagonalization with overlap
     c_bands:  5 eigenvalues not converged
     c_bands:  3 eigenvalues not converged
     c_bands:  1 eigenvalues not converged
     c_bands:  1 eigenvalues not converged
     ethr =  4.39E-09,  avg # of iterations = 20.0

     negative rho (up, down):  8.179E-04 0.000E+00

     total cpu time spent up to now is    16697.6 secs

     total energy              =  -34492.14820627 Ry
     estimated scf accuracy    <       0.00027095 Ry

     iteration # 19     ecut=    77.00 Ry     beta= 0.20
     Davidson diagonalization with overlap
     ethr =  4.39E-09,  avg # of iterations = 14.0

     negative rho (up, down):  8.092E-04 0.000E+00

     total cpu time spent up to now is    17316.1 secs

     total energy              =  -34492.14813480 Ry
     estimated scf accuracy    <       0.00016731 Ry

     iteration # 20     ecut=    77.00 Ry     beta= 0.20
     Davidson diagonalization with overlap
     ethr =  4.39E-09,  avg # of iterations =  7.0

     negative rho (up, down):  8.107E-04 0.000E+00

     total cpu time spent up to now is    17930.7 secs

     total energy              =  -34492.14815335 Ry
     estimated scf accuracy    <       0.00001932 Ry

     iteration # 21     ecut=    77.00 Ry     beta= 0.20
     Davidson diagonalization with overlap
     c_bands:  2 eigenvalues not converged
     c_bands:  2 eigenvalues not converged
     ethr =  1.12E-09,  avg # of iterations = 19.0

     negative rho (up, down):  8.128E-04 0.000E+00

     total cpu time spent up to now is    19081.5 secs

     total energy              =  -34492.14818302 Ry
     estimated scf accuracy    <       0.00000372 Ry

     iteration # 22     ecut=    77.00 Ry     beta= 0.20
     Davidson diagonalization with overlap
     c_bands:  2 eigenvalues not converged
     c_bands:  1 eigenvalues not converged
     c_bands:  5 eigenvalues not converged
     ethr =  2.15E-10,  avg # of iterations = 19.0

     negative rho (up, down):  8.153E-04 0.000E+00

     total cpu time spent up to now is    20199.4 secs

     total energy              =  -34492.14818401 Ry
     estimated scf accuracy    <       0.00000433 Ry

     iteration # 23     ecut=    77.00 Ry     beta= 0.20
     Davidson diagonalization with overlap
     ethr =  2.15E-10,  avg # of iterations =  9.2

     negative rho (up, down):  8.168E-04 0.000E+00

     total cpu time spent up to now is    20694.8 secs

     End of self-consistent calculation

          k = 0.0000 0.0000 0.0000 (386245 PWs)   bands (ev):

  -103.0278 -88.9996 -86.7883 -71.3746 -71.3704 -71.3457 -71.3167 -71.3107
   -71.2942 -71.2878 -66.5976 -66.5935 -66.5932 -66.5916 -66.5835 -66.5782
   -66.5764 -66.5725 -66.5724 -66.5723 -66.5722 -66.5720 -66.5719 -66.5719
   -66.5719 -66.5719 -66.5718 -66.5718 -66.5718 -66.5704 -66.5704 -66.5703
   -66.5703 -66.5703 -66.5703 -66.5701 -66.5654 -66.5622 -66.5609 -66.5561
   -66.5512 -66.5510 -66.5510 -66.5509 -66.5508 -66.5508 -66.5506 -66.5506
   -66.5505 -66.5505 -66.5505 -66.5505 -66.5505 -66.5504 -66.5504 -66.5504
   -66.5504 -66.5504 -66.5490 -66.5489 -66.5489 -66.5489 -66.5489 -66.5489
   -66.5489 -66.5489 -66.5489 -66.5448 -66.5402 -66.5358 -66.5323 -66.5288
   -66.5237 -66.5195 -57.3378 -57.2332 -57.1553 -54.8974 -54.7829 -54.6389
   -52.7915 -52.5241 -52.5122 -40.9211 -40.9209 -40.9207 -40.9206 -40.9206
   -40.9206 -40.9197 -40.9197 -40.9197 -40.9173 -40.9145 -40.9099 -40.8477
   -40.8459 -40.8457 -40.8456 -40.8455 -40.8454 -40.8453 -40.8453 -40.8453
   -40.8452 -40.8452 -40.8452 -40.8452 -40.8443 -40.8443 -40.8443 -40.8443
   -40.8443 -40.8443 -40.8418 -40.8360 -40.8317 -40.8244 -40.8211 -40.7882
   -40.7596 -40.7532 -40.7528 -40.7520 -40.7406 -40.7346 -40.7228 -40.7212
   -40.7198 -40.7195 -40.7193 -40.7193 -40.7192 -40.7191 -40.7190 -40.7189
   -40.7189 -40.7189 -40.7189 -40.7189 -40.7189 -40.7179 -40.7179 -40.7179
   -40.7179 -40.7179 -40.7179 -40.7152 -40.7124 -40.7118 -40.7116 -40.7115
   -40.7114 -40.7113 -40.7112 -40.7111 -40.7111 -40.7111 -40.7111 -40.7111
   -40.7111 -40.7102 -40.7102 -40.7102 -40.7102 -40.7102 -40.7102 -40.7096
   -40.7061 -40.7016 -40.6988 -40.6904 -40.6889 -40.6860 -40.6844 -40.6843
   -40.6842 -40.6842 -40.6840 -40.6840 -40.6839 -40.6839 -40.6839 -40.6839
   -40.6839 -40.6839 -40.6828 -40.6828 -40.6828 -40.6828 -40.6828 -40.6828
   -40.6817 -40.6796 -40.6766 -40.6757 -40.6736 -40.6703 -40.6698 -40.6698
   -40.6697 -40.6696 -40.6695 -40.6694 -40.6694 -40.6693 -40.6692 -40.6692
   -40.6691 -40.6691 -40.6691 -40.6691 -40.6691 -40.6691 -40.6691 -40.6691
   -40.6690 -40.6682 -40.6682 -40.6682 -40.6682 -40.6682 -40.6682 -40.6681
   -40.6681 -40.6681 -40.6626 -40.6605 -40.6583 -40.6570 -40.6551 -40.6060
   -40.6058 -40.6058 -40.6055 -40.6055 -40.6055 -40.6044 -40.6044 -40.6044
   -40.6013 -40.5927 -40.5911 -40.5590 -40.5589 -40.5588 -40.5587 -40.5585
   -40.5584 -40.5584 -40.5584 -40.5584 -40.5584 -40.5584 -40.5584 -40.5572
   -40.5572 -40.5572 -40.5572 -40.5572 -40.5572 -40.5526 -40.5495 -40.5440
   -40.5427 -40.5378 -40.5332 -40.5111 -40.5111 -40.5108 -40.5108 -40.5096
   -40.5096 -40.4961 -40.4889 -20.1791 -20.0701 -19.9689 -19.8603 -19.6381
   -19.3087 -19.2771 -19.2256 -19.2232 -19.2180 -19.2071 -19.2014 -19.1984
   -19.1745 -19.1699 -19.1573 -19.1212 -19.1110 -19.1076 -19.0905 -19.0861
   -19.0725 -19.0161 -19.0098 -19.0083 -19.0026 -19.0009 -18.9952 -18.8831
   -18.7853 -18.7309 -18.6055 -18.5531 -18.5277 -18.4808 -18.4707 -18.4510
   -18.4414 -18.4192 -18.4045 -18.3891 -18.3781 -18.3639 -18.3363 -18.3092
   -18.3009 -18.2560 -18.2538 -18.2454 -18.2239 -18.2162 -18.2140 -18.1585
   -18.1542 -18.1520 -18.1448 -18.1446 -18.1439 -18.1096 -18.0973 -18.0921
   -18.0910 -18.0893 -18.0886 -18.0868 -18.0747 -18.0632 -18.0596 -18.0561
   -18.0538 -18.0509 -18.0463 -18.0458 -18.0441 -18.0359 -18.0223 -18.0218
   -18.0202 -18.0176 -18.0145 -18.0055 -18.0013 -17.9983 -17.9875 -17.9819
   -17.9749 -17.9744 -17.9707 -17.9695 -17.9599 -17.9573 -17.9551 -17.9318
   -17.9234 -17.9180 -17.9064 -17.8939 -17.8925 -17.8883 -17.8870 -17.8865
   -17.8684 -17.8643 -17.8616 -17.8526 -17.8477 -17.8425 -17.8392 -17.8371
   -17.8357 -17.8294 -17.8275 -17.8264 -17.8106 -17.8100 -17.8096 -17.8007
   -17.7991 -17.7961 -17.7930 -17.7921 -17.7904 -17.7667 -17.7666 -17.7655
   -17.7648 -17.7641 -17.7636 -12.2039 -12.0284 -11.9414 -11.8670 -11.7893
   -11.7691 -11.7575 -11.7537 -11.6554 -11.6494 -11.6372 -11.5617 -11.5308
   -11.5236 -11.5159 -11.4055 -11.3507 -11.3295 -11.2513 -11.2185 -11.2115
   -11.2076 -11.2072 -11.2039 -11.1741 -11.1572 -11.1267 -11.1093 -11.1023
   -11.1002 -11.0983 -11.0942 -11.0919 -11.0697 -11.0493 -11.0444 -11.0415
   -11.0321 -11.0317 -11.0275 -11.0243 -11.0194 -11.0164 -11.0031 -10.9957
   -10.9843 -10.9539 -10.9431 -10.9337 -10.9221 -10.9147 -10.9046 -10.8898
   -10.8793 -10.8704 -10.8653 -10.8607 -10.8521 -10.8475 -10.8395 -10.8219
   -10.8199 -10.8148 -10.8124 -10.8049 -10.8009 -10.7999 -10.7986 -10.7978
   -10.7936 -10.7876 -10.7791 -10.7775 -10.7770 -10.7761 -10.7739 -10.7523
   -10.7506 -10.7480 -10.7457 -10.7451 -10.7405 -10.7373 -10.7279 -10.7262
   -10.7072 -10.7069 -10.7062 -10.7060 -10.7035 -10.7028 -10.6511 -10.6342
   -10.6279 -10.5993 -10.5741 -10.5642 -10.5588 -10.5505 -10.5478 -10.5341
   -10.4454 -10.2721 -10.1629 -10.1449 -10.1162 -10.0872  -9.9441  -9.9336
    -9.9194  -9.8849  -9.8106  -9.7953  -9.7820  -9.7747  -9.7668  -9.7654
    -9.7485  -9.7449  -9.7429  -9.7408  -9.7385  -9.7344  -9.7313  -9.7288
    -9.7216  -9.7194  -9.7172  -9.7102  -9.7052  -9.7004  -9.6839  -9.6623
    -9.6535  -9.6176  -9.6047  -9.6003  -9.6000  -9.5972  -9.5940  -9.5885
    -9.5880  -9.5875  -9.5863  -9.5851  -9.5841  -9.5815  -9.5742  -9.5483
    -9.5274  -9.5116  -9.5107  -9.5103  -9.5099  -9.5098  -9.5096  -9.5086
    -9.5073  -9.4902  -9.4889  -9.4758  -9.4695  -9.4497  -9.4461  -9.4262
    -9.4193  -9.3965  -9.3371  -9.3360  -9.3329  -9.3270  -9.3214  -9.3166
    -9.3047  -9.3036  -9.2938  -9.2840  -9.2804  -9.2731  -9.2369  -9.2258
    -9.2189  -9.2103  -9.1953  -9.1883  -9.1778  -9.1631  -9.1558  -9.1519
    -9.1490  -9.1485  -9.1462  -9.1427  -9.1087  -9.1045  -9.0937  -9.0761
    -9.0748  -9.0491  -9.0349  -8.9930  -8.9523  -8.9515  -8.9487  -8.9338
    -8.9322  -8.9263  -8.9249  -8.9172  -8.9100  -8.9030  -8.8863  -8.8862
    -8.8851  -8.8805  -8.8734  -8.8709  -8.8618  -8.8594  -8.8432  -8.7906
    -8.7904  -8.7899  -8.7899  -8.7895  -8.7892  -8.7574  -8.7305  -8.7259
    -8.7153  -8.7096  -8.7066  -8.7001  -8.6451  -8.6386  -8.6386  -8.6335
    -8.6270  -8.6217  -8.5734  -8.5672  -8.5622  -8.5614  -8.5596  -8.5583
    -8.5399  -8.5195  -8.4341  -8.3756  -8.3691  -8.3354  -8.3353  -8.3319
    -8.3308  -8.3274  -8.3247  -8.3231  -8.3207  -8.2853  -8.2527  -8.2460
    -8.2456  -8.2446  -8.2445  -8.2431  -8.2383  -8.2270  -8.2221  -8.2179
    -8.2176  -8.2155  -8.2144  -8.2075  -8.1987  -8.1898  -8.1896  -8.1887
    -8.1887  -8.1870  -8.1842  -8.0777  -7.9704  -7.9364  -7.8392  -7.8301
    -7.8281  -7.8091  -7.7870  -7.7556  -7.7480  -7.7220  -7.6817  -7.6804
    -7.6504  -7.6214  -7.6158  -7.6105  -7.6062  -7.6004  -7.5963  -7.5921
    -7.5744  -7.5707  -7.5635  -7.5496  -7.5354  -7.5277  -7.5157  -7.5089
    -7.5038  -7.5036  -7.5033  -7.5028  -7.5009  -7.4910  -7.4831  -7.4777
    -7.4767  -7.4762  -7.4748  -7.4716  -7.4698  -7.4657  -7.4521  -7.4515
    -7.4511  -7.4508  -7.4507  -7.4484  -7.4424  -7.4198  -7.4114  -7.4021
    -7.3977  -7.3933  -7.3894  -7.3806  -7.3773  -7.3712  -7.3578  -7.3362
    -7.3308  -7.3227  -7.3126  -7.3097  -7.2858  -7.2814  -7.2686  -7.2656
    -7.2617  -7.2587  -7.2564  -7.2549  -7.2330  -7.2304  -7.2193  -7.2185
    -7.2067  -7.2009  -7.2002  -7.1826  -7.1824  -7.1439  -7.1356  -7.0874
    -7.0762  -7.0639  -7.0513  -7.0304  -7.0006  -6.9394  -6.8681  -6.8441
    -6.8408  -6.8323  -6.8232  -6.7894  -6.7556  -6.7503  -6.7493  -6.7336
    -6.7202  -6.6937  -6.6831  -6.6707  -6.6680  -6.6545  -6.6252  -6.6122
    -6.5934  -6.5924  -6.5869  -6.5816  -6.5736  -6.5562  -6.5526  -6.5407
    -6.5318  -6.5166  -6.5114  -6.5015  -6.4915  -6.4909  -6.4835  -6.4806
    -6.4791  -6.4772  -6.4771  -6.4758  -6.4716  -6.4670  -6.4663  -6.4661
    -6.4661  -6.4658  -6.4652  -6.4557  -6.4538  -6.4299  -6.4202  -6.4117
    -6.3949  -6.3813  -6.3789  -6.3761  -6.3611  -6.3357  -6.3351  -6.3208
    -6.3054  -6.3024  -6.3002  -6.2992  -6.2959  -6.2937  -6.2758  -6.2676
    -6.2609  -6.2592  -6.2557  -6.2543  -6.2436  -6.2323  -6.2234  -6.2223
    -6.2208  -6.2203  -6.2179  -6.2116  -6.1977  -6.1415  -6.0917  -5.8998
    -5.7858  -5.6521  -5.5235  -5.3071  -5.1321  -5.0970  -5.0885  -4.9857
    -4.9385  -4.8701  -4.5528  -3.9810  -3.8224  -3.8214  -3.8191  -3.8164
    -3.8038  -3.7994  -3.7969  -3.7950  -3.7928  -3.7919  -3.7833  -3.7601
    -3.6730  -3.6707  -3.6657  -3.6599  -3.6569  -3.6508  -3.6490  -3.6463
    -3.6443  -3.6440  -3.5966  -3.5420  -3.4899  -3.4837  -3.4800  -3.4740
    -3.4661  -3.4610  -3.4528  -3.4443  -3.4409  -3.4396  -3.4374  -3.4339
    -3.4298  -3.4267  -3.4215  -3.4170  -3.4120  -3.4111  -3.4107  -3.4086
    -3.4001  -3.3968  -3.3954  -3.3903  -3.3886  -3.3822  -3.3794  -3.3779
    -3.3756  -3.3728  -3.3705  -3.3694  -3.3624  -3.3600  -3.3539  -3.3296
    -3.3221  -3.3170  -3.3157  -3.3142  -3.3131  -3.3102  -3.3057  -3.3028
    -3.2930  -3.2842  -3.2727  -3.2575  -3.2564  -3.2526  -3.2484  -3.2458
    -3.2342  -3.1959  -3.1914  -3.1791  -3.1709  -3.1664  -3.1600  -3.0619
    -3.0460  -3.0384  -3.0306  -3.0297  -3.0278  -3.0182  -3.0155  -3.0116
    -3.0086  -2.9729  -2.9639  -2.9505  -2.9480  -2.9448  -2.9415  -2.9411
    -2.9398  -2.9389  -2.9328  -2.9313  -2.9312  -2.9280  -2.9241  -2.9222
    -2.9204  -2.9167  -2.9068  -2.9052  -2.9024  -2.9012  -2.8967  -2.8963
    -2.8955  -2.8944  -2.8933  -2.8914  -2.8902  -2.8754  -2.8585  -2.8524
    -2.8467  -2.8400  -2.8369  -2.8274  -2.8224  -2.7981  -2.7742  -2.7733
    -2.7717  -2.7704  -2.7698  -2.7692  -2.7688  -2.7686  -2.7681  -2.7557
    -2.7543  -2.7374  -2.7237  -2.7218  -2.7062  -2.7010  -2.6936  -2.6890
    -2.6822  -2.6407  -2.6354  -2.6077  -2.6060  -2.6019  -2.5938  -2.5921
    -2.5892  -2.5850  -2.5837  -2.5501  -2.5321  -2.5277  -2.5131  -2.5059
    -2.4991  -2.3925  -2.3850  -2.3819  -2.3768  -2.3745  -2.3717

          k = 0.0000-0.5773 0.0000 (386352 PWs)   bands (ev):

  -103.0278 -88.9996 -86.7883 -71.3746 -71.3704 -71.3457 -71.3167 -71.3107
   -71.2942 -71.2878 -66.5956 -66.5881 -66.5873 -66.5873 -66.5869 -66.5869
   -66.5854 -66.5854 -66.5798 -66.5767 -66.5766 -66.5763 -66.5763 -66.5748
   -66.5748 -66.5710 -66.5694 -66.5655 -66.5641 -66.5623 -66.5616 -66.5616
   -66.5615 -66.5614 -66.5612 -66.5612 -66.5612 -66.5612 -66.5596 -66.5596
   -66.5596 -66.5596 -66.5571 -66.5571 -66.5567 -66.5567 -66.5552 -66.5552
   -66.5539 -66.5509 -66.5509 -66.5508 -66.5507 -66.5505 -66.5505 -66.5504
   -66.5504 -66.5489 -66.5489 -66.5489 -66.5489 -66.5464 -66.5464 -66.5460
   -66.5460 -66.5457 -66.5445 -66.5445 -66.5398 -66.5362 -66.5325 -66.5272
   -66.5257 -66.5189 -57.3378 -57.2332 -57.1553 -54.8974 -54.7829 -54.6389
   -52.7915 -52.5241 -52.5122 -40.8894 -40.8893 -40.8893 -40.8893 -40.8892
   -40.8889 -40.8889 -40.8889 -40.8889 -40.8881 -40.8881 -40.8881 -40.8880
   -40.8880 -40.8833 -40.8690 -40.8670 -40.8625 -40.8624 -40.8621 -40.8621
   -40.8612 -40.8612 -40.8569 -40.8504 -40.8504 -40.8501 -40.8501 -40.8492
   -40.8492 -40.8351 -40.8206 -40.7997 -40.7997 -40.7997 -40.7997 -40.7994
   -40.7994 -40.7994 -40.7994 -40.7984 -40.7984 -40.7984 -40.7984 -40.7911
   -40.7878 -40.7849 -40.7828 -40.7802 -40.7594 -40.7414 -40.7411 -40.7410
   -40.7406 -40.7406 -40.7398 -40.7397 -40.7355 -40.7315 -40.7314 -40.7311
   -40.7311 -40.7301 -40.7300 -40.7300 -40.7202 -40.7201 -40.7197 -40.7197
   -40.7191 -40.7189 -40.7189 -40.7154 -40.7091 -40.7037 -40.6989 -40.6932
   -40.6906 -40.6906 -40.6905 -40.6905 -40.6901 -40.6901 -40.6901 -40.6901
   -40.6892 -40.6892 -40.6892 -40.6892 -40.6852 -40.6819 -40.6818 -40.6818
   -40.6814 -40.6814 -40.6805 -40.6805 -40.6749 -40.6700 -40.6699 -40.6696
   -40.6696 -40.6696 -40.6695 -40.6695 -40.6694 -40.6691 -40.6691 -40.6691
   -40.6691 -40.6691 -40.6685 -40.6685 -40.6682 -40.6682 -40.6682 -40.6682
   -40.6681 -40.6663 -40.6632 -40.6608 -40.6608 -40.6604 -40.6604 -40.6595
   -40.6595 -40.6552 -40.6545 -40.6391 -40.6390 -40.6390 -40.6389 -40.6387
   -40.6387 -40.6387 -40.6387 -40.6375 -40.6375 -40.6375 -40.6375 -40.6329
   -40.6310 -40.6268 -40.6241 -40.6043 -40.6043 -40.6042 -40.6042 -40.6039
   -40.6039 -40.6039 -40.6039 -40.6028 -40.6028 -40.6028 -40.6028 -40.5984
   -40.5921 -40.5921 -40.5918 -40.5918 -40.5917 -40.5906 -40.5906 -40.5890
   -40.5848 -40.5809 -40.5728 -40.5727 -40.5725 -40.5725 -40.5713 -40.5713
   -40.5666 -40.5631 -40.5558 -40.5558 -40.5555 -40.5555 -40.5543 -40.5543
   -40.5540 -40.5385 -40.5325 -40.5251 -40.5251 -40.5248 -40.5248 -40.5236
   -40.5236 -40.5133 -40.5020 -20.0650 -19.8623 -19.8380 -19.8059 -19.7415
   -19.7125 -19.6312 -19.6177 -19.5112 -19.4389 -19.4006 -19.3845 -19.3116
   -19.2924 -19.2076 -19.1949 -19.1108 -18.8651 -18.7866 -18.7545 -18.7220
   -18.7124 -18.6932 -18.6895 -18.6865 -18.6799 -18.6566 -18.6337 -18.6229
   -18.6163 -18.6068 -18.5934 -18.5659 -18.5524 -18.5439 -18.5234 -18.5205
   -18.5162 -18.5012 -18.4940 -18.4825 -18.4543 -18.4478 -18.4466 -18.4382
   -18.4077 -18.3822 -18.3784 -18.3724 -18.3485 -18.3442 -18.3346 -18.3051
   -18.2934 -18.2879 -18.2679 -18.2240 -18.2195 -18.2162 -18.2038 -18.1701
   -18.1649 -18.1487 -18.1348 -18.1071 -18.0931 -18.0911 -18.0825 -18.0720
   -18.0699 -18.0667 -18.0661 -18.0545 -18.0439 -18.0424 -18.0397 -18.0357
   -18.0347 -18.0258 -18.0232 -18.0192 -18.0125 -18.0095 -18.0000 -17.9794
   -17.9787 -17.9728 -17.9700 -17.9683 -17.9662 -17.9633 -17.9586 -17.9572
   -17.9472 -17.9216 -17.9157 -17.9058 -17.9034 -17.8979 -17.8908 -17.8629
   -17.8599 -17.8522 -17.8462 -17.8215 -17.8173 -17.8139 -17.8103 -17.8063
   -17.7974 -17.7879 -17.7876 -17.7871 -17.7865 -17.7859 -17.7851 -17.7736
   -17.7723 -17.7552 -17.7527 -17.7308 -17.7285 -17.7119 -17.7090 -17.6962
   -17.6948 -17.6875 -17.6873 -12.1179 -11.9129 -11.7274 -11.7021 -11.6811
   -11.5827 -11.5180 -11.4912 -11.4701 -11.4687 -11.4639 -11.4526 -11.4481
   -11.4405 -11.4296 -11.3797 -11.3748 -11.3563 -11.3542 -11.3505 -11.3322
   -11.3054 -11.2964 -11.2903 -11.2681 -11.2562 -11.2495 -11.2421 -11.2360
   -11.2296 -11.2281 -11.2214 -11.2186 -11.1812 -11.1727 -11.1661 -11.1644
   -11.1586 -11.1434 -11.1371 -11.1364 -11.1310 -11.1160 -11.1144 -11.1106
   -11.0891 -11.0728 -11.0620 -11.0497 -11.0350 -11.0323 -11.0000 -10.9656
   -10.9512 -10.9257 -10.9142 -10.9035 -10.8893 -10.8825 -10.8794 -10.8633
   -10.8316 -10.8190 -10.8083 -10.8039 -10.7987 -10.7906 -10.7837 -10.7805
   -10.7800 -10.7781 -10.7768 -10.7725 -10.7702 -10.7650 -10.7638 -10.7606
   -10.7599 -10.7533 -10.7523 -10.7497 -10.7461 -10.7136 -10.7117 -10.7108
   -10.7103 -10.6872 -10.6082 -10.5428 -10.5139 -10.4992 -10.4973 -10.4793
   -10.4536 -10.4063 -10.3711 -10.3304 -10.2667 -10.2276 -10.1923 -10.1359
   -10.1196 -10.1047 -10.1013 -10.0821 -10.0791 -10.0622 -10.0573 -10.0256
   -10.0217 -10.0052 -10.0034 -10.0023  -9.9973  -9.9892  -9.9818  -9.9535
    -9.9444  -9.9059  -9.9009  -9.8983  -9.8861  -9.8803  -9.8669  -9.8606
    -9.8568  -9.8377  -9.8311  -9.8208  -9.8174  -9.7870  -9.7668  -9.7560
    -9.7490  -9.7373  -9.7340  -9.7100  -9.7044  -9.6847  -9.6715  -9.6566
    -9.6537  -9.6259  -9.6250  -9.5963  -9.5890  -9.5877  -9.5773  -9.5619
    -9.5404  -9.5328  -9.5278  -9.5139  -9.5046  -9.5039  -9.4989  -9.4656
    -9.4596  -9.4570  -9.4432  -9.4419  -9.4367  -9.4347  -9.4274  -9.4231
    -9.4151  -9.4032  -9.3953  -9.3665  -9.3558  -9.3305  -9.3196  -9.2745
    -9.2636  -9.2425  -9.1985  -9.1868  -9.1802  -9.1738  -9.1681  -9.1635
    -9.1420  -9.1291  -9.1202  -9.1068  -9.0989  -9.0939  -9.0804  -9.0562
    -9.0376  -9.0318  -9.0186  -9.0134  -9.0092  -9.0044  -8.9976  -8.9720
    -8.9640  -8.9513  -8.9417  -8.9262  -8.9201  -8.9155  -8.9083  -8.8992
    -8.8904  -8.8732  -8.8602  -8.8583  -8.8559  -8.8553  -8.8533  -8.8473
    -8.8411  -8.8375  -8.8358  -8.8356  -8.8303  -8.8266  -8.8212  -8.8157
    -8.8081  -8.8076  -8.8037  -8.7884  -8.7811  -8.7611  -8.7599  -8.7593
    -8.7563  -8.7532  -8.7514  -8.7316  -8.7302  -8.7211  -8.7078  -8.7011
    -8.6992  -8.6964  -8.6875  -8.6713  -8.6280  -8.6238  -8.6135  -8.5935
    -8.5671  -8.4869  -8.4747  -8.4701  -8.4428  -8.4114  -8.3983  -8.3840
    -8.3590  -8.3265  -8.3162  -8.2537  -8.2515  -8.2093  -8.1404  -8.0958
    -8.0955  -8.0889  -8.0866  -8.0824  -8.0752  -8.0743  -8.0391  -8.0271
    -8.0186  -7.9902  -7.9521  -7.9362  -7.9306  -7.8991  -7.8490  -7.8260
    -7.8181  -7.8121  -7.8095  -7.7995  -7.7903  -7.7857  -7.7814  -7.7762
    -7.7731  -7.7707  -7.7670  -7.7648  -7.7637  -7.7579  -7.7511  -7.7493
    -7.7473  -7.7448  -7.7374  -7.7367  -7.7343  -7.7330  -7.7312  -7.7300
    -7.7263  -7.7260  -7.7206  -7.7147  -7.7074  -7.6981  -7.6978  -7.6948
    -7.6921  -7.6655  -7.6648  -7.6642  -7.6638  -7.6547  -7.6394  -7.6341
    -7.6331  -7.6324  -7.6317  -7.6238  -7.6165  -7.6056  -7.5890  -7.5878
    -7.5781  -7.5762  -7.5750  -7.5717  -7.5664  -7.5564  -7.5528  -7.5514
    -7.5320  -7.5317  -7.5302  -7.5239  -7.5166  -7.5148  -7.4966  -7.4652
    -7.4299  -7.4268  -7.4239  -7.4213  -7.3834  -7.3730  -7.2952  -7.2844
    -7.2466  -7.1586  -7.1453  -7.1387  -7.1354  -7.1313  -7.1081  -7.0963
    -7.0949  -7.0811  -7.0745  -7.0547  -7.0487  -7.0321  -7.0274  -7.0089
    -6.9992  -6.9879  -6.9762  -6.9726  -6.9642  -6.9463  -6.9438  -6.9158
    -6.8843  -6.8776  -6.8680  -6.8645  -6.8493  -6.8459  -6.8366  -6.8281
    -6.8266  -6.8103  -6.7937  -6.7614  -6.7405  -6.7250  -6.7188  -6.6773
    -6.6691  -6.6540  -6.6455  -6.6143  -6.6056  -6.5893  -6.5861  -6.5789
    -6.5736  -6.5720  -6.5717  -6.5683  -6.5561  -6.5550  -6.5547  -6.5536
    -6.5468  -6.5466  -6.5465  -6.5464  -6.5321  -6.5018  -6.4773  -6.4556
    -6.4431  -6.3957  -6.3684  -6.3650  -6.3008  -6.2927  -6.2902  -6.2874
    -6.2797  -6.2685  -6.2492  -6.2466  -6.2451  -6.2431  -6.2402  -6.2390
    -6.2347  -6.2278  -6.2213  -6.2023  -6.2001  -6.1866  -6.1777  -6.1750
    -6.1690  -6.1657  -6.1531  -6.1359  -5.9774  -5.9655  -5.9459  -5.9274
    -5.9106  -5.8840  -5.8678  -5.8421  -5.8258  -5.8147  -5.8069  -5.7038
    -5.6543  -5.6204  -5.5694  -5.5584  -5.4503  -5.0979  -5.0907  -4.9917
    -4.9341  -4.8650  -4.5478  -4.0757  -4.0611  -4.0584  -4.0386  -3.9656
    -3.9016  -3.8937  -3.8888  -3.8843  -3.8406  -3.8178  -3.8096  -3.8024
    -3.7951  -3.7901  -3.7811  -3.7786  -3.7664  -3.7656  -3.7447  -3.7064
    -3.6594  -3.6553  -3.6183  -3.5958  -3.5728  -3.5700  -3.5667  -3.5657
    -3.5582  -3.5250  -3.5189  -3.5160  -3.5014  -3.4926  -3.4904  -3.4837
    -3.4770  -3.4700  -3.4534  -3.4506  -3.4445  -3.4403  -3.4387  -3.4332
    -3.4297  -3.4179  -3.4158  -3.4044  -3.3970  -3.3913  -3.3871  -3.3816
    -3.3700  -3.3474  -3.3232  -3.3179  -3.3151  -3.3132  -3.3120  -3.3100
    -3.3049  -3.2922  -3.2746  -3.2663  -3.2598  -3.2566  -3.2549  -3.2470
    -3.2463  -3.2431  -3.2403  -3.2319  -3.2209  -3.2129  -3.2116  -3.2041
    -3.2004  -3.1970  -3.1876  -3.1779  -3.1760  -3.1744  -3.1640  -3.1523
    -3.1500  -3.1430  -3.1407  -3.1358  -3.1308  -3.1277  -3.1276  -3.1176
    -3.1166  -3.0806  -3.0726  -3.0513  -3.0393  -3.0359  -3.0333  -3.0294
    -3.0265  -2.9948  -2.9916  -2.9904  -2.9885  -2.9873  -2.9865  -2.9799
    -2.9781  -2.9747  -2.9730  -2.9710  -2.9652  -2.9557  -2.9553  -2.9505
    -2.9458  -2.9427  -2.9382  -2.9363  -2.9320  -2.9271  -2.9228  -2.9161
    -2.9132  -2.9108  -2.9093  -2.9007  -2.8973  -2.8909  -2.8841  -2.8708
    -2.8606  -2.8534  -2.8508  -2.8454  -2.8406  -2.8393  -2.8160  -2.7634
    -2.7618  -2.7559  -2.7515  -2.7176  -2.6948  -2.6850  -2.6794  -2.5948
    -2.5789  -2.5655  -2.5564  -2.5405  -2.5382  -2.5229  -2.5095  -2.5081
    -2.5055  -2.4960  -2.4922  -2.4914  -2.4897  -2.3843  -2.3804  -2.3675
    -2.3612  -2.3568  -2.3518  -2.3376  -2.3357  -2.3074  -2.3053

          k =-0.5000-0.2887 0.0000 (386352 PWs)   bands (ev):

  -103.0278 -88.9996 -86.7883 -71.3746 -71.3704 -71.3457 -71.3167 -71.3107
   -71.2942 -71.2878 -66.5956 -66.5880 -66.5874 -66.5872 -66.5869 -66.5869
   -66.5854 -66.5854 -66.5797 -66.5767 -66.5766 -66.5763 -66.5763 -66.5748
   -66.5748 -66.5718 -66.5679 -66.5677 -66.5633 -66.5617 -66.5617 -66.5614
   -66.5614 -66.5613 -66.5612 -66.5612 -66.5612 -66.5612 -66.5596 -66.5596
   -66.5596 -66.5596 -66.5572 -66.5571 -66.5567 -66.5567 -66.5552 -66.5552
   -66.5543 -66.5511 -66.5509 -66.5507 -66.5507 -66.5505 -66.5505 -66.5504
   -66.5504 -66.5489 -66.5489 -66.5489 -66.5489 -66.5464 -66.5464 -66.5460
   -66.5460 -66.5456 -66.5445 -66.5445 -66.5401 -66.5355 -66.5333 -66.5267
   -66.5259 -66.5190 -57.3378 -57.2332 -57.1553 -54.8974 -54.7829 -54.6389
   -52.7915 -52.5241 -52.5122 -40.8899 -40.8894 -40.8893 -40.8893 -40.8891
   -40.8890 -40.8889 -40.8889 -40.8889 -40.8881 -40.8881 -40.8881 -40.8881
   -40.8841 -40.8809 -40.8753 -40.8680 -40.8625 -40.8624 -40.8621 -40.8621
   -40.8612 -40.8612 -40.8570 -40.8504 -40.8504 -40.8501 -40.8501 -40.8492
   -40.8492 -40.8383 -40.8165 -40.7997 -40.7997 -40.7997 -40.7997 -40.7994
   -40.7994 -40.7994 -40.7994 -40.7984 -40.7984 -40.7984 -40.7984 -40.7947
   -40.7875 -40.7840 -40.7796 -40.7781 -40.7553 -40.7488 -40.7411 -40.7409
   -40.7406 -40.7406 -40.7398 -40.7397 -40.7363 -40.7315 -40.7314 -40.7311
   -40.7311 -40.7300 -40.7300 -40.7232 -40.7204 -40.7202 -40.7201 -40.7197
   -40.7197 -40.7189 -40.7189 -40.7161 -40.7110 -40.7023 -40.7003 -40.6944
   -40.6907 -40.6906 -40.6904 -40.6904 -40.6901 -40.6901 -40.6901 -40.6901
   -40.6892 -40.6892 -40.6892 -40.6892 -40.6836 -40.6819 -40.6818 -40.6817
   -40.6814 -40.6814 -40.6805 -40.6805 -40.6759 -40.6717 -40.6700 -40.6699
   -40.6697 -40.6696 -40.6696 -40.6695 -40.6694 -40.6693 -40.6691 -40.6691
   -40.6691 -40.6691 -40.6685 -40.6685 -40.6682 -40.6682 -40.6681 -40.6681
   -40.6678 -40.6639 -40.6633 -40.6608 -40.6608 -40.6604 -40.6604 -40.6595
   -40.6595 -40.6564 -40.6548 -40.6391 -40.6390 -40.6389 -40.6389 -40.6387
   -40.6387 -40.6387 -40.6387 -40.6375 -40.6375 -40.6375 -40.6375 -40.6364
   -40.6299 -40.6272 -40.6216 -40.6043 -40.6043 -40.6043 -40.6042 -40.6039
   -40.6039 -40.6039 -40.6039 -40.6028 -40.6028 -40.6028 -40.6028 -40.5996
   -40.5931 -40.5922 -40.5921 -40.5918 -40.5918 -40.5906 -40.5906 -40.5884
   -40.5843 -40.5795 -40.5728 -40.5728 -40.5725 -40.5724 -40.5713 -40.5713
   -40.5693 -40.5649 -40.5558 -40.5558 -40.5555 -40.5555 -40.5543 -40.5543
   -40.5495 -40.5381 -40.5286 -40.5252 -40.5251 -40.5248 -40.5248 -40.5236
   -40.5236 -40.5128 -40.5061 -20.0678 -19.8591 -19.8380 -19.8009 -19.7414
   -19.7086 -19.6313 -19.6163 -19.5310 -19.4379 -19.4011 -19.3843 -19.3119
   -19.2925 -19.2070 -19.1950 -19.0965 -18.8424 -18.8251 -18.7449 -18.7288
   -18.7066 -18.6934 -18.6893 -18.6877 -18.6707 -18.6620 -18.6327 -18.6252
   -18.6185 -18.6051 -18.5918 -18.5707 -18.5501 -18.5444 -18.5233 -18.5224
   -18.5145 -18.5009 -18.4953 -18.4854 -18.4539 -18.4467 -18.4456 -18.4378
   -18.4076 -18.3821 -18.3766 -18.3749 -18.3579 -18.3481 -18.3207 -18.3030
   -18.2917 -18.2886 -18.2577 -18.2310 -18.2217 -18.2164 -18.2027 -18.1709
   -18.1649 -18.1532 -18.1301 -18.1067 -18.0947 -18.0899 -18.0818 -18.0732
   -18.0696 -18.0668 -18.0652 -18.0583 -18.0435 -18.0411 -18.0397 -18.0364
   -18.0342 -18.0254 -18.0236 -18.0201 -18.0128 -18.0101 -17.9983 -17.9794
   -17.9776 -17.9744 -17.9700 -17.9683 -17.9664 -17.9638 -17.9572 -17.9571
   -17.9470 -17.9195 -17.9168 -17.9064 -17.9037 -17.8998 -17.8890 -17.8622
   -17.8605 -17.8544 -17.8441 -17.8225 -17.8170 -17.8141 -17.8089 -17.8066
   -17.7977 -17.7877 -17.7876 -17.7874 -17.7865 -17.7857 -17.7853 -17.7733
   -17.7726 -17.7548 -17.7531 -17.7305 -17.7287 -17.7116 -17.7093 -17.6961
   -17.6949 -17.6875 -17.6874 -12.1362 -11.8926 -11.7112 -11.6886 -11.6805
   -11.5902 -11.5279 -11.4878 -11.4731 -11.4667 -11.4641 -11.4575 -11.4439
   -11.4377 -11.4201 -11.3922 -11.3832 -11.3609 -11.3470 -11.3390 -11.3301
   -11.3102 -11.3039 -11.2897 -11.2752 -11.2546 -11.2537 -11.2386 -11.2359
   -11.2307 -11.2278 -11.2227 -11.2189 -11.1839 -11.1737 -11.1672 -11.1618
   -11.1483 -11.1443 -11.1376 -11.1372 -11.1310 -11.1219 -11.1149 -11.1138
   -11.0912 -11.0744 -11.0652 -11.0454 -11.0383 -11.0317 -10.9953 -10.9790
   -10.9381 -10.9255 -10.9097 -10.8978 -10.8947 -10.8796 -10.8678 -10.8566
   -10.8522 -10.8408 -10.8062 -10.8039 -10.7994 -10.7935 -10.7848 -10.7820
   -10.7795 -10.7790 -10.7780 -10.7770 -10.7674 -10.7648 -10.7643 -10.7605
   -10.7598 -10.7531 -10.7516 -10.7497 -10.7490 -10.7136 -10.7113 -10.7111
   -10.7106 -10.6855 -10.6469 -10.5128 -10.5098 -10.4976 -10.4957 -10.4613
   -10.4397 -10.3699 -10.3665 -10.3456 -10.2970 -10.2315 -10.2197 -10.1363
   -10.1223 -10.1008 -10.0989 -10.0796 -10.0757 -10.0576 -10.0522 -10.0238
   -10.0202 -10.0064 -10.0003  -9.9997  -9.9970  -9.9893  -9.9795  -9.9572
    -9.9430  -9.9153  -9.8988  -9.8947  -9.8819  -9.8767  -9.8681  -9.8618
    -9.8521  -9.8430  -9.8325  -9.8285  -9.8051  -9.7878  -9.7695  -9.7553
    -9.7521  -9.7355  -9.7340  -9.7096  -9.7029  -9.6936  -9.6659  -9.6597
    -9.6513  -9.6262  -9.6234  -9.5916  -9.5890  -9.5856  -9.5758  -9.5637
    -9.5404  -9.5330  -9.5195  -9.5111  -9.5072  -9.5031  -9.4933  -9.4656
    -9.4592  -9.4572  -9.4424  -9.4404  -9.4367  -9.4321  -9.4280  -9.4229
    -9.4108  -9.4025  -9.3941  -9.3679  -9.3486  -9.3324  -9.3225  -9.2751
    -9.2691  -9.2293  -9.2098  -9.1896  -9.1857  -9.1751  -9.1704  -9.1641
    -9.1351  -9.1294  -9.1200  -9.1100  -9.0947  -9.0896  -9.0792  -9.0631
    -9.0561  -9.0341  -9.0157  -9.0107  -9.0086  -9.0022  -8.9964  -8.9785
    -8.9629  -8.9485  -8.9480  -8.9257  -8.9194  -8.9145  -8.9110  -8.8990
    -8.8910  -8.8714  -8.8601  -8.8589  -8.8576  -8.8548  -8.8491  -8.8467
    -8.8398  -8.8374  -8.8359  -8.8348  -8.8290  -8.8257  -8.8214  -8.8176
    -8.8079  -8.8076  -8.8038  -8.7882  -8.7798  -8.7611  -8.7597  -8.7592
    -8.7574  -8.7538  -8.7508  -8.7328  -8.7290  -8.7284  -8.7032  -8.7010
    -8.6987  -8.6957  -8.6886  -8.6680  -8.6303  -8.6225  -8.6159  -8.5966
    -8.5676  -8.4788  -8.4768  -8.4715  -8.4557  -8.4165  -8.4049  -8.3862
    -8.3354  -8.3291  -8.3056  -8.2690  -8.2457  -8.1997  -8.1502  -8.0958
    -8.0955  -8.0894  -8.0866  -8.0831  -8.0753  -8.0744  -8.0431  -8.0315
    -8.0245  -7.9899  -7.9572  -7.9358  -7.9341  -7.8870  -7.8544  -7.8254
    -7.8171  -7.8098  -7.8076  -7.7984  -7.7879  -7.7833  -7.7806  -7.7796
    -7.7720  -7.7710  -7.7670  -7.7656  -7.7620  -7.7597  -7.7524  -7.7494
    -7.7492  -7.7449  -7.7374  -7.7368  -7.7345  -7.7328  -7.7322  -7.7289
    -7.7263  -7.7260  -7.7220  -7.7093  -7.7060  -7.6988  -7.6971  -7.6942
    -7.6921  -7.6660  -7.6652  -7.6642  -7.6637  -7.6564  -7.6386  -7.6342
    -7.6332  -7.6326  -7.6321  -7.6236  -7.6156  -7.6083  -7.5894  -7.5804
    -7.5783  -7.5760  -7.5740  -7.5690  -7.5665  -7.5574  -7.5531  -7.5516
    -7.5320  -7.5318  -7.5277  -7.5246  -7.5200  -7.5144  -7.4829  -7.4565
    -7.4305  -7.4275  -7.4237  -7.4223  -7.3809  -7.3666  -7.3265  -7.2862
    -7.2367  -7.1686  -7.1433  -7.1374  -7.1369  -7.1326  -7.1073  -7.0974
    -7.0894  -7.0807  -7.0741  -7.0566  -7.0409  -7.0339  -7.0218  -7.0068
    -6.9949  -6.9841  -6.9801  -6.9691  -6.9577  -6.9524  -6.9409  -6.9299
    -6.8930  -6.8825  -6.8681  -6.8642  -6.8528  -6.8475  -6.8337  -6.8271
    -6.8246  -6.8058  -6.7916  -6.7673  -6.7438  -6.7308  -6.7208  -6.6742
    -6.6590  -6.6564  -6.6446  -6.6190  -6.6057  -6.5898  -6.5828  -6.5778
    -6.5732  -6.5724  -6.5718  -6.5652  -6.5563  -6.5555  -6.5547  -6.5523
    -6.5471  -6.5467  -6.5465  -6.5462  -6.5397  -6.5033  -6.4805  -6.4589
    -6.4373  -6.3904  -6.3790  -6.3596  -6.2948  -6.2942  -6.2901  -6.2875
    -6.2809  -6.2680  -6.2471  -6.2458  -6.2455  -6.2437  -6.2403  -6.2400
    -6.2337  -6.2269  -6.2191  -6.1983  -6.1951  -6.1817  -6.1767  -6.1749
    -6.1658  -6.1640  -6.1538  -6.1279  -5.9924  -5.9788  -5.9585  -5.9472
    -5.9094  -5.8861  -5.8558  -5.8313  -5.8219  -5.8128  -5.8031  -5.6909
    -5.6526  -5.6202  -5.5674  -5.5584  -5.4624  -5.0980  -5.0898  -4.9905
    -4.9381  -4.8676  -4.5506  -4.0788  -4.0616  -4.0566  -4.0419  -3.9600
    -3.9012  -3.8933  -3.8883  -3.8850  -3.8476  -3.8173  -3.8093  -3.8019
    -3.7943  -3.7838  -3.7801  -3.7779  -3.7663  -3.7654  -3.7290  -3.7153
    -3.6601  -3.6564  -3.6250  -3.5953  -3.5716  -3.5713  -3.5659  -3.5646
    -3.5362  -3.5296  -3.5207  -3.5168  -3.4948  -3.4926  -3.4898  -3.4803
    -3.4774  -3.4761  -3.4534  -3.4515  -3.4436  -3.4423  -3.4399  -3.4335
    -3.4303  -3.4160  -3.4132  -3.4073  -3.3955  -3.3871  -3.3827  -3.3762
    -3.3586  -3.3570  -3.3299  -3.3189  -3.3154  -3.3143  -3.3122  -3.3093
    -3.3064  -3.2916  -3.2757  -3.2679  -3.2644  -3.2595  -3.2525  -3.2511
    -3.2455  -3.2431  -3.2422  -3.2362  -3.2223  -3.2135  -3.2098  -3.2054
    -3.1987  -3.1945  -3.1915  -3.1782  -3.1776  -3.1748  -3.1638  -3.1560
    -3.1515  -3.1438  -3.1407  -3.1375  -3.1284  -3.1278  -3.1276  -3.1241
    -3.1124  -3.0763  -3.0682  -3.0567  -3.0418  -3.0363  -3.0346  -3.0309
    -3.0235  -2.9934  -2.9921  -2.9905  -2.9887  -2.9875  -2.9873  -2.9804
    -2.9789  -2.9760  -2.9740  -2.9701  -2.9654  -2.9574  -2.9562  -2.9497
    -2.9467  -2.9439  -2.9384  -2.9359  -2.9347  -2.9278  -2.9261  -2.9149
    -2.9135  -2.9103  -2.9094  -2.9008  -2.8969  -2.8903  -2.8816  -2.8709
    -2.8627  -2.8536  -2.8491  -2.8451  -2.8430  -2.8402  -2.8244  -2.7674
    -2.7597  -2.7556  -2.7526  -2.7178  -2.6990  -2.6865  -2.6753  -2.5953
    -2.5788  -2.5639  -2.5551  -2.5413  -2.5326  -2.5288  -2.5134  -2.5069
    -2.4990  -2.4939  -2.4923  -2.4895  -2.4846  -2.3945  -2.3715  -2.3699
    -2.3637  -2.3553  -2.3524  -2.3394  -2.3355  -2.3076  -2.3060

          k =-0.5000-0.8660 0.0000 (386352 PWs)   bands (ev):

  -103.0278 -88.9996 -86.7883 -71.3746 -71.3704 -71.3457 -71.3167 -71.3107
   -71.2942 -71.2878 -66.5965 -66.5873 -66.5872 -66.5869 -66.5869 -66.5854
   -66.5854 -66.5840 -66.5809 -66.5773 -66.5767 -66.5766 -66.5763 -66.5763
   -66.5748 -66.5748 -66.5666 -66.5650 -66.5628 -66.5618 -66.5618 -66.5617
   -66.5613 -66.5612 -66.5612 -66.5612 -66.5612 -66.5612 -66.5596 -66.5596
   -66.5596 -66.5596 -66.5572 -66.5570 -66.5567 -66.5567 -66.5552 -66.5552
   -66.5548 -66.5512 -66.5510 -66.5506 -66.5505 -66.5505 -66.5505 -66.5504
   -66.5504 -66.5490 -66.5489 -66.5489 -66.5489 -66.5464 -66.5463 -66.5460
   -66.5460 -66.5453 -66.5445 -66.5445 -66.5402 -66.5356 -66.5330 -66.5293
   -66.5233 -66.5194 -57.3378 -57.2332 -57.1553 -54.8974 -54.7829 -54.6389
   -52.7915 -52.5241 -52.5122 -40.9027 -40.8895 -40.8894 -40.8894 -40.8892
   -40.8890 -40.8890 -40.8889 -40.8889 -40.8889 -40.8881 -40.8881 -40.8881
   -40.8880 -40.8699 -40.8698 -40.8625 -40.8624 -40.8622 -40.8621 -40.8613
   -40.8612 -40.8529 -40.8504 -40.8504 -40.8501 -40.8501 -40.8494 -40.8492
   -40.8492 -40.8385 -40.8329 -40.7998 -40.7997 -40.7997 -40.7996 -40.7994
   -40.7994 -40.7994 -40.7994 -40.7984 -40.7984 -40.7984 -40.7984 -40.7967
   -40.7908 -40.7871 -40.7858 -40.7767 -40.7593 -40.7421 -40.7411 -40.7410
   -40.7406 -40.7406 -40.7398 -40.7397 -40.7342 -40.7315 -40.7314 -40.7311
   -40.7311 -40.7300 -40.7300 -40.7254 -40.7209 -40.7202 -40.7201 -40.7197
   -40.7197 -40.7189 -40.7189 -40.7178 -40.7087 -40.7047 -40.6959 -40.6908
   -40.6908 -40.6903 -40.6903 -40.6901 -40.6901 -40.6901 -40.6901 -40.6892
   -40.6892 -40.6892 -40.6892 -40.6888 -40.6853 -40.6819 -40.6818 -40.6814
   -40.6814 -40.6809 -40.6805 -40.6805 -40.6764 -40.6753 -40.6700 -40.6699
   -40.6698 -40.6697 -40.6696 -40.6696 -40.6693 -40.6692 -40.6691 -40.6691
   -40.6691 -40.6691 -40.6685 -40.6685 -40.6682 -40.6682 -40.6682 -40.6682
   -40.6681 -40.6636 -40.6615 -40.6608 -40.6608 -40.6604 -40.6604 -40.6595
   -40.6595 -40.6553 -40.6508 -40.6396 -40.6394 -40.6390 -40.6389 -40.6387
   -40.6387 -40.6387 -40.6387 -40.6387 -40.6376 -40.6375 -40.6375 -40.6375
   -40.6351 -40.6181 -40.6153 -40.6043 -40.6043 -40.6043 -40.6042 -40.6039
   -40.6039 -40.6039 -40.6039 -40.6028 -40.6028 -40.6028 -40.6028 -40.5967
   -40.5963 -40.5922 -40.5921 -40.5918 -40.5918 -40.5918 -40.5906 -40.5906
   -40.5846 -40.5825 -40.5730 -40.5726 -40.5725 -40.5725 -40.5713 -40.5713
   -40.5657 -40.5630 -40.5558 -40.5558 -40.5555 -40.5555 -40.5543 -40.5543
   -40.5519 -40.5427 -40.5372 -40.5252 -40.5250 -40.5248 -40.5248 -40.5236
   -40.5235 -40.5171 -40.4946 -20.0670 -19.8612 -19.8379 -19.8036 -19.7411
   -19.7104 -19.6309 -19.6171 -19.5122 -19.4425 -19.4006 -19.3860 -19.3115
   -19.2934 -19.2076 -19.1953 -19.1158 -18.8471 -18.7933 -18.7453 -18.7350
   -18.7120 -18.6931 -18.6896 -18.6868 -18.6793 -18.6603 -18.6316 -18.6231
   -18.6119 -18.6110 -18.5939 -18.5588 -18.5560 -18.5398 -18.5228 -18.5171
   -18.5163 -18.5100 -18.4923 -18.4683 -18.4605 -18.4548 -18.4470 -18.4369
   -18.4061 -18.3813 -18.3790 -18.3689 -18.3637 -18.3438 -18.3293 -18.3035
   -18.2941 -18.2845 -18.2809 -18.2328 -18.2156 -18.2076 -18.2027 -18.1756
   -18.1635 -18.1429 -18.1355 -18.1188 -18.0941 -18.0875 -18.0799 -18.0715
   -18.0704 -18.0675 -18.0656 -18.0461 -18.0440 -18.0430 -18.0401 -18.0375
   -18.0346 -18.0297 -18.0188 -18.0178 -18.0111 -18.0061 -18.0020 -17.9827
   -17.9762 -17.9714 -17.9688 -17.9685 -17.9665 -17.9628 -17.9594 -17.9559
   -17.9462 -17.9286 -17.9095 -17.9052 -17.9019 -17.8973 -17.8923 -17.8656
   -17.8580 -17.8501 -17.8473 -17.8220 -17.8191 -17.8112 -17.8104 -17.8051
   -17.8043 -17.7886 -17.7876 -17.7865 -17.7864 -17.7857 -17.7855 -17.7739
   -17.7721 -17.7554 -17.7524 -17.7307 -17.7285 -17.7116 -17.7094 -17.6960
   -17.6951 -17.6874 -17.6874 -12.1376 -11.9340 -11.7028 -11.6976 -11.6524
   -11.5656 -11.4923 -11.4891 -11.4723 -11.4689 -11.4566 -11.4531 -11.4465
   -11.4263 -11.4216 -11.3978 -11.3780 -11.3674 -11.3608 -11.3334 -11.3194
   -11.3100 -11.3070 -11.2872 -11.2733 -11.2686 -11.2616 -11.2447 -11.2330
   -11.2294 -11.2289 -11.2232 -11.2195 -11.1807 -11.1765 -11.1672 -11.1661
   -11.1507 -11.1418 -11.1397 -11.1375 -11.1276 -11.1204 -11.1145 -11.1087
   -11.0946 -11.0847 -11.0635 -11.0439 -11.0394 -11.0241 -11.0113 -10.9780
   -10.9589 -10.9235 -10.9193 -10.9051 -10.8963 -10.8713 -10.8680 -10.8601
   -10.8398 -10.8258 -10.8078 -10.8016 -10.8012 -10.7955 -10.7867 -10.7807
   -10.7801 -10.7790 -10.7786 -10.7719 -10.7667 -10.7662 -10.7644 -10.7599
   -10.7596 -10.7548 -10.7522 -10.7487 -10.7432 -10.7333 -10.7115 -10.7108
   -10.7104 -10.7093 -10.6244 -10.5202 -10.5065 -10.5023 -10.4994 -10.4695
   -10.4474 -10.3948 -10.3593 -10.3059 -10.2531 -10.2230 -10.1834 -10.1610
   -10.1306 -10.1140 -10.0900 -10.0869 -10.0759 -10.0668 -10.0380 -10.0290
[...]
S               -0.0104988482        1.8129827908        7.6085507197
S                1.5756706791        0.9094921894        4.6244240314
S                1.5756681861        0.9096449328        1.4891897565
S               -0.0181816838        1.6319093447       10.7646216199
Mo              -1.5756053507        4.5484193819       -9.1672481230    0   0   0
Mo               0.0000378379        3.6387394919       -3.0554952701    0   0   0
S               -1.5755913433        4.5484363582       -4.6232494962    0   0   0
S                0.0000148214        3.6387329039       -7.6014065489    0   0   0
S                0.0000152751        3.6387340328      -10.7330757790    0   0   0
S               -1.5755906502        4.5484413613       -1.4877305502    0   0   0
Mo              -1.5750676385        4.5483115562        3.0571043939
Mo              -0.0309399170        3.5977843534        9.2031137511
S               -1.5620007012        4.5426360222        7.6245581265
S                0.0006152686        3.6386395831        4.6252280796
S                0.0000238647        3.6385879634        1.4889346265
S               -1.6765221443        4.5695547438       10.7611880523
Mo              -3.1512226931        7.2774749019       -9.1672481230    0   0   0
Mo              -1.5755910988        6.3678216792       -3.0555115988    0   0   0
S               -3.1512162438        7.2774954350       -4.6232578178    0   0   0
S               -1.5756025210        6.3677884239       -7.6014065489    0   0   0
S               -1.5756020673        6.3677895528      -10.7330757790    0   0   0
S               -3.1512127704        7.2774877076       -1.4877200710    0   0   0
Mo              -3.1508740326        7.2772041063        3.0568651626
Mo              -1.5915488181        6.3773222421        9.1921008117
S               -3.1440935765        7.2689158077        7.5950656834
S               -1.5748806422        6.3677082450        4.6253040341
S               -1.5753891028        6.3674545308        1.4892069125
S               -3.1792337437        7.2858576779       10.7413758871
Mo              -4.7268400355       10.0065304219       -9.1672481230    0   0   0
Mo              -3.1512405618        9.0968403586       -3.0554816746    0   0   0
S               -4.7268341792       10.0065523623       -4.6232463762    0   0   0
S               -3.1512198634        9.0968439439       -7.6014065489    0   0   0
S               -3.1512194097        9.0968450728      -10.7330757790    0   0   0
S               -4.7268370797       10.0065537885       -1.4877176751    0   0   0
Mo              -4.7268005929       10.0062990128        3.0565458033
Mo              -3.1540259882        9.0917644449        9.1592584303
S               -4.7323848014        9.9971493533        7.5894800993
S               -3.1509703455        9.0965695471        4.6242884437
S               -3.1510862708        9.0964765220        1.4888904172
S               -4.7244640867        9.9935613392       10.7289062377
Mo               3.1512517547        1.8193638619       -9.1672481230    0   0   0
Mo               4.7269020221        0.9097289540       -3.0554823951    0   0   0
S                3.1512612351        1.8193882564       -4.6232320683    0   0   0
S                4.7268719268        0.9096773839       -7.6014065489    0   0   0
S                4.7268723805        0.9096785128      -10.7330757790    0   0   0
S                3.1512592485        1.8193890201       -1.4877261251    0   0   0
Mo               3.1512632381        1.8192585513        3.0567506738
Mo               4.7271315245        0.9024913207        9.1544591762
S                3.1481574794        1.8241132970        7.5942802761
S                4.7270675284        0.9091317920        4.6241340272
S                4.7269917035        0.9093308057        1.4889676275
S                3.1566309429        1.7839193178       10.7356399681
Mo               1.5756344123        4.5484193819       -9.1672481230    0   0   0
Mo               3.1512756394        3.6387769522       -3.0554814834    0   0   0
S                1.5756504879        4.5484423799       -4.6232390542    0   0   0
S                3.1512545844        3.6387329039       -7.6014065489    0   0   0
S                3.1512550381        3.6387340328      -10.7330757790    0   0   0
S                1.5756466253        4.5484431864       -1.4877251801    0   0   0
Mo               1.5755983504        4.5483048800        3.0565225991
Mo               3.1727333193        3.6109685128        9.1873234746
S                1.5494700148        4.5480067137        7.6800423850
S                3.1507595028        3.6389745129        4.6247036291
S                3.1512575748        3.6384190121        1.4889638306
S                1.6119665699        4.4685136900       10.7693095347
Mo               0.0000170699        7.2774749019       -9.1672481230    0   0   0
Mo               1.5756764447        6.3678236689       -3.0554877708    0   0   0
S                0.0000381981        7.2774979204       -4.6232454413    0   0   0
S                1.5756372420        6.3677884239       -7.6014065489    0   0   0
S                1.5756376957        6.3677895528      -10.7330757790    0   0   0
S                0.0000328088        7.2774946042       -1.4877307940    0   0   0
Mo               0.0003868834        7.2767926778        3.0566525190
Mo               1.5638252141        6.3704380303        9.2590192832
S                0.0155311572        7.2582684889        7.6595064519
S                1.5756946496        6.3670911549        4.6250011548
S                1.5753404593        6.3672670791        1.4884316562
S               -0.0723397888        7.3142920220       10.8307766967
Mo              -1.5756002725       10.0065304219       -9.1672481230    0   0   0
Mo               0.0000873425        9.0968676911       -3.0554912329    0   0   0
S               -1.5755883952       10.0065504530       -4.6232240150    0   0   0
S                0.0000198996        9.0968439439       -7.6014065489    0   0   0
S                0.0000203533        9.0968450728      -10.7330757790    0   0   0
S               -1.5755859047       10.0065492576       -1.4877362381    0   0   0
Mo              -1.5752353466       10.0058970542        3.0565718531
Mo              -0.0112751560        9.1027052122        9.1831217676
S               -1.5701649317        9.9961000218        7.5903681183
S                0.0002842321        9.0956264273        4.6248585735
S                0.0002129159        9.0961933198        1.4888883284
S               -1.5913991265       10.0158342272       10.7359440847
Mo               6.3024915177        1.8193638619       -9.1672481230    0   0   0
Mo               7.8781001445        0.9096521684       -3.0554919963    0   0   0
S                6.3025008696        1.8193826232       -4.6232480596    0   0   0
S                7.8781116898        0.9096773839       -7.6014065489    0   0   0
S                7.8781121435        0.9096785128      -10.7330757790    0   0   0
S                6.3025042007        1.8193849068       -1.4877147524    0   0   0
Mo               6.3027582931        1.8189269935        3.0564424033
Mo               7.8747688236        0.9069374101        9.1598385222
S                6.3039433673        1.8174174316        7.5829774767
S                7.8783361427        0.9087485894        4.6242626704
S                7.8785998960        0.9092287593        1.4890075990
S                6.3015584061        1.8179797304       10.7227619128
Mo               4.7268741753        4.5484193819       -9.1672481230    0   0   0
Mo               6.3024679138        3.6387501714       -3.0554895197    0   0   0
S                4.7268748770        4.5484386753       -4.6232519432    0   0   0
S                6.3024943474        3.6387329039       -7.6014065489    0   0   0
S                6.3024948011        3.6387340328      -10.7330757790    0   0   0
S                4.7268770533        4.5484432419       -1.4877137856    0   0   0
Mo               4.7266852096        4.5482889075        3.0567132639
Mo               6.2994767131        3.6374214018        9.1561349080
S                4.7085303140        4.5489199798        7.6045628420
S                6.3023700009        3.6386201398        4.6241978467
S                6.3027607188        3.6384893440        1.4890470840
S                4.7444231164        4.5365542468       10.7454164402
Mo               3.1512568329        7.2774749019       -9.1672481230    0   0   0
Mo               4.7268384135        6.3678043337       -3.0554959052    0   0   0
S                3.1512606125        7.2774972547       -4.6232589675    0   0   0
S                4.7268770050        6.3677884239       -7.6014065489    0   0   0
S                4.7268774587        6.3677895528      -10.7330757790    0   0   0
S                3.1512629079        7.2774963749       -1.4877081835    0   0   0
Mo               3.1507924878        7.2768063828        3.0561026942
Mo               4.7182915275        6.3613438570        9.1914410141
S                3.1082612173        7.2482815450        7.6611090256
S                4.7261038606        6.3678919981        4.6245878424
S                4.7267599948        6.3673873384        1.4885787638
S                3.1833946066        7.2912262310       10.8332921730
Mo               1.5756394905       10.0065304219       -9.1672481230    0   0   0
Mo               3.1512330605        9.0968514907       -3.0554878870    0   0   0
S                1.5756499830       10.0065443759       -4.6232632674    0   0   0
S                3.1512596626        9.0968439439       -7.6014065489    0   0   0
S                3.1512601163        9.0968450728      -10.7330757790    0   0   0
S                1.5756503041       10.0065459699       -1.4877044377    0   0   0
Mo               1.5757656219       10.0057201378        3.0566696839
Mo               3.1438778453        9.0866268592        9.1914192583
S                1.5736940316        9.9926860236        7.6054924058
S                3.1509689072        9.0953161700        4.6247371521
S                3.1511801375        9.0964848999        1.4886485322
S                1.5678758395       10.0178036294       10.7443776677
Mo               9.4537312807        1.8193638619       -9.1672481230    0   0   0
Mo              11.0293863460        0.9096952246       -3.0554894007    0   0   0
S                9.4537395970        1.8193770750       -4.6232328036    0   0   0
S               11.0293514528        0.9096773839       -7.6014065489    0   0   0
S               11.0293519066        0.9096785128      -10.7330757790    0   0   0
S                9.4537393632        1.8193794783       -1.4877366147    0   0   0
Mo               9.4540192379        1.8190083894        3.0570567410
Mo              11.0097380017        0.8835196987        9.1548368469
S                9.4496886315        1.8159362330        7.5873560127
S               11.0294747799        0.9089555728        4.6246094326
S               11.0294239098        0.9095047455        1.4892254768
S                9.4479966970        1.8148735199       10.7271512385
Mo               7.8781139383        4.5484193819       -9.1672481230    0   0   0
Mo               9.4537539161        3.6387607911       -3.0554933032    0   0   0
S                7.8781175448        4.5484378232       -4.6232366318    0   0   0
S                9.4537341104        3.6387329039       -7.6014065489    0   0   0
S                9.4537345641        3.6387340328      -10.7330757790    0   0   0
S                7.8781194018        4.5484411585       -1.4877377057    0   0   0
Mo               7.8783572371        4.5482547217        3.0568057143
Mo               9.4335132476        3.6294551005        9.1574262218
S                7.8751831803        4.5508629534        7.5868878524
S                9.4542742858        3.6387488321        4.6247578960
S                9.4541979514        3.6384888804        1.4894716901
S                7.8663565814        4.5481544072       10.7253862143
Mo               6.3024965959        7.2774749019       -9.1672481230    0   0   0
Mo               7.8781361655        6.3678242352       -3.0555014130    0   0   0
S                6.3024973331        7.2774953556       -4.6232392528    0   0   0
S                7.8781167680        6.3677884239       -7.6014065489    0   0   0
S                7.8781172217        6.3677895528      -10.7330757790    0   0   0
S                6.3024989866        7.2774929744       -1.4877349119    0   0   0
Mo               6.3022311760        7.2771769066        3.0561842106
Mo               7.8720950278        6.3679143253        9.1591716022
S                6.2836831052        7.2712931424        7.5998899679
S                7.8779161503        6.3678868029        4.6243323138
S                7.8784509946        6.3675209416        1.4889136950
S                6.3092728154        7.2784371891       10.7389670154
Mo               4.7268792535       10.0065304219       -9.1672481230    0   0   0
Mo               6.3025111524        9.0968738021       -3.0554915260    0   0   0
S                4.7268840634       10.0065452125       -4.6232380477    0   0   0
S                6.3024994256        9.0968439439       -7.6014065489    0   0   0
S                6.3024998793        9.0968450728      -10.7330757790    0   0   0
S                4.7268847312       10.0065459141       -1.4877283294    0   0   0
Mo               4.7266394929       10.0059798452        3.0565538969
Mo               6.2940605316        9.0916318518        9.1641821103
S                4.7057643558        9.9844269886        7.5969898315
S                6.3022615135        9.0963256516        4.6239580038
S                6.3025243831        9.0967521916        1.4885673561
S                4.7223674997        9.9968796148       10.7437863122
Pt               1.4046565576        6.0710706305       12.2529327575
Pd              -0.0290844418        3.4837076096       12.1137109147
Pd               0.6146260336        4.7364102909       14.2803171087



     Writing config-only to output data dir ./outdir/pwscf.save/ :
     XML data file
     NEW-OLD atomic charge density approx. for the potential

     negative rho (up, down):  9.568E-04 0.000E+00

     total cpu time spent up to now is   251126.0 secs

     Self-consistent Calculation

     iteration #  1     ecut=    77.00 Ry     beta= 0.20
     Davidson diagonalization with overlap
     c_bands:  1 eigenvalues not converged
     c_bands:  1 eigenvalues not converged
     c_bands:  1 eigenvalues not converged
     c_bands:  1 eigenvalues not converged
     ethr =  1.00E-06,  avg # of iterations = 20.0

     negative rho (up, down):  9.437E-04 0.000E+00

     total cpu time spent up to now is   252198.1 secs

     total energy              =  -34492.24063927 Ry
     estimated scf accuracy    <       0.01243362 Ry

     iteration #  2     ecut=    77.00 Ry     beta= 0.20
     Davidson diagonalization with overlap
     ethr =  7.18E-07,  avg # of iterations = 16.8

     negative rho (up, down):  9.359E-04 0.000E+00

     total cpu time spent up to now is   252715.2 secs

     total energy              =  -34492.23911852 Ry
     estimated scf accuracy    <       0.00835217 Ry

     iteration #  3     ecut=    77.00 Ry     beta= 0.20
     Davidson diagonalization with overlap
     ethr =  4.82E-07,  avg # of iterations =  4.2

     negative rho (up, down):  9.299E-04 0.000E+00

     total cpu time spent up to now is   253132.9 secs

     total energy              =  -34492.23536907 Ry
     estimated scf accuracy    <       0.00133611 Ry

     iteration #  4     ecut=    77.00 Ry     beta= 0.20
     Davidson diagonalization with overlap
     ethr =  7.71E-08,  avg # of iterations = 17.2

     negative rho (up, down):  9.244E-04 0.000E+00

     total cpu time spent up to now is   253692.5 secs

     total energy              =  -34492.23258163 Ry
     estimated scf accuracy    <       0.00089264 Ry

     iteration #  5     ecut=    77.00 Ry     beta= 0.20
     Davidson diagonalization with overlap
     ethr =  5.15E-08,  avg # of iterations = 10.0

     negative rho (up, down):  9.204E-04 0.000E+00

     total cpu time spent up to now is   254151.6 secs

     total energy              =  -34492.23097601 Ry
     estimated scf accuracy    <       0.00019412 Ry

     iteration #  6     ecut=    77.00 Ry     beta= 0.20
     Davidson diagonalization with overlap
     ethr =  1.12E-08,  avg # of iterations =  8.5

     negative rho (up, down):  9.189E-04 0.000E+00

     total cpu time spent up to now is   254791.5 secs

     total energy              =  -34492.23026057 Ry
     estimated scf accuracy    <       0.00027064 Ry

     iteration #  7     ecut=    77.00 Ry     beta= 0.20
     Davidson diagonalization with overlap
     ethr =  1.12E-08,  avg # of iterations =  5.0

     negative rho (up, down):  9.120E-04 0.000E+00

     total cpu time spent up to now is   255220.5 secs

     total energy              =  -34492.22858463 Ry
     estimated scf accuracy    <       0.00022102 Ry

     iteration #  8     ecut=    77.00 Ry     beta= 0.20
     Davidson diagonalization with overlap
     ethr =  1.12E-08,  avg # of iterations = 10.0

     negative rho (up, down):  9.103E-04 0.000E+00

     total cpu time spent up to now is   255710.3 secs

     total energy              =  -34492.22822988 Ry
     estimated scf accuracy    <       0.00005391 Ry

     iteration #  9     ecut=    77.00 Ry     beta= 0.20
     Davidson diagonalization with overlap
     ethr =  3.11E-09,  avg # of iterations = 11.8

     negative rho (up, down):  9.091E-04 0.000E+00

     total cpu time spent up to now is   256207.4 secs

     total energy              =  -34492.22802519 Ry
     estimated scf accuracy    <       0.00002536 Ry

     iteration # 10     ecut=    77.00 Ry     beta= 0.20
     Davidson diagonalization with overlap
     ethr =  1.46E-09,  avg # of iterations =  8.0

     negative rho (up, down):  9.099E-04 0.000E+00

     total cpu time spent up to now is   256690.3 secs

     total energy              =  -34492.22774324 Ry
     estimated scf accuracy    <       0.00001910 Ry

     iteration # 11     ecut=    77.00 Ry     beta= 0.20
     Davidson diagonalization with overlap
     ethr =  1.10E-09,  avg # of iterations =  9.8

     negative rho (up, down):  9.085E-04 0.000E+00

     total cpu time spent up to now is   257328.3 secs

     total energy              =  -34492.22775476 Ry
     estimated scf accuracy    <       0.00000947 Ry

     iteration # 12     ecut=    77.00 Ry     beta= 0.20
     Davidson diagonalization with overlap
     ethr =  5.47E-10,  avg # of iterations =  7.5

     negative rho (up, down):  9.093E-04 0.000E+00

     total cpu time spent up to now is   257769.4 secs

     total energy              =  -34492.22772867 Ry
     estimated scf accuracy    <       0.00000513 Ry

     iteration # 13     ecut=    77.00 Ry     beta= 0.20
     Davidson diagonalization with overlap
     ethr =  2.96E-10,  avg # of iterations = 16.5

     negative rho (up, down):  9.082E-04 0.000E+00

     total cpu time spent up to now is   258542.6 secs

     total energy              =  -34492.22773548 Ry
     estimated scf accuracy    <       0.00000340 Ry

     iteration # 14     ecut=    77.00 Ry     beta= 0.20
     Davidson diagonalization with overlap
     ethr =  1.96E-10,  avg # of iterations =  9.5

     negative rho (up, down):  9.073E-04 0.000E+00

     total cpu time spent up to now is   258991.8 secs

     total energy              =  -34492.22773508 Ry
     estimated scf accuracy    <       0.00000090 Ry

     iteration # 15     ecut=    77.00 Ry     beta= 0.20
     Davidson diagonalization with overlap
