lammps.data (written by ASE) 

777 	 atoms 
6  atom types
0.0      34.404763260000003  xlo xhi
0.0      34.502427988999997  ylo yhi
0.0      36.159325252999999  zlo zhi
    -12.287415449999999                       0                       0  xy xz yz


Atoms 

     1   1   6   0.0    0.021862931958141759      5.4054517474652233        5.81725084816836
     2   1   6   0.0      1.3852912464302554      1.2772166412022761      6.4867950303748598
     3   1   6   0.0      3.8973327538599789      2.5122089350121901      5.0000000167850844
     4   1   5   0.0     0.89092027511124938      4.6980626469046598       7.095308310161613
     5   1   5   0.0     -1.1262356935302189      6.5080203414154125      6.4442938657030373
     6   1   5   0.0      2.9435537377012317      1.7911380691447287      6.2314815559030796
     7   1   5   0.0    -0.95256695846644424      4.1193277179363115      5.1566451788457508
     8   1   5   0.0     0.44202142078751716      1.8610455431413488      5.2100839246980772
     9   1   5   0.0     0.84880609741491464      1.7835749299149719      7.9775926643141908
    10   1   6   0.0    0.099833237852599357      1.0505744700436057      9.2940314059379148
    11   1   6   0.0    -0.92022956760080543      3.8724452494367423      9.9479644864936105
    12   1   6   0.0      1.5492256698010618      5.0884667282411842      8.5652578512144224
    13   1   5   0.0      1.2599378748598071     0.53295862561937501      10.358062942697744
    14   1   5   0.0      4.0383193942775293      2.2201200742691691      9.9903837864530622
    15   1   5   0.0     0.63728278432939856      4.4596835432999749      9.8295142027417359
    16   1   5   0.0      1.5608657153956296       6.734560247377523      8.7642464871294852
    17   1   5   0.0      3.0592004024862613      4.3950368270109781      8.6563539308463309
    18   1   5   0.0      3.4051542875167935      4.5535145178301768      11.364524422217116
    19   1   6   0.0      -2.435360898490829      12.305932652935015      5.8174933326035063
    20   1   6   0.0     -1.0721579524204503      8.1773519358509024      6.4868142671358937
    21   1   6   0.0      1.4398496638599789      9.4126945328121892      5.0000000167850844
    22   1   5   0.0     -1.5663971805284846      11.598039195882109      7.0954726181355632
    23   1   5   0.0     -3.5829232962539859      13.408548791230976       6.444208746651392
    24   1   5   0.0     0.48613007455731433      8.6914928337377937      6.2312933466151375
    25   1   5   0.0     -3.4100500484664442      11.019813315736311      5.1566451788457508
    26   1   5   0.0     -2.0154616692124825      8.7615311409413472      5.2100839246980772
    27   1   5   0.0      -1.608459387372432      8.6837061877795243       7.977360196012139
    28   1   6   0.0     -2.3574832126765504      7.9509752953780355      9.2939244104944905
    29   1   6   0.0     -3.3777046904406278      10.772497703755768      9.9483603226271562
    30   1   6   0.0    -0.90833457042306565      11.988808519921326       8.565417566954066
    31   1   5   0.0     -1.1972820162437705      7.4328765549716715      10.357420680762599
    32   1   5   0.0      1.5806918116442856       9.120835285727436      9.9900992487226468
    33   1   5   0.0     -1.8203443707017868      11.359978860209615      9.8294426795963883
    34   1   5   0.0    -0.89728025363558417      13.635309202210363      8.7643697904285975
    35   1   5   0.0     0.60182527954833864      11.295890772732188      8.6573086816703118
    36   1   5   0.0     0.94788780990627874      11.453834918004965      11.364903805857669
    37   1   6   0.0      -4.892925847252557       19.20628969468833      5.8174477718536881
    38   1   6   0.0     -3.5294184829218875      15.077780259620441       6.486553847675423
    39   1   6   0.0     -1.0176334261400211      16.313180130612189      5.0000000167850844
    40   1   5   0.0     -4.0237559784062418      18.498961490913167      7.0955934264412326
    41   1   5   0.0     -6.0403815460149115      20.309349327193658      6.4441478543476656
    42   1   5   0.0     -1.9713116510873145       15.59234995368238      6.2314062721879022
    43   1   5   0.0     -5.8675331384664435      17.920298913536307      5.1566451788457508
    44   1   5   0.0     -4.4729447592124822      15.662016738741348      5.2100839246980772
    45   1   5   0.0     -4.0659134200923752      15.584273556333857      7.9773202399577343
    46   1   6   0.0     -4.8148732844841113      14.851455614306554       9.293943177184298
    47   1   6   0.0     -5.8351876182467439      17.673248901246428      9.9477712510594607
    48   1   6   0.0     -3.3657311127836014      18.889633828627304      8.5654183262998966
    49   1   5   0.0     -3.6554309686594553      14.333684991990363      10.358737133317085
    50   1   5   0.0    -0.87693894851459142      16.021399342048682      9.9899807907731173
    51   1   5   0.0     -4.2776401243083537      18.260645492249274      9.8294018557181762
    52   1   5   0.0     -3.3544630908091313      20.536148277385113      8.7643427070939826
    53   1   5   0.0     -1.8556126984345795      18.196732056062327      8.6569799572444346
    54   1   5   0.0     -1.5096065673135539      18.354417226110616      11.365124233104412
    55   1   6   0.0     -7.3509932136871372      26.107024676037835      5.8179174453293996
    56   1   6   0.0      -5.986878610199895      21.978615436020828      6.4864833008318543
    57   1   6   0.0     -3.4751165161400204      23.213665728412188      5.0000000167850844
    58   1   5   0.0     -6.4814801302949885      25.399567329674706      7.0956457489848743
    59   1   5   0.0     -8.4987223713378146      27.209592993968599      6.4449438657337854
    60   1   5   0.0     -4.4287540992319716      22.493176159451487      6.2317235341076733
    61   1   5   0.0     -8.3250162284664437       24.82078451133631      5.1566451788457508
    62   1   5   0.0     -6.9304278492124816      22.562502336541346      5.2100839246980772
    63   1   5   0.0     -6.5236338734690724      22.484887848190255      7.9774538125052192
    64   1   6   0.0      -7.272782779747506      21.752033161077144      9.2937963703237703
    65   1   6   0.0     -8.2924944624744956      24.573892382156902      9.9481820209943326
    66   1   6   0.0     -5.8232409328271721      25.790159414741346      8.5653815522661141
    67   1   5   0.0     -6.1131442560154614      21.233776227038447      10.357896573642254
    68   1   5   0.0     -3.3344104662267213       22.92139704101449      9.9904055182075382
    69   1   5   0.0     -6.7348991139678924      25.161245120573778      9.8296496555741353
    70   1   5   0.0     -5.8117187333767015      27.436263491620647       8.764338910364831
    71   1   5   0.0     -4.3133693923144039      25.096661440220718      8.6569258990531832
    72   1   5   0.0     -3.9673494599683456      25.254619317459834      11.364864898423697
    73   1   6   0.0      -9.808554164123878      33.007415702682714      5.8181378002574906
    74   1   6   0.0     -8.4445799222408038       28.87929345386172      6.4866070380428695
    75   1   6   0.0     -5.9325996061400206      30.114151326212188      5.0000000167850844
    76   1   5   0.0     -8.9390733573146335      32.300032950568905       7.095818373603632
    77   1   5   0.0     -10.956252767887298       34.10998150193624      6.4444123236525659
    78   1   5   0.0     -6.8861958199616344      29.392969914565448      6.2313602775261812
    79   1   5   0.0     -10.782499318466444      31.721270109136309      5.1566451788457508
    80   1   5   0.0     -9.3879109392124818      29.462987934341346      5.2100839246980772
    81   1   5   0.0      -8.980759738812143      29.385652156603548      7.9776889204380135
    82   1   6   0.0     -9.7294592500728747      28.652672363686548      9.2940419644608898
    83   1   6   0.0     -10.749906290379851       31.47433360983451      9.9484753816001117
    84   1   6   0.0     -8.2807628486025102      32.690354950629235      8.5653939549146756
    85   1   5   0.0     -8.5695171460822746      28.135051895936968      10.358213220853495
    86   1   5   0.0     -5.7915631918599653      29.822558955407928      9.9903726132215578
    87   1   5   0.0     -9.1922848679776639      32.061888946508539      9.8301207031042068
    88   1   5   0.0     -8.2697311554043562      34.336857427044535      8.7638091762498753
    89   1   5   0.0       -6.77046507239268      31.997437306947386      8.6571274511321423
    90   1   5   0.0     -6.4249623886299227      32.155186340989886      11.364926007683374
    91   1   6   0.0      4.9320918783276602      5.4053503448293636      5.8254621970214133
    92   1   6   0.0      6.3010803269303572      1.2812547018668246      6.4905101117700044
    93   1   6   0.0       8.812298938774946      2.5122089350121901      5.0000000167850844
    94   1   5   0.0      5.8057445010580393      4.6934861068464873      7.0974038153786747
    95   1   5   0.0      3.7939810735728665      6.5105088290341193      6.4616860672378271
    96   1   5   0.0      7.8613080551409915      1.7909238780717729       6.234403193224197
    97   1   5   0.0      3.9623992264485222      4.1193277179363115      5.1566451788457508
    98   1   5   0.0      5.3569876057024839      1.8610455431413488      5.2100839246980772
    99   1   5   0.0      5.7612538241694526      1.7933025444621904      7.9790674947132842
   100   1   6   0.0       5.017408645608441      1.0567925666206393      9.2950806410787798
   101   1   6   0.0      3.9912507144132423      3.8753033960689227      9.9419475386121867
   102   1   6   0.0      6.4608804355719833      5.0910420584711389      8.5679479965352705
   103   1   5   0.0      6.1769772219992953     0.54365058302888636      10.362264041583613
   104   1   5   0.0      8.9453064510720672      2.2212474066012819       9.990981861692747
   105   1   5   0.0      5.5491424624128127      4.4635399831835905      9.8332410359175881
   106   1   5   0.0      6.4710327209038638      6.7378212788613325       8.762120210326632
   107   1   5   0.0       7.975360177108108      4.4054511778848902      8.6593936645237228
   108   1   5   0.0      8.3161482336273291      4.5530407649914597      11.370334357961465
   109   1   6   0.0      2.4746198027668704      12.305614023012538      5.8255667697900444
   110   1   6   0.0      3.8436274934621615      8.1818309720475781      6.4904817266996799
   111   1   6   0.0      6.3548158487749458      9.4126945328121892      5.0000000167850844
   112   1   5   0.0       3.347965697202854      11.594245791934432      7.0977528251860171
   113   1   5   0.0      1.3362381465133111      13.410987215826669      6.4609190556305602
   114   1   5   0.0      5.4038142161099572      8.6913883603858437      6.2342907738819848
   115   1   5   0.0      1.5049161364485226      11.019813315736311      5.1566451788457508
   116   1   5   0.0      2.8995045157024841      8.7615311409413472      5.2100839246980772
   117   1   5   0.0       3.303882888782713        8.69405063673433       7.978772109185293
   118   1   6   0.0        2.55993613998811      7.9572627418353274      9.2948881649904607
   119   1   6   0.0      1.5340360454612314      10.775646222821903      9.9425023311395435
   120   1   6   0.0      4.0032819200487291      11.991258985864389      8.5681787291897109
   121   1   5   0.0       3.720377761821517      7.4444414238093044      10.361143970324576
   122   1   5   0.0      6.4882345569726185      9.1218889553757929      9.9912947121748363
   123   1   5   0.0      3.0920793267830966      11.363658061120651      9.8334387189487469
   124   1   5   0.0      4.0134706301949699       13.63833761832467      8.7623771223325555
   125   1   5   0.0       5.517547784374047        11.3055282669375      8.6593060866379616
   126   1   5   0.0      5.8587560459268291      11.453687006096176      11.370351135888384
   127   1   6   0.0    0.017073516131727764      19.206201817004242      5.8257830025550588
   128   1   6   0.0      1.3860526017238519      15.082072085642849      6.4904206535993278
   129   1   6   0.0      3.8973327587749456      16.313180130612189      5.0000000167850844
   130   1   5   0.0     0.89049139024741741      18.494712620413605        7.09794551823029
   131   1   5   0.0     -1.1213896474634766      20.311435033468019      6.4613618988869339
   132   1   5   0.0      2.9460995058712411      15.592126412451439      6.2343794003881801
   133   1   5   0.0     -0.9525669535514768      17.920298913536307      5.1566451788457508
   134   1   5   0.0     0.44202142570248437      15.662016738741348      5.2100839246980772
   135   1   5   0.0     0.84585200859957155      15.593947312590986      7.9789667909924544
   136   1   6   0.0     0.10194226950030294      14.857708075301863      9.2952811806966338
   137   1   6   0.0    -0.92363677206324879      17.676349047908523      9.9425540751339803
   138   1   6   0.0      1.5456467634526019      18.891724192729448      8.5682827595684632
   139   1   5   0.0      1.2615484871596454      14.345442694898027      10.362327537358755
   140   1   5   0.0      4.0308031969916627      16.022085353824387      9.9913751666735227
   141   1   5   0.0     0.63438163215729659       18.26463486998793      9.8338592157421125
   142   1   5   0.0      1.5566040489777582      20.538688518645799      8.7621108450613914
   143   1   5   0.0      3.0601478703467122      18.206346330133602      8.6596894116449672
   144   1   5   0.0       3.401354310904523      18.354203552574084      11.370571490816475
   145   1   6   0.0     -2.4405900760012327      26.106415121642552      5.8258419784145463
   146   1   6   0.0     -1.0712659696132045      21.982806652963216      6.4904133855749517
   147   1   6   0.0      1.4398496687749462      23.213665728412188      5.0000000167850844
   148   1   5   0.0     -1.5669282549116492      25.394956597710397      7.0975601321417443
   149   1   5   0.0     -3.5791655686909984      27.211953029047901      6.4615132979817682
   150   1   5   0.0      0.4888031550962843      22.492318256579541      6.2342322680937254
   151   1   5   0.0     -3.4100500435514776       24.82078451133631      5.1566451788457508
   152   1   5   0.0     -2.0154616642975149      22.562502336541346      5.2100839246980772
   153   1   5   0.0     -1.6109499801321026       22.49480429452586      7.9792201593845027
   154   1   6   0.0     -2.3549927968556603      21.758263644025824      9.2952621608915518
   155   1   6   0.0     -3.3811962455526525      24.576579810775396      9.9424975942679357
   156   1   6   0.0    -0.91188317846250699      25.792041867212422      8.5681521882449747
   157   1   5   0.0     -1.1948176030514555      21.245547040868747      10.361879451000222
   158   1   5   0.0      1.5733420498581738       22.92291421628045      9.9908564249934422
   159   1   5   0.0     -1.8230931834971396      25.164661343978679       9.833593046948927
   160   1   5   0.0    -0.90169140137736881      27.439229941374283      8.7622323765535679
   161   1   5   0.0     0.60254501736580734      25.106665764240404      8.6594375981039065
   162   1   5   0.0     0.94392066054932933      25.254207565484208      11.370538260396566
   163   1   6   0.0     -4.8979606206481598      33.007254955870714      5.8258444010893378
   164   1   6   0.0     -3.5289621799192195      28.883231146963247        6.49054540327145
   165   1   6   0.0     -1.0176334212250544      30.114151326212188      5.0000000167850844
   166   1   5   0.0     -4.0243207817448141      32.295190603805501      7.0977309126349128
   167   1   5   0.0     -6.0364370718544338      34.112438247321194      6.4614722571476069
   168   1   5   0.0     -1.9685431907146544      29.392811720933118      6.2343635626037193
   169   1   5   0.0     -5.8675331335514764      31.721270109136309      5.1566451788457508
   170   1   5   0.0      -4.472944754297516      29.462987934341346      5.2100839246980772
   171   1   5   0.0     -4.0682088321725898      29.395326637411667      7.9793125464605241
   172   1   6   0.0     -4.8122750859123773      28.658717706606645      9.2953218237782185
   173   1   6   0.0     -5.8385029742786987      31.477057093490249      9.9426994717808235
   174   1   6   0.0     -3.3690517401167854      32.692690730501667      8.5681489700650264
   175   1   5   0.0     -3.6527007983308226      28.145726429620346      10.361959543905657
   176   1   5   0.0    -0.88436055973380623      29.823117480712213       9.991224526924519
   177   1   5   0.0      -4.280531579252183      32.065732758503508      9.8337181220549752
   178   1   5   0.0       -3.35882498813231      34.339744659223506      8.7621583945740991
   179   1   5   0.0     -1.8546741291203963      32.007425656342917      8.6596067514274395
   180   1   5   0.0     -1.5131816203285271      32.154806917789294      11.370802982816745
   181   1   6   0.0      9.8460897288932596      5.4001186381661084      5.8319554716943962
   182   1   6   0.0      11.215321291383084       1.280331244381699      6.4893327279804405
   183   1   6   0.0      13.727265123689913      2.5122089350121901      5.0000000167850844
   184   1   5   0.0       10.71819570515115       4.683983068603049        7.10200302843558
   185   1   5   0.0      8.7102183645838203      6.5096307077393716      6.4635354359278923
   186   1   5   0.0      12.775563014959916       1.788423625125122      6.2324216983596576
   187   1   5   0.0      8.8773654113634883      4.1193277179363115      5.1566451788457508
   188   1   5   0.0      10.271953790617449      1.8610455431413488      5.2100839246980772
   189   1   5   0.0      10.674668813810731      1.7920973401501068      7.9775797915944002
   190   1   6   0.0      9.9278341341030494      1.0594971429458411      9.2948583697064517
   191   1   6   0.0      8.9027432125757322      3.8777247764651905      9.9461525427051836
   192   1   6   0.0      11.374992229798533      5.0837460715413014      8.5717608527458982
   193   1   5   0.0      11.088240913741206     0.54388782172373873       10.36038845738274
   194   1   5   0.0      13.865895094346264      2.2140218046245415      9.9927846933312097
   195   1   5   0.0      10.462158710677841       4.463238604475106      9.8404604260009769
   196   1   5   0.0      11.384511958983049      6.7326656845542194      8.7554311690667301
   197   1   5   0.0       12.88714163350477      4.3931229428280005      8.6642741971310979
   198   1   5   0.0      13.227130061888749      4.5422569621186417      11.375709803253578
   199   1   6   0.0      7.3885953467584606      12.300306031480998      5.8320467378313348
   200   1   6   0.0      8.7578136363821173      8.1807477683208649      6.4893159862128478
   201   1   6   0.0      11.269782033689912      9.4126945328121892      5.0000000167850844
   202   1   5   0.0      8.2611361279569469       11.58461688883369      7.1017600739292046
   203   1   5   0.0      6.2529309418449293      13.410160434144768      6.4635597711537871
   204   1   5   0.0      10.318261950732392       8.688467177817726      6.2322951045619464
   205   1   5   0.0       6.419882321363489      11.019813315736311      5.1566451788457508
   206   1   5   0.0      7.8144707006174494      8.7615311409413472      5.2100839246980772
   207   1   5   0.0      8.2170625965354738       8.692532391893101      7.9774991201397611
   208   1   6   0.0      7.4705508522231643      7.9599423039002373      9.2947646085760702
   209   1   6   0.0      6.4452026518761878      10.778358320676407      9.9461196015598787
   210   1   6   0.0      8.9174179057388159      11.984126057409227      8.5715964362939729
   211   1   5   0.0       8.631180967924541      7.4439985851460655      10.359904067061651
   212   1   5   0.0      11.407977359142068      9.1142088184127239      9.9924867766504519
   213   1   5   0.0      8.0045744018643283      11.364267615515931      9.8406042316375064
   214   1   5   0.0      8.9266470203455572      13.633627622875036      8.7551040718104911
   215   1   5   0.0       10.42930187423902      11.293230601031807      8.6644734711725668
   216   1   5   0.0      10.769488641168229      11.442603929162981      11.375898916524651
   217   1   6   0.0        4.93094471047635      19.200752779547081      5.8321838901520193
   218   1   6   0.0      6.3003732844705329      15.081300680357872      6.4893760468520938
   219   1   6   0.0      8.8122989436899122      16.313180130612189      5.0000000167850844
   220   1   5   0.0      5.8031224698153006       18.48488708797575      7.1020886175584534
   221   1   5   0.0      3.7949038388132958      20.310319707980849      6.4631689611664527
   222   1   5   0.0      7.8606274207944535      15.589072154018568      6.2324416944665222
   223   1   5   0.0      3.9623992313634897      17.920298913536307      5.1566451788457508
   224   1   5   0.0      5.3569876106174492      15.662016738741348      5.2100839246980772
   225   1   5   0.0      5.7597290001468027      15.593107143967027      7.9777208491222122
   226   1   6   0.0       5.013092835923131      14.860098300005658        9.29478746126963
   227   1   6   0.0      3.9876057263444933      17.678352741911556      9.9463458866173102
   228   1   6   0.0      6.4598878384920688      18.884849445942923      8.5717119291788322
   229   1   5   0.0      6.1739055671929268        14.3446141535923      10.359936285020451
   230   1   5   0.0      8.9511687868131968      16.015342130293362      9.9924316698387639
   231   1   5   0.0       5.546926621177569      18.264521149985278      9.8405919736262462
   232   1   5   0.0      6.4688716667966295      20.534142961767962      8.7553834387573968
   233   1   5   0.0      7.9716569786374061      18.194311296709763      8.6643599308912727
   234   1   5   0.0      8.3120569371396389      18.343463050248392      11.375925168194783
   235   1   6   0.0      2.4743737792197633      26.101284403586021      5.8313918201323514
   236   1   6   0.0      3.8427317752806216      21.981431593198142        6.48924612639646
   237   1   6   0.0      6.3548158536899129      23.213665728412188      5.0000000167850844
   238   1   5   0.0      3.3458973049530099      25.385491822659599      7.1015052953234727
   239   1   5   0.0      1.3381852275678994      27.210752448061168      6.4620077044359521
   240   1   5   0.0      5.4031282195353159      22.488958720663824      6.2320998803649061
   241   1   5   0.0      1.5049161413634893       24.82078451133631      5.1566451788457508
   242   1   5   0.0      2.8995045206174499      22.562502336541346      5.2100839246980772
   243   1   5   0.0      3.3025349494779181      22.493069891973278      7.9778005081157453
   244   1   6   0.0      2.5556741270651231      21.760587831082447      9.2949820345988154
   245   1   6   0.0      1.5301518459885031      24.579192403627577      9.9461163833799322
   246   1   6   0.0      4.0024768215561313      25.785179230778127       8.571378576359324
   247   1   5   0.0      3.7163580149539914      21.245005525261462      10.360351791826933
   248   1   5   0.0      6.4931839180859487      22.915424739734448      9.9926301122157533
   249   1   5   0.0       3.089693122990123      25.165359983643029      9.8405132909344974
   250   1   5   0.0      4.0120248363710109      27.434408261565252      8.7546355554331878
   251   1   5   0.0      5.5142579984536457      25.094251963162105      8.6642551773260141
   252   1   5   0.0      5.8543164896805235      25.243724934305309      11.375749144599451
   253   1   6   0.0    0.016451428862326384      33.001981225250169      5.8321026401481753
   254   1   6   0.0       1.385388727411986      28.882020422262688      6.4889094469190285
   255   1   6   0.0      3.8973327636899122      30.114151326212188      5.0000000167850844
   256   1   5   0.0     0.88866394192713327      32.286158799723538      7.1020513011347921
   257   1   5   0.0     -1.1192367177953375       34.11162802680473      6.4638594234821589
   258   1   5   0.0      2.9457531531195036      29.390480253864194      6.2326135597394492
   259   1   5   0.0    -0.95256694863651015      31.721270109136309      5.1566451788457508
   260   1   5   0.0      0.4420214306174492      29.462987934341346      5.2100839246980772
   261   1   5   0.0     0.84487636815297751      29.393650336947822      7.9774754719410454
   262   1   6   0.0     0.09794767251472157      28.660950117204813      9.2947068259743144
   263   1   6   0.0    -0.92698340939745694      31.479571147408095      9.9464891860232889
   264   1   6   0.0      1.5453315273517523      32.685635915543472      8.5716450705864382
   265   1   5   0.0      1.2591700268958887      28.145359220279261      10.359707288013624
   266   1   5   0.0      4.0359575367695291      29.815720367165941      9.9926448652204556
   267   1   5   0.0     0.63228319717667825      32.065361719392911      9.8404899681697078
   268   1   5   0.0      1.5543603964063881      34.334741324131109      8.7557344011683025
   269   1   5   0.0      3.0570000433944871      31.994732661617327      8.6644463516786256
   270   1   5   0.0      3.3971763267008344      32.143796433964582      11.375749578511355
   271   1   6   0.0      14.762607986403378      5.3995044949479034      5.8327619331255134
   272   1   6   0.0      16.130495229460994      1.2814709630854597      6.4891602118396587
   273   1   6   0.0      18.642231274200114      2.5122089350121901      5.0000000167850844
   274   1   5   0.0       15.62511615923898      4.6801842132717484      7.1084292637195432
   275   1   5   0.0      13.625657226711283      6.5112507347431663      6.4592386233080781
   276   1   5   0.0        17.6887796463961      1.7950335657768266      6.2324785046596309
   277   1   5   0.0      13.792331596278455      4.1193277179363115      5.1566451788457508
   278   1   5   0.0      15.186919975532417      1.8610455431413488      5.2100839246980772
   279   1   5   0.0      15.595971156866442      1.7868663580378386      7.9820874492397644
   280   1   6   0.0      14.844371260168332      1.0503949884132069      9.2935265855980571
   281   1   6   0.0      13.817486759352676      3.8700915973066161      9.9511099500380453
   282   1   6   0.0        16.2843538419162      5.0864666224906614      8.5743494265221099
   283   1   5   0.0      16.001019769139738     0.52752556278637519      10.360026827970886
   284   1   5   0.0       18.77894890278284      2.2198118985823716      9.9915076182819256
   285   1   5   0.0      15.373567838726499       4.466751952214798      9.8457115193735412
   286   1   5   0.0      16.292176349724333      6.7361677845023875      8.7520600351733933
   287   1   5   0.0      17.797893728874488      4.3995004061199152       8.666023042896958
   288   1   5   0.0      18.137814035827212      4.5446039897825932      11.374671560547588
   289   1   6   0.0      12.305021625591486      12.300090046281786      5.8330749644042283
   290   1   6   0.0      13.672954784263156      8.1820030356559599      6.4894140503029352
   291   1   6   0.0      16.184748184200114      9.4126945328121892      5.0000000167850844
   292   1   5   0.0      13.166917455078138      11.580164833535699      7.1085927400290121
   293   1   5   0.0      11.168006224264193      13.412033639965147      6.4594327988846869
   294   1   5   0.0      15.231250205807545      8.6955735739057634      6.2324825183447334
   295   1   5   0.0      11.334848506278457      11.019813315736311      5.1566451788457508
   296   1   5   0.0      12.729436885532417      8.7615311409413472      5.2100839246980772
   297   1   5   0.0      13.138689922069974      8.6876199361960271      7.9820042827916824
   298   1   6   0.0      12.386713688868941       7.950626165309215      9.2934545200628289
   299   1   6   0.0      11.359604930433907      10.770161751371202      9.9512861544300026
   300   1   6   0.0      13.826466080633253        11.9865166271373      8.5743600573637355
   301   1   5   0.0      13.543676640174162       7.427949228728135      10.359742724152373
   302   1   5   0.0      16.321972039554478      9.1201281584658016      9.9915713310130201
   303   1   5   0.0      12.915768613186836      11.366884038137622      9.8456215549723129
   304   1   5   0.0      13.834313222251883      13.636313912913403       8.752181132753666
   305   1   5   0.0      15.340060499141305      11.299523843897003      8.6659192294741576
   306   1   5   0.0      15.680654974802561      11.445120294743504      11.374646719091139
   307   1   6   0.0      9.8473110906165413      19.201083105792648      5.8323894197567565
   308   1   6   0.0       11.21554040057539      15.082574613506507      6.4893455645409057
   309   1   6   0.0      13.727265094200114      16.313180130612189      5.0000000167850844
   310   1   5   0.0      10.708468896154056      18.481753784480357        7.10862976717807
   311   1   5   0.0      8.7103531796486564      20.312232591593414      6.4589972598120147
   312   1   5   0.0      12.773749613612974      15.596151983237055      6.2326347491040481
   313   1   5   0.0      8.8773654162784563      17.920298913536307      5.1566451788457508
   314   1   5   0.0      10.271953795532417      15.662016738741348      5.2100839246980772
   315   1   5   0.0      10.680997749408673      15.588156459579739      7.9820909928536397
   316   1   6   0.0      9.9290859637016791      14.851438190580419       9.293467573579246
   317   1   6   0.0       8.902178608293287       17.67128640314241      9.9514862601359528
   318   1   6   0.0      11.368316174714126      18.888054514488534      8.5741910125181775
   319   1   5   0.0      11.085915193522045      14.328807694267411      10.360201188237253