
     Program PWSCF v.7.3 starts on 20Apr2024 at  7: 4:48 

     This program is part of the open-source Quantum ESPRESSO suite
     for quantum simulation of materials; please cite
         "P. Giannozzi et al., J. Phys.:Condens. Matter 21 395502 (2009);
         "P. Giannozzi et al., J. Phys.:Condens. Matter 29 465901 (2017);
         "P. Giannozzi et al., J. Chem. Phys. 152 154105 (2020);
          URL http://www.quantum-espresso.org", 
     in publications or presentations arising from this work. More details at
     http://www.quantum-espresso.org/quote

     Parallel version (MPI & OpenMP), running on      36 processor cores
     Number of MPI processes:                36
     Threads/MPI process:                     1

     MPI processes distributed on     1 nodes
     549568 MiB available memory on the printing compute node when the environment starts
 
     Waiting for input...
     Reading input from standard input
Warning: card &CELL ignored
Warning: card / ignored

     Current dimensions of program PWSCF are:
     Max number of different atomic species (ntypx) = 10
     Max number of k-points (npk) =  40000
     Max angular momentum in pseudopotentials (lmaxx) =  4
     file Mo.pbe-spn-kjpaw_psl.1.0.0.UPF: wavefunction(s)  4S 4D renormalized
     file S.pbe-n-kjpaw_psl.1.0.0.UPF: wavefunction(s)  3S 3P renormalized
     file Pt.pbe-spfn-kjpaw_psl.1.0.0.UPF: wavefunction(s)  5P 4F renormalized
     file Pd.pbe-spn-kjpaw_psl.1.0.0.UPF: wavefunction(s)  4S 5S 4D renormalized
 
     R & G space division:  proc/nbgrp/npool/nimage =      36
     Subspace diagonalization in iterative solution of the eigenvalue problem:
     one sub-group per band group will be used
     scalapack distributed-memory algorithm (size of sub-group:  6*  6 procs)

 
     Parallelization info
     --------------------
     sticks:   dense  smooth     PW     G-vecs:    dense   smooth      PW
     Min         585     334     89               198743    85850   11735
     Max         586     335     90               198750    85861   11748
     Sum       21073   12049   3205              7154885  3090769  422587
 
     Using Slab Decomposition
 


     bravais-lattice index     =            0
     lattice parameter (alat)  =      23.8199  a.u.
     unit-cell volume          =   33861.0370 (a.u.)^3
     number of atoms/cell      =          195
     number of atomic types    =            4
     number of electrons       =      1746.00
     number of Kohn-Sham states=         1048
     kinetic-energy cutoff     =      77.0000  Ry
     charge density cutoff     =     539.0000  Ry
     scf convergence threshold =      1.0E-06
     mixing beta               =       0.2000
     number of iterations used =            8  plain     mixing
     energy convergence thresh.=      1.0E-04
     force convergence thresh. =      1.0E-03
     Exchange-correlation= SLA  PW   PBX  PBC
                           (   1   4   3   4   0   0   0)
     nstep                     =         1000


     Effective Screening Medium Method
     =================================
     Boundary Conditions: Vacuum-Slab-Vacuum
     total charge in unit cell        =   0.0000
     grid points for fit at edges     =        4 
 

     celldm(1)=  23.819920  celldm(2)=   0.000000  celldm(3)=   0.000000
     celldm(4)=   0.000000  celldm(5)=   0.000000  celldm(6)=   0.000000

     crystal axes: (cart. coord. in units of alat)
               a(1) = (   1.000000   0.000000   0.000000 )  
               a(2) = (  -0.499999   0.866026   0.000000 )  
               a(3) = (   0.000000   0.000000   2.893000 )  

     reciprocal axes: (cart. coord. in units 2 pi/alat)
               b(1) = (  1.000000  0.577349  0.000000 )  
               b(2) = (  0.000000  1.154700  0.000000 )  
               b(3) = (  0.000000  0.000000  0.345662 )  


     PseudoPot. # 1 for Mo read from file:
     ./pseudo/Mo.pbe-spn-kjpaw_psl.1.0.0.UPF
     MD5 check sum: 317bf72632116215fd98f72de1686f13
     Pseudo is Projector augmented-wave + core cor, Zval = 14.0
     Generated using 'atomic' code by A. Dal Corso  v.7.2
     Shape of augmentation charge: PSQ
     Using radial grid of 1229 points,  6 beta functions with: 
                l(1) =   0
                l(2) =   0
                l(3) =   1
                l(4) =   1
                l(5) =   2
                l(6) =   2
     Q(r) pseudized with 0 coefficients 


     PseudoPot. # 2 for S  read from file:
     ./pseudo/S.pbe-n-kjpaw_psl.1.0.0.UPF
     MD5 check sum: 8b7b5302570d38d5e87fed6a1065abda
     Pseudo is Projector augmented-wave + core cor, Zval =  6.0
     Generated using 'atomic' code by A. Dal Corso  v.7.2
     Shape of augmentation charge: PSQ
     Using radial grid of 1151 points,  6 beta functions with: 
                l(1) =   0
                l(2) =   0
                l(3) =   1
                l(4) =   1
                l(5) =   2
                l(6) =   2
     Q(r) pseudized with 0 coefficients 


     PseudoPot. # 3 for Pt read from file:
     ./pseudo/Pt.pbe-spfn-kjpaw_psl.1.0.0.UPF
     MD5 check sum: 620096ebf4e6ebacc94de60fd67efcb5
     Pseudo is Projector augmented-wave + core cor, Zval = 32.0
     Generated using 'atomic' code by A. Dal Corso  v.7.2
     Shape of augmentation charge: PSQ
     Using radial grid of 1277 points,  8 beta functions with: 
                l(1) =   0
                l(2) =   0
                l(3) =   1
                l(4) =   1
                l(5) =   2
                l(6) =   2
                l(7) =   3
                l(8) =   3
     Q(r) pseudized with 0 coefficients 


     PseudoPot. # 4 for Pd read from file:
     ./pseudo/Pd.pbe-spn-kjpaw_psl.1.0.0.UPF
     MD5 check sum: a60571a671f2502b8a6a4569d20a6edb
     Pseudo is Projector augmented-wave + core cor, Zval = 18.0
     Generated using 'atomic' code by A. Dal Corso  v.7.2
     Shape of augmentation charge: PSQ
     Using radial grid of 1235 points,  6 beta functions with: 
                l(1) =   0
                l(2) =   0
                l(3) =   1
                l(4) =   1
                l(5) =   2
                l(6) =   2
     Q(r) pseudized with 0 coefficients 


     atomic species   valence    mass     pseudopotential
     Mo               14.00    95.95000     Mo( 1.00)
     S                 6.00    32.06000     S ( 1.00)
     Pt               32.00   195.08400     Pt( 1.00)
     Pd               18.00   106.42000     Pd( 1.00)

     No symmetry found



   Cartesian axes

     site n.     atom                  positions (alat units)
         1        Mo     tau(   1) = (   0.0000010   0.1443372  -0.7272732  )
         2        Mo     tau(   2) = (   0.1249995   0.0721706  -0.2424038  )
         3        S      tau(   3) = (   0.0000015   0.1443386  -0.3667807  )
         4        S      tau(   4) = (   0.1250010   0.0721682  -0.6030489  )
         5        S      tau(   5) = (   0.1250010   0.0721683  -0.8514963  )
         6        S      tau(   6) = (   0.0000015   0.1443389  -0.1180260  )
         7        Mo     tau(   7) = (   0.0000165   0.1443639   0.2424458  )
         8        Mo     tau(   8) = (   0.1250235   0.0717246   0.7263406  )
         9        S      tau(   9) = (   0.0005369   0.1448386   0.6015218  )
        10        S      tau(  10) = (   0.1249954   0.0721618   0.3668135  )
        11        S      tau(  11) = (   0.1250195   0.0721779   0.1180823  )
        12        S      tau(  12) = (  -0.0003270   0.1431025   0.8512079  )
        13        Mo     tau(  13) = (  -0.1249989   0.3608437  -0.7272732  )
        14        Mo     tau(  14) = (   0.0000030   0.2886752  -0.2424042  )
        15        S      tau(  15) = (  -0.1249977   0.3608450  -0.3667802  )
        16        S      tau(  16) = (   0.0000012   0.2886747  -0.6030489  )
        17        S      tau(  17) = (   0.0000012   0.2886748  -0.8514963  )
        18        S      tau(  18) = (  -0.1249977   0.3608454  -0.1180274  )
        19        Mo     tau(  19) = (  -0.1249838   0.3608611   0.2424564  )
        20        Mo     tau(  20) = (  -0.0010112   0.2875499   0.7275042  )
        21        S      tau(  21) = (  -0.1249589   0.3614723   0.6028911  )
        22        S      tau(  22) = (   0.0000229   0.2887164   0.3668462  )
        23        S      tau(  23) = (   0.0000319   0.2887039   0.1180849  )
        24        S      tau(  24) = (  -0.1254179   0.3601432   0.8519775  )
        25        Mo     tau(  25) = (  -0.2499987   0.5773502  -0.7272732  )
        26        Mo     tau(  26) = (  -0.1249977   0.5051839  -0.2424055  )
        27        S      tau(  27) = (  -0.2499981   0.5773518  -0.3667809  )
        28        S      tau(  28) = (  -0.1249986   0.5051812  -0.6030489  )
        29        S      tau(  29) = (  -0.1249986   0.5051813  -0.8514963  )
        30        S      tau(  30) = (  -0.2499979   0.5773512  -0.1180266  )
        31        Mo     tau(  31) = (  -0.2499892   0.5773423   0.2424725  )
        32        Mo     tau(  32) = (  -0.1256606   0.5052028   0.7286154  )
        33        S      tau(  33) = (  -0.2498226   0.5768374   0.6031862  )
        34        S      tau(  34) = (  -0.1249521   0.5051863   0.3668519  )
        35        S      tau(  35) = (  -0.1249975   0.5051799   0.1180722  )
        36        S      tau(  36) = (  -0.2499767   0.5778459   0.8528940  )
        37        Mo     tau(  37) = (  -0.3749985   0.7938567  -0.7272732  )
        38        Mo     tau(  38) = (  -0.2500001   0.7216874  -0.2424031  )
        39        S      tau(  39) = (  -0.3749980   0.7938584  -0.3667800  )
        40        S      tau(  40) = (  -0.2499984   0.7216877  -0.6030489  )
        41        S      tau(  41) = (  -0.2499984   0.7216878  -0.8514963  )
        42        S      tau(  42) = (  -0.3749982   0.7938585  -0.1180264  )
        43        Mo     tau(  43) = (  -0.3749918   0.7938447   0.2424454  )
        44        Mo     tau(  44) = (  -0.2499337   0.7214685   0.7273252  )
        45        S      tau(  45) = (  -0.3749119   0.7930997   0.6024017  )
        46        S      tau(  46) = (  -0.2499835   0.7216794   0.3668152  )
        47        S      tau(  47) = (  -0.2499982   0.7216718   0.1180690  )
        48        S      tau(  48) = (  -0.3745581   0.7945239   0.8516564  )
        49        Mo     tau(  49) = (   0.2500010   0.1443372  -0.7272732  )
        50        Mo     tau(  50) = (   0.3750034   0.0721723  -0.2424032  )
        51        S      tau(  51) = (   0.2500017   0.1443391  -0.3667788  )
        52        S      tau(  52) = (   0.3750010   0.0721682  -0.6030489  )
        53        S      tau(  53) = (   0.3750010   0.0721683  -0.8514963  )
        54        S      tau(  54) = (   0.2500016   0.1443391  -0.1180271  )
        55        Mo     tau(  55) = (   0.2500049   0.1443558   0.2424800  )
        56        Mo     tau(  56) = (   0.3750695   0.0717200   0.7264262  )
        57        S      tau(  57) = (   0.2500704   0.1440362   0.6019475  )
        58        S      tau(  58) = (   0.3750099   0.0721483   0.3668106  )
        59        S      tau(  59) = (   0.3749948   0.0721851   0.1180824  )
        60        S      tau(  60) = (   0.2500131   0.1413211   0.8516135  )
        61        Mo     tau(  61) = (   0.1250012   0.3608437  -0.7272732  )
        62        Mo     tau(  62) = (   0.2500029   0.2886782  -0.2424031  )
        63        S      tau(  63) = (   0.1250024   0.3608455  -0.3667794  )
        64        S      tau(  64) = (   0.2500012   0.2886747  -0.6030489  )
        65        S      tau(  65) = (   0.2500012   0.2886748  -0.8514963  )
        66        S      tau(  66) = (   0.1250021   0.3608455  -0.1180270  )
        67        Mo     tau(  67) = (   0.1250220   0.3608739   0.2424909  )
        68        Mo     tau(  68) = (   0.2500516   0.2862417   0.7284634  )
        69        S      tau(  69) = (   0.1251493   0.3619302   0.6061672  )
        70        S      tau(  70) = (   0.2500021   0.2887137   0.3669053  )
        71        S      tau(  71) = (   0.2500084   0.2886924   0.1181099  )
        72        S      tau(  72) = (   0.1241634   0.3514816   0.8558063  )
        73        Mo     tau(  73) = (   0.0000014   0.5773502  -0.7272732  )
        74        Mo     tau(  74) = (   0.1250045   0.5051840  -0.2424036  )
        75        S      tau(  75) = (   0.0000030   0.5773520  -0.3667799  )
        76        S      tau(  76) = (   0.1250014   0.5051812  -0.6030489  )
        77        S      tau(  77) = (   0.1250014   0.5051813  -0.8514963  )
        78        S      tau(  78) = (   0.0000026   0.5773517  -0.1180274  )
        79        Mo     tau(  79) = (   0.0000298   0.5773239   0.2424318  )
        80        Mo     tau(  80) = (   0.1235562   0.5053489   0.7306566  )
        81        S      tau(  81) = (   0.0009343   0.5763644   0.6059345  )
        82        S      tau(  82) = (   0.1250078   0.5051967   0.3669171  )
        83        S      tau(  83) = (   0.1250403   0.5051743   0.1180834  )
        84        S      tau(  84) = (  -0.0065880   0.5806588   0.8588888  )
        85        Mo     tau(  85) = (  -0.1249984   0.7938567  -0.7272732  )
        86        Mo     tau(  86) = (   0.0000069   0.7216896  -0.2424039  )
        87        S      tau(  87) = (  -0.1249975   0.7938582  -0.3667782  )
        88        S      tau(  88) = (   0.0000016   0.7216877  -0.6030489  )
        89        S      tau(  89) = (   0.0000016   0.7216878  -0.8514963  )
        90        S      tau(  90) = (  -0.1249973   0.7938582  -0.1180279  )
        91        Mo     tau(  91) = (  -0.1249912   0.7938418   0.2424335  )
        92        Mo     tau(  92) = (  -0.0002856   0.7221962   0.7280430  )
        93        S      tau(  93) = (  -0.1248457   0.7930650   0.6025902  )
        94        S      tau(  94) = (  -0.0000060   0.7216208   0.3667980  )
        95        S      tau(  95) = (   0.0000209   0.7216773   0.1180639  )
        96        S      tau(  96) = (  -0.1254320   0.7945446   0.8518225  )
        97        Mo     tau(  97) = (   0.5000010   0.1443372  -0.7272732  )
        98        Mo     tau(  98) = (   0.6250001   0.0721662  -0.2424040  )
        99        S      tau(  99) = (   0.5000017   0.1443386  -0.3667801  )
       100        S      tau( 100) = (   0.6250010   0.0721682  -0.6030489  )
       101        S      tau( 101) = (   0.6250010   0.0721683  -0.8514963  )
       102        S      tau( 102) = (   0.5000020   0.1443388  -0.1180261  )
       103        Mo     tau( 103) = (   0.4999955   0.1443611   0.2424567  )
       104        Mo     tau( 104) = (   0.6246463   0.0728119   0.7256413  )
       105        S      tau( 105) = (   0.4995556   0.1446831   0.6015045  )
       106        S      tau( 106) = (   0.6250311   0.0722157   0.3667721  )
       107        S      tau( 107) = (   0.6249808   0.0721636   0.1180639  )
       108        S      tau( 108) = (   0.5004658   0.1432308   0.8511310  )
       109        Mo     tau( 109) = (   0.3750012   0.3608437  -0.7272732  )
       110        Mo     tau( 110) = (   0.4999991   0.2886761  -0.2424038  )
       111        S      tau( 111) = (   0.3750012   0.3608452  -0.3667804  )
       112        S      tau( 112) = (   0.5000012   0.2886747  -0.6030489  )
       113        S      tau( 113) = (   0.5000012   0.2886748  -0.8514963  )
       114        S      tau( 114) = (   0.3750014   0.3608455  -0.1180261  )
       115        Mo     tau( 115) = (   0.3749911   0.3608734   0.2424983  )
       116        Mo     tau( 116) = (   0.5011245   0.2875246   0.7272611  )
       117        S      tau( 117) = (   0.3748808   0.3618865   0.6059605  )
       118        S      tau( 118) = (   0.4999884   0.2887132   0.3668588  )
       119        S      tau( 119) = (   0.4999854   0.2887028   0.1180988  )
       120        S      tau( 120) = (   0.3760770   0.3514537   0.8556312  )
       121        Mo     tau( 121) = (   0.2500014   0.5773502  -0.7272732  )
       122        Mo     tau( 122) = (   0.3749983   0.5051825  -0.2424043  )
       123        S      tau( 123) = (   0.2500017   0.5773519  -0.3667810  )
       124        S      tau( 124) = (   0.3750014   0.5051812  -0.6030489  )
       125        S      tau( 125) = (   0.3750014   0.5051813  -0.8514963  )
       126        S      tau( 126) = (   0.2500018   0.5773519  -0.1180256  )
       127        Mo     tau( 127) = (   0.2500077   0.5773382   0.2424971  )
       128        Mo     tau( 128) = (   0.3766993   0.5053238   0.7304272  )
       129        S      tau( 129) = (   0.2500029   0.5764488   0.6074621  )
       130        S      tau( 130) = (   0.3750022   0.5051973   0.3669226  )
       131        S      tau( 131) = (   0.3749796   0.5051747   0.1180897  )
       132        S      tau( 132) = (   0.2502086   0.5906803   0.8517598  )
       133        Mo     tau( 133) = (   0.1250016   0.7938567  -0.7272732  )
       134        Mo     tau( 134) = (   0.2499995   0.7216883  -0.2424036  )
       135        S      tau( 135) = (   0.1250024   0.7938578  -0.3667813  )
       136        S      tau( 136) = (   0.2500016   0.7216877  -0.6030489  )
       137        S      tau( 137) = (   0.2500016   0.7216878  -0.8514963  )
       138        S      tau( 138) = (   0.1250024   0.7938579  -0.1180253  )
       139        Mo     tau( 139) = (   0.1250030   0.7938506   0.2424689  )
       140        Mo     tau( 140) = (   0.2500869   0.7270239   0.7252501  )
       141        S      tau( 141) = (   0.1234110   0.7947569   0.6009716  )
       142        S      tau( 142) = (   0.2500041   0.7216753   0.3668766  )
       143        S      tau( 143) = (   0.2500092   0.7216778   0.1181077  )
       144        S      tau( 144) = (   0.1247568   0.7963642   0.8506634  )
       145        Mo     tau( 145) = (   0.7500010   0.1443372  -0.7272732  )
       146        Mo     tau( 146) = (   0.8750038   0.0721696  -0.2424038  )
       147        S      tau( 147) = (   0.7500016   0.1443382  -0.3667789  )
       148        S      tau( 148) = (   0.8750010   0.0721682  -0.6030489  )
       149        S      tau( 149) = (   0.8750010   0.0721683  -0.8514963  )
       150        S      tau( 150) = (   0.7500016   0.1443384  -0.1180279  )
       151        Mo     tau( 151) = (   0.7500056   0.1443690   0.2423906  )
       152        Mo     tau( 152) = (   0.8754762   0.0728639   0.7256129  )
       153        S      tau( 153) = (   0.7500308   0.1452012   0.6014640  )
       154        S      tau( 154) = (   0.8749862   0.0722263   0.3667681  )
       155        S      tau( 155) = (   0.8750254   0.0721591   0.1180621  )
       156        S      tau( 156) = (   0.7500441   0.1442691   0.8503988  )
       157        Mo     tau( 157) = (   0.6250012   0.3608437  -0.7272732  )
       158        Mo     tau( 158) = (   0.7500028   0.2886769  -0.2424041  )
       159        S      tau( 159) = (   0.6250015   0.3608451  -0.3667792  )
       160        S      tau( 160) = (   0.7500012   0.2886747  -0.6030489  )
       161        S      tau( 161) = (   0.7500012   0.2886748  -0.8514963  )
       162        S      tau( 162) = (   0.6250016   0.3608454  -0.1180280  )
       163        Mo     tau( 163) = (   0.6249990   0.3608612   0.2424707  )
       164        Mo     tau( 164) = (   0.7500746   0.2887820   0.7269162  )
       165        S      tau( 165) = (   0.6251905   0.3614018   0.6027475  )
       166        S      tau( 166) = (   0.7500151   0.2886908   0.3668035  )
       167        S      tau( 167) = (   0.7499992   0.2887185   0.1180565  )
       168        S      tau( 168) = (   0.6254399   0.3601689   0.8517611  )
       169        Mo     tau( 169) = (   0.5000014   0.5773502  -0.7272732  )
       170        Mo     tau( 170) = (   0.6250029   0.5051841  -0.2424047  )
       171        S      tau( 171) = (   0.5000014   0.5773518  -0.3667794  )
       172        S      tau( 172) = (   0.6250014   0.5051812  -0.6030489  )
       173        S      tau( 173) = (   0.6250014   0.5051813  -0.8514963  )
       174        S      tau( 174) = (   0.5000016   0.5773516  -0.1180277  )
       175        Mo     tau( 175) = (   0.4999861   0.5773259   0.2424414  )
       176        Mo     tau( 176) = (   0.6258514   0.5052144   0.7284022  )
       177        S      tau( 177) = (   0.4992455   0.5763364   0.6056359  )
       178        S      tau( 178) = (   0.6249791   0.5051944   0.3668559  )
       179        S      tau( 179) = (   0.6250105   0.5051778   0.1180820  )
       180        S      tau( 180) = (   0.5069392   0.5807955   0.8586037  )
       181        Mo     tau( 181) = (   0.3750016   0.7938567  -0.7272732  )
       182        Mo     tau( 182) = (   0.5000025   0.7216901  -0.2424039  )
       183        S      tau( 183) = (   0.3750019   0.7938578  -0.3667793  )
       184        S      tau( 184) = (   0.5000016   0.7216877  -0.6030489  )
       185        S      tau( 185) = (   0.5000016   0.7216878  -0.8514963  )
       186        S      tau( 186) = (   0.3750020   0.7938579  -0.1180272  )
       187        Mo     tau( 187) = (   0.3750095   0.7938535   0.2424732  )
       188        Mo     tau( 188) = (   0.5004392   0.7222160   0.7277389  )
       189        S      tau( 189) = (   0.3766340   0.7948794   0.6008559  )
       190        S      tau( 190) = (   0.5000179   0.7216263   0.3668038  )
       191        S      tau( 191) = (   0.4999965   0.7216810   0.1180753  )
       192        S      tau( 192) = (   0.3755295   0.7963504   0.8505132  )
       193        Pt     tau( 193) = (   0.1371069   0.5032381   0.9573497  )
       194        Pt     tau( 194) = (   0.3635722   0.5033563   0.9571359  )
       195        Pd     tau( 195) = (  -0.0003173   0.7221761   0.9778691  )

     --------------------------------------------
     DFT-D3 Dispersion Correction (3-body terms):
     --------------------------------------------
       Reference C6 values for interpolation: 

         atom   Coordination number   C6
         S          0.000           268.01
         S          0.995           261.99
         S          1.990           251.62
         Mo         0.000          1691.79
         Mo         1.942          1004.01
         Mo        11.056           674.22
         Pd         0.000          1217.01
         Pd         1.863           573.90
         Pd         5.710           531.75
         Pt         0.000           782.29
         Pt         1.919           692.72
         Pt         6.667           673.75

       Values used:

         atom   Coordination number  R0_AB[au]  C6      C8
         Mo        10.208            3.547    674.22  77634.20
         Mo        10.221            3.547    674.22  77634.20
         S          3.858            3.128    251.62  12327.25
         S          3.859            3.128    251.62  12327.25
         S          3.758            3.128    251.62  12327.25
         S          3.859            3.128    251.62  12327.25
         Mo        10.220            3.547    674.22  77634.20
         Mo        10.265            3.547    674.22  77634.20
         S          3.854            3.128    251.62  12327.25
         S          3.861            3.128    251.62  12327.25
         S          3.859            3.128    251.62  12327.25
         S          3.824            3.128    251.62  12327.25
         Mo        10.208            3.547    674.22  77634.20
         Mo        10.221            3.547    674.22  77634.20
         S          3.858            3.128    251.62  12327.25
         S          3.859            3.128    251.62  12327.25
         S          3.758            3.128    251.62  12327.25
         S          3.859            3.128    251.62  12327.25
         Mo        10.221            3.547    674.22  77634.20
         Mo        10.226            3.547    674.22  77634.20
         S          3.865            3.128    251.62  12327.25
         S          3.857            3.128    251.62  12327.25
         S          3.859            3.128    251.62  12327.25
         S          3.769            3.128    251.62  12327.25
         Mo        10.208            3.547    674.22  77634.20
         Mo        10.221            3.547    674.22  77634.20
         S          3.858            3.128    251.62  12327.25
         S          3.859            3.128    251.62  12327.25
         S          3.758            3.128    251.62  12327.25
         S          3.859            3.128    251.62  12327.25
         Mo        10.221            3.547    674.22  77634.20
         Mo        10.247            3.547    674.22  77634.20
         S          3.856            3.128    251.62  12327.25
         S          3.856            3.128    251.62  12327.25
         S          3.859            3.128    251.62  12327.25
         S          3.834            3.128    251.62  12327.25
         Mo        10.208            3.547    674.22  77634.20
         Mo        10.221            3.547    674.22  77634.20
         S          3.858            3.128    251.62  12327.25
         S          3.859            3.128    251.62  12327.25
         S          3.758            3.128    251.62  12327.25
         S          3.859            3.128    251.62  12327.25
         Mo        10.220            3.547    674.22  77634.20
         Mo        10.256            3.547    674.21  77634.20
         S          3.856            3.128    251.62  12327.25
         S          3.859            3.128    251.62  12327.25
         S          3.859            3.128    251.62  12327.25
         S          3.818            3.128    251.62  12327.25
         Mo        10.208            3.547    674.22  77634.20
         Mo        10.221            3.547    674.22  77634.20
         S          3.858            3.128    251.62  12327.25
         S          3.859            3.128    251.62  12327.25
         S          3.758            3.128    251.62  12327.25
         S          3.859            3.128    251.62  12327.25
         Mo        10.220            3.547    674.22  77634.20
         Mo        10.272            3.547    674.22  77634.20
         S          3.844            3.128    251.62  12327.25
         S          3.861            3.128    251.62  12327.25
         S          3.859            3.128    251.62  12327.25
         S          3.846            3.128    251.62  12327.25
         Mo        10.208            3.547    674.22  77634.20
         Mo        10.221            3.547    674.22  77634.20
         S          3.858            3.128    251.62  12327.25
         S          3.859            3.128    251.62  12327.25
         S          3.758            3.128    251.62  12327.25
         S          3.859            3.128    251.62  12327.25
         Mo        10.222            3.547    674.22  77634.20
         Mo        10.161            3.547    674.22  77634.20
         S          3.858            3.128    251.62  12327.25
         S          3.852            3.128    251.62  12327.25
         S          3.859            3.128    251.62  12327.25
         S          4.676            3.128    251.62  12327.25
         Mo        10.208            3.547    674.22  77634.20
         Mo        10.221            3.547    674.22  77634.20
         S          3.858            3.128    251.62  12327.25
         S          3.859            3.128    251.62  12327.25
         S          3.758            3.128    251.62  12327.25
         S          3.859            3.128    251.62  12327.25
         Mo        10.221            3.547    674.22  77634.20
         Mo        10.847            3.547    674.22  77634.20
         S          3.846            3.128    251.62  12327.25
         S          3.850            3.128    251.62  12327.25
         S          3.859            3.128    251.62  12327.25
         S          5.591            3.128    251.62  12327.25
         Mo        10.208            3.547    674.22  77634.20
         Mo        10.221            3.547    674.22  77634.20
         S          3.858            3.128    251.62  12327.25
         S          3.859            3.128    251.62  12327.25
         S          3.758            3.128    251.62  12327.25
         S          3.859            3.128    251.62  12327.25
         Mo        10.220            3.547    674.22  77634.20
         Mo        10.656            3.547    674.22  77634.20
         S          3.859            3.128    251.62  12327.25
         S          3.859            3.128    251.62  12327.25
         S          3.859            3.128    251.62  12327.25
         S          4.739            3.128    251.62  12327.25
         Mo        10.208            3.547    674.21  77634.20
         Mo        10.221            3.547    674.22  77634.20
         S          3.858            3.128    251.62  12327.25
         S          3.859            3.128    251.62  12327.25
         S          3.758            3.128    251.62  12327.25
         S          3.859            3.128    251.62  12327.25
         Mo        10.220            3.547    674.22  77634.20
         Mo        10.298            3.547    674.22  77634.20
         S          3.855            3.128    251.62  12327.25
         S          3.864            3.128    251.62  12327.25
         S          3.859            3.128    251.62  12327.25
         S          3.833            3.128    251.62  12327.25
         Mo        10.208            3.547    674.22  77634.20
         Mo        10.221            3.547    674.22  77634.20
         S          3.858            3.128    251.62  12327.25
         S          3.859            3.128    251.62  12327.25
         S          3.758            3.128    251.62  12327.25
         S          3.859            3.128    251.62  12327.25
         Mo        10.222            3.547    674.22  77634.20
         Mo        10.225            3.547    674.22  77634.20
         S          3.856            3.128    251.62  12327.25
         S          3.857            3.128    251.62  12327.25
         S          3.859            3.128    251.62  12327.25
         S          4.678            3.128    251.62  12327.25
         Mo        10.208            3.547    674.22  77634.20
         Mo        10.221            3.547    674.22  77634.20
         S          3.858            3.128    251.62  12327.25
         S          3.859            3.128    251.62  12327.25
         S          3.758            3.128    251.62  12327.25
         S          3.859            3.128    251.62  12327.25
         Mo        10.222            3.547    674.22  77634.20
         Mo        10.839            3.547    674.22  77634.20
         S          3.874            3.128    251.62  12327.25
         S          3.850            3.128    251.62  12327.25
         S          3.859            3.128    251.62  12327.25
         S          5.687            3.128    251.62  12327.25
         Mo        10.208            3.547    674.21  77634.20
         Mo        10.221            3.547    674.22  77634.20
         S          3.858            3.128    251.62  12327.25
         S          3.859            3.128    251.62  12327.25
         S          3.758            3.128    251.62  12327.25
         S          3.859            3.128    251.62  12327.25
         Mo        10.220            3.547    674.22  77634.20
         Mo        10.177            3.547    674.22  77634.20
         S          3.839            3.128    251.62  12327.25
         S          3.855            3.128    251.62  12327.25
         S          3.859            3.128    251.62  12327.25
         S          4.755            3.128    251.62  12327.25
         Mo        10.208            3.547    674.22  77634.20
         Mo        10.221            3.547    674.22  77634.20
         S          3.858            3.128    251.62  12327.25
         S          3.859            3.128    251.62  12327.25
         S          3.758            3.128    251.62  12327.25
         S          3.859            3.128    251.62  12327.25
         Mo        10.220            3.547    674.22  77634.20
         Mo        10.292            3.547    674.22  77634.20
         S          3.857            3.128    251.62  12327.25
         S          3.864            3.128    251.62  12327.25
         S          3.859            3.128    251.62  12327.25
         S          3.796            3.128    251.62  12327.25
         Mo        10.208            3.547    674.22  77634.20
         Mo        10.220            3.547    674.22  77634.20
         S          3.858            3.128    251.62  12327.25
         S          3.859            3.128    251.62  12327.25
         S          3.758            3.128    251.62  12327.25
         S          3.859            3.128    251.62  12327.25
         Mo        10.221            3.547    674.22  77634.20
         Mo        10.259            3.547    674.22  77634.20
         S          3.864            3.128    251.62  12327.25
         S          3.861            3.128    251.62  12327.25
         S          3.859            3.128    251.62  12327.25
         S          3.771            3.128    251.62  12327.25
         Mo        10.208            3.547    674.22  77634.20
         Mo        10.221            3.547    674.22  77634.20
         S          3.858            3.128    251.62  12327.25
         S          3.859            3.128    251.62  12327.25
         S          3.758            3.128    251.62  12327.25
         S          3.859            3.128    251.62  12327.25
         Mo        10.221            3.547    674.22  77634.20
         Mo        10.240            3.547    674.22  77634.20
         S          3.842            3.128    251.62  12327.25
         S          3.856            3.128    251.62  12327.25
         S          3.859            3.128    251.62  12327.25
         S          4.635            3.128    251.62  12327.25
         Mo        10.208            3.547    674.22  77634.20
         Mo        10.221            3.547    674.22  77634.20
         S          3.858            3.128    251.62  12327.25
         S          3.859            3.128    251.62  12327.25
         S          3.758            3.128    251.62  12327.25
         S          3.859            3.128    251.62  12327.25
         Mo        10.220            3.547    674.22  77634.20
         Mo        10.228            3.547    674.22  77634.20
         S          3.837            3.128    251.62  12327.25
         S          3.859            3.128    251.62  12327.25
         S          3.859            3.128    251.62  12327.25
         S          3.843            3.128    251.62  12327.25
         Pt         4.734            3.168    673.75  70061.90
         Pt         4.574            3.168    673.75  70061.94
         Pd         3.486            3.168    573.90  52582.69

         Molecular C6 ( Ry / a.u.^6 ) =  14177965.80


     number of k points=     4  Gaussian smearing, width (Ry)=  0.0100
                       cart. coord. in units 2pi/alat
        k(    1) = (   0.0000000   0.0000000   0.0000000), wk =   0.5000000
        k(    2) = (   0.0000000  -0.5773499   0.0000000), wk =   0.5000000
        k(    3) = (  -0.5000000  -0.2886744   0.0000000), wk =   0.5000000
        k(    4) = (  -0.5000000  -0.8660242   0.0000000), wk =   0.5000000

     Dense  grid:  7154885 G-vectors     FFT dimensions: ( 180, 180, 512)

     Smooth grid:  3090769 G-vectors     FFT dimensions: ( 135, 135, 400)

     Estimated max dynamical RAM per process >       4.33 GB

     Estimated total dynamical RAM >     155.86 GB

     Atomic positions and unit cell read from directory:
     ./outdir/pwscf.save/
     Atomic positions from file used, from input discarded
 

     The initial density is read from file :
     ./outdir/pwscf.save/charge-density


     negative rho (up, down):  9.072E-04 0.000E+00
     Cannot read wfcs: file not found
     Starting wfcs are 1196 randomized atomic wfcs
     Checking if some PAW data can be deallocated... 

     total cpu time spent up to now is      184.2 secs

     Self-consistent Calculation

     iteration #  1     ecut=    77.00 Ry     beta= 0.20
     Davidson diagonalization with overlap
     c_bands:  2 eigenvalues not converged
     c_bands: 13 eigenvalues not converged
     c_bands: 12 eigenvalues not converged
     c_bands: 16 eigenvalues not converged
     ethr =  1.00E-05,  avg # of iterations =120.0

     negative rho (up, down):  8.291E-04 0.000E+00

     total cpu time spent up to now is    11373.1 secs

     total energy              =  -35655.89695289 Ry
     estimated scf accuracy    <      16.43805133 Ry

     iteration #  2     ecut=    77.00 Ry     beta= 0.20
     Davidson diagonalization with overlap
     ethr =  9.41E-04,  avg # of iterations =  6.8

     negative rho (up, down):  7.864E-04 0.000E+00

     total cpu time spent up to now is    11821.2 secs

     total energy              =  -35655.09492679 Ry
     estimated scf accuracy    <       6.18317668 Ry

     iteration #  3     ecut=    77.00 Ry     beta= 0.20
     Davidson diagonalization with overlap
     ethr =  3.54E-04,  avg # of iterations =  8.0

     negative rho (up, down):  7.353E-04 0.000E+00

     total cpu time spent up to now is    12271.3 secs

     total energy              =  -35654.59878726 Ry
     estimated scf accuracy    <       3.39390416 Ry

     iteration #  4     ecut=    77.00 Ry     beta= 0.20
     Davidson diagonalization with overlap
     ethr =  1.94E-04,  avg # of iterations = 12.5

     negative rho (up, down):  7.263E-04 0.000E+00

     total cpu time spent up to now is    12763.0 secs

     total energy              =  -35653.59330340 Ry
     estimated scf accuracy    <      24.67334029 Ry

     iteration #  5     ecut=    77.00 Ry     beta= 0.20
     Davidson diagonalization with overlap
     ethr =  1.94E-04,  avg # of iterations =  9.0

     negative rho (up, down):  7.181E-04 0.000E+00

     total cpu time spent up to now is    13201.8 secs

     total energy              =  -35654.87409660 Ry
     estimated scf accuracy    <       2.99897863 Ry

     iteration #  6     ecut=    77.00 Ry     beta= 0.20
     Davidson diagonalization with overlap
     ethr =  1.72E-04,  avg # of iterations =  1.0

     negative rho (up, down):  7.180E-04 0.000E+00

     total cpu time spent up to now is    13582.2 secs

     total energy              =  -35654.96789325 Ry
     estimated scf accuracy    <       0.46698014 Ry

     iteration #  7     ecut=    77.00 Ry     beta= 0.20
     Davidson diagonalization with overlap
     ethr =  2.67E-05,  avg # of iterations = 10.5

     negative rho (up, down):  7.225E-04 0.000E+00

     total cpu time spent up to now is    14060.8 secs

     total energy              =  -35654.93611744 Ry
     estimated scf accuracy    <       0.21040816 Ry

     iteration #  8     ecut=    77.00 Ry     beta= 0.20
     Davidson diagonalization with overlap
     c_bands:  2 eigenvalues not converged
     ethr =  1.21E-05,  avg # of iterations = 11.2

     negative rho (up, down):  7.300E-04 0.000E+00

     total cpu time spent up to now is    14532.3 secs

     total energy              =  -35654.92861834 Ry
     estimated scf accuracy    <       0.07327137 Ry

     iteration #  9     ecut=    77.00 Ry     beta= 0.20
     Davidson diagonalization with overlap
     c_bands:  2 eigenvalues not converged
     c_bands:  5 eigenvalues not converged
     c_bands: 11 eigenvalues not converged
     c_bands:  5 eigenvalues not converged
     ethr =  4.20E-06,  avg # of iterations = 85.0

     negative rho (up, down):  7.431E-04 0.000E+00

     total cpu time spent up to now is    16616.8 secs

     total energy              =  -35654.95065948 Ry
     estimated scf accuracy    <       0.04107003 Ry

     iteration # 10     ecut=    77.00 Ry     beta= 0.20
     Davidson diagonalization with overlap
     c_bands:  2 eigenvalues not converged
     c_bands:  5 eigenvalues not converged
     c_bands:  4 eigenvalues not converged
     c_bands:  2 eigenvalues not converged
     ethr =  2.35E-06,  avg # of iterations = 25.0

     negative rho (up, down):  7.731E-04 0.000E+00

     total cpu time spent up to now is    17216.5 secs

     total energy              =  -35654.94475475 Ry
     estimated scf accuracy    <       0.02057645 Ry

     iteration # 11     ecut=    77.00 Ry     beta= 0.20
     Davidson diagonalization with overlap
     c_bands:  3 eigenvalues not converged
     c_bands:  4 eigenvalues not converged
     c_bands:  2 eigenvalues not converged
     ethr =  1.18E-06,  avg # of iterations = 24.8

     negative rho (up, down):  7.956E-04 0.000E+00

     total cpu time spent up to now is    17843.3 secs

     total energy              =  -35654.94543108 Ry
     estimated scf accuracy    <       0.00893834 Ry

     iteration # 12     ecut=    77.00 Ry     beta= 0.20
     Davidson diagonalization with overlap
     c_bands:  1 eigenvalues not converged
     c_bands:  2 eigenvalues not converged
     c_bands:  2 eigenvalues not converged
     ethr =  5.12E-07,  avg # of iterations = 17.2

     negative rho (up, down):  8.016E-04 0.000E+00

     total cpu time spent up to now is    18491.0 secs

     total energy              =  -35654.94730005 Ry
     estimated scf accuracy    <       0.00576878 Ry

     iteration # 13     ecut=    77.00 Ry     beta= 0.20
     Davidson diagonalization with overlap
     c_bands:  2 eigenvalues not converged
     c_bands:  2 eigenvalues not converged
     ethr =  3.30E-07,  avg # of iterations = 14.5

     negative rho (up, down):  8.232E-04 0.000E+00

     total cpu time spent up to now is    18972.6 secs

     total energy              =  -35654.94683758 Ry
     estimated scf accuracy    <       0.00386010 Ry

     iteration # 14     ecut=    77.00 Ry     beta= 0.20
     Davidson diagonalization with overlap
     c_bands:  2 eigenvalues not converged
     c_bands:  2 eigenvalues not converged
     ethr =  2.21E-07,  avg # of iterations = 13.8

     negative rho (up, down):  8.593E-04 0.000E+00

     total cpu time spent up to now is    19453.0 secs

     total energy              =  -35654.94580607 Ry
     estimated scf accuracy    <       0.00207693 Ry

     iteration # 15     ecut=    77.00 Ry     beta= 0.20
     Davidson diagonalization with overlap
     c_bands:  4 eigenvalues not converged
     c_bands:  1 eigenvalues not converged
     c_bands:  2 eigenvalues not converged
     c_bands:  4 eigenvalues not converged
     ethr =  1.19E-07,  avg # of iterations = 45.0

     negative rho (up, down):  8.559E-04 0.000E+00

     total cpu time spent up to now is    20825.2 secs

     total energy              =  -35654.94759190 Ry
     estimated scf accuracy    <       0.00121910 Ry

     iteration # 16     ecut=    77.00 Ry     beta= 0.20
     Davidson diagonalization with overlap
     c_bands:  1 eigenvalues not converged
     ethr =  6.98E-08,  avg # of iterations = 14.2

     negative rho (up, down):  8.599E-04 0.000E+00

     total cpu time spent up to now is    21300.2 secs

     total energy              =  -35654.94765559 Ry
     estimated scf accuracy    <       0.00035899 Ry

     iteration # 17     ecut=    77.00 Ry     beta= 0.20
     Davidson diagonalization with overlap
     ethr =  2.06E-08,  avg # of iterations = 12.8

     negative rho (up, down):  8.746E-04 0.000E+00

     total cpu time spent up to now is    22052.9 secs

     total energy              =  -35654.94788212 Ry
     estimated scf accuracy    <       0.00013921 Ry

     iteration # 18     ecut=    77.00 Ry     beta= 0.20
     Davidson diagonalization with overlap
     ethr =  7.97E-09,  avg # of iterations = 13.2

     negative rho (up, down):  8.841E-04 0.000E+00

     total cpu time spent up to now is    22777.8 secs

     total energy              =  -35654.94794997 Ry
     estimated scf accuracy    <       0.00005570 Ry

     iteration # 19     ecut=    77.00 Ry     beta= 0.20
     Davidson diagonalization with overlap
     ethr =  3.19E-09,  avg # of iterations = 11.5

     negative rho (up, down):  8.935E-04 0.000E+00

     total cpu time spent up to now is    23397.7 secs

     total energy              =  -35654.94795997 Ry
     estimated scf accuracy    <       0.00002542 Ry

     iteration # 20     ecut=    77.00 Ry     beta= 0.20
     Davidson diagonalization with overlap
     c_bands:  2 eigenvalues not converged
     ethr =  1.46E-09,  avg # of iterations = 15.8

     negative rho (up, down):  8.998E-04 0.000E+00

     total cpu time spent up to now is    24232.9 secs

     total energy              =  -35654.94797351 Ry
     estimated scf accuracy    <       0.00001114 Ry

     iteration # 21     ecut=    77.00 Ry     beta= 0.20
     Davidson diagonalization with overlap
     c_bands:  3 eigenvalues not converged
     ethr =  6.38E-10,  avg # of iterations = 15.2

     negative rho (up, down):  9.022E-04 0.000E+00

     total cpu time spent up to now is    25050.0 secs

     total energy              =  -35654.94797972 Ry
     estimated scf accuracy    <       0.00000327 Ry

     iteration # 22     ecut=    77.00 Ry     beta= 0.20
     Davidson diagonalization with overlap
     c_bands:  3 eigenvalues not converged
     c_bands:  1 eigenvalues not converged
     ethr =  1.87E-10,  avg # of iterations = 17.2

     negative rho (up, down):  9.030E-04 0.000E+00

     total cpu time spent up to now is    25990.8 secs

     total energy              =  -35654.94798219 Ry
     estimated scf accuracy    <       0.00000152 Ry

     iteration # 23     ecut=    77.00 Ry     beta= 0.20
     Davidson diagonalization with overlap
     c_bands:  1 eigenvalues not converged
     ethr =  8.70E-11,  avg # of iterations = 12.5

     negative rho (up, down):  9.078E-04 0.000E+00

     total cpu time spent up to now is    26567.9 secs

     End of self-consistent calculation

          k = 0.0000 0.0000 0.0000 (386245 PWs)   bands (ev):

  -103.0043-102.4899 -88.8955 -71.3687 -71.3621 -71.3245 -71.2898 -71.2832
   -71.2676 -71.2616 -70.8630 -70.8610 -70.8208 -70.8040 -70.7913 -70.7808
   -70.7662 -66.6860 -66.6860 -66.6848 -66.6812 -66.6688 -66.6652 -66.6648
   -66.6648 -66.6647 -66.6647 -66.6647 -66.6647 -66.6647 -66.6647 -66.6646
   -66.6644 -66.6642 -66.6635 -66.6635 -66.6635 -66.6635 -66.6635 -66.6635
   -66.6623 -66.6583 -66.6534 -66.6484 -66.6441 -66.6436 -66.6435 -66.6433
   -66.6433 -66.6433 -66.6433 -66.6433 -66.6433 -66.6433 -66.6433 -66.6433
   -66.6433 -66.6432 -66.6430 -66.6430 -66.6430 -66.6427 -66.6421 -66.6421
   -66.6421 -66.6421 -66.6421 -66.6421 -66.6421 -66.6421 -66.6421 -66.6419
   -66.6394 -66.6339 -66.6262 -66.6250 -66.6228 -66.6155 -66.6042 -66.5980
   -66.5519 -57.3782 -57.1992 -57.0781 -56.8433 -56.7184 -56.5120 -54.7664
   -54.6752 -54.6194 -41.0134 -41.0134 -41.0134 -41.0134 -41.0133 -41.0131
   -41.0128 -41.0128 -41.0128 -40.9985 -40.9962 -40.9901 -40.9382 -40.9381
   -40.9381 -40.9380 -40.9380 -40.9380 -40.9380 -40.9380 -40.9380 -40.9379
   -40.9378 -40.9377 -40.9375 -40.9375 -40.9374 -40.9374 -40.9374 -40.9374
   -40.9304 -40.9213 -40.9184 -40.9098 -40.9022 -40.9019 -40.8627 -40.8456
   -40.8455 -40.8451 -40.8426 -40.8267 -40.8233 -40.8119 -40.8118 -40.8117
   -40.8117 -40.8117 -40.8117 -40.8117 -40.8117 -40.8117 -40.8116 -40.8114
   -40.8114 -40.8110 -40.8110 -40.8110 -40.8110 -40.8110 -40.8110 -40.8080
   -40.8042 -40.8041 -40.8039 -40.8039 -40.8039 -40.8039 -40.8039 -40.8039
   -40.8038 -40.8038 -40.8037 -40.8035 -40.8033 -40.8033 -40.8033 -40.8033
   -40.8033 -40.8033 -40.8023 -40.8000 -40.7978 -40.7933 -40.7919 -40.7879
   -40.7860 -40.7768 -40.7768 -40.7767 -40.7767 -40.7767 -40.7767 -40.7767
   -40.7767 -40.7767 -40.7766 -40.7764 -40.7763 -40.7760 -40.7759 -40.7759
   -40.7759 -40.7759 -40.7759 -40.7759 -40.7742 -40.7695 -40.7661 -40.7632
   -40.7625 -40.7621 -40.7621 -40.7620 -40.7619 -40.7619 -40.7619 -40.7619
   -40.7619 -40.7619 -40.7619 -40.7619 -40.7619 -40.7619 -40.7619 -40.7619
   -40.7617 -40.7615 -40.7614 -40.7613 -40.7613 -40.7613 -40.7613 -40.7613
   -40.7613 -40.7612 -40.7612 -40.7612 -40.7601 -40.7578 -40.7563 -40.7512
   -40.7473 -40.7435 -40.7404 -40.7384 -40.7250 -40.7090 -40.6984 -40.6984
   -40.6983 -40.6983 -40.6983 -40.6981 -40.6975 -40.6975 -40.6975 -40.6785
   -40.6766 -40.6684 -40.6515 -40.6513 -40.6513 -40.6512 -40.6512 -40.6512
   -40.6512 -40.6512 -40.6512 -40.6511 -40.6509 -40.6508 -40.6503 -40.6503
   -40.6503 -40.6503 -40.6503 -40.6503 -40.6307 -40.6288 -40.6266 -40.6193
   -40.6146 -40.6053 -40.6036 -40.6036 -40.6035 -40.6035 -40.6027 -40.6027
   -40.5709 -40.5620 -20.4384 -20.1688 -20.0723 -19.9609 -19.8501 -19.5934
   -19.3800 -19.3301 -19.3215 -19.3124 -19.2997 -19.2983 -19.2920 -19.2798
   -19.2712 -19.2572 -19.2147 -19.2111 -19.2016 -19.1918 -19.1856 -19.1747
   -19.1096 -19.1067 -19.1017 -19.0982 -19.0963 -19.0923 -18.9848 -18.9210
   -18.8644 -18.7362 -18.6859 -18.6284 -18.6091 -18.5720 -18.5692 -18.5504
   -18.5273 -18.5002 -18.4837 -18.4832 -18.4704 -18.4624 -18.4251 -18.3979
   -18.3615 -18.3491 -18.3465 -18.3390 -18.3238 -18.3121 -18.2715 -18.2537
   -18.2471 -18.2454 -18.2419 -18.2365 -18.2270 -18.2170 -18.1882 -18.1828
   -18.1825 -18.1813 -18.1804 -18.1793 -18.1712 -18.1516 -18.1508 -18.1446
   -18.1436 -18.1422 -18.1380 -18.1371 -18.1369 -18.1331 -18.1118 -18.1107
   -18.1102 -18.1064 -18.0995 -18.0924 -18.0922 -18.0866 -18.0790 -18.0703
   -18.0676 -18.0658 -18.0625 -18.0536 -18.0502 -18.0487 -18.0251 -18.0158
   -18.0136 -18.0081 -17.9984 -17.9838 -17.9824 -17.9811 -17.9795 -17.9594
   -17.9577 -17.9529 -17.9494 -17.9429 -17.9375 -17.9326 -17.9296 -17.9268
   -17.9219 -17.9202 -17.9185 -17.9030 -17.9028 -17.9018 -17.8950 -17.8915
   -17.8900 -17.8848 -17.8839 -17.8812 -17.8597 -17.8589 -17.8586 -17.8568
   -17.8565 -17.8552 -12.4794 -12.4443 -12.0780 -12.0430 -11.9516 -11.8654
   -11.8587 -11.8550 -11.7711 -11.7537 -11.7355 -11.7229 -11.6472 -11.6221
   -11.6182 -11.6158 -11.5173 -11.5021 -11.4641 -11.3934 -11.3434 -11.3075
   -11.3043 -11.2989 -11.2955 -11.2746 -11.2438 -11.2345 -11.2036 -11.1936
   -11.1914 -11.1895 -11.1877 -11.1820 -11.1699 -11.1578 -11.1424 -11.1306
   -11.1265 -11.1250 -11.1180 -11.1105 -11.1066 -11.0971 -11.0950 -11.0886
   -11.0671 -11.0431 -11.0280 -11.0276 -11.0156 -11.0097 -11.0043 -10.9964
   -10.9792 -10.9647 -10.9576 -10.9510 -10.9492 -10.9405 -10.9380 -10.9220
   -10.9146 -10.9072 -10.9024 -10.9018 -10.8999 -10.8915 -10.8909 -10.8897
   -10.8871 -10.8861 -10.8773 -10.8710 -10.8685 -10.8643 -10.8458 -10.8444
   -10.8406 -10.8400 -10.8380 -10.8354 -10.8315 -10.8301 -10.8221 -10.8003
   -10.7996 -10.7993 -10.7991 -10.7983 -10.7960 -10.7698 -10.7329 -10.7230
   -10.7096 -10.6943 -10.6720 -10.6556 -10.6513 -10.6448 -10.6330 -10.6038
   -10.5111 -10.4019 -10.3047 -10.2322 -10.2074 -10.1575 -10.1140 -10.0387
    -9.9862  -9.9807  -9.9588  -9.9225  -9.8919  -9.8823  -9.8714  -9.8626
    -9.8556  -9.8416  -9.8391  -9.8375  -9.8341  -9.8316  -9.8254  -9.8225
    -9.8178  -9.8141  -9.8119  -9.8110  -9.8057  -9.7927  -9.7791  -9.7715
    -9.7578  -9.7500  -9.7064  -9.6986  -9.6924  -9.6904  -9.6877  -9.6829
    -9.6818  -9.6806  -9.6785  -9.6780  -9.6762  -9.6731  -9.6474  -9.6405
    -9.6183  -9.6101  -9.6035  -9.6034  -9.6033  -9.6030  -9.6028  -9.6025
    -9.5932  -9.5849  -9.5766  -9.5736  -9.5692  -9.5538  -9.5455  -9.5189
    -9.5099  -9.4574  -9.4375  -9.4340  -9.4313  -9.4230  -9.4211  -9.4160
    -9.4033  -9.3983  -9.3969  -9.3856  -9.3731  -9.3549  -9.3358  -9.3149
    -9.3083  -9.3067  -9.2967  -9.2804  -9.2710  -9.2550  -9.2463  -9.2456
    -9.2441  -9.2425  -9.2375  -9.2282  -9.2149  -9.1953  -9.1798  -9.1759
    -9.1583  -9.1357  -9.1271  -9.0940  -9.0606  -9.0448  -9.0436  -9.0412
    -9.0363  -9.0182  -9.0100  -9.0094  -8.9982  -8.9889  -8.9793  -8.9789
    -8.9788  -8.9762  -8.9627  -8.9598  -8.9562  -8.9520  -8.8936  -8.8844
    -8.8834  -8.8831  -8.8825  -8.8819  -8.8817  -8.8406  -8.8280  -8.8219
    -8.8118  -8.7989  -8.7961  -8.7569  -8.7380  -8.7313  -8.7271  -8.7208
    -8.7167  -8.6957  -8.6604  -8.6572  -8.6549  -8.6532  -8.6522  -8.6488
    -8.6274  -8.5936  -8.5899  -8.5007  -8.4533  -8.4281  -8.4280  -8.4232
    -8.4226  -8.4184  -8.4163  -8.4153  -8.4022  -8.3810  -8.3623  -8.3375
    -8.3372  -8.3372  -8.3370  -8.3364  -8.3350  -8.3115  -8.3108  -8.3105
    -8.3102  -8.3093  -8.3078  -8.2839  -8.2829  -8.2825  -8.2823  -8.2819
    -8.2814  -8.2591  -8.2335  -8.1934  -8.1215  -8.0561  -8.0038  -7.9239
    -7.9217  -7.9196  -7.9087  -7.8786  -7.8628  -7.8354  -7.8171  -7.8010
    -7.7740  -7.7563  -7.7227  -7.7154  -7.7082  -7.6998  -7.6892  -7.6788
    -7.6680  -7.6651  -7.6592  -7.6513  -7.6411  -7.6221  -7.6212  -7.6144
    -7.5995  -7.5964  -7.5957  -7.5954  -7.5950  -7.5936  -7.5891  -7.5720
    -7.5707  -7.5692  -7.5685  -7.5667  -7.5662  -7.5587  -7.5503  -7.5446
    -7.5438  -7.5435  -7.5431  -7.5425  -7.5413  -7.5318  -7.5184  -7.5083
    -7.4983  -7.4947  -7.4847  -7.4819  -7.4788  -7.4620  -7.4448  -7.4370
    -7.4223  -7.4184  -7.4076  -7.3949  -7.3801  -7.3765  -7.3689  -7.3642
    -7.3590  -7.3568  -7.3553  -7.3470  -7.3402  -7.3120  -7.3120  -7.2976
    -7.2937  -7.2928  -7.2755  -7.2752  -7.2520  -7.2406  -7.2258  -7.1989
    -7.1902  -7.1782  -7.1522  -7.1284  -7.0496  -7.0251  -7.0209  -6.9602
    -6.9443  -6.9367  -6.9316  -6.8897  -6.8627  -6.8428  -6.8397  -6.8394
    -6.8222  -6.7943  -6.7634  -6.7623  -6.7604  -6.7504  -6.7447  -6.7361
    -6.7093  -6.6876  -6.6836  -6.6829  -6.6783  -6.6523  -6.6431  -6.6346
    -6.6318  -6.6263  -6.6161  -6.6026  -6.5838  -6.5823  -6.5784  -6.5758
    -6.5740  -6.5725  -6.5700  -6.5695  -6.5639  -6.5603  -6.5591  -6.5590
    -6.5590  -6.5588  -6.5586  -6.5546  -6.5449  -6.5400  -6.5129  -6.5032
    -6.5003  -6.4872  -6.4722  -6.4709  -6.4702  -6.4385  -6.4130  -6.3974
    -6.3949  -6.3943  -6.3921  -6.3913  -6.3864  -6.3752  -6.3622  -6.3574
    -6.3533  -6.3512  -6.3502  -6.3453  -6.3334  -6.3236  -6.3193  -6.3148
    -6.3140  -6.3126  -6.3108  -6.3070  -6.2875  -6.2119  -6.0889  -6.0669
    -5.9130  -5.9064  -5.6883  -5.6042  -5.5635  -5.4194  -5.3648  -5.3081
    -5.2114  -4.3524  -4.1190  -3.9626  -3.9213  -3.9139  -3.9083  -3.9009
    -3.8934  -3.8927  -3.8911  -3.8858  -3.8847  -3.8671  -3.8538  -3.8192
    -3.7813  -3.7659  -3.7593  -3.7531  -3.7466  -3.7443  -3.7413  -3.7383
    -3.7320  -3.6498  -3.6325  -3.6081  -3.5932  -3.5754  -3.5708  -3.5669
    -3.5558  -3.5500  -3.5385  -3.5336  -3.5327  -3.5306  -3.5278  -3.5251
    -3.5237  -3.5157  -3.5085  -3.5042  -3.5033  -3.5028  -3.4984  -3.4897
    -3.4879  -3.4874  -3.4818  -3.4768  -3.4729  -3.4686  -3.4676  -3.4649
    -3.4612  -3.4574  -3.4513  -3.4444  -3.4425  -3.4231  -3.4189  -3.4179
    -3.4129  -3.4104  -3.4072  -3.4022  -3.3990  -3.3938  -3.3832  -3.3674
    -3.3651  -3.3623  -3.3496  -3.3464  -3.3453  -3.3396  -3.3303  -3.3101
    -3.2946  -3.2797  -3.2708  -3.2634  -3.2530  -3.1684  -3.1521  -3.1446
    -3.1310  -3.1243  -3.1208  -3.1174  -3.1138  -3.1108  -3.1057  -3.0946
    -3.0779  -3.0563  -3.0511  -3.0470  -3.0425  -3.0363  -3.0340  -3.0313
    -3.0275  -3.0266  -3.0238  -3.0235  -3.0186  -3.0174  -3.0153  -3.0141
    -3.0083  -3.0060  -2.9989  -2.9955  -2.9949  -2.9932  -2.9928  -2.9922
    -2.9913  -2.9891  -2.9841  -2.9707  -2.9674  -2.9569  -2.9483  -2.9443
    -2.9318  -2.9279  -2.9252  -2.9004  -2.8678  -2.8676  -2.8675  -2.8673
    -2.8672  -2.8671  -2.8670  -2.8653  -2.8647  -2.8509  -2.8478  -2.8432
    -2.8289  -2.8151  -2.8063  -2.7964  -2.7905  -2.7800  -2.7750  -2.7314
    -2.7255  -2.7091  -2.7001  -2.6958  -2.6920  -2.6891  -2.6856  -2.6808
    -2.6800  -2.6724  -2.6350  -2.6145  -2.6040  -2.5982  -2.5888  -2.5615
    -2.5123  -2.5076  -2.5061  -2.4967  -2.4895  -2.4854  -2.4716  -2.4578

          k = 0.0000-0.5773 0.0000 (386352 PWs)   bands (ev):

  -103.0043-102.4899 -88.8955 -71.3687 -71.3621 -71.3245 -71.2898 -71.2832
   -71.2676 -71.2616 -70.8630 -70.8610 -70.8208 -70.8040 -70.7913 -70.7808
   -70.7662 -66.6802 -66.6799 -66.6798 -66.6798 -66.6796 -66.6786 -66.6786
   -66.6702 -66.6691 -66.6691 -66.6691 -66.6691 -66.6679 -66.6679 -66.6629
   -66.6590 -66.6542 -66.6540 -66.6540 -66.6540 -66.6540 -66.6540 -66.6540
   -66.6539 -66.6528 -66.6528 -66.6528 -66.6528 -66.6521 -66.6497 -66.6496
   -66.6496 -66.6494 -66.6485 -66.6484 -66.6484 -66.6436 -66.6433 -66.6433
   -66.6433 -66.6433 -66.6433 -66.6431 -66.6431 -66.6422 -66.6421 -66.6421
   -66.6421 -66.6421 -66.6389 -66.6389 -66.6389 -66.6388 -66.6377 -66.6376
   -66.6376 -66.6339 -66.6269 -66.6246 -66.6236 -66.6153 -66.6043 -66.5980
   -66.5519 -57.3782 -57.1992 -57.0781 -56.8433 -56.7184 -56.5120 -54.7664
   -54.6752 -54.6194 -40.9818 -40.9817 -40.9817 -40.9817 -40.9817 -40.9817
   -40.9816 -40.9815 -40.9812 -40.9812 -40.9812 -40.9812 -40.9799 -40.9727
   -40.9549 -40.9549 -40.9549 -40.9547 -40.9543 -40.9543 -40.9529 -40.9496
   -40.9429 -40.9429 -40.9428 -40.9427 -40.9423 -40.9423 -40.9399 -40.9367
   -40.9127 -40.9104 -40.8922 -40.8922 -40.8922 -40.8922 -40.8921 -40.8921
   -40.8921 -40.8920 -40.8915 -40.8915 -40.8915 -40.8915 -40.8769 -40.8676
   -40.8636 -40.8581 -40.8553 -40.8420 -40.8349 -40.8335 -40.8334 -40.8334
   -40.8332 -40.8329 -40.8329 -40.8239 -40.8239 -40.8239 -40.8238 -40.8231
   -40.8231 -40.8179 -40.8126 -40.8126 -40.8125 -40.8125 -40.8120 -40.8120
   -40.8090 -40.8005 -40.7941 -40.7890 -40.7878 -40.7834 -40.7830 -40.7830
   -40.7829 -40.7829 -40.7829 -40.7829 -40.7828 -40.7828 -40.7823 -40.7823
   -40.7823 -40.7823 -40.7743 -40.7743 -40.7742 -40.7742 -40.7741 -40.7736
   -40.7736 -40.7705 -40.7666 -40.7624 -40.7624 -40.7624 -40.7623 -40.7623
   -40.7621 -40.7619 -40.7619 -40.7619 -40.7619 -40.7619 -40.7618 -40.7616
   -40.7616 -40.7616 -40.7613 -40.7613 -40.7613 -40.7613 -40.7552 -40.7532
   -40.7532 -40.7532 -40.7532 -40.7526 -40.7526 -40.7467 -40.7451 -40.7387
   -40.7317 -40.7316 -40.7315 -40.7315 -40.7315 -40.7315 -40.7314 -40.7314
   -40.7312 -40.7307 -40.7307 -40.7306 -40.7306 -40.7197 -40.7181 -40.7087
   -40.7026 -40.6967 -40.6967 -40.6967 -40.6967 -40.6967 -40.6967 -40.6966
   -40.6966 -40.6959 -40.6959 -40.6959 -40.6959 -40.6924 -40.6846 -40.6846
   -40.6846 -40.6844 -40.6837 -40.6837 -40.6732 -40.6725 -40.6710 -40.6653
   -40.6653 -40.6653 -40.6651 -40.6648 -40.6644 -40.6644 -40.6598 -40.6483
   -40.6483 -40.6482 -40.6482 -40.6474 -40.6474 -40.6472 -40.6440 -40.6305
   -40.6176 -40.6176 -40.6176 -40.6174 -40.6167 -40.6167 -40.6149 -40.6043
   -40.5951 -40.5683 -20.3890 -19.9550 -19.9327 -19.8985 -19.8407 -19.8045
   -19.7441 -19.7105 -19.7067 -19.5963 -19.4960 -19.4907 -19.4100 -19.3985
   -19.3066 -19.2940 -19.2304 -19.1022 -18.9120 -18.8881 -18.8403 -18.8183
   -18.7851 -18.7847 -18.7799 -18.7760 -18.7678 -18.7377 -18.7192 -18.7167
   -18.7072 -18.6984 -18.6712 -18.6572 -18.6392 -18.6254 -18.6156 -18.6123
   -18.6093 -18.5883 -18.5861 -18.5551 -18.5498 -18.5385 -18.5306 -18.5138
   -18.4943 -18.4737 -18.4698 -18.4655 -18.4412 -18.4230 -18.4097 -18.3936
   -18.3831 -18.3663 -18.3364 -18.3327 -18.3108 -18.3061 -18.2812 -18.2529
   -18.2493 -18.2410 -18.2278 -18.2003 -18.1901 -18.1854 -18.1716 -18.1617
   -18.1596 -18.1582 -18.1572 -18.1389 -18.1355 -18.1318 -18.1294 -18.1276
   -18.1257 -18.1186 -18.1157 -18.1138 -18.1038 -18.0898 -18.0729 -18.0706
   -18.0681 -18.0646 -18.0620 -18.0601 -18.0595 -18.0508 -18.0495 -18.0409
   -18.0144 -18.0094 -18.0001 -17.9978 -17.9945 -17.9830 -17.9566 -17.9537
   -17.9533 -17.9385 -17.9333 -17.9155 -17.9091 -17.9042 -17.9011 -17.9001
   -17.8808 -17.8802 -17.8800 -17.8790 -17.8784 -17.8777 -17.8670 -17.8646
   -17.8482 -17.8439 -17.8230 -17.8194 -17.8038 -17.7991 -17.7883 -17.7853
   -17.7802 -17.7797 -12.4474 -12.4035 -11.8953 -11.8299 -11.7773 -11.7251
   -11.6641 -11.6496 -11.5853 -11.5638 -11.5624 -11.5602 -11.5486 -11.5440
   -11.5363 -11.5232 -11.5051 -11.4760 -11.4728 -11.4563 -11.4385 -11.4274
   -11.4133 -11.4042 -11.3866 -11.3668 -11.3579 -11.3521 -11.3400 -11.3306
   -11.3264 -11.3219 -11.3170 -11.3148 -11.2747 -11.2735 -11.2631 -11.2544
   -11.2510 -11.2416 -11.2329 -11.2306 -11.2225 -11.2122 -11.2081 -11.2001
   -11.1951 -11.1786 -11.1526 -11.1442 -11.1376 -11.1137 -11.0819 -11.0611
   -11.0350 -11.0183 -11.0159 -10.9891 -10.9810 -10.9704 -10.9672 -10.9504
   -10.9386 -10.9116 -10.9012 -10.8991 -10.8971 -10.8888 -10.8826 -10.8729
   -10.8718 -10.8714 -10.8702 -10.8679 -10.8611 -10.8584 -10.8536 -10.8527
   -10.8478 -10.8444 -10.8434 -10.8404 -10.8289 -10.8055 -10.8040 -10.8036
   -10.8031 -10.7697 -10.7005 -10.6122 -10.6059 -10.5962 -10.5898 -10.5651
   -10.5471 -10.4913 -10.4675 -10.4360 -10.3790 -10.3387 -10.3215 -10.2652
   -10.2367 -10.1999 -10.1880 -10.1839 -10.1736 -10.1716 -10.1581 -10.1311
   -10.1137 -10.1086 -10.1010 -10.0942 -10.0916 -10.0832 -10.0763 -10.0655
   -10.0285 -10.0253 -10.0100  -9.9894  -9.9863  -9.9674  -9.9661  -9.9610
    -9.9535  -9.9486  -9.9268  -9.9167  -9.9025  -9.8859  -9.8655  -9.8538
    -9.8434  -9.8364  -9.8238  -9.8113  -9.7987  -9.7814  -9.7673  -9.7549
    -9.7319  -9.7270  -9.7000  -9.6946  -9.6876  -9.6763  -9.6670  -9.6419
    -9.6319  -9.6259  -9.6184  -9.6098  -9.6065  -9.5922  -9.5594  -9.5535
    -9.5514  -9.5511  -9.5414  -9.5305  -9.5237  -9.5216  -9.5182  -9.5149
    -9.4982  -9.4940  -9.4635  -9.4506  -9.4357  -9.4188  -9.3918  -9.3858
    -9.3663  -9.3108  -9.2953  -9.2931  -9.2820  -9.2731  -9.2704  -9.2603
    -9.2329  -9.2269  -9.2157  -9.2109  -9.1936  -9.1812  -9.1671  -9.1575
    -9.1339  -9.1303  -9.1184  -9.1154  -9.1068  -9.1017  -9.0878  -9.0785
    -9.0582  -9.0492  -9.0280  -9.0186  -9.0138  -9.0065  -9.0010  -8.9971
    -8.9895  -8.9657  -8.9572  -8.9528  -8.9506  -8.9484  -8.9464  -8.9428
    -8.9356  -8.9298  -8.9292  -8.9238  -8.9198  -8.9155  -8.9095  -8.9020
    -8.9005  -8.9002  -8.8922  -8.8824  -8.8592  -8.8548  -8.8543  -8.8518
    -8.8476  -8.8448  -8.8249  -8.8239  -8.8228  -8.8061  -8.7977  -8.7945
    -8.7932  -8.7900  -8.7766  -8.7631  -8.7212  -8.7160  -8.7061  -8.6930
    -8.6314  -8.5904  -8.5647  -8.5628  -8.5287  -8.5051  -8.5013  -8.4614
    -8.4236  -8.4138  -8.3842  -8.3656  -8.3186  -8.3094  -8.2748  -8.2110
    -8.1944  -8.1881  -8.1879  -8.1791  -8.1786  -8.1678  -8.1675  -8.1419
    -8.1321  -8.1142  -8.0782  -8.0623  -8.0300  -8.0290  -7.9984  -7.9744
    -7.9597  -7.9142  -7.9038  -7.8966  -7.8920  -7.8891  -7.8823  -7.8732
    -7.8721  -7.8711  -7.8634  -7.8618  -7.8567  -7.8527  -7.8480  -7.8465
    -7.8426  -7.8414  -7.8400  -7.8304  -7.8297  -7.8264  -7.8263  -7.8251
    -7.8247  -7.8197  -7.8186  -7.8152  -7.8044  -7.7965  -7.7941  -7.7914
    -7.7864  -7.7721  -7.7604  -7.7581  -7.7565  -7.7564  -7.7390  -7.7274
    -7.7266  -7.7257  -7.7251  -7.7143  -7.7108  -7.7053  -7.6803  -7.6792
    -7.6718  -7.6685  -7.6672  -7.6628  -7.6599  -7.6542  -7.6460  -7.6439
    -7.6275  -7.6246  -7.6230  -7.6218  -7.6176  -7.6130  -7.5715  -7.5337
    -7.5290  -7.5236  -7.5180  -7.5059  -7.4984  -7.4810  -7.4503  -7.3776
    -7.3536  -7.3086  -7.2348  -7.2315  -7.2282  -7.2271  -7.2131  -7.1869
    -7.1804  -7.1768  -7.1702  -7.1587  -7.1479  -7.1334  -7.1051  -7.0992
    -7.0967  -7.0862  -7.0795  -7.0612  -7.0384  -7.0363  -7.0316  -7.0019
    -6.9975  -6.9764  -6.9743  -6.9652  -6.9477  -6.9434  -6.9273  -6.9208
    -6.9166  -6.9062  -6.8942  -6.8668  -6.8399  -6.8204  -6.8091  -6.7794
    -6.7600  -6.7412  -6.7288  -6.7027  -6.6947  -6.6843  -6.6812  -6.6674
    -6.6665  -6.6659  -6.6640  -6.6595  -6.6492  -6.6483  -6.6469  -6.6468
    -6.6396  -6.6395  -6.6392  -6.6392  -6.6189  -6.6085  -6.5897  -6.5664
    -6.5364  -6.5230  -6.4840  -6.4574  -6.4056  -6.3980  -6.3835  -6.3798
    -6.3765  -6.3707  -6.3623  -6.3500  -6.3383  -6.3378  -6.3336  -6.3332
    -6.3277  -6.3193  -6.3164  -6.3120  -6.3055  -6.2900  -6.2681  -6.2658
    -6.2635  -6.2599  -6.2253  -6.1920  -6.1536  -6.0689  -6.0512  -6.0478
    -6.0124  -5.9849  -5.9754  -5.9183  -5.9158  -5.8800  -5.8573  -5.8501
    -5.8016  -5.7404  -5.6932  -5.6582  -5.6512  -5.5350  -5.5243  -5.4072
    -5.2892  -4.3461  -4.2007  -4.1524  -4.1500  -4.1177  -4.0861  -3.9996
    -3.9905  -3.9879  -3.9728  -3.9208  -3.9173  -3.9057  -3.9001  -3.8934
    -3.8866  -3.8742  -3.8722  -3.8590  -3.8586  -3.8304  -3.7975  -3.7749
    -3.7413  -3.7274  -3.6989  -3.6787  -3.6660  -3.6642  -3.6567  -3.6428
    -3.6257  -3.6162  -3.6091  -3.6049  -3.5909  -3.5833  -3.5708  -3.5670
    -3.5632  -3.5513  -3.5451  -3.5442  -3.5367  -3.5328  -3.5242  -3.5195
    -3.5166  -3.5094  -3.5063  -3.4888  -3.4860  -3.4784  -3.4653  -3.4616
    -3.4430  -3.4153  -3.4120  -3.4071  -3.4046  -3.4027  -3.4008  -3.3963
    -3.3892  -3.3660  -3.3589  -3.3461  -3.3417  -3.3389  -3.3378  -3.3376
    -3.3366  -3.3308  -3.3137  -3.3084  -3.3037  -3.2979  -3.2925  -3.2861
    -3.2846  -3.2770  -3.2709  -3.2677  -3.2636  -3.2614  -3.2488  -3.2424
    -3.2389  -3.2350  -3.2275  -3.2209  -3.2208  -3.2194  -3.2102  -3.1783
    -3.1613  -3.1571  -3.1539  -3.1395  -3.1275  -3.1247  -3.1169  -3.0965
    -3.0867  -3.0824  -3.0816  -3.0797  -3.0795  -3.0772  -3.0717  -3.0705
    -3.0676  -3.0651  -3.0586  -3.0568  -3.0503  -3.0465  -3.0414  -3.0393
    -3.0334  -3.0286  -3.0262  -3.0227  -3.0205  -3.0090  -3.0062  -3.0039
    -2.9974  -2.9936  -2.9903  -2.9797  -2.9720  -2.9642  -2.9603  -2.9482
    -2.9462  -2.9395  -2.9348  -2.9263  -2.8940  -2.8686  -2.8560  -2.8487
    -2.8395  -2.8243  -2.8005  -2.7801  -2.7723  -2.7195  -2.6872  -2.6743
    -2.6560  -2.6454  -2.6312  -2.6220  -2.6094  -2.6029  -2.5996  -2.5878
    -2.5865  -2.5849  -2.5788  -2.5714  -2.5431  -2.4887  -2.4751  -2.4660
    -2.4586  -2.4523  -2.4425  -2.4368  -2.4331  -2.4292  -2.4136  -2.3936

          k =-0.5000-0.2887 0.0000 (386352 PWs)   bands (ev):

  -103.0043-102.4899 -88.8955 -71.3687 -71.3621 -71.3245 -71.2898 -71.2832
   -71.2676 -71.2616 -70.8630 -70.8610 -70.8208 -70.8040 -70.7913 -70.7808
   -70.7662 -66.6799 -66.6798 -66.6798 -66.6796 -66.6796 -66.6786 -66.6786
   -66.6723 -66.6691 -66.6691 -66.6691 -66.6691 -66.6679 -66.6679 -66.6610
   -66.6568 -66.6558 -66.6543 -66.6541 -66.6540 -66.6540 -66.6540 -66.6540
   -66.6539 -66.6537 -66.6528 -66.6528 -66.6528 -66.6528 -66.6497 -66.6496
   -66.6496 -66.6494 -66.6484 -66.6484 -66.6463 -66.6436 -66.6433 -66.6433
   -66.6433 -66.6433 -66.6433 -66.6433 -66.6429 -66.6426 -66.6421 -66.6421
   -66.6421 -66.6421 -66.6389 -66.6389 -66.6389 -66.6388 -66.6385 -66.6376
   -66.6376 -66.6346 -66.6273 -66.6245 -66.6219 -66.6160 -66.6042 -66.5980
   -66.5519 -57.3782 -57.1992 -57.0781 -56.8433 -56.7184 -56.5120 -54.7664
   -54.6752 -54.6194 -40.9818 -40.9818 -40.9817 -40.9817 -40.9817 -40.9817
   -40.9816 -40.9816 -40.9815 -40.9812 -40.9812 -40.9812 -40.9812 -40.9710
   -40.9551 -40.9550 -40.9549 -40.9549 -40.9547 -40.9543 -40.9543 -40.9502
   -40.9429 -40.9429 -40.9428 -40.9428 -40.9423 -40.9423 -40.9382 -40.9318
   -40.9220 -40.9019 -40.8922 -40.8922 -40.8922 -40.8922 -40.8921 -40.8921
   -40.8920 -40.8920 -40.8915 -40.8915 -40.8915 -40.8915 -40.8787 -40.8670
   -40.8628 -40.8601 -40.8550 -40.8471 -40.8335 -40.8334 -40.8334 -40.8333
   -40.8329 -40.8329 -40.8299 -40.8239 -40.8239 -40.8239 -40.8237 -40.8231
   -40.8231 -40.8159 -40.8126 -40.8126 -40.8125 -40.8125 -40.8120 -40.8120
   -40.8120 -40.8011 -40.7945 -40.7916 -40.7879 -40.7831 -40.7831 -40.7829
   -40.7829 -40.7829 -40.7829 -40.7828 -40.7827 -40.7823 -40.7823 -40.7823
   -40.7823 -40.7788 -40.7763 -40.7743 -40.7742 -40.7742 -40.7741 -40.7739
   -40.7736 -40.7736 -40.7624 -40.7624 -40.7624 -40.7623 -40.7621 -40.7620
   -40.7619 -40.7619 -40.7619 -40.7619 -40.7619 -40.7619 -40.7616 -40.7616
   -40.7615 -40.7613 -40.7613 -40.7613 -40.7613 -40.7597 -40.7580 -40.7532
   -40.7532 -40.7532 -40.7532 -40.7526 -40.7526 -40.7481 -40.7402 -40.7382
   -40.7342 -40.7316 -40.7315 -40.7315 -40.7315 -40.7315 -40.7314 -40.7314
   -40.7312 -40.7307 -40.7307 -40.7306 -40.7306 -40.7161 -40.7104 -40.7100
   -40.7069 -40.7018 -40.6967 -40.6967 -40.6967 -40.6967 -40.6967 -40.6967
   -40.6966 -40.6966 -40.6959 -40.6959 -40.6959 -40.6959 -40.6846 -40.6846
   -40.6846 -40.6844 -40.6837 -40.6837 -40.6784 -40.6752 -40.6685 -40.6653
   -40.6653 -40.6653 -40.6651 -40.6644 -40.6644 -40.6625 -40.6576 -40.6483
   -40.6483 -40.6482 -40.6481 -40.6474 -40.6474 -40.6451 -40.6392 -40.6327
   -40.6176 -40.6176 -40.6176 -40.6175 -40.6167 -40.6167 -40.6167 -40.6041
   -40.5927 -40.5701 -20.3855 -19.9727 -19.9328 -19.9131 -19.8405 -19.8159
   -19.7322 -19.7149 -19.6581 -19.5657 -19.4961 -19.4868 -19.4153 -19.3943
   -19.3481 -19.2927 -19.2847 -19.0670 -18.8930 -18.8735 -18.8578 -18.8359
   -18.7851 -18.7841 -18.7799 -18.7789 -18.7592 -18.7405 -18.7190 -18.7153
   -18.7080 -18.7031 -18.6671 -18.6504 -18.6375 -18.6173 -18.6164 -18.6123
   -18.6066 -18.5936 -18.5831 -18.5524 -18.5503 -18.5393 -18.5312 -18.5064
   -18.4893 -18.4726 -18.4713 -18.4637 -18.4468 -18.4331 -18.4167 -18.3924
   -18.3848 -18.3673 -18.3423 -18.3326 -18.3114 -18.3002 -18.2777 -18.2631
   -18.2509 -18.2340 -18.2300 -18.2009 -18.1936 -18.1824 -18.1657 -18.1619
   -18.1596 -18.1591 -18.1518 -18.1369 -18.1358 -18.1336 -18.1313 -18.1279
   -18.1240 -18.1191 -18.1173 -18.1115 -18.1033 -18.0913 -18.0743 -18.0701
   -18.0675 -18.0646 -18.0618 -18.0600 -18.0594 -18.0514 -18.0507 -18.0417
   -18.0184 -18.0056 -18.0023 -17.9979 -17.9920 -17.9840 -17.9599 -17.9535
   -17.9492 -17.9385 -17.9351 -17.9136 -17.9088 -17.9030 -17.9021 -17.9004
   -17.8808 -17.8802 -17.8796 -17.8790 -17.8786 -17.8780 -17.8669 -17.8643
   -17.8482 -17.8433 -17.8233 -17.8191 -17.8043 -17.7989 -17.7886 -17.7853
   -17.7803 -17.7798 -12.4542 -12.3687 -11.9246 -11.8434 -11.7943 -11.7350
   -11.7180 -11.6177 -11.5902 -11.5790 -11.5614 -11.5599 -11.5518 -11.5445
   -11.5312 -11.5188 -11.4937 -11.4683 -11.4536 -11.4497 -11.4442 -11.4278
   -11.4076 -11.4031 -11.3832 -11.3657 -11.3540 -11.3446 -11.3385 -11.3328
   -11.3264 -11.3200 -11.3169 -11.3146 -11.2834 -11.2695 -11.2632 -11.2548
   -11.2429 -11.2384 -11.2340 -11.2285 -11.2212 -11.2091 -11.2051 -11.1979
   -11.1943 -11.1801 -11.1503 -11.1424 -11.1367 -11.0968 -11.0895 -11.0723
   -11.0393 -11.0220 -11.0127 -11.0001 -10.9882 -10.9793 -10.9651 -10.9493
   -10.9418 -10.9266 -10.9009 -10.8977 -10.8949 -10.8866 -10.8812 -10.8726
   -10.8712 -10.8710 -10.8700 -10.8663 -10.8606 -10.8584 -10.8543 -10.8529
   -10.8508 -10.8449 -10.8430 -10.8404 -10.8352 -10.8053 -10.8039 -10.8037
   -10.8031 -10.7602 -10.6901 -10.6157 -10.5993 -10.5900 -10.5827 -10.5579
   -10.5167 -10.4883 -10.4437 -10.4267 -10.3831 -10.3250 -10.3018 -10.2632
   -10.2419 -10.2353 -10.1903 -10.1791 -10.1757 -10.1740 -10.1427 -10.1218
   -10.1187 -10.1081 -10.0983 -10.0961 -10.0849 -10.0823 -10.0755 -10.0640
   -10.0228 -10.0223 -10.0047  -9.9888  -9.9807  -9.9709  -9.9658  -9.9552
    -9.9546  -9.9524  -9.9418  -9.9176  -9.9079  -9.8905  -9.8660  -9.8576
    -9.8415  -9.8367  -9.8310  -9.8062  -9.8034  -9.7987  -9.7731  -9.7683
    -9.7497  -9.7230  -9.7198  -9.6991  -9.6891  -9.6806  -9.6626  -9.6569
    -9.6410  -9.6294  -9.6205  -9.6122  -9.6053  -9.5920  -9.5688  -9.5555
    -9.5515  -9.5470  -9.5386  -9.5348  -9.5254  -9.5234  -9.5190  -9.5181
    -9.5020  -9.4888  -9.4713  -9.4630  -9.4417  -9.4149  -9.4030  -9.3838
    -9.3500  -9.3007  -9.2922  -9.2908  -9.2759  -9.2712  -9.2689  -9.2478
    -9.2434  -9.2289  -9.2167  -9.2046  -9.1862  -9.1849  -9.1739  -9.1496
    -9.1389  -9.1309  -9.1250  -9.1128  -9.1079  -9.0974  -9.0858  -9.0793
    -9.0479  -9.0394  -9.0294  -9.0237  -9.0172  -9.0114  -9.0043  -8.9935
    -8.9764  -8.9703  -8.9551  -8.9509  -8.9494  -8.9488  -8.9468  -8.9401
    -8.9344  -8.9295  -8.9289  -8.9255  -8.9199  -8.9186  -8.9115  -8.9051
    -8.9005  -8.9003  -8.8864  -8.8844  -8.8675  -8.8543  -8.8534  -8.8523
    -8.8482  -8.8455  -8.8370  -8.8240  -8.8223  -8.8005  -8.7937  -8.7932
    -8.7929  -8.7858  -8.7807  -8.7364  -8.7220  -8.7186  -8.7100  -8.7023
    -8.6307  -8.5895  -8.5666  -8.5621  -8.5236  -8.5010  -8.4879  -8.4649
    -8.4178  -8.4130  -8.3939  -8.3689  -8.3457  -8.3001  -8.2739  -8.2110
    -8.1881  -8.1880  -8.1807  -8.1787  -8.1753  -8.1676  -8.1669  -8.1555
    -8.1325  -8.1140  -8.1046  -8.0427  -8.0337  -8.0269  -8.0191  -7.9382
    -7.9295  -7.9168  -7.9031  -7.8979  -7.8912  -7.8860  -7.8816  -7.8726
    -7.8718  -7.8685  -7.8633  -7.8610  -7.8539  -7.8510  -7.8464  -7.8420
    -7.8420  -7.8334  -7.8305  -7.8290  -7.8272  -7.8254  -7.8249  -7.8246
    -7.8194  -7.8185  -7.8172  -7.8087  -7.8023  -7.7959  -7.7922  -7.7899
    -7.7862  -7.7818  -7.7580  -7.7577  -7.7571  -7.7553  -7.7400  -7.7334
    -7.7271  -7.7262  -7.7254  -7.7246  -7.7124  -7.7042  -7.6920  -7.6829
    -7.6700  -7.6689  -7.6685  -7.6635  -7.6553  -7.6468  -7.6459  -7.6397
    -7.6272  -7.6253  -7.6244  -7.6228  -7.6174  -7.6116  -7.5904  -7.5541
    -7.5280  -7.5223  -7.5202  -7.5148  -7.5010  -7.4816  -7.4540  -7.3622
    -7.3131  -7.3047  -7.2725  -7.2354  -7.2293  -7.2274  -7.2258  -7.1956
    -7.1793  -7.1738  -7.1680  -7.1518  -7.1487  -7.1336  -7.1245  -7.0977
    -7.0891  -7.0856  -7.0697  -7.0640  -7.0494  -7.0402  -7.0362  -7.0221
    -6.9922  -6.9798  -6.9733  -6.9729  -6.9476  -6.9385  -6.9234  -6.9202
    -6.9163  -6.8993  -6.8903  -6.8502  -6.8377  -6.8258  -6.8071  -6.7869
    -6.7650  -6.7452  -6.7287  -6.7026  -6.6989  -6.6826  -6.6789  -6.6680
    -6.6672  -6.6650  -6.6645  -6.6547  -6.6499  -6.6480  -6.6472  -6.6450
    -6.6408  -6.6396  -6.6393  -6.6390  -6.6382  -6.6173  -6.5879  -6.5776
    -6.5449  -6.4900  -6.4783  -6.4349  -6.4236  -6.3902  -6.3869  -6.3777
    -6.3775  -6.3719  -6.3678  -6.3583  -6.3386  -6.3375  -6.3366  -6.3331
    -6.3326  -6.3240  -6.3160  -6.3132  -6.2959  -6.2827  -6.2726  -6.2656
    -6.2624  -6.2602  -6.2391  -6.1666  -6.1332  -6.0593  -6.0490  -6.0382
    -5.9887  -5.9828  -5.9387  -5.9290  -5.9123  -5.9052  -5.8966  -5.8558
    -5.8060  -5.7421  -5.6843  -5.6549  -5.6418  -5.5485  -5.5360  -5.3807
    -5.3202  -4.3836  -4.1843  -4.1624  -4.1520  -4.1227  -4.0597  -4.0185
    -3.9927  -3.9834  -3.9809  -3.9217  -3.9125  -3.9050  -3.8956  -3.8937
    -3.8845  -3.8753  -3.8726  -3.8593  -3.8587  -3.8161  -3.8006  -3.7748
    -3.7534  -3.7130  -3.6893  -3.6769  -3.6640  -3.6588  -3.6578  -3.6354
    -3.6154  -3.6095  -3.6047  -3.5965  -3.5951  -3.5839  -3.5770  -3.5711
    -3.5666  -3.5509  -3.5448  -3.5445  -3.5370  -3.5337  -3.5219  -3.5192
    -3.5111  -3.5095  -3.5023  -3.4911  -3.4898  -3.4789  -3.4718  -3.4581
    -3.4439  -3.4190  -3.4123  -3.4113  -3.4063  -3.4020  -3.3989  -3.3966
    -3.3879  -3.3680  -3.3579  -3.3468  -3.3431  -3.3405  -3.3382  -3.3369
    -3.3353  -3.3308  -3.3175  -3.3107  -3.3008  -3.2968  -3.2939  -3.2861
    -3.2826  -3.2768  -3.2714  -3.2678  -3.2628  -3.2561  -3.2466  -3.2420
    -3.2407  -3.2327  -3.2266  -3.2231  -3.2209  -3.2208  -3.2077  -3.1712
    -3.1612  -3.1558  -3.1460  -3.1413  -3.1330  -3.1225  -3.1175  -3.0915
    -3.0880  -3.0834  -3.0814  -3.0804  -3.0794  -3.0788  -3.0722  -3.0710
    -3.0662  -3.0620  -3.0549  -3.0536  -3.0518  -3.0461  -3.0430  -3.0404
    -3.0372  -3.0320  -3.0300  -3.0261  -3.0168  -3.0117  -3.0060  -3.0048
    -2.9972  -2.9934  -2.9901  -2.9773  -2.9691  -2.9677  -2.9545  -2.9514
    -2.9462  -2.9389  -2.9346  -2.9280  -2.9109  -2.8669  -2.8534  -2.8521
    -2.8460  -2.8296  -2.8007  -2.7903  -2.7807  -2.7266  -2.6806  -2.6712
    -2.6525  -2.6509  -2.6360  -2.6275  -2.6155  -2.6054  -2.5992  -2.5913
    -2.5896  -2.5844  -2.5840  -2.5583  -2.5580  -2.5272  -2.4967  -2.4837
    -2.4800  -2.4561  -2.4530  -2.4485  -2.4362  -2.4305  -2.4282  -2.4219

          k =-0.5000-0.8660 0.0000 (386352 PWs)   bands (ev):

  -103.0043-102.4899 -88.8955 -71.3687 -71.3621 -71.3245 -71.2898 -71.2832
   -71.2676 -71.2616 -70.8630 -70.8610 -70.8208 -70.8040 -70.7913 -70.7808
   -70.7662 -66.6800 -66.6798 -66.6798 -66.6795 -66.6794 -66.6786 -66.6786
   -66.6724 -66.6691 -66.6691 -66.6691 -66.6691 -66.6679 -66.6679 -66.6622
   -66.6577 -66.6543 -66.6541 -66.6540 -66.6540 -66.6540 -66.6540 -66.6538
   -66.6538 -66.6528 -66.6528 -66.6528 -66.6528 -66.6523 -66.6498 -66.6496
   -66.6496 -66.6493 -66.6484 -66.6484 -66.6475 -66.6439 -66.6433 -66.6433
   -66.6433 -66.6433 -66.6431 -66.6430 -66.6430 -66.6421 -66.6421 -66.6421
   -66.6421 -66.6419 -66.6404 -66.6389 -66.6389 -66.6389 -66.6388 -66.6376
   -66.6376 -66.6330 -66.6285 -66.6245 -66.6214 -66.6159 -66.6042 -66.5980
   -66.5519 -57.3782 -57.1992 -57.0781 -56.8433 -56.7184 -56.5120 -54.7664
   -54.6752 -54.6194 -40.9820 -40.9818 -40.9817 -40.9817 -40.9817 -40.9816
   -40.9815 -40.9814 -40.9812 -40.9812 -40.9812 -40.9812 -40.9730 -40.9656
   -40.9618 -40.9564 -40.9550 -40.9549 -40.9549 -40.9547 -40.9543 -40.9543
   -40.9492 -40.9429 -40.9429 -40.9428 -40.9428 -40.9423 -40.9423 -40.9348
   -40.9216 -40.8932 -40.8922 -40.8922 -40.8922 -40.8922 -40.8921 -40.8921
   -40.8921 -40.8920 -40.8915 -40.8915 -40.8915 -40.8915 -40.8738 -40.8696
   -40.8614 -40.8560 -40.8509 -40.8475 -40.8335 -40.8334 -40.8334 -40.8332
   -40.8329 -40.8329 -40.8299 -40.8239 -40.8239 -40.8239 -40.8237 -40.8231
   -40.8231 -40.8144 -40.8130 -40.8126 -40.8126 -40.8125 -40.8125 -40.8120
   -40.8120 -40.8030 -40.7966 -40.7911 -40.7881 -40.7831 -40.7831 -40.7829
   -40.7829 -40.7829 -40.7829 -40.7827 -40.7827 -40.7823 -40.7823 -40.7823
   -40.7823 -40.7815 -40.7762 -40.7743 -40.7742 -40.7742 -40.7740 -40.7736
   -40.7736 -40.7700 -40.7645 -40.7626 -40.7624 -40.7624 -40.7624 -40.7624
   -40.7622 -40.7619 -40.7619 -40.7619 -40.7619 -40.7618 -40.7617 -40.7617
   -40.7616 -40.7616 -40.7613 -40.7613 -40.7613 -40.7613 -40.7551 -40.7532
   -40.7532 -40.7532 -40.7532 -40.7526 -40.7526 -40.7487 -40.7451 -40.7385
   -40.7339 -40.7320 -40.7315 -40.7315 -40.7315 -40.7315 -40.7315 -40.7311
   -40.7310 -40.7307 -40.7307 -40.7306 -40.7306 -40.7141 -40.7125 -40.7100
   -40.7083 -40.7021 -40.6967 -40.6967 -40.6967 -40.6967 -40.6967 -40.6967
   -40.6966 -40.6966 -40.6959 -40.6959 -40.6959 -40.6959 -40.6847 -40.6846
   -40.6846 -40.6843 -40.6837 -40.6837 -40.6807 -40.6744 -40.6698 -40.6656
   -40.6653 -40.6653 -40.6648 -40.6644 -40.6644 -40.6634 -40.6548 -40.6483
   -40.6483 -40.6483 -40.6481 -40.6474 -40.6474 -40.6443 -40.6414 -40.6273
   -40.6198 -40.6178 -40.6176 -40.6176 -40.6173 -40.6167 -40.6167 -40.5923
   -40.5897 -40.5813 -20.3842 -19.9787 -19.9330 -19.9157 -19.8405 -19.8169
   -19.7299 -19.7148 -19.6390 -19.5807 -19.4961 -19.4889 -19.4138 -19.3961
   -19.3230 -19.2930 -19.2675 -19.1365 -18.9098 -18.8764 -18.8262 -18.7946
   -18.7875 -18.7840 -18.7797 -18.7695 -18.7525 -18.7423 -18.7295 -18.7108
   -18.7028 -18.6946 -18.6843 -18.6675 -18.6540 -18.6214 -18.6165 -18.6105
   -18.6061 -18.5887 -18.5855 -18.5654 -18.5550 -18.5383 -18.5328 -18.5144
   -18.4785 -18.4719 -18.4679 -18.4597 -18.4317 -18.4225 -18.4111 -18.3996
   -18.3864 -18.3726 -18.3274 -18.3160 -18.3106 -18.3035 -18.2802 -18.2664
   -18.2477 -18.2385 -18.2236 -18.2166 -18.1903 -18.1808 -18.1683 -18.1624
   -18.1595 -18.1592 -18.1557 -18.1432 -18.1338 -18.1330 -18.1314 -18.1282
   -18.1248 -18.1218 -18.1167 -18.1087 -18.1047 -18.1004 -18.0728 -18.0708
   -18.0692 -18.0655 -18.0632 -18.0602 -18.0569 -18.0563 -18.0512 -18.0425
   -18.0162 -18.0089 -17.9998 -17.9971 -17.9963 -17.9908 -17.9562 -17.9547
   -17.9482 -17.9443 -17.9265 -17.9131 -17.9067 -17.9045 -17.9017 -17.8922
   -17.8805 -17.8800 -17.8798 -17.8789 -17.8786 -17.8773 -17.8656 -17.8646
   -17.8464 -17.8441 -17.8221 -17.8198 -17.8031 -17.8000 -17.7882 -17.7863
   -17.7802 -17.7799 -12.4500 -12.3649 -11.9061 -11.8398 -11.7975 -11.7719
   -11.7261 -11.6345 -11.6157 -11.5695 -11.5621 -11.5580 -11.5573 -11.5498
   -11.5298 -11.5046 -11.4811 -11.4691 -11.4543 -11.4487 -11.4456 -11.4306
   -11.4153 -11.3946 -11.3817 -11.3688 -11.3518 -11.3379 -11.3348 -11.3336
   -11.3230 -11.3206 -11.3145 -11.3084 -11.2736 -11.2671 -11.2636 -11.2517
   -11.2429 -11.2407 -11.2301 -11.2260 -11.2206 -11.2083 -11.2074 -11.1931
[...]
     atom  147 type  2   force =    -0.00000201   -0.00000444    0.00000520
     atom  148 type  2   force =    -0.00000219   -0.00000115    0.00161502
     atom  149 type  2   force =    -0.00000224   -0.00000154   -0.00236004
     atom  150 type  2   force =    -0.00000377   -0.00000946    0.00001774
     atom  151 type  1   force =    -0.00001197    0.00000136    0.00000783
     atom  152 type  1   force =     0.00024530    0.00003602   -0.00040046
     atom  153 type  2   force =    -0.00031535    0.00024760    0.00021231
     atom  154 type  2   force =     0.00002173   -0.00001871   -0.00005430
     atom  155 type  2   force =     0.00000307   -0.00000098    0.00004361
     atom  156 type  2   force =    -0.00008820    0.00037237   -0.00071877
     atom  157 type  1   force =    -0.00000020   -0.00000143    0.00068790
     atom  158 type  1   force =    -0.00001394   -0.00001061    0.00000647
     atom  159 type  2   force =    -0.00000359   -0.00000160    0.00000282
     atom  160 type  2   force =    -0.00000210   -0.00000119    0.00161513
     atom  161 type  2   force =    -0.00000207   -0.00000148   -0.00236011
     atom  162 type  2   force =    -0.00000369   -0.00000292    0.00001560
     atom  163 type  1   force =    -0.00001497    0.00001950   -0.00000483
     atom  164 type  1   force =    -0.00015557    0.00033699   -0.00024308
     atom  165 type  2   force =    -0.00043381    0.00007324    0.00002919
     atom  166 type  2   force =    -0.00007528   -0.00000608   -0.00006937
     atom  167 type  2   force =    -0.00006916   -0.00005198   -0.00004608
     atom  168 type  2   force =    -0.00029565   -0.00026332    0.00011679
     atom  169 type  1   force =    -0.00000044   -0.00000158    0.00068861
     atom  170 type  1   force =    -0.00001087   -0.00001828    0.00001141
     atom  171 type  2   force =    -0.00000531   -0.00000077    0.00000435
     atom  172 type  2   force =    -0.00000185   -0.00000089    0.00161519
     atom  173 type  2   force =    -0.00000194   -0.00000141   -0.00236021
     atom  174 type  2   force =    -0.00000541   -0.00000811    0.00002352
     atom  175 type  1   force =    -0.00000620   -0.00000991   -0.00000704
     atom  176 type  1   force =     0.00036463    0.00002645    0.00049652
     atom  177 type  2   force =     0.00040702   -0.00063129    0.00050529
     atom  178 type  2   force =    -0.00000620   -0.00001657   -0.00001659
     atom  179 type  2   force =    -0.00002883   -0.00002429   -0.00001839
     atom  180 type  2   force =     0.00072846    0.00015643   -0.00062788
     atom  181 type  1   force =     0.00000038   -0.00000159    0.00068790
     atom  182 type  1   force =    -0.00001004   -0.00001134    0.00000633
     atom  183 type  2   force =    -0.00000373   -0.00000240    0.00000405
     atom  184 type  2   force =    -0.00000189   -0.00000100    0.00161521
     atom  185 type  2   force =    -0.00000208   -0.00000147   -0.00236014
     atom  186 type  2   force =    -0.00000677   -0.00001337    0.00001634
     atom  187 type  1   force =     0.00001369    0.00000967   -0.00000258
     atom  188 type  1   force =    -0.00039432   -0.00032495   -0.00017034
     atom  189 type  2   force =     0.00068605    0.00114420   -0.00115291
     atom  190 type  2   force =     0.00003679   -0.00001131   -0.00006774
     atom  191 type  2   force =    -0.00001987   -0.00001683   -0.00005606
     atom  192 type  2   force =     0.00008531    0.00022975   -0.00012307
     atom  193 type  3   force =     0.00337018    0.00185317   -0.00245547
     atom  194 type  3   force =     0.00146197    0.00148800   -0.00052208
     atom  195 type  4   force =     0.00009282   -0.00115318    0.00159143

     Total force =     0.011345     Total SCF correction =     0.000429
     Energy error            =      2.8E-04 Ry
     Gradient error          =      3.4E-03 Ry/Bohr

     number of scf cycles    =  52
     number of bfgs steps    =  50

     energy             old  =  -35654.9566045266 Ry
     energy             new  =  -35654.9568815867 Ry

     CASE: energy            _new < energy            _old

     new trust radius        =       0.0353327186 bohr
     new conv_thr            =       0.0000000277 Ry


ATOMIC_POSITIONS (angstrom)
Mo               0.0000119917        1.8193638619       -9.1672481230    0   0   0
Mo               1.5756136568        0.9097075315       -3.0554901653    0   0   0
S                0.0000188998        1.8193822938       -4.6232556019    0   0   0
S                1.5756321638        0.9096773839       -7.6014065489    0   0   0
S                1.5756326175        0.9096785128      -10.7330757790    0   0   0
S                0.0000189190        1.8193860094       -1.4877129945    0   0   0
Mo               0.0000329566        1.8179616178        3.0573383985
Mo               1.5752453268        0.8957603206        9.1463245634
S               -0.0033684322        1.7957527547        7.5725688029
S                1.5757145310        0.9082931625        4.6251791081
S                1.5757959150        0.9085568643        1.4899236332
S                0.0010239094        1.8087274374       10.7141639428
Mo              -1.5756053507        4.5484193819       -9.1672481230    0   0   0
Mo               0.0000378379        3.6387394919       -3.0554952701    0   0   0
S               -1.5755913433        4.5484363582       -4.6232494962    0   0   0
S                0.0000148214        3.6387329039       -7.6014065489    0   0   0
S                0.0000152751        3.6387340328      -10.7330757790    0   0   0
S               -1.5755906502        4.5484413613       -1.4877305502    0   0   0
Mo              -1.5756253573        4.5474439848        3.0570995440
Mo              -0.0036692067        3.6146164338        9.1350304286
S               -1.5876439307        4.5377188809        7.5793506602
S               -0.0004681080        3.6373868677        4.6244610161
S                0.0006601734        3.6378289152        1.4899351420
S               -1.5788730222        4.5118543736       10.7203729157
Mo              -3.1512226931        7.2774749019       -9.1672481230    0   0   0
Mo              -1.5755910988        6.3678216792       -3.0555115988    0   0   0
S               -3.1512162438        7.2774954350       -4.6232578178    0   0   0
S               -1.5756025210        6.3677884239       -7.6014065489    0   0   0
S               -1.5756020673        6.3677895528      -10.7330757790    0   0   0
S               -3.1512127704        7.2774877076       -1.4877200710    0   0   0
Mo              -3.1512800552        7.2766211995        3.0577602167
Mo              -1.5988835089        6.3458068751        9.1675042577
S               -3.1685787129        7.2663185748        7.6022663386
S               -1.5758305607        6.3665399687        4.6251819738
S               -1.5755785346        6.3671983002        1.4896066542
S               -3.1424712893        7.2658693377       10.7503365618
Mo              -4.7268400355       10.0065304219       -9.1672481230    0   0   0
Mo              -3.1512405618        9.0968403586       -3.0554816746    0   0   0
S               -4.7268341792       10.0065523623       -4.6232463762    0   0   0
S               -3.1512198634        9.0968439439       -7.6014065489    0   0   0
S               -3.1512194097        9.0968450728      -10.7330757790    0   0   0
S               -4.7268370797       10.0065537885       -1.4877176751    0   0   0
Mo              -4.7268917130       10.0051968198        3.0577729488
Mo              -3.1634370079        9.0813594943        9.1807548978
S               -4.7290474975        9.9809178270        7.5936724910
S               -3.1506947269        9.0960034620        4.6256150045
S               -3.1513746572        9.0958513077        1.4897614274
S               -4.7320900019       10.0169404828       10.7396479218
Mo               3.1512517547        1.8193638619       -9.1672481230    0   0   0
Mo               4.7269020221        0.9097289540       -3.0554823951    0   0   0
S                3.1512612351        1.8193882564       -4.6232320683    0   0   0
S                4.7268719268        0.9096773839       -7.6014065489    0   0   0
S                4.7268723805        0.9096785128      -10.7330757790    0   0   0
S                3.1512592485        1.8193890201       -1.4877261251    0   0   0
Mo               3.1516696518        1.8180436536        3.0577745857
Mo               4.7245946987        0.9066138772        9.1647057379
S                3.1573295524        1.8006451039        7.5761426466
S                4.7273035707        0.9075919347        4.6253802790
S                4.7271841937        0.9087805804        1.4898561490
S                3.1392972828        1.8041521625       10.7245543201
Mo               1.5756344123        4.5484193819       -9.1672481230    0   0   0
Mo               3.1512756394        3.6387769522       -3.0554814834    0   0   0
S                1.5756504879        4.5484423799       -4.6232390542    0   0   0
S                3.1512545844        3.6387329039       -7.6014065489    0   0   0
S                3.1512550381        3.6387340328      -10.7330757790    0   0   0
S                1.5756466253        4.5484431864       -1.4877251801    0   0   0
Mo               1.5761130486        4.5474136918        3.0582748680
Mo               3.1457372972        3.6104833943        9.1516731401
S                1.5766786061        4.5037304513        7.5521415335
S                3.1529766809        3.6376930215        4.6249220014
S                3.1517209683        3.6378319545        1.4901833876
S                1.5672761092        4.5092276646       10.7049098709
Mo               0.0000170699        7.2774749019       -9.1672481230    0   0   0
Mo               1.5756764447        6.3678236689       -3.0554877708    0   0   0
S                0.0000381981        7.2774979204       -4.6232454413    0   0   0
S                1.5756372420        6.3677884239       -7.6014065489    0   0   0
S                1.5756376957        6.3677895528      -10.7330757790    0   0   0
S                0.0000328088        7.2774946042       -1.4877307940    0   0   0
Mo              -0.0000006420        7.2765181068        3.0576047526
Mo               1.5353713191        6.3151600794        9.1136133228
S               -0.0349580131        7.2908437237        7.6165033827
S                1.5753778272        6.3671622470        4.6262625683
S                1.5759417892        6.3666140511        1.4902061536
S                0.0004939881        7.1303348299       10.7855375405
Mo              -1.5756002725       10.0065304219       -9.1672481230    0   0   0
Mo               0.0000873425        9.0968676911       -3.0554912329    0   0   0
S               -1.5755883952       10.0065504530       -4.6232240150    0   0   0
S                0.0000198996        9.0968439439       -7.6014065489    0   0   0
S                0.0000203533        9.0968450728      -10.7330757790    0   0   0
S               -1.5755859047       10.0065492576       -1.4877362381    0   0   0
Mo              -1.5753204079       10.0051879086        3.0571076661
Mo              -0.0026234082        9.0767067204        9.2215280214
S               -1.5593958024        9.9764832510        7.6415711772
S               -0.0001405510        9.0956345418        4.6253928689
S                0.0002281492        9.0955920631        1.4894368764
S               -1.6498458368       10.0423605469       10.7963119657
Mo               6.3024915177        1.8193638619       -9.1672481230    0   0   0
Mo               7.8781001445        0.9096521684       -3.0554919963    0   0   0
S                6.3025008696        1.8193826232       -4.6232480596    0   0   0
S                7.8781116898        0.9096773839       -7.6014065489    0   0   0
S                7.8781121435        0.9096785128      -10.7330757790    0   0   0
S                6.3025042007        1.8193849068       -1.4877147524    0   0   0
Mo               6.3026197078        1.8184724520        3.0579607170
Mo               7.8776893006        0.9223984548        9.1491535300
S                6.2956057612        1.8179485631        7.5809812936
S                7.8783000932        0.9083432402        4.6254450526
S                7.8778637914        0.9085110391        1.4898815766
S                6.3038407553        1.8067531025       10.7292086148
Mo               4.7268741753        4.5484193819       -9.1672481230    0   0   0
Mo               6.3024679138        3.6387501714       -3.0554895197    0   0   0
S                4.7268748770        4.5484386753       -4.6232519432    0   0   0
S                6.3024943474        3.6387329039       -7.6014065489    0   0   0
S                6.3024948011        3.6387340328      -10.7330757790    0   0   0
S                4.7268770533        4.5484432419       -1.4877137856    0   0   0
Mo               4.7276163383        4.5478113386        3.0573658398
Mo               6.3057746995        3.6207522858        9.1659398582
S                4.7317111587        4.5577874625        7.6202606967
S                6.3030025957        3.6384342535        4.6254194464
S                6.3028282603        3.6377774579        1.4896054237
S                4.7211991534        4.4533966200       10.7846344599
Mo               3.1512568329        7.2774749019       -9.1672481230    0   0   0
Mo               4.7268384135        6.3678043337       -3.0554959052    0   0   0
S                3.1512606125        7.2774972547       -4.6232589675    0   0   0
S                4.7268770050        6.3677884239       -7.6014065489    0   0   0
S                4.7268774587        6.3677895528      -10.7330757790    0   0   0
S                3.1512629079        7.2774963749       -1.4877081835    0   0   0
Mo               3.1512928797        7.2764590469        3.0582503408
Mo               4.7301562917        6.3529852488        9.1975223373
S                3.1660671818        7.2662902221        7.6214722936
S                4.7272527894        6.3668354016        4.6259421390
S                4.7266089880        6.3671799138        1.4897312974
S                3.0063341752        7.3135608113       10.6818445402
Mo               1.5756394905       10.0065304219       -9.1672481230    0   0   0
Mo               3.1512330605        9.0968514907       -3.0554878870    0   0   0
S                1.5756499830       10.0065443759       -4.6232632674    0   0   0
S                3.1512596626        9.0968439439       -7.6014065489    0   0   0
S                3.1512601163        9.0968450728      -10.7330757790    0   0   0
S                1.5756503041       10.0065459699       -1.4877044377    0   0   0
Mo               1.5753990513       10.0052136394        3.0576265665
Mo               3.1533942761        9.1222687010        9.1664208512
S                1.5450594553        9.9884027897        7.6249299891
S                3.1507607708        9.0957733920        4.6260431535
S                3.1509504347        9.0955431944        1.4899936489
S                1.6479095297       10.0849444990       10.7657515567
Mo               9.4537312807        1.8193638619       -9.1672481230    0   0   0
Mo              11.0293863460        0.9096952246       -3.0554894007    0   0   0
S                9.4537395970        1.8193770750       -4.6232328036    0   0   0
S               11.0293514528        0.9096773839       -7.6014065489    0   0   0
S               11.0293519066        0.9096785128      -10.7330757790    0   0   0
S                9.4537393632        1.8193794783       -1.4877366147    0   0   0
Mo               9.4536993813        1.8182017247        3.0571754462
Mo              11.0308124937        0.8963203673        9.1528223266
S                9.4571426191        1.8087139099        7.5761132161
S               11.0289984590        0.9080223583        4.6245756122
S               11.0294113778        0.9081685414        1.4895962353
S                9.4629096364        1.8160786776       10.7233146438
Mo               7.8781139383        4.5484193819       -9.1672481230    0   0   0
Mo               9.4537539161        3.6387607911       -3.0554933032    0   0   0
S                7.8781175448        4.5484378232       -4.6232366318    0   0   0
S                9.4537341104        3.6387329039       -7.6014065489    0   0   0
S                9.4537345641        3.6387340328      -10.7330757790    0   0   0
S                7.8781194018        4.5484411585       -1.4877377057    0   0   0
Mo               7.8783625021        4.5475680793        3.0572721360
Mo               9.4524916970        3.6230920571        9.1512091960
S                7.8735304178        4.5477034476        7.5974588657
S                9.4536919418        3.6376630179        4.6247472976
S                9.4539911687        3.6377769116        1.4893307325
S                7.8823513142        4.5252322471       10.7349647695
Mo               6.3024965959        7.2774749019       -9.1672481230    0   0   0
Mo               7.8781361655        6.3678242352       -3.0555014130    0   0   0
S                6.3024973331        7.2774953556       -4.6232392528    0   0   0
S                7.8781167680        6.3677884239       -7.6014065489    0   0   0
S                7.8781172217        6.3677895528      -10.7330757790    0   0   0
S                6.3024989866        7.2774929744       -1.4877349119    0   0   0
Mo               6.3024526017        7.2762655074        3.0572462913
Mo               7.8831644453        6.3552142507        9.1877978226
S                6.2913866554        7.2561216404        7.6398559268
S                7.8777761018        6.3667223018        4.6253555705
S                7.8783875507        6.3670591911        1.4895560931
S                6.3798794307        7.3127315241       10.8269241076
Mo               4.7268792535       10.0065304219       -9.1672481230    0   0   0
Mo               6.3025111524        9.0968738021       -3.0554915260    0   0   0
S                4.7268840634       10.0065452125       -4.6232380477    0   0   0
S                6.3024994256        9.0968439439       -7.6014065489    0   0   0
S                6.3024998793        9.0968450728      -10.7330757790    0   0   0
S                4.7268847312       10.0065459141       -1.4877283294    0   0   0
Mo               4.7266927940       10.0048936257        3.0576617529
Mo               6.3045828214        9.0900067922        9.1829243012
S                4.7370585101        9.9895756379        7.5894434615
S                6.3023736786        9.0948215695        4.6253129658
S                6.3024560227        9.0956908457        1.4897133857
S                4.7326658143       10.0064064142       10.7367414555
Pt               1.9774777836        7.0875374479       12.6298750148
Pt               4.5536456681        6.4875271684       12.0552027797
Pd               0.0459669456        9.0117232680       12.1040812865



     Writing config-only to output data dir ./outdir/pwscf.save/ :
     XML data file
     NEW-OLD atomic charge density approx. for the potential

     negative rho (up, down):  9.132E-04 0.000E+00

     total cpu time spent up to now is   258232.1 secs

     Self-consistent Calculation

     iteration #  1     ecut=    77.00 Ry     beta= 0.20
     Davidson diagonalization with overlap
     ethr =  1.00E-06,  avg # of iterations = 15.5

     negative rho (up, down):  9.130E-04 0.000E+00

     total cpu time spent up to now is   259081.7 secs

     total energy              =  -35654.95977878 Ry
     estimated scf accuracy    <       0.00269236 Ry

     iteration #  2     ecut=    77.00 Ry     beta= 0.20
     Davidson diagonalization with overlap
