
     Program PWSCF v.7.2 starts on  1Sep2023 at 15:38:12 

     This program is part of the open-source Quantum ESPRESSO suite
     for quantum simulation of materials; please cite
         "P. Giannozzi et al., J. Phys.:Condens. Matter 21 395502 (2009);
         "P. Giannozzi et al., J. Phys.:Condens. Matter 29 465901 (2017);
         "P. Giannozzi et al., J. Chem. Phys. 152 154105 (2020);
          URL http://www.quantum-espresso.org", 
     in publications or presentations arising from this work. More details at
     http://www.quantum-espresso.org/quote

     Parallel version (MPI), running on    36 processors

     MPI processes distributed on     1 nodes
     769148 MiB available memory on the printing compute node when the environment starts
 
     Waiting for input...
     Reading input from standard input
Warning: card &CELL ignored
Warning: card / ignored

     Current dimensions of program PWSCF are:
     Max number of different atomic species (ntypx) = 10
     Max number of k-points (npk) =  40000
     Max angular momentum in pseudopotentials (lmaxx) =  4
     file Mo.pbe-spn-kjpaw_psl.1.0.0.UPF: wavefunction(s)  4S 4D renormalized
     file S.pbe-n-kjpaw_psl.1.0.0.UPF: wavefunction(s)  3S 3P renormalized
     file Pd.pbe-spn-kjpaw_psl.1.0.0.UPF: wavefunction(s)  4S 5S 4D renormalized
     file H.pbe-kjpaw_psl.1.0.0.UPF: wavefunction(s)  1S renormalized
 
     R & G space division:  proc/nbgrp/npool/nimage =      36
     Subspace diagonalization in iterative solution of the eigenvalue problem:
     one sub-group per band group will be used
     custom distributed-memory algorithm (size of sub-group:  6*  6 procs)

 
     Parallelization info
     --------------------
     sticks:   dense  smooth     PW     G-vecs:    dense   smooth      PW
     Min         586     335     89               165416    71459    9765
     Max         587     337     90               165425    71461    9778
     Sum       21109   12085   3205              5955087  2572543  351657
 
     Using Slab Decomposition
 


     bravais-lattice index     =            0
     lattice parameter (alat)  =      23.8395  a.u.
     unit-cell volume          =   28182.8498 (a.u.)^3
     number of atoms/cell      =          146
     number of atomic types    =            4
     number of electrons       =      1267.00
     number of Kohn-Sham states=          761
     kinetic-energy cutoff     =      77.0000  Ry
     charge density cutoff     =     539.0000  Ry
     scf convergence threshold =      1.0E-06
     mixing beta               =       0.2000
     number of iterations used =            8  plain     mixing
     energy convergence thresh.=      1.0E-04
     force convergence thresh. =      1.0E-03
     Exchange-correlation= SLA  PW   PBX  PBC
                           (   1   4   3   4   0   0   0)
     nstep                     =         1000


     Effective Screening Medium Method
     =================================
     Boundary Conditions: Vacuum-Slab-Vacuum
     total charge in unit cell        =   0.0000
     grid points for fit at edges     =        4 
 

     celldm(1)=  23.839504  celldm(2)=   0.000000  celldm(3)=   0.000000
     celldm(4)=   0.000000  celldm(5)=   0.000000  celldm(6)=   0.000000

     crystal axes: (cart. coord. in units of alat)
               a(1) = (   1.000000   0.000000   0.000000 )  
               a(2) = (  -0.500001   0.866026   0.000000 )  
               a(3) = (   0.000000   0.000000   2.401941 )  

     reciprocal axes: (cart. coord. in units 2 pi/alat)
               b(1) = (  1.000000  0.577351  0.000000 )  
               b(2) = (  0.000000  1.154700  0.000000 )  
               b(3) = (  0.000000  0.000000  0.416330 )  


     PseudoPot. # 1 for Mo read from file:
     ./pseudo/Mo.pbe-spn-kjpaw_psl.1.0.0.UPF
     MD5 check sum: 317bf72632116215fd98f72de1686f13
     Pseudo is Projector augmented-wave + core cor, Zval = 14.0
     Generated using 'atomic' code by A. Dal Corso  v.7.2
     Shape of augmentation charge: PSQ
     Using radial grid of 1229 points,  6 beta functions with: 
                l(1) =   0
                l(2) =   0
                l(3) =   1
                l(4) =   1
                l(5) =   2
                l(6) =   2
     Q(r) pseudized with 0 coefficients 


     PseudoPot. # 2 for S  read from file:
     ./pseudo/S.pbe-n-kjpaw_psl.1.0.0.UPF
     MD5 check sum: 8b7b5302570d38d5e87fed6a1065abda
     Pseudo is Projector augmented-wave + core cor, Zval =  6.0
     Generated using 'atomic' code by A. Dal Corso  v.7.2
     Shape of augmentation charge: PSQ
     Using radial grid of 1151 points,  6 beta functions with: 
                l(1) =   0
                l(2) =   0
                l(3) =   1
                l(4) =   1
                l(5) =   2
                l(6) =   2
     Q(r) pseudized with 0 coefficients 


     PseudoPot. # 3 for Pd read from file:
     ./pseudo/Pd.pbe-spn-kjpaw_psl.1.0.0.UPF
     MD5 check sum: a60571a671f2502b8a6a4569d20a6edb
     Pseudo is Projector augmented-wave + core cor, Zval = 18.0
     Generated using 'atomic' code by A. Dal Corso  v.7.2
     Shape of augmentation charge: PSQ
     Using radial grid of 1235 points,  6 beta functions with: 
                l(1) =   0
                l(2) =   0
                l(3) =   1
                l(4) =   1
                l(5) =   2
                l(6) =   2
     Q(r) pseudized with 0 coefficients 


     PseudoPot. # 4 for H  read from file:
     ./pseudo/H.pbe-kjpaw_psl.1.0.0.UPF
     MD5 check sum: b3cb3c48ee3b58cc53e4d592112d0ca6
     Pseudo is Projector augmented-wave, Zval =  1.0
     Generated using 'atomic' code by A. Dal Corso  v.7.2
     Shape of augmentation charge: PSQ
     Using radial grid of  929 points,  2 beta functions with: 
                l(1) =   0
                l(2) =   0
     Q(r) pseudized with 0 coefficients 


     atomic species   valence    mass     pseudopotential
        Mo            14.00    95.95000     Mo( 1.00)
        S              6.00    32.06000     S ( 1.00)
        Pd            18.00   106.42000     Pd( 1.00)
        H              1.00     1.00800     H ( 1.00)

     No symmetry found



   Cartesian axes

     site n.     atom                  positions (alat units)
         1           Mo  tau(   1) = (   0.1244805   0.2154429   0.4826124  )
         2           Mo  tau(   2) = (   0.1250004   0.0721694  -0.4825273  )
         3           Mo  tau(   3) = (   0.0000154   0.1443583  -0.0000534  )
         4           S   tau(   4) = (   0.0000004   0.0000006  -0.6064556  )
         5           S   tau(   5) = (   0.1249822   0.0722030  -0.1241916  )
         6           S   tau(   6) = (   0.0001873   0.1444894   0.3573292  )
         7           S   tau(   7) = (   0.0000004   0.0000005  -0.3584711  )
         8           S   tau(   8) = (   0.1250220   0.0721432   0.1241096  )
         9           S   tau(   9) = (  -0.0009222   0.1433430   0.6062350  )
        10           Mo  tau(  10) = (  -0.0011812   0.4330952   0.4826123  )
        11           Mo  tau(  11) = (   0.0000001   0.2886759  -0.4825273  )
        12           Mo  tau(  12) = (  -0.1249761   0.3608493  -0.0000533  )
        13           S   tau(  13) = (  -0.1249999   0.2165071  -0.6064556  )
        14           S   tau(  14) = (   0.0000232   0.2886904  -0.1241345  )
        15           S   tau(  15) = (  -0.1247753   0.3609305   0.3573291  )
        16           S   tau(  16) = (  -0.1249998   0.2165070  -0.3584711  )
        17           S   tau(  17) = (   0.0000901   0.2887289   0.1242236  )
        18           S   tau(  18) = (  -0.1263226   0.3605428   0.6062351  )
        19           Mo  tau(  19) = (  -0.1251400   0.6495983   0.4819363  )
        20           Mo  tau(  20) = (  -0.1250002   0.5051824  -0.4825273  )
        21           Mo  tau(  21) = (  -0.2500026   0.5773383  -0.0001491  )
        22           S   tau(  22) = (  -0.2500002   0.4330136  -0.6064556  )
        23           S   tau(  23) = (  -0.1249812   0.5051509  -0.1241919  )
        24           S   tau(  24) = (  -0.2500015   0.5775831   0.3575295  )
        25           S   tau(  25) = (  -0.2500001   0.4330135  -0.3584711  )
        26           S   tau(  26) = (  -0.1250129   0.5052153   0.1241101  )
        27           S   tau(  27) = (  -0.2500018   0.5771934   0.6060379  )
        28           Mo  tau(  28) = (   0.2499987  -0.0001601   0.4819365  )
        29           Mo  tau(  29) = (  -0.2500004   0.7216889  -0.4825273  )
        30           Mo  tau(  30) = (  -0.3750135   0.7938631  -0.0001491  )
        31           S   tau(  31) = (  -0.3750004   0.6495201  -0.6064556  )
        32           S   tau(  32) = (  -0.2500026   0.7216883  -0.1242347  )
        33           S   tau(  33) = (  -0.3747997   0.7937400   0.3575295  )
        34           S   tau(  34) = (  -0.3750004   0.6495200  -0.3584711  )
        35           S   tau(  35) = (  -0.2500029   0.7216883   0.1240299  )
        36           S   tau(  36) = (  -0.3751376   0.7939346   0.6060379  )
        37           Mo  tau(  37) = (   0.3755166   0.2154425   0.4826119  )
        38           Mo  tau(  38) = (   0.3750004   0.0721694  -0.4825273  )
        39           Mo  tau(  39) = (   0.2499990   0.1443474  -0.0000968  )
        40           S   tau(  40) = (   0.2500004   0.0000006  -0.6064556  )
        41           S   tau(  41) = (   0.3750152   0.0722028  -0.1241921  )
        42           S   tau(  42) = (   0.2499983   0.1443201   0.3580593  )
        43           S   tau(  43) = (   0.2500004   0.0000005  -0.3584711  )
        44           S   tau(  44) = (   0.3749754   0.0721432   0.1241106  )
        45           S   tau(  45) = (   0.2499987   0.1437775   0.6065499  )
        46           Mo  tau(  46) = (   0.2499984   0.4330123   0.4872880  )
        47           Mo  tau(  47) = (   0.2500001   0.2886759  -0.4825273  )
        48           Mo  tau(  48) = (   0.1250277   0.3608616  -0.0000572  )
        49           S   tau(  49) = (   0.1250001   0.2165071  -0.6064556  )
        50           S   tau(  50) = (   0.2499987   0.2886898  -0.1241693  )
        51           S   tau(  51) = (   0.1266397   0.3617911   0.3615924  )
        52           S   tau(  52) = (   0.1250002   0.2165070  -0.3584711  )
        53           S   tau(  53) = (   0.2499988   0.2886671   0.1241958  )
        54           S   tau(  54) = (   0.1173054   0.3564020   0.6108885  )
        55           Mo  tau(  55) = (   0.1243363   0.6504991   0.4826116  )
        56           Mo  tau(  56) = (   0.1249998   0.5051824  -0.4825273  )
        57           Mo  tau(  57) = (   0.0000060   0.5773464  -0.0000969  )
        58           S   tau(  58) = (  -0.0000002   0.4330136  -0.6064556  )
        59           S   tau(  59) = (   0.1250101   0.5051751  -0.1241696  )
        60           S   tau(  60) = (  -0.0000165   0.5773581   0.3580590  )
        61           S   tau(  61) = (  -0.0000001   0.4330135  -0.3584711  )
        62           S   tau(  62) = (   0.1249907   0.5051868   0.1241956  )
        63           S   tau(  63) = (  -0.0004863   0.5776299   0.6065497  )
        64           Mo  tau(  64) = (   0.5000682   0.0000393   0.4813064  )
        65           Mo  tau(  65) = (  -0.0000004   0.7216889  -0.4825273  )
        66           Mo  tau(  66) = (  -0.1249919   0.7938635  -0.0001489  )
        67           S   tau(  67) = (  -0.1250004   0.6495201  -0.6064556  )
        68           S   tau(  68) = (   0.0000350   0.7216859  -0.1241920  )
        69           S   tau(  69) = (  -0.1252051   0.7937392   0.3575294  )
        70           S   tau(  70) = (  -0.1250004   0.6495200  -0.3584711  )
        71           S   tau(  71) = (  -0.0000364   0.7216812   0.1241103  )
        72           S   tau(  72) = (  -0.1248667   0.7939344   0.6060378  )
        73           Mo  tau(  73) = (   0.6250985   0.2164481   0.4814760  )
        74           Mo  tau(  74) = (   0.6250004   0.0721694  -0.4825273  )
        75           Mo  tau(  75) = (   0.4999807   0.1443583  -0.0000532  )
        76           S   tau(  76) = (   0.5000004   0.0000006  -0.6064556  )
        77           S   tau(  77) = (   0.6249710   0.0721537  -0.1241599  )
        78           S   tau(  78) = (   0.4998101   0.1444887   0.3573287  )
        79           S   tau(  79) = (   0.5000004   0.0000005  -0.3584711  )
        80           S   tau(  80) = (   0.6250072   0.0721744   0.1241160  )
        81           S   tau(  81) = (   0.5009199   0.1433424   0.6062338  )
        82           Mo  tau(  82) = (   0.5011786   0.4330950   0.4826115  )
        83           Mo  tau(  83) = (   0.5000001   0.2886759  -0.4825273  )
        84           Mo  tau(  84) = (   0.3749686   0.3608615  -0.0000573  )
        85           S   tau(  85) = (   0.3750001   0.2165071  -0.6064556  )
        86           S   tau(  86) = (   0.4999725   0.2886900  -0.1241349  )
        87           S   tau(  87) = (   0.3733572   0.3617909   0.3615920  )
        88           S   tau(  88) = (   0.3750002   0.2165070  -0.3584711  )
        89           S   tau(  89) = (   0.4999057   0.2887288   0.1242238  )
        90           S   tau(  90) = (   0.3826919   0.3564018   0.6108876  )
        91           Mo  tau(  91) = (   0.3756598   0.6504996   0.4826113  )
        92           Mo  tau(  92) = (   0.3749998   0.5051824  -0.4825273  )
        93           Mo  tau(  93) = (   0.2499978   0.5773166  -0.0000576  )
        94           S   tau(  94) = (   0.2499998   0.4330136  -0.6064556  )
        95           S   tau(  95) = (   0.3749857   0.5051746  -0.1241697  )
        96           S   tau(  96) = (   0.2499981   0.5754545   0.3615919  )
        97           S   tau(  97) = (   0.2499999   0.4330135  -0.3584711  )
        98           S   tau(  98) = (   0.3750048   0.5051860   0.1241960  )
        99           S   tau(  99) = (   0.2499983   0.5862331   0.6108872  )
       100           Mo  tau( 100) = (   0.7499988   0.0001148   0.4814756  )
       101           Mo  tau( 101) = (   0.2499996   0.7216889  -0.4825273  )
       102           Mo  tau( 102) = (   0.1250062   0.7938321  -0.0000534  )
       103           S   tau( 103) = (   0.1249996   0.6495201  -0.6064556  )
       104           S   tau( 104) = (   0.2499971   0.7216593  -0.1241350  )
       105           S   tau( 105) = (   0.1250350   0.7936175   0.3573284  )
       106           S   tau( 106) = (   0.1249996   0.6495200  -0.3584711  )
       107           S   tau( 107) = (   0.2499972   0.7215818   0.1242234  )
       108           S   tau( 108) = (   0.1245975   0.7951515   0.6062336  )
       109           Mo  tau( 109) = (  -0.1251006   0.2164484   0.4814769  )
       110           Mo  tau( 110) = (   0.8750004   0.0721694  -0.4825273  )
       111           Mo  tau( 111) = (   0.7499976   0.1443379  -0.0001196  )
       112           S   tau( 112) = (   0.7500004   0.0000006  -0.6064556  )
       113           S   tau( 113) = (   0.8750246   0.0721533  -0.1241599  )
       114           S   tau( 114) = (   0.7499994   0.1443376   0.3572937  )
       115           S   tau( 115) = (   0.7500004   0.0000005  -0.3584711  )
       116           S   tau( 116) = (   0.8749884   0.0721739   0.1241157  )
       117           S   tau( 117) = (   0.7499987   0.1443370   0.6058240  )
       118           Mo  tau( 118) = (  -0.2500010   0.4329316   0.4813070  )
       119           Mo  tau( 119) = (   0.7500001   0.2886759  -0.4825273  )
       120           Mo  tau( 120) = (   0.6249710   0.3608493  -0.0000534  )
       121           S   tau( 121) = (   0.6250001   0.2165071  -0.6064556  )
       122           S   tau( 122) = (   0.7499973   0.2887067  -0.1241600  )
       123           S   tau( 123) = (   0.6247737   0.3609305   0.3573287  )
       124           S   tau( 124) = (   0.6250002   0.2165070  -0.3584711  )
       125           S   tau( 125) = (   0.7499971   0.2886649   0.1241160  )
       126           S   tau( 126) = (   0.6263203   0.3605423   0.6062340  )
       127           Mo  tau( 127) = (  -0.3748636   0.6495986   0.4819361  )
       128           Mo  tau( 128) = (   0.6249998   0.5051824  -0.4825273  )
       129           Mo  tau( 129) = (   0.4999891   0.5773453  -0.0000967  )
       130           S   tau( 130) = (   0.4999998   0.4330136  -0.6064556  )
       131           S   tau( 131) = (   0.6249761   0.5051506  -0.1241920  )
       132           S   tau( 132) = (   0.5000130   0.5773585   0.3580587  )
       133           S   tau( 133) = (   0.4999999   0.4330135  -0.3584711  )
       134           S   tau( 134) = (   0.6250081   0.5052147   0.1241104  )
       135           S   tau( 135) = (   0.5004826   0.5776298   0.6065487  )
       136           Mo  tau( 136) = (  -0.0000706   0.0000401   0.4813070  )
       137           Mo  tau( 137) = (   0.4999996   0.7216889  -0.4825273  )
       138           Mo  tau( 138) = (   0.3749881   0.7938314  -0.0000535  )
       139           S   tau( 139) = (   0.3749996   0.6495201  -0.6064556  )
       140           S   tau( 140) = (   0.4999594   0.7216844  -0.1241918  )
       141           S   tau( 141) = (   0.3749610   0.7936184   0.3573285  )
       142           S   tau( 142) = (   0.3749996   0.6495200  -0.3584711  )
       143           S   tau( 143) = (   0.5000310   0.7216802   0.1241101  )
       144           S   tau( 144) = (   0.3753979   0.7951517   0.6062337  )
       145           Pd  tau( 145) = (   0.2499985   0.4330123   0.7148096  )
       146           H   tau( 146) = (   0.1836655   0.4713316   0.8170223  )

     --------------------------------------------
     DFT-D3 Dispersion Correction (3-body terms):
     --------------------------------------------
       Reference C6 values for interpolation: 

         atom   Coordination number   C6
         H          0.912             6.05
         H          0.000            15.18
         S          0.000           268.01
         S          0.995           261.99
         S          1.990           251.62
         Mo         0.000          1691.79
         Mo         1.942          1004.01
         Mo        11.056           674.22
         Pd         0.000          1217.01
         Pd         1.863           573.90
         Pd         5.710           531.75

       Values used:

         atom   Coordination number  R0_AB[au]  C6      C8
         Mo        10.173            3.547    674.22  77634.20
         Mo        10.189            3.547    674.22  77634.20
         Mo        10.200            3.547    674.22  77634.20
         S          3.753            3.128    251.62  12327.25
         S          3.858            3.128    251.62  12327.25
         S          3.848            3.128    251.62  12327.25
         S          3.859            3.128    251.62  12327.25
         S          3.860            3.128    251.62  12327.25
         S          3.798            3.128    251.62  12327.25
         Mo        10.173            3.547    674.22  77634.20
         Mo        10.189            3.547    674.22  77634.20
         Mo        10.201            3.547    674.22  77634.20
         S          3.753            3.128    251.62  12327.25
         S          3.859            3.128    251.62  12327.25
         S          3.848            3.128    251.62  12327.25
         S          3.858            3.128    251.62  12327.25
         S          3.855            3.128    251.62  12327.25
         S          3.798            3.128    251.62  12327.25
         Mo        10.208            3.547    674.22  77634.20
         Mo        10.189            3.547    674.22  77634.20
         Mo        10.200            3.547    674.22  77634.20
         S          3.753            3.128    251.62  12327.25
         S          3.858            3.128    251.62  12327.25
         S          3.862            3.128    251.62  12327.25
         S          3.859            3.128    251.62  12327.25
         S          3.860            3.128    251.62  12327.25
         S          3.759            3.128    251.62  12327.25
         Mo        10.208            3.547    674.22  77634.20
         Mo        10.189            3.547    674.22  77634.20
         Mo        10.200            3.547    674.22  77634.20
         S          3.753            3.128    251.62  12327.25
         S          3.858            3.128    251.62  12327.25
         S          3.862            3.128    251.62  12327.25
         S          3.859            3.128    251.62  12327.25
         S          3.862            3.128    251.62  12327.25
         S          3.759            3.128    251.62  12327.25
         Mo        10.173            3.547    674.22  77634.20
         Mo        10.189            3.547    674.22  77634.20
         Mo        10.202            3.547    674.22  77634.20
         S          3.753            3.128    251.62  12327.25
         S          3.858            3.128    251.62  12327.25
         S          3.857            3.128    251.62  12327.25
         S          3.859            3.128    251.62  12327.25
         S          3.860            3.128    251.62  12327.25
         S          3.751            3.128    251.62  12327.25
         Mo        10.810            3.547    674.22  77634.20
         Mo        10.189            3.547    674.22  77634.20
         Mo        10.202            3.547    674.22  77634.20
         S          3.753            3.128    251.62  12327.25
         S          3.859            3.128    251.62  12327.25
         S          3.866            3.128    251.62  12327.25
         S          3.859            3.128    251.62  12327.25
         S          3.853            3.128    251.62  12327.25
         S          4.646            3.128    251.62  12327.25
         Mo        10.173            3.547    674.22  77634.20
         Mo        10.189            3.547    674.22  77634.20
         Mo        10.202            3.547    674.22  77634.20
         S          3.753            3.128    251.62  12327.25
         S          3.859            3.128    251.62  12327.25
         S          3.857            3.128    251.62  12327.25
         S          3.859            3.128    251.62  12327.25
         S          3.853            3.128    251.62  12327.25
         S          3.751            3.128    251.62  12327.25
         Mo        10.222            3.547    674.22  77634.20
         Mo        10.189            3.547    674.22  77634.20
         Mo        10.200            3.547    674.22  77634.20
         S          3.753            3.128    251.62  12327.25
         S          3.858            3.128    251.62  12327.25
         S          3.862            3.128    251.62  12327.25
         S          3.859            3.128    251.62  12327.25
         S          3.860            3.128    251.62  12327.25
         S          3.759            3.128    251.62  12327.25
         Mo        10.213            3.547    674.22  77634.20
         Mo        10.189            3.547    674.22  77634.20
         Mo        10.201            3.547    674.22  77634.20
         S          3.753            3.128    251.62  12327.25
         S          3.858            3.128    251.62  12327.25
         S          3.848            3.128    251.62  12327.25
         S          3.859            3.128    251.62  12327.25
         S          3.860            3.128    251.62  12327.25
         S          3.798            3.128    251.62  12327.25
         Mo        10.173            3.547    674.22  77634.20
         Mo        10.189            3.547    674.22  77634.20
         Mo        10.202            3.547    674.22  77634.20
         S          3.753            3.128    251.62  12327.25
         S          3.859            3.128    251.62  12327.25
         S          3.866            3.128    251.62  12327.25
         S          3.859            3.128    251.62  12327.25
         S          3.855            3.128    251.62  12327.25
         S          4.645            3.128    251.62  12327.25
         Mo        10.173            3.547    674.22  77634.20
         Mo        10.189            3.547    674.22  77634.20
         Mo        10.202            3.547    674.22  77634.20
         S          3.753            3.128    251.62  12327.25
         S          3.859            3.128    251.62  12327.25
         S          3.866            3.128    251.62  12327.25
         S          3.859            3.128    251.62  12327.25
         S          3.853            3.128    251.62  12327.25
         S          4.646            3.128    251.62  12327.25
         Mo        10.213            3.547    674.22  77634.20
         Mo        10.189            3.547    674.22  77634.20
         Mo        10.201            3.547    674.22  77634.20
         S          3.753            3.128    251.62  12327.25
         S          3.859            3.128    251.62  12327.25
         S          3.848            3.128    251.62  12327.25
         S          3.859            3.128    251.62  12327.25
         S          3.855            3.128    251.62  12327.25
         S          3.798            3.128    251.62  12327.25
         Mo        10.213            3.547    674.22  77634.20
         Mo        10.189            3.547    674.22  77634.20
         Mo        10.199            3.547    674.22  77634.20
         S          3.753            3.128    251.62  12327.25
         S          3.858            3.128    251.62  12327.25
         S          3.855            3.128    251.62  12327.25
         S          3.858            3.128    251.62  12327.25
         S          3.860            3.128    251.62  12327.25
         S          3.777            3.128    251.62  12327.25
         Mo        10.222            3.547    674.22  77634.20
         Mo        10.189            3.547    674.22  77634.20
         Mo        10.201            3.547    674.22  77634.20
         S          3.753            3.128    251.62  12327.25
         S          3.858            3.128    251.62  12327.25
         S          3.848            3.128    251.62  12327.25
         S          3.858            3.128    251.62  12327.25
         S          3.860            3.128    251.62  12327.25
         S          3.798            3.128    251.62  12327.25
         Mo        10.208            3.547    674.22  77634.20
         Mo        10.189            3.547    674.22  77634.20
         Mo        10.202            3.547    674.22  77634.20
         S          3.753            3.128    251.62  12327.25
         S          3.858            3.128    251.62  12327.25
         S          3.857            3.128    251.62  12327.25
         S          3.859            3.128    251.62  12327.25
         S          3.860            3.128    251.62  12327.25
         S          3.751            3.128    251.62  12327.25
         Mo        10.222            3.547    674.22  77634.20
         Mo        10.189            3.547    674.22  77634.20
         Mo        10.201            3.547    674.22  77634.20
         S          3.753            3.128    251.62  12327.25
         S          3.858            3.128    251.62  12327.25
         S          3.848            3.128    251.62  12327.25
         S          3.859            3.128    251.62  12327.25
         S          3.860            3.128    251.62  12327.25
         S          3.798            3.128    251.62  12327.25
         Pd         4.698            3.168    531.75  48720.73
         H          0.932            2.062      6.26     75.70

         Molecular C6 ( Ry / a.u.^6 ) =   7799512.50


     number of k points=     4  Gaussian smearing, width (Ry)=  0.0100
                       cart. coord. in units 2pi/alat
        k(    1) = (   0.0000000   0.0000000   0.0000000), wk =   0.5000000
        k(    2) = (   0.0000000  -0.5773499   0.0000000), wk =   0.5000000
        k(    3) = (  -0.5000000  -0.2886755   0.0000000), wk =   0.5000000
        k(    4) = (  -0.5000000  -0.8660254   0.0000000), wk =   0.5000000

     Dense  grid:  5955087 G-vectors     FFT dimensions: ( 180, 180, 432)

     Smooth grid:  2572543 G-vectors     FFT dimensions: ( 135, 135, 320)

     Estimated max dynamical RAM per process >       2.13 GB

     Estimated total dynamical RAM >      76.81 GB

     Initial potential from superposition of free atoms

     starting charge    1266.9542, renormalised to    1267.0000

     negative rho (up, down):  9.026E-04 0.000E+00
     Starting wfcs are  875 randomized atomic wfcs
     Checking if some PAW data can be deallocated... 

     total cpu time spent up to now is      106.2 secs

     Self-consistent Calculation

     iteration #  1     ecut=    77.00 Ry     beta= 0.20
     Davidson diagonalization with overlap
     ethr =  1.00E-02,  avg # of iterations =  2.0

     Threshold (ethr) on eigenvalues was too large:
     Diagonalizing with lowered threshold

     Davidson diagonalization with overlap
     ethr =  1.64E-04,  avg # of iterations = 15.8

     negative rho (up, down):  2.751E-04 0.000E+00

     total cpu time spent up to now is     1230.8 secs

     total energy              =  -24358.22710379 Ry
     estimated scf accuracy    <       5.07077616 Ry

     iteration #  2     ecut=    77.00 Ry     beta= 0.20
     Davidson diagonalization with overlap
     ethr =  4.00E-04,  avg # of iterations =  2.0

     negative rho (up, down):  1.210E-04 0.000E+00

     total cpu time spent up to now is     1455.1 secs

     total energy              =  -24357.55986904 Ry
     estimated scf accuracy    <       3.31282451 Ry

     iteration #  3     ecut=    77.00 Ry     beta= 0.20
     Davidson diagonalization with overlap
     ethr =  2.61E-04,  avg # of iterations =  7.0

     negative rho (up, down):  6.699E-05 0.000E+00

     total cpu time spent up to now is     1689.3 secs

     total energy              =  -24355.99133944 Ry
     estimated scf accuracy    <      18.74678714 Ry

     iteration #  4     ecut=    77.00 Ry     beta= 0.20
     Davidson diagonalization with overlap
     ethr =  2.61E-04,  avg # of iterations =  5.5

     negative rho (up, down):  1.983E-05 0.000E+00

     total cpu time spent up to now is     1922.7 secs

     total energy              =  -24357.34659656 Ry
     estimated scf accuracy    <       1.53892811 Ry

     iteration #  5     ecut=    77.00 Ry     beta= 0.20
     Davidson diagonalization with overlap
     c_bands:  1 eigenvalues not converged
     ethr =  1.21E-04,  avg # of iterations = 14.0

     negative rho (up, down):  5.313E-05 0.000E+00

     total cpu time spent up to now is     2365.9 secs

     total energy              =  -24358.03009758 Ry
     estimated scf accuracy    <       1.42159135 Ry

     iteration #  6     ecut=    77.00 Ry     beta= 0.20
     Davidson diagonalization with overlap
     ethr =  1.12E-04,  avg # of iterations =  6.5

     negative rho (up, down):  5.740E-05 0.000E+00

     total cpu time spent up to now is     2598.0 secs

     total energy              =  -24358.14358413 Ry
     estimated scf accuracy    <       0.20778004 Ry

     iteration #  7     ecut=    77.00 Ry     beta= 0.20
     Davidson diagonalization with overlap
     c_bands:  2 eigenvalues not converged
     c_bands:  4 eigenvalues not converged
     c_bands:  4 eigenvalues not converged
     c_bands:  4 eigenvalues not converged
     ethr =  1.64E-05,  avg # of iterations = 35.0

     negative rho (up, down):  1.072E-04 0.000E+00

     total cpu time spent up to now is     3267.9 secs

     total energy              =  -24358.25285510 Ry
     estimated scf accuracy    <       0.13377122 Ry

     iteration #  8     ecut=    77.00 Ry     beta= 0.20
     Davidson diagonalization with overlap
     c_bands:  3 eigenvalues not converged
     c_bands:  4 eigenvalues not converged
     c_bands:  2 eigenvalues not converged
     ethr =  1.06E-05,  avg # of iterations = 33.5

     negative rho (up, down):  2.801E-04 0.000E+00

     total cpu time spent up to now is     3720.5 secs

     total energy              =  -24358.22963672 Ry
     estimated scf accuracy    <       0.11253331 Ry

     iteration #  9     ecut=    77.00 Ry     beta= 0.20
     Davidson diagonalization with overlap
     c_bands:  2 eigenvalues not converged
     c_bands:  1 eigenvalues not converged
     c_bands:  2 eigenvalues not converged
     ethr =  8.88E-06,  avg # of iterations = 16.8

     negative rho (up, down):  3.116E-04 0.000E+00

     total cpu time spent up to now is     4061.1 secs

     total energy              =  -24358.27266852 Ry
     estimated scf accuracy    <       0.02162304 Ry

     iteration # 10     ecut=    77.00 Ry     beta= 0.20
     Davidson diagonalization with overlap
     c_bands:  4 eigenvalues not converged
     c_bands:  4 eigenvalues not converged
     c_bands:  4 eigenvalues not converged
     c_bands:  2 eigenvalues not converged
     ethr =  1.71E-06,  avg # of iterations = 65.0

     negative rho (up, down):  3.348E-04 0.000E+00

     total cpu time spent up to now is     5173.9 secs

     total energy              =  -24358.28952856 Ry
     estimated scf accuracy    <       0.01546979 Ry

     iteration # 11     ecut=    77.00 Ry     beta= 0.20
     Davidson diagonalization with overlap
     c_bands:  3 eigenvalues not converged
     c_bands:  2 eigenvalues not converged
     c_bands:  3 eigenvalues not converged
     c_bands:  1 eigenvalues not converged
     ethr =  1.22E-06,  avg # of iterations = 20.0

     negative rho (up, down):  4.671E-04 0.000E+00

     total cpu time spent up to now is     5454.9 secs

     total energy              =  -24358.28866790 Ry
     estimated scf accuracy    <       0.00599923 Ry

     iteration # 12     ecut=    77.00 Ry     beta= 0.20
     Davidson diagonalization with overlap
     c_bands:  2 eigenvalues not converged
     c_bands:  1 eigenvalues not converged
     c_bands:  1 eigenvalues not converged
     c_bands:  1 eigenvalues not converged
     ethr =  4.73E-07,  avg # of iterations = 20.0

     negative rho (up, down):  6.258E-04 0.000E+00

     total cpu time spent up to now is     5939.9 secs

     total energy              =  -24358.29276783 Ry
     estimated scf accuracy    <       0.00429927 Ry

     iteration # 13     ecut=    77.00 Ry     beta= 0.20
     Davidson diagonalization with overlap
     c_bands:  2 eigenvalues not converged
     c_bands:  3 eigenvalues not converged
     ethr =  3.39E-07,  avg # of iterations = 11.5

     negative rho (up, down):  8.010E-04 0.000E+00

     total cpu time spent up to now is     6189.6 secs

     total energy              =  -24358.29225859 Ry
     estimated scf accuracy    <       0.00215019 Ry

     iteration # 14     ecut=    77.00 Ry     beta= 0.20
     Davidson diagonalization with overlap
     c_bands:  2 eigenvalues not converged
     c_bands:  1 eigenvalues not converged
     ethr =  1.70E-07,  avg # of iterations = 16.8

     negative rho (up, down):  8.647E-04 0.000E+00

     total cpu time spent up to now is     6606.5 secs

     total energy              =  -24358.29329535 Ry
     estimated scf accuracy    <       0.00085286 Ry

     iteration # 15     ecut=    77.00 Ry     beta= 0.20
     Davidson diagonalization with overlap
     c_bands:  3 eigenvalues not converged
     c_bands:  4 eigenvalues not converged
     ethr =  6.73E-08,  avg # of iterations = 21.0

     negative rho (up, down):  8.435E-04 0.000E+00

     total cpu time spent up to now is     7038.5 secs

     total energy              =  -24358.29361010 Ry
     estimated scf accuracy    <       0.00026578 Ry

     iteration # 16     ecut=    77.00 Ry     beta= 0.20
     Davidson diagonalization with overlap
     c_bands:  1 eigenvalues not converged
     c_bands:  1 eigenvalues not converged
     c_bands:  3 eigenvalues not converged
     ethr =  2.10E-08,  avg # of iterations = 19.8

     negative rho (up, down):  8.535E-04 0.000E+00

     total cpu time spent up to now is     7547.1 secs

     total energy              =  -24358.29383766 Ry
     estimated scf accuracy    <       0.00010340 Ry

     iteration # 17     ecut=    77.00 Ry     beta= 0.20
     Davidson diagonalization with overlap
     c_bands:  4 eigenvalues not converged
     c_bands:  3 eigenvalues not converged
     ethr =  8.16E-09,  avg # of iterations = 16.0

     negative rho (up, down):  8.798E-04 0.000E+00

     total cpu time spent up to now is     7942.0 secs

     total energy              =  -24358.29386384 Ry
     estimated scf accuracy    <       0.00006014 Ry

     iteration # 18     ecut=    77.00 Ry     beta= 0.20
     Davidson diagonalization with overlap
     c_bands:  2 eigenvalues not converged
     c_bands:  2 eigenvalues not converged
     ethr =  4.75E-09,  avg # of iterations = 16.8

     negative rho (up, down):  8.925E-04 0.000E+00

     total cpu time spent up to now is     8388.7 secs

     total energy              =  -24358.29389523 Ry
     estimated scf accuracy    <       0.00003026 Ry

     iteration # 19     ecut=    77.00 Ry     beta= 0.20
     Davidson diagonalization with overlap
     ethr =  2.39E-09,  avg # of iterations = 11.8

     negative rho (up, down):  9.088E-04 0.000E+00

     total cpu time spent up to now is     8740.9 secs

     total energy              =  -24358.29390386 Ry
     estimated scf accuracy    <       0.00001217 Ry

     iteration # 20     ecut=    77.00 Ry     beta= 0.20
     Davidson diagonalization with overlap
     ethr =  9.61E-10,  avg # of iterations = 15.0

     negative rho (up, down):  9.216E-04 0.000E+00

     total cpu time spent up to now is     9184.2 secs

     total energy              =  -24358.29390592 Ry
     estimated scf accuracy    <       0.00001212 Ry

     iteration # 21     ecut=    77.00 Ry     beta= 0.20
     Davidson diagonalization with overlap
     ethr =  9.56E-10,  avg # of iterations =  5.8

     negative rho (up, down):  9.291E-04 0.000E+00

     total cpu time spent up to now is     9422.2 secs

     total energy              =  -24358.29390231 Ry
     estimated scf accuracy    <       0.00000470 Ry

     iteration # 22     ecut=    77.00 Ry     beta= 0.20
     Davidson diagonalization with overlap
     ethr =  3.71E-10,  avg # of iterations = 15.8

     negative rho (up, down):  9.256E-04 0.000E+00

     total cpu time spent up to now is     9918.2 secs

     total energy              =  -24358.29390673 Ry
     estimated scf accuracy    <       0.00000340 Ry

     iteration # 23     ecut=    77.00 Ry     beta= 0.20
     Davidson diagonalization with overlap
     ethr =  2.68E-10,  avg # of iterations =  8.5

     negative rho (up, down):  9.251E-04 0.000E+00

     total cpu time spent up to now is    10163.1 secs

     End of self-consistent calculation

          k = 0.0000 0.0000 0.0000 (321495 PWs)   bands (ev):

   -89.5086 -66.9161 -66.8950 -66.8950 -66.8950 -66.8950 -66.8949 -66.8949
   -66.8738 -66.8738 -66.8738 -66.8738 -66.8738 -66.8738 -66.8738 -66.8737
   -66.8737 -66.8508 -66.8302 -66.8300 -66.8298 -66.8294 -66.8293 -66.8293
   -66.8092 -66.8090 -66.8089 -66.8088 -66.8086 -66.8083 -66.8080 -66.8079
   -66.8077 -66.7890 -66.7784 -66.7655 -66.7640 -66.7639 -66.7583 -66.7569
   -66.7490 -66.7447 -66.7429 -66.7426 -66.7404 -66.7362 -66.7318 -66.7255
   -66.7254 -55.5052 -55.1711 -55.1218 -41.2425 -41.2424 -41.2424 -41.1762
   -41.1759 -41.1759 -41.1677 -41.1676 -41.1676 -41.1676 -41.1676 -41.1676
   -41.1072 -41.1048 -41.1045 -41.1016 -41.1015 -41.1012 -41.1012 -41.1010
   -41.1010 -41.0762 -41.0421 -41.0421 -41.0421 -41.0421 -41.0421 -41.0421
   -41.0348 -41.0348 -41.0348 -41.0348 -41.0347 -41.0347 -41.0338 -41.0336
   -41.0302 -41.0283 -41.0273 -41.0267 -41.0114 -41.0072 -41.0072 -41.0072
   -41.0072 -41.0072 -41.0072 -40.9931 -40.9931 -40.9931 -40.9931 -40.9931
   -40.9931 -40.9930 -40.9930 -40.9930 -40.9762 -40.9759 -40.9759 -40.9757
   -40.9757 -40.9755 -40.9705 -40.9703 -40.9702 -40.9698 -40.9697 -40.9696
   -40.9613 -40.9413 -40.9413 -40.9410 -40.9410 -40.9409 -40.9407 -40.9354
   -40.9294 -40.9294 -40.9294 -40.9290 -40.9289 -40.9287 -40.9286 -40.9285
   -40.9283 -40.9280 -40.9278 -40.9276 -40.9123 -40.9111 -40.9089 -40.9076
   -40.9066 -40.9058 -40.9049 -40.9029 -40.9023 -40.9017 -40.8934 -40.8826
   -40.8826 -40.8826 -40.8826 -40.8826 -40.8826 -40.8812 -40.8779 -40.8734
   -40.8712 -40.8701 -40.8687 -40.8661 -40.8653 -40.8634 -40.8634 -40.8633
   -40.8633 -40.8627 -40.8623 -40.8608 -40.8583 -40.8576 -40.8568 -40.8353
   -40.8353 -40.8170 -40.8167 -40.8165 -40.8165 -40.8164 -40.8161 -40.7955
   -40.7914 -40.7905 -40.7693 -40.7693 -40.7506 -40.7477 -40.7457 -40.7432
   -40.7417 -40.7381 -40.6971 -40.6963 -20.3488 -20.2349 -20.1105 -19.4867
   -19.4839 -19.4835 -19.4814 -19.4813 -19.4810 -19.4152 -19.3980 -19.3945
   -19.3668 -19.3664 -19.3648 -19.2966 -19.2879 -19.2854 -19.2370 -19.2361
   -19.2335 -19.0940 -18.9170 -18.7543 -18.7224 -18.7176 -18.6901 -18.6825
   -18.6822 -18.6817 -18.6040 -18.5981 -18.5786 -18.5272 -18.5271 -18.5254
   -18.4545 -18.4511 -18.4332 -18.3896 -18.3888 -18.3862 -18.3761 -18.3761
   -18.3760 -18.3760 -18.3755 -18.3755 -18.3357 -18.3356 -18.3355 -18.3300
   -18.3261 -18.3010 -18.2979 -18.2954 -18.2950 -18.2850 -18.2840 -18.2643
   -18.2631 -18.2630 -18.2172 -18.2070 -18.2043 -18.2038 -18.1937 -18.1928
   -18.1905 -18.1755 -18.1751 -18.1597 -18.1516 -18.1506 -18.1457 -18.1433
   -18.1422 -18.1421 -18.1155 -18.1147 -18.1019 -18.0883 -18.0878 -18.0726
   -18.0713 -18.0696 -18.0695 -18.0474 -18.0470 -18.0266 -18.0078 -18.0047
   -17.9949 -17.9899 -17.9834 -17.9821 -12.1660 -12.0163 -11.9931 -11.9930
   -11.9817 -11.9271 -11.9262 -11.8995 -11.8610 -11.8590 -11.7907 -11.4859
   -11.4455 -11.4440 -11.4395 -11.4387 -11.4384 -11.4044 -11.3681 -11.3669
   -11.3648 -11.3636 -11.3635 -11.3606 -11.3323 -11.2998 -11.2892 -11.2443
   -11.2375 -11.2375 -11.2219 -11.2098 -11.2048 -11.1583 -11.1546 -11.1526
   -11.1437 -11.1415 -11.1404 -11.1392 -11.1251 -11.1249 -11.0991 -11.0884
   -11.0706 -11.0676 -11.0671 -11.0671 -11.0656 -11.0644 -11.0482 -11.0398
   -11.0397 -11.0358 -11.0219 -11.0200 -11.0192 -11.0158 -11.0158 -11.0035
   -10.9897 -10.9844 -10.9564 -10.9561 -10.9556 -10.9535 -10.8927 -10.8711
   -10.8679 -10.8552 -10.8389 -10.8385 -10.8251 -10.8244 -10.8222 -10.5156
   -10.4081 -10.2861 -10.2828 -10.2812 -10.1530 -10.1263 -10.1210 -10.0378
   -10.0121 -10.0112 -10.0081 -10.0066 -10.0057 -10.0003  -9.9520  -9.9386
    -9.9372  -9.9196  -9.9190  -9.9171  -9.9067  -9.9043  -9.9020  -9.8596
    -9.8575  -9.8568  -9.8504  -9.8483  -9.8475  -9.8108  -9.8104  -9.8103
    -9.8099  -9.8073  -9.8067  -9.7945  -9.7785  -9.7656  -9.7644  -9.7467
    -9.7465  -9.7344  -9.7297  -9.7295  -9.6865  -9.6802  -9.6678  -9.6622
    -9.6611  -9.6605  -9.6008  -9.5720  -9.5682  -9.5483  -9.5472  -9.5347
    -9.5201  -9.5136  -9.4643  -9.4389  -9.4361  -9.4273  -9.4194  -9.4159
    -9.4146  -9.4138  -9.4125  -9.3946  -9.3231  -9.2717  -9.2644  -9.2548
    -9.2541  -9.2538  -9.2484  -9.2479  -9.2413  -9.2400  -9.2274  -9.1822
    -9.1790  -9.1732  -9.1555  -9.1439  -9.0993  -9.0984  -9.0823  -9.0761
    -9.0756  -9.0378  -9.0352  -9.0338  -9.0331  -9.0330  -9.0279  -9.0212
    -9.0061  -8.9816  -8.9698  -8.9678  -8.9533  -8.9507  -8.9497  -8.9494
    -8.9156  -8.9024  -8.9019  -8.7485  -8.6838  -8.6652  -8.6652  -8.5946
    -8.5936  -8.5894  -8.5532  -8.5531  -8.5531  -8.5531  -8.5530  -8.5529
    -8.5240  -8.5065  -8.4856  -8.4849  -8.4828  -8.4823  -8.4813  -8.4743
    -8.4666  -8.4324  -8.4236  -8.4198  -8.3999  -8.2884  -8.2480  -8.2033
    -8.1901  -8.1488  -8.0482  -7.9531  -7.9283  -7.9159  -7.8419  -7.8182
    -7.8178  -7.8176  -7.8176  -7.8175  -7.8174  -7.7874  -7.7721  -7.7715
    -7.7715  -7.7710  -7.7710  -7.7709  -7.7493  -7.7475  -7.7454  -7.7436
    -7.7434  -7.7376  -7.7322  -7.7216  -7.7187  -7.7018  -7.7000  -7.6998
    -7.6973  -7.6972  -7.6960  -7.6901  -7.6727  -7.6614  -7.6575  -7.6517
    -7.6516  -7.6502  -7.6470  -7.6462  -7.6454  -7.6313  -7.6276  -7.5989
    -7.5955  -7.5416  -7.5363  -7.5363  -7.4720  -7.4691  -7.4677  -7.4542
    -7.4501  -7.4101  -7.3946  -7.3875  -7.3823  -7.3055  -7.2921  -7.1786
    -7.1491  -7.1176  -7.0748  -7.0701  -7.0599  -7.0453  -7.0395  -7.0343
    -7.0229  -6.9397  -6.9350  -6.9310  -6.9173  -6.8851  -6.8576  -6.8455
    -6.8449  -6.8420  -6.8406  -6.8327  -6.8281  -6.7983  -6.7556  -6.7554
    -6.7540  -6.7466  -6.7399  -6.7352  -6.7342  -6.7310  -6.7109  -6.6851
    -6.6687  -6.6643  -6.6608  -6.6586  -6.6546  -6.6526  -6.6480  -6.5911
    -6.5843  -6.5843  -6.5843  -6.5843  -6.5843  -6.5842  -6.5690  -6.5532
    -6.5104  -6.5093  -6.5081  -6.5077  -6.5074  -6.5071  -6.4800  -6.4685
    -6.4387  -6.4328  -6.4004  -6.3963  -6.3831  -6.1281  -5.9765  -5.7163
    -5.3878  -4.9859  -4.0706  -4.0703  -4.0665  -4.0649  -4.0645  -4.0514
    -4.0348  -4.0346  -4.0340  -4.0324  -4.0319  -4.0263  -3.8357  -3.8336
    -3.8186  -3.8164  -3.8124  -3.8111  -3.8054  -3.7998  -3.7979  -3.7978
    -3.7967  -3.7368  -3.7248  -3.7248  -3.7248  -3.7104  -3.7078  -3.7073
    -3.7072  -3.7056  -3.7039  -3.6587  -3.6584  -3.6583  -3.6274  -3.6134
    -3.6109  -3.6096  -3.6041  -3.6017  -3.6010  -3.6002  -3.5978  -3.5939
    -3.5931  -3.5806  -3.5793  -3.5734  -3.5722  -3.5238  -3.5069  -3.4994
    -3.4966  -3.4886  -3.4837  -3.4827  -3.4674  -3.4661  -3.4600  -3.4546
    -3.3395  -3.2588  -3.2584  -3.2582  -3.2537  -3.2537  -3.1881  -3.1878
    -3.1868  -3.1866  -3.1863  -3.1857  -3.1852  -3.1847  -3.1662  -3.1642
    -3.1634  -3.1525  -3.1507  -3.1387  -3.1279  -3.1259  -3.1237  -3.1225
    -3.1183  -3.1169  -3.1142  -3.1126  -3.1056  -3.1039  -3.1017  -3.0822
    -3.0755  -3.0646  -3.0284  -3.0253  -3.0213  -3.0168  -3.0053  -2.9996
    -2.9991  -2.9853  -2.9781  -2.9776  -2.9764  -2.9762  -2.9650  -2.9330
    -2.9280  -2.9198  -2.8829  -2.8814  -2.8719  -2.8603  -2.8584  -2.8537
    -2.8475  -2.8061  -2.7863  -2.7810  -2.7656  -2.7247  -2.7040  -2.7015
    -2.6884

          k = 0.0000-0.5773 0.0000 (321564 PWs)   bands (ev):

   -89.5086 -66.9099 -66.9099 -66.8993 -66.8993 -66.8844 -66.8844 -66.8844
   -66.8844 -66.8800 -66.8800 -66.8738 -66.8738 -66.8738 -66.8738 -66.8694
   -66.8694 -66.8449 -66.8444 -66.8341 -66.8340 -66.8194 -66.8193 -66.8190
   -66.8188 -66.8150 -66.8144 -66.8088 -66.8088 -66.8086 -66.8078 -66.8041
   -66.8040 -66.7876 -66.7781 -66.7735 -66.7655 -66.7589 -66.7534 -66.7528
   -66.7511 -66.7486 -66.7440 -66.7421 -66.7407 -66.7350 -66.7326 -66.7266
   -66.7240 -55.5053 -55.1711 -55.1218 -41.2110 -41.2110 -41.2110 -41.2110
   -41.1844 -41.1844 -41.1725 -41.1725 -41.1449 -41.1449 -41.1447 -41.1441
   -41.1220 -41.1220 -41.1220 -41.1220 -41.1182 -41.1178 -41.1061 -41.1060
   -41.0787 -41.0772 -41.0704 -41.0685 -41.0641 -41.0641 -41.0558 -41.0557
   -41.0557 -41.0556 -41.0541 -41.0541 -41.0525 -41.0479 -41.0434 -41.0434
   -41.0358 -41.0296 -41.0139 -41.0139 -41.0139 -41.0139 -41.0053 -41.0053
   -40.9995 -40.9991 -40.9931 -40.9931 -40.9931 -40.9930 -40.9930 -40.9930
   -40.9879 -40.9878 -40.9870 -40.9852 -40.9844 -40.9844 -40.9842 -40.9817
   -40.9787 -40.9786 -40.9623 -40.9623 -40.9623 -40.9623 -40.9569 -40.9495
   -40.9494 -40.9491 -40.9490 -40.9408 -40.9403 -40.9345 -40.9287 -40.9286
   -40.9285 -40.9278 -40.9278 -40.9278 -40.9278 -40.9277 -40.9269 -40.9269
   -40.9259 -40.9198 -40.9197 -40.9177 -40.9158 -40.9158 -40.9146 -40.9130
   -40.9010 -40.8966 -40.8966 -40.8966 -40.8965 -40.8961 -40.8957 -40.8871
   -40.8845 -40.8840 -40.8797 -40.8797 -40.8779 -40.8745 -40.8713 -40.8641
   -40.8624 -40.8618 -40.8617 -40.8617 -40.8616 -40.8600 -40.8578 -40.8552
   -40.8536 -40.8520 -40.8499 -40.8494 -40.8492 -40.8492 -40.8309 -40.8308
   -40.8302 -40.8272 -40.8246 -40.8201 -40.8137 -40.8135 -40.7937 -40.7906
   -40.7900 -40.7874 -40.7834 -40.7829 -40.7807 -40.7726 -40.7633 -40.7541
   -40.7442 -40.7375 -40.7128 -40.7081 -20.1134 -20.1114 -20.0124 -19.9913
   -19.8925 -19.8612 -19.6774 -19.6773 -19.5713 -19.5703 -19.4553 -19.4535
   -19.0061 -18.9898 -18.9715 -18.9687 -18.9685 -18.9680 -18.9171 -18.9104
   -18.8851 -18.8644 -18.8484 -18.8301 -18.8223 -18.7770 -18.7756 -18.7676
   -18.7606 -18.7444 -18.7211 -18.7204 -18.6695 -18.6531 -18.6291 -18.6279
   -18.6226 -18.6084 -18.5741 -18.5189 -18.5078 -18.4830 -18.4522 -18.4469
   -18.4421 -18.4403 -18.3790 -18.3725 -18.3563 -18.3561 -18.3561 -18.3557
   -18.3357 -18.3306 -18.3280 -18.3164 -18.2891 -18.2831 -18.2821 -18.2811
   -18.2706 -18.2665 -18.2360 -18.2263 -18.2215 -18.2079 -18.2014 -18.1999
   -18.1977 -18.1958 -18.1660 -18.1613 -18.1540 -18.1506 -18.1489 -18.1328
   -18.1075 -18.0927 -18.0926 -18.0926 -18.0857 -18.0836 -18.0434 -18.0335
   -18.0331 -18.0237 -18.0174 -18.0166 -18.0078 -18.0025 -17.9779 -17.9752
   -17.9546 -17.9424 -17.9104 -17.9008 -11.9196 -11.9012 -11.8228 -11.7066
   -11.7036 -11.7034 -11.7007 -11.6871 -11.6790 -11.6554 -11.6341 -11.6204
   -11.6192 -11.5996 -11.5893 -11.5690 -11.5540 -11.5328 -11.5221 -11.5220
   -11.5092 -11.5086 -11.4972 -11.4852 -11.4852 -11.4530 -11.4409 -11.4401
   -11.4326 -11.3915 -11.3835 -11.3798 -11.3795 -11.3787 -11.2578 -11.2139
   -11.2022 -11.2019 -11.1874 -11.1749 -11.1462 -11.1432 -11.1254 -11.1160
   -11.0976 -11.0931 -11.0777 -11.0623 -11.0611 -11.0589 -11.0578 -11.0535
   -11.0491 -11.0295 -11.0288 -11.0125 -11.0112 -10.9978 -10.9962 -10.9927
   -10.9773 -10.9478 -10.9416 -10.8990 -10.7947 -10.7852 -10.7273 -10.7191
   -10.6727 -10.6138 -10.6002 -10.5515 -10.4564 -10.3903 -10.3549 -10.3524
   -10.3453 -10.3411 -10.2697 -10.2610 -10.2515 -10.2363 -10.1766 -10.1672
   -10.1645 -10.1643 -10.1612 -10.1580 -10.1374 -10.1288 -10.1219 -10.1196
   -10.1109 -10.1058 -10.0341 -10.0164 -10.0152  -9.9829  -9.9816  -9.9797
    -9.9731  -9.9513  -9.9462  -9.9379  -9.9361  -9.9255  -9.8903  -9.8819
    -9.8711  -9.8572  -9.8560  -9.8390  -9.8370  -9.8355  -9.8324  -9.8168
    -9.7785  -9.7568  -9.7546  -9.7292  -9.7173  -9.6972  -9.6968  -9.6926
    -9.6535  -9.6435  -9.5459  -9.5347  -9.5079  -9.4750  -9.4521  -9.4075
    -9.3883  -9.3724  -9.3716  -9.3602  -9.3569  -9.3529  -9.3516  -9.3465
    -9.3270  -9.2868  -9.2645  -9.2587  -9.2359  -9.2327  -9.2268  -9.2080
    -9.2034  -9.1923  -9.1888  -9.1829  -9.1720  -9.1640  -9.1592  -9.1589
    -9.1568  -9.1458  -9.1353  -9.1222  -9.1121  -9.1058  -9.0928  -9.0875
    -9.0820  -9.0689  -9.0679  -9.0651  -9.0584  -9.0501  -9.0395  -9.0387
    -9.0229  -9.0174  -9.0066  -8.9963  -8.9910  -8.9768  -8.9589  -8.9574
    -8.9306  -8.9213  -8.8401  -8.7412  -8.7408  -8.7026  -8.6832  -8.6676
    -8.6532  -8.6268  -8.6228  -8.4784  -8.4452  -8.4216  -8.4216  -8.3509
    -8.3500  -8.3179  -8.3012  -8.2807  -8.2338  -8.1678  -8.1623  -8.1554
    -8.1262  -8.0955  -8.0918  -8.0865  -8.0778  -8.0769  -8.0749  -8.0749
    -8.0695  -8.0654  -8.0599  -8.0291  -8.0289  -8.0286  -8.0274  -8.0063
    -8.0058  -7.9999  -7.9874  -7.9865  -7.9842  -7.9648  -7.9619  -7.9578
    -7.9552  -7.9460  -7.9418  -7.9297  -7.9220  -7.9200  -7.9148  -7.9119
    -7.9030  -7.8897  -7.8896  -7.8826  -7.8754  -7.8699  -7.8627  -7.8524
    -7.8369  -7.8320  -7.8206  -7.8201  -7.8103  -7.8032  -7.7953  -7.7743
    -7.7569  -7.7315  -7.7171  -7.6977  -7.6745  -7.6690  -7.5868  -7.5358
    -7.4805  -7.4735  -7.4675  -7.4617  -7.4303  -7.3871  -7.3654  -7.3434
    -7.3420  -7.3146  -7.2906  -7.2539  -7.2530  -7.2401  -7.2339  -7.1924
    -7.1732  -7.1685  -7.1645  -7.1553  -7.1538  -7.1319  -7.1020  -7.0850
    -7.0639  -7.0586  -7.0517  -7.0309  -6.9756  -6.9438  -6.9315  -6.9171
    -6.8866  -6.8865  -6.8865  -6.8864  -6.8603  -6.8316  -6.8244  -6.8201
    -6.8198  -6.8172  -6.8063  -6.7779  -6.7467  -6.7386  -6.7304  -6.7286
    -6.6890  -6.6596  -6.6373  -6.5561  -6.5552  -6.5551  -6.5550  -6.5266
    -6.4992  -6.4894  -6.4778  -6.4769  -6.4759  -6.4755  -6.4640  -6.4272
    -6.4158  -6.4010  -6.3961  -6.3914  -6.3864  -6.2065  -6.2064  -6.1791
    -6.1353  -6.1308  -6.1083  -6.0546  -5.9804  -5.9139  -5.9079  -5.7757
    -5.7474  -4.9726  -4.2471  -4.2461  -4.2406  -4.2269  -4.1220  -4.1219
    -4.1029  -4.0968  -4.0579  -4.0577  -3.9990  -3.9984  -3.9956  -3.9883
    -3.9830  -3.9474  -3.9038  -3.8840  -3.8258  -3.8254  -3.8225  -3.8217
    -3.8079  -3.8076  -3.7724  -3.7698  -3.7658  -3.7343  -3.7317  -3.7294
    -3.7186  -3.7093  -3.7035  -3.6992  -3.6959  -3.6917  -3.6899  -3.6797
    -3.6521  -3.6324  -3.5942  -3.5930  -3.5819  -3.5764  -3.5751  -3.5734
    -3.5469  -3.5448  -3.5397  -3.5358  -3.5037  -3.4989  -3.4986  -3.4983
    -3.4978  -3.4857  -3.4753  -3.4670  -3.4640  -3.4583  -3.4366  -3.4359
    -3.4315  -3.4278  -3.4226  -3.4180  -3.4136  -3.3746  -3.3474  -3.3452
    -3.3363  -3.3291  -3.3201  -3.2976  -3.2956  -3.2837  -3.2567  -3.2554
    -3.2481  -3.2361  -3.2352  -3.2350  -3.2348  -3.2247  -3.2025  -3.1897
    -3.1864  -3.1844  -3.1730  -3.1614  -3.1464  -3.1435  -3.1412  -3.1408
    -3.1233  -3.1077  -3.1061  -3.0927  -3.0874  -3.0841  -3.0727  -3.0571
    -3.0466  -3.0294  -3.0271  -3.0232  -3.0200  -2.9879  -2.9476  -2.9382
    -2.9133  -2.9007  -2.8724  -2.8720  -2.8581  -2.8512  -2.8497  -2.8251
    -2.7904  -2.7877  -2.7302  -2.7166  -2.7110  -2.7075  -2.7004  -2.6902
    -2.5595

          k =-0.5000-0.2887 0.0000 (321564 PWs)   bands (ev):

   -89.5086 -66.9099 -66.9099 -66.8993 -66.8993 -66.8844 -66.8844 -66.8844
   -66.8844 -66.8800 -66.8800 -66.8738 -66.8738 -66.8738 -66.8737 -66.8694
   -66.8694 -66.8449 -66.8444 -66.8341 -66.8340 -66.8193 -66.8193 -66.8190
   -66.8188 -66.8150 -66.8144 -66.8088 -66.8088 -66.8086 -66.8078 -66.8041
   -66.8040 -66.7876 -66.7781 -66.7735 -66.7655 -66.7589 -66.7534 -66.7528
   -66.7510 -66.7486 -66.7441 -66.7421 -66.7407 -66.7350 -66.7326 -66.7266
   -66.7240 -55.5053 -55.1711 -55.1218 -41.2110 -41.2110 -41.2110 -41.2110
   -41.1844 -41.1844 -41.1725 -41.1725 -41.1449 -41.1449 -41.1447 -41.1441
   -41.1220 -41.1220 -41.1220 -41.1220 -41.1182 -41.1178 -41.1061 -41.1060
   -41.0787 -41.0772 -41.0704 -41.0685 -41.0641 -41.0641 -41.0558 -41.0557
   -41.0557 -41.0556 -41.0541 -41.0541 -41.0525 -41.0479 -41.0434 -41.0434
   -41.0358 -41.0296 -41.0139 -41.0139 -41.0139 -41.0139 -41.0053 -41.0053
   -40.9995 -40.9991 -40.9931 -40.9931 -40.9931 -40.9931 -40.9930 -40.9930
   -40.9879 -40.9878 -40.9870 -40.9852 -40.9844 -40.9844 -40.9842 -40.9817
   -40.9787 -40.9786 -40.9623 -40.9623 -40.9623 -40.9623 -40.9569 -40.9495
   -40.9494 -40.9491 -40.9490 -40.9408 -40.9403 -40.9345 -40.9286 -40.9286
   -40.9285 -40.9278 -40.9278 -40.9278 -40.9278 -40.9277 -40.9269 -40.9269
   -40.9259 -40.9198 -40.9197 -40.9177 -40.9158 -40.9157 -40.9146 -40.9130
   -40.9010 -40.8966 -40.8966 -40.8965 -40.8964 -40.8961 -40.8957 -40.8871
   -40.8845 -40.8840 -40.8797 -40.8797 -40.8779 -40.8745 -40.8713 -40.8641
   -40.8624 -40.8618 -40.8617 -40.8617 -40.8616 -40.8600 -40.8578 -40.8552
   -40.8536 -40.8520 -40.8499 -40.8494 -40.8492 -40.8492 -40.8309 -40.8308
   -40.8302 -40.8272 -40.8246 -40.8201 -40.8137 -40.8135 -40.7937 -40.7906
   -40.7900 -40.7874 -40.7834 -40.7829 -40.7807 -40.7726 -40.7633 -40.7541
   -40.7442 -40.7375 -40.7128 -40.7081 -20.1134 -20.1114 -20.0124 -19.9913
   -19.8925 -19.8612 -19.6774 -19.6773 -19.5713 -19.5703 -19.4553 -19.4536
   -19.0061 -18.9898 -18.9715 -18.9687 -18.9685 -18.9680 -18.9171 -18.9104
   -18.8851 -18.8644 -18.8484 -18.8301 -18.8223 -18.7770 -18.7756 -18.7676
   -18.7606 -18.7444 -18.7211 -18.7204 -18.6695 -18.6531 -18.6291 -18.6279
   -18.6226 -18.6084 -18.5741 -18.5189 -18.5078 -18.4830 -18.4522 -18.4469
   -18.4421 -18.4403 -18.3790 -18.3725 -18.3563 -18.3561 -18.3561 -18.3557
   -18.3357 -18.3306 -18.3280 -18.3164 -18.2891 -18.2831 -18.2821 -18.2811
   -18.2706 -18.2665 -18.2360 -18.2263 -18.2215 -18.2079 -18.2014 -18.1999
   -18.1978 -18.1958 -18.1660 -18.1613 -18.1540 -18.1506 -18.1489 -18.1328
   -18.1075 -18.0927 -18.0926 -18.0926 -18.0857 -18.0836 -18.0434 -18.0335
   -18.0331 -18.0237 -18.0174 -18.0166 -18.0078 -18.0026 -17.9779 -17.9752
   -17.9546 -17.9424 -17.9104 -17.9008 -11.9196 -11.9012 -11.8228 -11.7066
   -11.7036 -11.7034 -11.7007 -11.6871 -11.6790 -11.6554 -11.6341 -11.6204
   -11.6192 -11.5996 -11.5893 -11.5690 -11.5541 -11.5328 -11.5221 -11.5220
   -11.5092 -11.5086 -11.4972 -11.4852 -11.4852 -11.4530 -11.4409 -11.4401
   -11.4326 -11.3915 -11.3835 -11.3798 -11.3795 -11.3787 -11.2578 -11.2139
   -11.2022 -11.2019 -11.1874 -11.1749 -11.1462 -11.1432 -11.1254 -11.1160
   -11.0976 -11.0931 -11.0777 -11.0623 -11.0611 -11.0589 -11.0578 -11.0535
   -11.0491 -11.0295 -11.0288 -11.0125 -11.0112 -10.9978 -10.9962 -10.9927
   -10.9773 -10.9478 -10.9416 -10.8990 -10.7947 -10.7852 -10.7273 -10.7191
   -10.6728 -10.6138 -10.6002 -10.5515 -10.4564 -10.3903 -10.3549 -10.3524
   -10.3453 -10.3411 -10.2697 -10.2610 -10.2515 -10.2363 -10.1766 -10.1672
   -10.1645 -10.1643 -10.1612 -10.1580 -10.1374 -10.1288 -10.1219 -10.1196
   -10.1109 -10.1058 -10.0341 -10.0164 -10.0152  -9.9829  -9.9816  -9.9797
    -9.9731  -9.9513  -9.9462  -9.9379  -9.9361  -9.9255  -9.8903  -9.8819
    -9.8711  -9.8572  -9.8560  -9.8390  -9.8370  -9.8356  -9.8324  -9.8168
    -9.7785  -9.7568  -9.7546  -9.7292  -9.7173  -9.6972  -9.6968  -9.6926
    -9.6535  -9.6435  -9.5459  -9.5347  -9.5079  -9.4750  -9.4521  -9.4075
    -9.3883  -9.3724  -9.3716  -9.3602  -9.3569  -9.3529  -9.3515  -9.3465
    -9.3270  -9.2868  -9.2645  -9.2587  -9.2359  -9.2327  -9.2268  -9.2080
    -9.2034  -9.1923  -9.1888  -9.1829  -9.1720  -9.1640  -9.1592  -9.1589
    -9.1568  -9.1458  -9.1353  -9.1222  -9.1121  -9.1058  -9.0928  -9.0875
    -9.0820  -9.0689  -9.0679  -9.0651  -9.0584  -9.0501  -9.0395  -9.0387
    -9.0229  -9.0174  -9.0066  -8.9963  -8.9910  -8.9768  -8.9589  -8.9574
    -8.9306  -8.9213  -8.8401  -8.7412  -8.7408  -8.7026  -8.6832  -8.6677
    -8.6532  -8.6268  -8.6228  -8.4784  -8.4452  -8.4216  -8.4216  -8.3509
    -8.3500  -8.3179  -8.3012  -8.2807  -8.2338  -8.1678  -8.1623  -8.1554
    -8.1262  -8.0955  -8.0918  -8.0865  -8.0778  -8.0769  -8.0749  -8.0749
    -8.0695  -8.0654  -8.0599  -8.0291  -8.0289  -8.0286  -8.0274  -8.0063
    -8.0058  -7.9999  -7.9874  -7.9865  -7.9842  -7.9648  -7.9619  -7.9578
    -7.9552  -7.9460  -7.9418  -7.9297  -7.9220  -7.9200  -7.9148  -7.9119
    -7.9030  -7.8897  -7.8896  -7.8826  -7.8754  -7.8698  -7.8627  -7.8524
    -7.8369  -7.8320  -7.8206  -7.8202  -7.8103  -7.8032  -7.7953  -7.7743
    -7.7569  -7.7315  -7.7171  -7.6977  -7.6746  -7.6690  -7.5868  -7.5358
    -7.4805  -7.4735  -7.4675  -7.4618  -7.4303  -7.3871  -7.3654  -7.3434
    -7.3419  -7.3146  -7.2906  -7.2539  -7.2530  -7.2401  -7.2339  -7.1924
    -7.1732  -7.1685  -7.1645  -7.1553  -7.1539  -7.1319  -7.1020  -7.0850
    -7.0639  -7.0586  -7.0517  -7.0309  -6.9756  -6.9438  -6.9315  -6.9171
    -6.8866  -6.8866  -6.8865  -6.8864  -6.8603  -6.8316  -6.8244  -6.8201
    -6.8198  -6.8172  -6.8063  -6.7779  -6.7467  -6.7386  -6.7304  -6.7286
    -6.6890  -6.6596  -6.6373  -6.5561  -6.5552  -6.5551  -6.5550  -6.5266
    -6.4992  -6.4893  -6.4778  -6.4769  -6.4759  -6.4755  -6.4640  -6.4272
    -6.4158  -6.4010  -6.3961  -6.3914  -6.3864  -6.2065  -6.2064  -6.1791
    -6.1353  -6.1308  -6.1083  -6.0546  -5.9804  -5.9139  -5.9079  -5.7756
    -5.7474  -4.9726  -4.2472  -4.2462  -4.2407  -4.2269  -4.1219  -4.1218
    -4.1028  -4.0967  -4.0580  -4.0577  -3.9988  -3.9982  -3.9956  -3.9881
    -3.9830  -3.9474  -3.9038  -3.8840  -3.8257  -3.8253  -3.8224  -3.8216
    -3.8078  -3.8074  -3.7723  -3.7698  -3.7656  -3.7343  -3.7317  -3.7294
    -3.7186  -3.7092  -3.7031  -3.6990  -3.6959  -3.6915  -3.6897  -3.6797
    -3.6521  -3.6324  -3.5942  -3.5930  -3.5818  -3.5765  -3.5751  -3.5734
    -3.5470  -3.5449  -3.5398  -3.5358  -3.5032  -3.4987  -3.4985  -3.4982
    -3.4977  -3.4854  -3.4753  -3.4671  -3.4640  -3.4584  -3.4365  -3.4359
    -3.4314  -3.4278  -3.4226  -3.4180  -3.4136  -3.3746  -3.3473  -3.3450
    -3.3364  -3.3290  -3.3201  -3.2977  -3.2957  -3.2838  -3.2568  -3.2555
    -3.2471  -3.2357  -3.2349  -3.2346  -3.2344  -3.2247  -3.2026  -3.1898
    -3.1865  -3.1845  -3.1730  -3.1614  -3.1461  -3.1434  -3.1411  -3.1404
    -3.1233  -3.1077  -3.1061  -3.0928  -3.0876  -3.0843  -3.0728  -3.0568
    -3.0464  -3.0293  -3.0270  -3.0207  -3.0156  -2.9874  -2.9474  -2.9295
    -2.9001  -2.8723  -2.8720  -2.8577  -2.8512  -2.8497  -2.8242  -2.7902
    -2.7874  -2.7299  -2.7159  -2.7110  -2.7073  -2.6999  -2.6902  -2.5616
    -2.5453

          k =-0.5000-0.8660 0.0000 (321564 PWs)   bands (ev):

   -89.5086 -66.9099 -66.9099 -66.8993 -66.8993 -66.8844 -66.8844 -66.8844
   -66.8844 -66.8800 -66.8800 -66.8738 -66.8738 -66.8738 -66.8737 -66.8694
   -66.8694 -66.8448 -66.8445 -66.8341 -66.8340 -66.8193 -66.8193 -66.8190
   -66.8190 -66.8149 -66.8145 -66.8088 -66.8086 -66.8085 -66.8081 -66.8041
   -66.8040 -66.7874 -66.7795 -66.7711 -66.7655 -66.7613 -66.7534 -66.7522
   -66.7512 -66.7459 -66.7439 -66.7432 -66.7417 -66.7351 -66.7325 -66.7257
   -66.7246 -55.5053 -55.1711 -55.1218 -41.2111 -41.2110 -41.2110 -41.2110
   -41.1844 -41.1844 -41.1725 -41.1725 -41.1448 -41.1447 -41.1446 -41.1443
   -41.1220 -41.1220 -41.1220 -41.1220 -41.1181 -41.1179 -41.1061 -41.1060
   -41.0813 -41.0807 -41.0702 -41.0647 -41.0641 -41.0641 -41.0558 -41.0557
   -41.0557 -41.0557 -41.0541 -41.0541 -41.0520 -41.0452 -41.0434 -41.0434
   -41.0340 -41.0297 -41.0139 -41.0139 -41.0139 -41.0139 -41.0053 -41.0053
   -40.9994 -40.9992 -40.9931 -40.9931 -40.9931 -40.9931 -40.9930 -40.9930
   -40.9879 -40.9879 -40.9876 -40.9855 -40.9853 -40.9844 -40.9844 -40.9813
   -40.9786 -40.9786 -40.9623 -40.9623 -40.9623 -40.9623 -40.9553 -40.9494
   -40.9494 -40.9492 -40.9491 -40.9407 -40.9404 -40.9368 -40.9286 -40.9284
   -40.9284 -40.9280 -40.9278 -40.9278 -40.9278 -40.9278 -40.9269 -40.9269
   -40.9231 -40.9220 -40.9198 -40.9197 -40.9158 -40.9157 -40.9136 -40.9123
   -40.9035 -40.8966 -40.8966 -40.8965 -40.8964 -40.8960 -40.8959 -40.8877
   -40.8866 -40.8798 -40.8797 -40.8797 -40.8789 -40.8751 -40.8678 -40.8647
   -40.8637 -40.8620 -40.8619 -40.8618 -40.8617 -40.8617 -40.8616 -40.8549
   -40.8525 -40.8506 -40.8498 -40.8495 -40.8492 -40.8492 -40.8307 -40.8303
   -40.8281 -40.8275 -40.8226 -40.8200 -40.8136 -40.8136 -40.7953 -40.7907
   -40.7904 -40.7848 -40.7843 -40.7833 -40.7830 -40.7709 -40.7597 -40.7562
   -40.7421 -40.7388 -40.7161 -40.7066 -20.1133 -20.1115 -20.0115 -19.9921
   -19.8918 -19.8626 -19.6773 -19.6773 -19.5713 -19.5699 -19.4551 -19.4533
   -19.0023 -18.9943 -18.9711 -18.9686 -18.9685 -18.9681 -18.9189 -18.9083
   -18.8850 -18.8649 -18.8478 -18.8325 -18.8205 -18.7772 -18.7750 -18.7679
   -18.7607 -18.7452 -18.7209 -18.7205 -18.6688 -18.6540 -18.6293 -18.6272
   -18.6229 -18.6078 -18.5748 -18.5195 -18.5048 -18.4831 -18.4524 -18.4476
   -18.4421 -18.4405 -18.3807 -18.3710 -18.3563 -18.3562 -18.3561 -18.3557
   -18.3360 -18.3307 -18.3277 -18.3168 -18.2877 -18.2845 -18.2825 -18.2802
   -18.2713 -18.2653 -18.2364 -18.2270 -18.2209 -18.2078 -18.2018 -18.2011
   -18.1977 -18.1952 -18.1651 -18.1619 -18.1535 -18.1502 -18.1493 -18.1335
   -18.1059 -18.0941 -18.0926 -18.0926 -18.0847 -18.0845 -18.0418 -18.0335
   -18.0331 -18.0272 -18.0174 -18.0167 -18.0058 -18.0041 -17.9772 -17.9755
   -17.9542 -17.9424 -17.9093 -17.9013 -11.9179 -11.9016 -11.8037 -11.7090
   -11.7060 -11.7037 -11.7033 -11.6876 -11.6788 -11.6568 -11.6495 -11.6205
   -11.6203 -11.5960 -11.5863 -11.5680 -11.5552 -11.5367 -11.5238 -11.5229
   -11.5089 -11.5086 -11.5025 -11.4852 -11.4852 -11.4521 -11.4406 -11.4401
   -11.4263 -11.3922 -11.3828 -11.3798 -11.3796 -11.3788 -11.2550 -11.2133
   -11.2030 -11.2014 -11.1895 -11.1740 -11.1566 -11.1430 -11.1359 -11.1155
   -11.0965 -11.0925 -11.0695 -11.0668 -11.0614 -11.0589 -11.0579 -11.0523
   -11.0519 -11.0289 -11.0280 -11.0123 -11.0108 -10.9982 -10.9962 -10.9927
   -10.9737 -10.9510 -10.9493 -10.8964 -10.7945 -10.7827 -10.7253 -10.7197
   -10.6501 -10.6090 -10.5714 -10.5305 -10.4912 -10.4266 -10.3555 -10.3513
   -10.3470 -10.3394 -10.2703 -10.2552 -10.2511 -10.2339 -10.1686 -10.1671
   -10.1642 -10.1634 -10.1602 -10.1581 -10.1364 -10.1287 -10.1218 -10.1195
   -10.1079 -10.1070 -10.0310 -10.0169 -10.0155  -9.9843  -9.9802  -9.9776
    -9.9726  -9.9567  -9.9461  -9.9375  -9.9359  -9.9270  -9.8899  -9.8764
    -9.8715  -9.8580  -9.8548  -9.8386  -9.8381  -9.8347  -9.8324  -9.8201
    -9.7678  -9.7565  -9.7537  -9.7270  -9.7215  -9.6972  -9.6965  -9.6922
    -9.6470  -9.6452  -9.5509  -9.5297  -9.5122  -9.4838  -9.4665  -9.4237
    -9.3816  -9.3773  -9.3718  -9.3585  -9.3557  -9.3520  -9.3510  -9.3438
    -9.3384  -9.2753  -9.2633  -9.2572  -9.2352  -9.2325  -9.2239  -9.2205
    -9.2078  -9.1896  -9.1876  -9.1813  -9.1695  -9.1677  -9.1592  -9.1589
    -9.1566  -9.1456  -9.1361  -9.1219  -9.1112  -9.1051  -9.0922  -9.0857
    -9.0807  -9.0773  -9.0681  -9.0679  -9.0523  -9.0493  -9.0387  -9.0303
    -9.0260  -9.0180  -9.0056  -8.9961  -8.9899  -8.9737  -8.9591  -8.9585
    -8.9273  -8.9193  -8.8797  -8.7420  -8.7413  -8.7336  -8.6771  -8.6609
    -8.6310  -8.6241  -8.6034  -8.4857  -8.4306  -8.4216  -8.4216  -8.3509
    -8.3499  -8.3244  -8.3028  -8.2869  -8.2172  -8.1630  -8.1620  -8.1482
    -8.1181  -8.0926  -8.0921  -8.0837  -8.0774  -8.0764  -8.0749  -8.0749
    -8.0727  -8.0694  -8.0586  -8.0290  -8.0290  -8.0285  -8.0279  -8.0060
    -8.0058  -7.9950  -7.9870  -7.9860  -7.9846  -7.9633  -7.9624  -7.9581
    -7.9559  -7.9432  -7.9380  -7.9229  -7.9222  -7.9189  -7.9170  -7.9110
    -7.9025  -7.8897  -7.8896  -7.8828  -7.8747  -7.8738  -7.8602  -7.8435
    -7.8422  -7.8357  -7.8209  -7.8203  -7.8132  -7.7975  -7.7909  -7.7859
    -7.7589  -7.7544  -7.7282  -7.6779  -7.6682  -7.6560  -7.5872  -7.5261
    -7.4746  -7.4734  -7.4687  -7.4597  -7.4261  -7.4009  -7.3880  -7.3450
    -7.3423  -7.3206  -7.2993  -7.2699  -7.2623  -7.2406  -7.2379  -7.1851
    -7.1796  -7.1690  -7.1653  -7.1542  -7.1491  -7.1342  -7.1084  -7.0966
    -7.0590  -7.0548  -7.0343  -7.0088  -6.9772  -6.9649  -6.9348  -6.9173
    -6.8866  -6.8865  -6.8865  -6.8865  -6.8461  -6.8399  -6.8288  -6.8201
    -6.8192  -6.8162  -6.8141  -6.7472  -6.7457  -6.7383  -6.7344  -6.7286
    -6.6825  -6.6523  -6.6473  -6.5636  -6.5552  -6.5551  -6.5551  -6.5526
    -6.4905  -6.4898  -6.4780  -6.4767  -6.4760  -6.4758  -6.4446  -6.4350
    -6.4154  -6.4023  -6.3944  -6.3941  -6.3855  -6.2064  -6.2064  -6.1432
    -6.1331  -6.1231  -6.1220  -6.0613  -5.9674  -5.9206  -5.9121  -5.7873
    -5.7585  -4.9684  -4.2473  -4.2460  -4.2401  -4.2358  -4.1219  -4.1218
    -4.1026  -4.0896  -4.0580  -4.0577  -3.9995  -3.9988  -3.9944  -3.9853
    -3.9827  -3.9752  -3.9028  -3.8656  -3.8257  -3.8234  -3.8223  -3.8213
    -3.8079  -3.8077  -3.7707  -3.7704  -3.7639  -3.7585  -3.7322  -3.7293
    -3.7188  -3.7061  -3.7021  -3.6979  -3.6953  -3.6904  -3.6901  -3.6496
    -3.6420  -3.6389  -3.5925  -3.5838  -3.5821  -3.5756  -3.5753  -3.5742
    -3.5476  -3.5455  -3.5359  -3.5338  -3.5030  -3.4988  -3.4986  -3.4983
    -3.4972  -3.4951  -3.4704  -3.4666  -3.4654  -3.4543  -3.4370  -3.4367
    -3.4326  -3.4295  -3.4219  -3.4153  -3.4126  -3.3847  -3.3633  -3.3445
    -3.3389  -3.3303  -3.3184  -3.2959  -3.2944  -3.2629  -3.2571  -3.2540
    -3.2483  -3.2351  -3.2349  -3.2344  -3.2343  -3.2039  -3.1984  -3.1938
    -3.1870  -3.1862  -3.1728  -3.1620  -3.1486  -3.1459  -3.1425  -3.1380
    -3.1238  -3.1086  -3.1074  -3.0932  -3.0916  -3.0828  -3.0732  -3.0658
    -3.0478  -3.0322  -3.0300  -3.0222  -3.0206  -2.9905  -2.9574  -2.9443
    -2.9278  -2.9124  -2.8724  -2.8721  -2.8631  -2.8585  -2.8497  -2.8388
    -2.7908  -2.7888  -2.7304  -2.7288  -2.7116  -2.7032  -2.6958  -2.6894
    -2.5580

     the Fermi energy is    -4.9749 ev

!    total energy              =  -24358.29390641 Ry
     total all-electron energy =   -475458.170718 Ry
     estimated scf accuracy    <       0.00000087 Ry
     smearing contrib. (-TS)   =      -0.00562883 Ry
     internal energy E=F+TS    =  -24358.28827759 Ry

     The total energy is F=E-TS. E is the sum of the following terms:
     one-electron contribution =  459591.13891472 Ry
     hartree contribution      = -229909.72653221 Ry
     xc contribution           =   -1459.52892574 Ry
     ewald contribution        = -236978.37547865 Ry
     DFT-D3 Dispersion         =      -3.98302087 Ry
     one-center paw contrib.   =  -15597.81323484 Ry

     convergence has been achieved in  23 iterations

     negative rho (up, down):  9.251E-04 0.000E+00

     Forces acting on atoms (cartesian axes, Ry/au):

     atom    1 type  1   force =     0.00216528   -0.00187251   -0.00279566
     atom    2 type  1   force =     0.00000054   -0.00001000    0.00190638
     atom    3 type  1   force =    -0.00001642   -0.00003142    0.00003862
     atom    4 type  2   force =    -0.00000031   -0.00000244   -0.00320734
     atom    5 type  2   force =     0.00000910    0.00000842   -0.00001054
     atom    6 type  2   force =    -0.00002414   -0.00009948    0.00039342
     atom    7 type  2   force =     0.00000010   -0.00000285    0.00135663
     atom    8 type  2   force =     0.00000743    0.00003711   -0.00009454
     atom    9 type  2   force =    -0.00103217   -0.00011947    0.00047404
     atom   10 type  1   force =     0.00080590   -0.00001543    0.00219326
     atom   11 type  1   force =    -0.00001202   -0.00000506    0.00190456
     atom   12 type  1   force =    -0.00004633   -0.00000197    0.00002728
     atom   13 type  2   force =    -0.00000072   -0.00000050   -0.00320408
     atom   14 type  2   force =    -0.00001995   -0.00001340    0.00000459
     atom   15 type  2   force =     0.00014469    0.00043881   -0.00008917
     atom   16 type  2   force =    -0.00000252    0.00000174    0.00137460
     atom   17 type  2   force =    -0.00005197   -0.00001661   -0.00010171
     atom   18 type  2   force =    -0.00133811   -0.00099605    0.00036636
     atom   19 type  1   force =     0.00021562   -0.00012150   -0.00145762
     atom   20 type  1   force =    -0.00000214    0.00000094    0.00190716
     atom   21 type  1   force =     0.00000786    0.00001813   -0.00001129
     atom   22 type  2   force =     0.00000119    0.00000244   -0.00320298
     atom   23 type  2   force =     0.00001001    0.00001570   -0.00000178
     atom   24 type  2   force =    -0.00002070   -0.00007010    0.00011205
     atom   25 type  2   force =     0.00000072    0.00000365    0.00135796
     atom   26 type  2   force =    -0.00001166   -0.00000205   -0.00010125
     atom   27 type  2   force =     0.00004371    0.00018251    0.00040421
     atom   28 type  1   force =     0.00042435   -0.00071480   -0.00069824
     atom   29 type  1   force =     0.00000071    0.00000124    0.00191526
     atom   30 type  1   force =     0.00004236   -0.00002563    0.00007693
     atom   31 type  2   force =    -0.00000092    0.00000260   -0.00320357
     atom   32 type  2   force =    -0.00000296    0.00000466   -0.00001703
     atom   33 type  2   force =    -0.00020211    0.00011599    0.00008537
     atom   34 type  2   force =     0.00000032   -0.00000094    0.00136238
     atom   35 type  2   force =     0.00001678   -0.00000688   -0.00015056
     atom   36 type  2   force =     0.00033540   -0.00019491    0.00003274
     atom   37 type  1   force =    -0.00574144    0.00175196   -0.00056727
     atom   38 type  1   force =     0.00000952   -0.00000818    0.00190509
     atom   39 type  1   force =    -0.00000002    0.00001289   -0.00010495
     atom   40 type  2   force =    -0.00000011   -0.00000225   -0.00320216
     atom   41 type  2   force =    -0.00001157   -0.00000282    0.00000305
     atom   42 type  2   force =     0.00036392    0.00117343    0.00039953
     atom   43 type  2   force =     0.00000226    0.00000322    0.00136134
     atom   44 type  2   force =    -0.00000037   -0.00002347   -0.00014137
     atom   45 type  2   force =    -0.00002727   -0.00028908    0.00119655
     atom   46 type  1   force =    -0.00052472    0.00030159    0.00336999
     atom   47 type  1   force =    -0.00000103    0.00000624    0.00189452
     atom   48 type  1   force =     0.00003693    0.00003276    0.00002535
     atom   49 type  2   force =    -0.00000243   -0.00000095   -0.00320527
     atom   50 type  2   force =     0.00000247    0.00000578   -0.00000179
     atom   51 type  2   force =    -0.00020291    0.00069059   -0.00200428
     atom   52 type  2   force =    -0.00000103    0.00000510    0.00137187
     atom   53 type  2   force =    -0.00002732   -0.00000513   -0.00020579
     atom   54 type  2   force =     0.00472091   -0.00034131   -0.00817303
     atom   55 type  1   force =     0.00041740   -0.00068939    0.00219260
     atom   56 type  1   force =     0.00000200   -0.00000108    0.00189103
     atom   57 type  1   force =     0.00004782   -0.00002429   -0.00008977
     atom   58 type  2   force =    -0.00000401    0.00000335   -0.00320213
     atom   59 type  2   force =    -0.00000539    0.00000168   -0.00000437
     atom   60 type  2   force =     0.00032021   -0.00018327    0.00007646
     atom   61 type  2   force =     0.00000016   -0.00000248    0.00136556
     atom   62 type  2   force =    -0.00001576    0.00000383   -0.00023032
     atom   63 type  2   force =    -0.00164675    0.00095064   -0.00001725
     atom   64 type  1   force =    -0.00036498   -0.00000767    0.00003710
     atom   65 type  1   force =    -0.00000051    0.00001024    0.00190108
     atom   66 type  1   force =    -0.00000592   -0.00001476   -0.00001034
     atom   67 type  2   force =     0.00000098    0.00000118   -0.00320241
     atom   68 type  2   force =    -0.00000831   -0.00001573    0.00000078
     atom   69 type  2   force =     0.00005300    0.00005315    0.00011545
     atom   70 type  2   force =     0.00000377    0.00000004    0.00136704
     atom   71 type  2   force =    -0.00000667    0.00001246   -0.00010897
     atom   72 type  2   force =    -0.00013499   -0.00012617    0.00040362
     atom   73 type  1   force =    -0.00023975    0.00014115   -0.00014841
     atom   74 type  1   force =     0.00000251   -0.00000063    0.00191054
     atom   75 type  1   force =     0.00002469   -0.00002301    0.00001610
     atom   76 type  2   force =    -0.00000099   -0.00000243   -0.00320603
     atom   77 type  2   force =     0.00005074    0.00002584    0.00002396
     atom   78 type  2   force =     0.00034101    0.00005599   -0.00011277
     atom   79 type  2   force =    -0.00000338   -0.00000136    0.00136102
     atom   80 type  2   force =    -0.00004461   -0.00003073   -0.00009011
     atom   81 type  2   force =     0.00043154   -0.00046638    0.00013428
     atom   82 type  1   force =    -0.00439083    0.00409310   -0.00056670
     atom   83 type  1   force =     0.00000950   -0.00000196    0.00189908
     atom   84 type  1   force =    -0.00001679    0.00000364    0.00007188
     atom   85 type  2   force =     0.00000081   -0.00000077   -0.00320792
     atom   86 type  2   force =     0.00001973   -0.00001419    0.00000348
     atom   87 type  2   force =    -0.00019291    0.00010940   -0.00065160
     atom   88 type  2   force =     0.00000094    0.00000342    0.00136988
     atom   89 type  2   force =     0.00004203   -0.00002516   -0.00016603
     atom   90 type  2   force =     0.00890747   -0.00514712   -0.00544102
     atom   91 type  1   force =     0.00270311   -0.00093278   -0.00279402
     atom   92 type  1   force =    -0.00000288   -0.00000570    0.00188943
     atom   93 type  1   force =    -0.00000816   -0.00004576    0.00002737
     atom   94 type  2   force =    -0.00000065    0.00000273   -0.00319982
     atom   95 type  2   force =    -0.00000746   -0.00000998   -0.00000635
     atom   96 type  2   force =    -0.00070281   -0.00016876   -0.00200439
     atom   97 type  2   force =    -0.00000122    0.00000152    0.00135778
     atom   98 type  2   force =    -0.00001062    0.00002324   -0.00019840
     atom   99 type  2   force =     0.00265717   -0.00392301   -0.00817551
     atom  100 type  1   force =    -0.00001665   -0.00042113    0.00002342
     atom  101 type  1   force =     0.00000194    0.00001521    0.00190424
     atom  102 type  1   force =    -0.00003115    0.00003421    0.00002572
     atom  103 type  2   force =    -0.00000180    0.00000030   -0.00320600
     atom  104 type  2   force =    -0.00000123    0.00002085    0.00000258
     atom  105 type  2   force =    -0.00030786   -0.00034344   -0.00009051
     atom  106 type  2   force =     0.00000258    0.00000045    0.00137020
     atom  107 type  2   force =    -0.00001158    0.00005219   -0.00010259
     atom  108 type  2   force =     0.00019040    0.00165546    0.00036910
     atom  109 type  1   force =     0.00035680    0.00022557    0.00001858
     atom  110 type  1   force =    -0.00000585    0.00000105    0.00191347
     atom  111 type  1   force =    -0.00001525    0.00001830    0.00018504
     atom  112 type  2   force =     0.00000005   -0.00000072   -0.00320240
     atom  113 type  2   force =    -0.00005125    0.00003166    0.00002227
     atom  114 type  2   force =    -0.00000858    0.00000340   -0.00017734
     atom  115 type  2   force =    -0.00000158   -0.00000084    0.00137268
     atom  116 type  2   force =     0.00005057   -0.00002919   -0.00009073
     atom  117 type  2   force =    -0.00004711    0.00002623   -0.00007134
     atom  118 type  1   force =    -0.00017621    0.00032036    0.00004333
     atom  119 type  1   force =     0.00000251   -0.00000525    0.00191006
     atom  120 type  1   force =     0.00003752   -0.00001717    0.00001969
     atom  121 type  2   force =     0.00000221   -0.00000113   -0.00320685
     atom  122 type  2   force =     0.00000453   -0.00005897    0.00002923
     atom  123 type  2   force =     0.00011963   -0.00032513   -0.00011179
     atom  124 type  2   force =     0.00000011   -0.00000149    0.00138021
     atom  125 type  2   force =     0.00000826    0.00005075   -0.00009856
     atom  126 type  2   force =     0.00061943   -0.00013884    0.00013612
     atom  127 type  1   force =     0.00083151   -0.00000589   -0.00069881
     atom  128 type  1   force =     0.00000537    0.00000027    0.00190345
     atom  129 type  1   force =    -0.00001189   -0.00000151   -0.00010113
     atom  130 type  2   force =     0.00000079    0.00000242   -0.00320711
     atom  131 type  2   force =    -0.00000198    0.00001002    0.00000460
     atom  132 type  2   force =    -0.00083519   -0.00089966    0.00039330
     atom  133 type  2   force =    -0.00000272   -0.00000303    0.00136257
     atom  134 type  2   force =     0.00002122    0.00000933   -0.00014243
     atom  135 type  2   force =     0.00023818    0.00016948    0.00119639
     atom  136 type  1   force =     0.00035077   -0.00020391   -0.00050808
     atom  137 type  1   force =     0.00000607    0.00000707    0.00190559
     atom  138 type  1   force =     0.00002448    0.00002624    0.00003890
     atom  139 type  2   force =     0.00000072    0.00000311   -0.00320583
     atom  140 type  2   force =    -0.00000299   -0.00000999   -0.00000820
     atom  141 type  2   force =     0.00007362    0.00006853    0.00039506
     atom  142 type  2   force =    -0.00000732    0.00000036    0.00136996
     atom  143 type  2   force =    -0.00002699   -0.00002113   -0.00010151
     atom  144 type  2   force =    -0.00041017    0.00095506    0.00047466
     atom  145 type  3   force =    -0.01308943    0.00756202    0.02330580
     atom  146 type  4   force =     0.00385260   -0.00223377   -0.00379413
     The non-local contrib.  to forces
     atom    1 type  1   force =    -0.00395741    0.00258364   -0.00285741
     atom    2 type  1   force =     0.00000060   -0.00000169   -0.00194644
     atom    3 type  1   force =     0.00011662   -0.00007113   -0.00084935
     atom    4 type  2   force =     0.00000204   -0.00000282    0.26315071
[...]
     atom   65 type  1   force =    -0.00000025   -0.00000024    0.00260575
     atom   66 type  1   force =    -0.00000278    0.00000024   -0.00001591
     atom   67 type  2   force =    -0.00000004    0.00000002    0.00441185
     atom   68 type  2   force =    -0.00000194   -0.00000093   -0.00004751
     atom   69 type  2   force =    -0.00001076    0.00000174   -0.00019930
     atom   70 type  2   force =     0.00000004   -0.00000003    0.00023682
     atom   71 type  2   force =    -0.00001406    0.00000871    0.00009117
     atom   72 type  2   force =     0.00002456    0.00000585   -0.00439764
     atom   73 type  1   force =    -0.00007141    0.00004123   -0.00255657
     atom   74 type  1   force =    -0.00000035   -0.00000024    0.00260480
     atom   75 type  1   force =     0.00000412   -0.00000672   -0.00002472
     atom   76 type  2   force =    -0.00000001   -0.00000001    0.00441171
     atom   77 type  2   force =    -0.00000090   -0.00000057   -0.00004687
     atom   78 type  2   force =     0.00000500    0.00000323   -0.00016150
     atom   79 type  2   force =    -0.00000052   -0.00000038    0.00023630
     atom   80 type  2   force =     0.00000274   -0.00000181    0.00009834
     atom   81 type  2   force =    -0.00017606    0.00020366   -0.00431595
     atom   82 type  1   force =    -0.00035450    0.00001219   -0.00224606
     atom   83 type  1   force =    -0.00000035    0.00000020    0.00260524
     atom   84 type  1   force =     0.00000689   -0.00000397   -0.00004756
     atom   85 type  2   force =     0.00000000   -0.00000000    0.00441165
     atom   86 type  2   force =    -0.00000040    0.00000023   -0.00004957
     atom   87 type  2   force =    -0.00004567    0.00002638    0.00010528
     atom   88 type  2   force =    -0.00000038    0.00000025    0.00023637
     atom   89 type  2   force =     0.00000557   -0.00000321    0.00009948
     atom   90 type  2   force =    -0.00024561    0.00014181   -0.00429775
     atom   91 type  1   force =    -0.00017875   -0.00030358   -0.00222293
     atom   92 type  1   force =    -0.00000011   -0.00000003    0.00260572
     atom   93 type  1   force =     0.00000133    0.00000936   -0.00004790
     atom   94 type  2   force =    -0.00000002    0.00000001    0.00441157
     atom   95 type  2   force =     0.00000066    0.00000084   -0.00005187
     atom   96 type  2   force =     0.00000369   -0.00004458    0.00010737
     atom   97 type  2   force =    -0.00000005    0.00000003    0.00023641
     atom   98 type  2   force =     0.00001358    0.00000878    0.00008624
     atom   99 type  2   force =    -0.00006034   -0.00025365   -0.00421462
     atom  100 type  1   force =    -0.00000119   -0.00009558   -0.00254669
     atom  101 type  1   force =    -0.00000011   -0.00000044    0.00260530
     atom  102 type  1   force =    -0.00000145    0.00000753   -0.00002421
     atom  103 type  2   force =    -0.00000000   -0.00000001    0.00441165
     atom  104 type  2   force =     0.00000001   -0.00000079   -0.00004878
     atom  105 type  2   force =     0.00000882    0.00000696   -0.00016219
     atom  106 type  2   force =    -0.00000008   -0.00000049    0.00023651
     atom  107 type  2   force =     0.00000368    0.00000929    0.00009793
     atom  108 type  2   force =     0.00009841   -0.00031455   -0.00429063
     atom  109 type  1   force =     0.00008217    0.00004882   -0.00254670
     atom  110 type  1   force =     0.00000027   -0.00000016    0.00260468
     atom  111 type  1   force =     0.00000225   -0.00000130   -0.00001389
     atom  112 type  2   force =    -0.00000000   -0.00000003    0.00441159
     atom  113 type  2   force =     0.00000100   -0.00000058   -0.00004624
     atom  114 type  2   force =     0.00000480   -0.00000277   -0.00018820
     atom  115 type  2   force =    -0.00000014   -0.00000064    0.00023636
     atom  116 type  2   force =     0.00000140   -0.00000081    0.00009693
     atom  117 type  2   force =    -0.00000120    0.00000069   -0.00440439
     atom  118 type  1   force =     0.00000267   -0.00000575   -0.00256863
     atom  119 type  1   force =     0.00000003    0.00000042    0.00260480
     atom  120 type  1   force =     0.00000787   -0.00000021   -0.00002471
     atom  121 type  2   force =    -0.00000002    0.00000001    0.00441160
     atom  122 type  2   force =     0.00000004    0.00000107   -0.00004687
     atom  123 type  2   force =    -0.00000030   -0.00000594   -0.00016150
     atom  124 type  2   force =    -0.00000051    0.00000029    0.00023646
     atom  125 type  2   force =     0.00000293   -0.00000147    0.00009834
     atom  126 type  2   force =    -0.00026441    0.00005065   -0.00431594
     atom  127 type  1   force =    -0.00008606   -0.00004565   -0.00255474
     atom  128 type  1   force =     0.00000004    0.00000031    0.00260561
     atom  129 type  1   force =     0.00000976    0.00000737   -0.00003013
     atom  130 type  2   force =     0.00000000    0.00000000    0.00441165
     atom  131 type  2   force =     0.00000043    0.00000198   -0.00004724
     atom  132 type  2   force =    -0.00002666   -0.00000510   -0.00011744
     atom  133 type  2   force =    -0.00000041    0.00000021    0.00023637
     atom  134 type  2   force =     0.00001518    0.00001022    0.00009079
     atom  135 type  2   force =    -0.00049012   -0.00027998   -0.00416545
     atom  136 type  1   force =    -0.00000780    0.00000449   -0.00256628
     atom  137 type  1   force =     0.00000027   -0.00000020    0.00260551
     atom  138 type  1   force =     0.00000456    0.00000806   -0.00001897
     atom  139 type  2   force =    -0.00000001   -0.00000000    0.00441163
     atom  140 type  2   force =     0.00000158   -0.00000073   -0.00004651
     atom  141 type  2   force =     0.00000106   -0.00000420   -0.00015955
     atom  142 type  2   force =    -0.00000012   -0.00000053    0.00023653
     atom  143 type  2   force =     0.00001413    0.00001267    0.00009484
     atom  144 type  2   force =    -0.00010248   -0.00027794   -0.00429976
     atom  145 type  3   force =     0.00005178   -0.00002990   -0.00637968
     atom  146 type  4   force =    -0.00005472    0.00003159   -0.00091330

     Total force =     0.002010     Total SCF correction =     0.000220
     SCF correction compared to forces is large: reduce conv_thr to get better values
     Energy error            =      1.2E-05 Ry
     Gradient error          =      9.5E-04 Ry/Bohr

     bfgs converged in  14 scf cycles and  13 bfgs steps
     (criteria: energy <  1.0E-04 Ry, force <  1.0E-03 Ry/Bohr)

     End of BFGS Geometry Optimization

     Final energy             =  -24358.2969585236 Ry

     File ./outdir/pwscf.bfgs deleted, as requested
Begin final coordinates

ATOMIC_POSITIONS (angstrom)
Mo            1.5739878132        2.7144246961        6.0743232035
Mo            1.5769197498        0.9104407117       -6.0872367793    0   0   0
Mo            0.0001086205        1.8210856570       -0.0009296324
S             0.0000044503        0.0000077495       -7.6506323570    0   0   0
S             1.5764528751        0.9108023624       -1.5671731545
S            -0.0001370355        1.8211958088        4.5023815593
S             0.0000053241        0.0000068460       -4.5222282367    0   0   0
S             1.5773984233        0.9103028820        1.5652426630
S            -0.0091624425        1.8093065087        7.6423987297
Mo           -0.0076859356        5.4611211044        6.0908142152
Mo            0.0000011799        3.6417399547       -6.0872367793    0   0   0
Mo           -1.5767094763        4.5522976800       -0.0008708783
S            -1.5769141197        2.7313069925       -7.6506323570    0   0   0
S            -0.0000803554        3.6417507029       -1.5663650086
S            -1.5702985096        4.5558069169        4.5096928742
S            -1.5769132459        2.7313060890       -4.5222282367    0   0   0
S             0.0010727132        3.6424563698        1.5667131259
S            -1.5917575696        4.5449742069        7.6494203685
Mo           -1.5760440541        8.1933720260        6.0768165896
Mo           -1.5769173901        6.3730391977       -6.0872367793    0   0   0
Mo           -3.1537528567        7.2833809838       -0.0026248811
S            -3.1538326896        5.4626062355       -7.6506323570    0   0   0
S            -1.5768053332        6.3723871999       -1.5674600852
S            -3.1491373528        7.2835469174        4.5072954271
S            -3.1538318159        5.4626053320       -4.5222282367    0   0   0
S            -1.5767839052        6.3737914040        1.5650361173
S            -3.1526737482        7.2829094570        7.6442608825
Mo            3.1565396098       -0.0039939370        6.0732441838
Mo           -3.1538359601        9.1043384407       -6.0872367793    0   0   0
Mo           -4.7308842332       10.0148263662       -0.0021664360
S            -4.7307512596        8.1939054785       -7.6506323570    0   0   0
S            -3.1540189484        9.1044228344       -1.5679159982
S            -4.7275170129       10.0128763045        4.5045892834
S            -4.7307503859        8.1939045750       -4.5222282367    0   0   0
S            -3.1536763665        9.1042250086        1.5641320554
S            -4.7301637420       10.0144033649        7.6391349998
Mo            4.7297824878        2.7205849565        6.0859807513
Mo            4.7307503218        0.9104407117       -6.0872367793    0   0   0
Mo            3.1538003950        1.8209680649       -0.0021225149
S             3.1538350223        0.0000077495       -7.6506323570    0   0   0
S             4.7311079471        0.9108700500       -1.5673785730
S             3.1576179432        1.8197245679        4.5089599133
S             3.1538358961        0.0000068460       -4.5222282367    0   0   0
S             4.7303246008        0.9098520892        1.5648379577
S             3.1499412828        1.8099883515        7.6482072483
Mo            3.1581652433        5.4600793697        6.1422051031
Mo            3.1538317519        3.6417399547       -6.0872367793    0   0   0
Mo            1.5771880153        4.5524360869       -0.0015476190
S             1.5769164523        2.7313069925       -7.6506323570    0   0   0
S             3.1538550539        3.6419718008       -1.5671764922
S             1.5973846975        4.5650955296        4.5489213908
S             1.5769173261        2.7313060890       -4.5222282367    0   0   0
S             3.1536831806        3.6416059301        1.5657758467
S             1.5115049610        4.4995839854        7.6847145705
Mo            1.5743291149        8.2012654684        6.0908061440
Mo            1.5769131819        6.3730391977       -6.0872367793    0   0   0
Mo            0.0001423302        7.2833675170       -0.0024737644
S            -0.0000021176        5.4626062355       -7.6506323570    0   0   0
S             1.5771399439        6.3728876065       -1.5675383971
S             0.0052922298        7.2803840569        4.5192619145
S            -0.0000012439        5.4626053320       -4.5222282367    0   0   0
S             1.5765922098        6.3732041197        1.5652898263
S            -0.0056924974        7.2867323026        7.6538535801
Mo            6.3086310839       -0.0016499692        6.0728329911
Mo           -0.0000053881        9.1043384407       -6.0872367793    0   0   0
Mo           -1.5768197638       10.0147155036       -0.0026242661
S            -1.5769206876        8.1939054785       -7.6506323570    0   0   0
S             0.0005963616        9.1045351206       -1.5674612227
S            -1.5746627652       10.0106252698        4.5072950378
S            -1.5769198139        8.1939045750       -4.5222282367    0   0   0
S            -0.0006075972        9.1038147188        1.5650346940
S            -1.5758773612       10.0140075536        7.6442593272
Mo            7.8837595939        2.7317530776        6.0735133609
Mo            7.8845808939        0.9104407117       -6.0872367793    0   0   0
Mo            6.3074966978        1.8209726567       -0.0009784902
S             6.3076655943        0.0000077495       -7.6506323570    0   0   0
S             7.8846463663        0.9104539827       -1.5661204071
S             6.3034251410        1.8221699679        4.5096277540
S             6.3076664681        0.0000068460       -4.5222282367    0   0   0
S             7.8841516960        0.9101599362        1.5662209151
S             6.3154885174        1.8094851638        7.6459352708
Mo            6.3164392921        5.4687615408        6.0859794563
Mo            6.3076623239        3.6417399547       -6.0872367793    0   0   0
Mo            4.7303998108        4.5523528532       -0.0012915290
S             4.7307470244        2.7313069925       -7.6506323570    0   0   0
S             6.3075530892        3.6417833509       -1.5663469648
S             4.7129825197        4.5624002830        4.5533625041
S             4.7307478981        2.7313060890       -4.5222282367    0   0   0
S             6.3066814219        3.6422845606        1.5665803258
S             4.8176534901        4.5019695257        7.7008189580
Mo            4.7438777223        8.2048456163        6.0743143410
Mo            4.7307437539        6.3730391977       -6.0872367793    0   0   0
Mo            3.1537191881        7.2830743529       -0.0015494753
S             3.1538284544        5.4626062355       -7.6506323570    0   0   0
S             4.7305371825        6.3728720375       -1.5671780063
S             3.1528478766        7.2592443651        4.5489139018
S             3.1538293281        5.4626053320       -4.5222282367    0   0   0
S             4.7307670757        6.3732040906        1.5657767281
S             3.1666457831        7.3663884519        7.6847010505
Mo            9.4617400553        0.0006099989        6.0717375734
Mo            3.1538251839        9.1043384407       -6.0872367793    0   0   0
Mo            1.5768866585       10.0144994295       -0.0008725109
S             1.5769098844        8.1939054785       -7.6506323570    0   0   0
S             3.1537583380        9.1043727754       -1.5663667184
S             1.5770455517       10.0071866981        4.5096863649
S             1.5769107581        8.1939045750       -4.5222282367    0   0   0
S             3.1537220889        9.1030203014        1.5667120673
S             1.5756976421       10.0311837837        7.6494151073
Mo           -1.5773362637        2.7307556018        6.0717406454
Mo           11.0384114659        0.9104407117       -6.0872367793    0   0   0
Mo            9.4613119232        1.8209579644       -0.0006967064
S             9.4614961663        0.0000077495       -7.6506323570    0   0   0
S            11.0381596199        0.9105645109       -1.5661453840
S             9.4592867137        1.8221224777        4.5061772162
S             9.4614970401        0.0000068460       -4.5222282367    0   0   0
S            11.0384605502        0.9103903032        1.5657447993
S             9.4610675166        1.8210914851        7.6402295337
Mo           -3.1519369316        5.4625590964        6.0728364476
Mo            9.4614928959        3.6417399547       -6.0872367793    0   0   0
Mo            7.8843887160        4.5522378393       -0.0009776129
S             7.8845775964        2.7313069925       -7.6506323570    0   0   0
S             9.4614957535        3.6416459261       -1.5661187693
S             7.8813119821        4.5551540175        4.5096284097
S             7.8845784701        2.7313060890       -4.5222282367    0   0   0
S             9.4615021333        3.6422189314        1.5662217306
S             7.8983273457        4.5510491399        7.6459361834
Mo           -4.7259553742        8.1935236917        6.0732430006
Mo            7.8845743259        6.3730391977       -6.0872367793    0   0   0
Mo            6.3075411119        7.2834226020       -0.0021223402
S             6.3076590264        5.4626062355       -7.6506323570    0   0   0
S             7.8843628843        6.3724823585       -1.5673785044
S             6.3105261714        7.2807255520        4.5089548932
S             6.3076599001        5.4626053320       -4.5222282367    0   0   0
S             7.8848519823        6.3736705613        1.5648381429
S             6.3151129557        7.2922444945        7.6482035493
Mo            0.0003629276       -0.0002243605        6.0671174716
Mo            6.3076557559        9.1043384407       -6.0872367793    0   0   0
Mo            4.7305906966       10.0145425711       -0.0009306979
S             4.7307404564        8.1939054785       -7.6506323570    0   0   0
S             6.3070906555        9.1045302013       -1.5671741817
S             4.7303694176       10.0146956083        4.5023764602
S             4.7307413301        8.1939045750       -4.5222282367    0   0   0
S             6.3079951885        9.1039598991        1.5652423416
S             4.7361517825       10.0284511102        7.6423939870
Pd            3.1057231795        5.4904105799        9.1093121812
H             2.2860288454        5.9637852868       10.3833311887
End final coordinates



     Writing all to output data dir ./outdir/pwscf.save/
 
     init_run     :    103.36s CPU    105.87s WALL (       1 calls)
     electrons    :  57532.27s CPU  58231.36s WALL (      14 calls)
     update_pot   :     59.16s CPU     59.37s WALL (      13 calls)
     forces       :    928.26s CPU    955.78s WALL (      14 calls)
     force_dftd3  :      6.45s CPU      6.45s WALL (      14 calls)

     Called by init_run:
     wfcinit      :     83.33s CPU     84.61s WALL (       1 calls)
     potinit      :      2.00s CPU      2.09s WALL (       1 calls)
     hinit0       :     12.77s CPU     12.79s WALL (       1 calls)

     Called by electrons:
     c_bands      :  51285.12s CPU  51618.38s WALL (     164 calls)
     sum_band     :   5728.23s CPU   5934.22s WALL (     164 calls)
     v_of_rho     :     65.89s CPU     66.79s WALL (     164 calls)
     newd         :    337.10s CPU    504.48s WALL (     164 calls)
     PAW_pot      :     97.39s CPU     97.43s WALL (     177 calls)
     mix_rho      :     14.93s CPU     15.00s WALL (     164 calls)
     energy_dftd3 :      2.86s CPU      2.85s WALL (      14 calls)

     Called by c_bands:
     init_us_2    :    259.49s CPU    259.51s WALL (    1424 calls)
     init_us_2:cp :    259.48s CPU    259.50s WALL (    1424 calls)
     cegterg      :  50424.18s CPU  50754.44s WALL (     672 calls)

     Called by *egterg:
     cdiaghg      :   3425.13s CPU   3435.96s WALL (    8731 calls)
     h_psi        :  26911.30s CPU  27009.02s WALL (    8843 calls)
     s_psi        :   5513.37s CPU   5514.06s WALL (    8843 calls)
     g_psi        :     59.00s CPU     58.89s WALL (    8167 calls)

     Called by h_psi:
     h_psi:calbec :   5444.29s CPU   5445.35s WALL (    8843 calls)
     vloc_psi     :  15843.40s CPU  15883.26s WALL (    8843 calls)
     add_vuspsi   :   5554.00s CPU   5555.34s WALL (    8843 calls)

     General routines
     calbec       :   7749.42s CPU   7751.02s WALL (    9775 calls)
     fft          :     60.00s CPU     61.45s WALL (    2285 calls)
     ffts         :      2.86s CPU      2.92s WALL (     328 calls)
     fftw         :  12636.27s CPU  12666.47s WALL ( 3555750 calls)
     interpolate  :      6.53s CPU      6.60s WALL (     164 calls)
 
     Parallel routines
 
     PWSCF        :     16h22m CPU     16h34m WALL

 
   This run was terminated on:   8:12:59   2Sep2023            

=------------------------------------------------------------------------------=
   JOB DONE.
=------------------------------------------------------------------------------=
Application 11120369 resources: utime ~2121730s, stime ~26868s, Rss ~2357424, inblocks ~0, outblocks ~35672560
