
     Program PWSCF v.7.2 starts on  3Nov2023 at 21: 3:18 

     This program is part of the open-source Quantum ESPRESSO suite
     for quantum simulation of materials; please cite
         "P. Giannozzi et al., J. Phys.:Condens. Matter 21 395502 (2009);
         "P. Giannozzi et al., J. Phys.:Condens. Matter 29 465901 (2017);
         "P. Giannozzi et al., J. Chem. Phys. 152 154105 (2020);
          URL http://www.quantum-espresso.org", 
     in publications or presentations arising from this work. More details at
     http://www.quantum-espresso.org/quote

     Parallel version (MPI), running on    36 processors

     MPI processes distributed on     1 nodes
     769393 MiB available memory on the printing compute node when the environment starts
 
     Waiting for input...
     Reading input from standard input
Warning: card &CELL ignored
Warning: card / ignored

     Current dimensions of program PWSCF are:
     Max number of different atomic species (ntypx) = 10
     Max number of k-points (npk) =  40000
     Max angular momentum in pseudopotentials (lmaxx) =  4
     file Mo.pbe-spn-kjpaw_psl.1.0.0.UPF: wavefunction(s)  4S 4D renormalized
     file S.pbe-n-kjpaw_psl.1.0.0.UPF: wavefunction(s)  3S 3P renormalized
     file Pd.pbe-spn-kjpaw_psl.1.0.0.UPF: wavefunction(s)  4S 5S 4D renormalized
 
     R & G space division:  proc/nbgrp/npool/nimage =      36
     Subspace diagonalization in iterative solution of the eigenvalue problem:
     one sub-group per band group will be used
     custom distributed-memory algorithm (size of sub-group:  6*  6 procs)

 
     Parallelization info
     --------------------
     sticks:   dense  smooth     PW     G-vecs:    dense   smooth      PW
     Min         585     334     89               198743    85850   11735
     Max         586     335     90               198750    85861   11748
     Sum       21073   12049   3205              7154885  3090769  422587
 
     Using Slab Decomposition
 


     bravais-lattice index     =            0
     lattice parameter (alat)  =      23.8199  a.u.
     unit-cell volume          =   33861.0370 (a.u.)^3
     number of atoms/cell      =          195
     number of atomic types    =            3
     number of electrons       =      1718.00
     number of Kohn-Sham states=         1031
     kinetic-energy cutoff     =      77.0000  Ry
     charge density cutoff     =     539.0000  Ry
     scf convergence threshold =      1.0E-06
     mixing beta               =       0.2000
     number of iterations used =            8  plain     mixing
     energy convergence thresh.=      1.0E-04
     force convergence thresh. =      1.0E-03
     Exchange-correlation= SLA  PW   PBX  PBC
                           (   1   4   3   4   0   0   0)
     nstep                     =         1000


     Effective Screening Medium Method
     =================================
     Boundary Conditions: Vacuum-Slab-Vacuum
     total charge in unit cell        =   0.0000
     grid points for fit at edges     =        4 
 

     celldm(1)=  23.819920  celldm(2)=   0.000000  celldm(3)=   0.000000
     celldm(4)=   0.000000  celldm(5)=   0.000000  celldm(6)=   0.000000

     crystal axes: (cart. coord. in units of alat)
               a(1) = (   1.000000   0.000000   0.000000 )  
               a(2) = (  -0.499999   0.866026   0.000000 )  
               a(3) = (   0.000000   0.000000   2.893000 )  

     reciprocal axes: (cart. coord. in units 2 pi/alat)
               b(1) = (  1.000000  0.577349  0.000000 )  
               b(2) = (  0.000000  1.154700  0.000000 )  
               b(3) = (  0.000000  0.000000  0.345662 )  


     PseudoPot. # 1 for Mo read from file:
     ./pseudo/Mo.pbe-spn-kjpaw_psl.1.0.0.UPF
     MD5 check sum: 317bf72632116215fd98f72de1686f13
     Pseudo is Projector augmented-wave + core cor, Zval = 14.0
     Generated using 'atomic' code by A. Dal Corso  v.7.2
     Shape of augmentation charge: PSQ
     Using radial grid of 1229 points,  6 beta functions with: 
                l(1) =   0
                l(2) =   0
                l(3) =   1
                l(4) =   1
                l(5) =   2
                l(6) =   2
     Q(r) pseudized with 0 coefficients 


     PseudoPot. # 2 for S  read from file:
     ./pseudo/S.pbe-n-kjpaw_psl.1.0.0.UPF
     MD5 check sum: 8b7b5302570d38d5e87fed6a1065abda
     Pseudo is Projector augmented-wave + core cor, Zval =  6.0
     Generated using 'atomic' code by A. Dal Corso  v.7.2
     Shape of augmentation charge: PSQ
     Using radial grid of 1151 points,  6 beta functions with: 
                l(1) =   0
                l(2) =   0
                l(3) =   1
                l(4) =   1
                l(5) =   2
                l(6) =   2
     Q(r) pseudized with 0 coefficients 


     PseudoPot. # 3 for Pd read from file:
     ./pseudo/Pd.pbe-spn-kjpaw_psl.1.0.0.UPF
     MD5 check sum: a60571a671f2502b8a6a4569d20a6edb
     Pseudo is Projector augmented-wave + core cor, Zval = 18.0
     Generated using 'atomic' code by A. Dal Corso  v.7.2
     Shape of augmentation charge: PSQ
     Using radial grid of 1235 points,  6 beta functions with: 
                l(1) =   0
                l(2) =   0
                l(3) =   1
                l(4) =   1
                l(5) =   2
                l(6) =   2
     Q(r) pseudized with 0 coefficients 


     atomic species   valence    mass     pseudopotential
        Mo            14.00    95.95000     Mo( 1.00)
        S              6.00    32.06000     S ( 1.00)
        Pd            18.00   106.42000     Pd( 1.00)

     No symmetry found



   Cartesian axes

     site n.     atom                  positions (alat units)
         1           Mo  tau(   1) = (   0.0000010   0.1443372  -0.7272732  )
         2           Mo  tau(   2) = (   0.1249995   0.0721706  -0.2424038  )
         3           S   tau(   3) = (   0.0000015   0.1443386  -0.3667807  )
         4           S   tau(   4) = (   0.1250010   0.0721682  -0.6030489  )
         5           S   tau(   5) = (   0.1250010   0.0721683  -0.8514963  )
         6           S   tau(   6) = (   0.0000015   0.1443389  -0.1180260  )
         7           Mo  tau(   7) = (   0.0000222   0.1444187   0.2425595  )
         8           Mo  tau(   8) = (   0.1245966   0.0727010   0.7278826  )
         9           S   tau(   9) = (   0.0000166   0.1448419   0.6020343  )
        10           S   tau(  10) = (   0.1250561   0.0722903   0.3669179  )
        11           S   tau(  11) = (   0.1250140   0.0722444   0.1181576  )
        12           S   tau(  12) = (  -0.0013476   0.1442175   0.8515296  )
        13           Mo  tau(  13) = (  -0.1249989   0.3608437  -0.7272732  )
        14           Mo  tau(  14) = (   0.0000030   0.2886752  -0.2424042  )
        15           S   tau(  15) = (  -0.1249977   0.3608450  -0.3667802  )
        16           S   tau(  16) = (   0.0000012   0.2886747  -0.6030489  )
        17           S   tau(  17) = (   0.0000012   0.2886748  -0.8514963  )
        18           S   tau(  18) = (  -0.1249977   0.3608454  -0.1180274  )
        19           Mo  tau(  19) = (  -0.1249777   0.3609089   0.2425603  )
        20           Mo  tau(  20) = (  -0.0029637   0.2882853   0.7270120  )
        21           S   tau(  21) = (  -0.1256983   0.3625185   0.6019747  )
        22           S   tau(  22) = (   0.0000591   0.2887797   0.3669668  )
        23           S   tau(  23) = (   0.0000075   0.2887346   0.1181682  )
        24           S   tau(  24) = (  -0.1270233   0.3617098   0.8514678  )
        25           Mo  tau(  25) = (  -0.2499987   0.5773502  -0.7272732  )
        26           Mo  tau(  26) = (  -0.1249977   0.5051839  -0.2424055  )
        27           S   tau(  27) = (  -0.2499981   0.5773518  -0.3667809  )
        28           S   tau(  28) = (  -0.1249986   0.5051812  -0.6030489  )
        29           S   tau(  29) = (  -0.1249986   0.5051813  -0.8514963  )
        30           S   tau(  30) = (  -0.2499979   0.5773512  -0.1180266  )
        31           Mo  tau(  31) = (  -0.2499821   0.5774144   0.2425369  )
        32           Mo  tau(  32) = (  -0.1258229   0.5064885   0.7278520  )
        33           S   tau(  33) = (  -0.2493952   0.5788088   0.6023234  )
        34           S   tau(  34) = (  -0.1249462   0.5052707   0.3669162  )
        35           S   tau(  35) = (  -0.1249880   0.5052329   0.1181602  )
        36           S   tau(  36) = (  -0.2509230   0.5788413   0.8515814  )
        37           Mo  tau(  37) = (  -0.3749985   0.7938567  -0.7272732  )
        38           Mo  tau(  38) = (  -0.2500001   0.7216874  -0.2424031  )
        39           S   tau(  39) = (  -0.3749980   0.7938584  -0.3667800  )
        40           S   tau(  40) = (  -0.2499984   0.7216877  -0.6030489  )
        41           S   tau(  41) = (  -0.2499984   0.7216878  -0.8514963  )
        42           S   tau(  42) = (  -0.3749982   0.7938585  -0.1180264  )
        43           Mo  tau(  43) = (  -0.3749910   0.7939458   0.2425394  )
        44           Mo  tau(  44) = (  -0.2499391   0.7230231   0.7269923  )
        45           S   tau(  45) = (  -0.3746478   0.7955125   0.6023635  )
        46           S   tau(  46) = (  -0.2500018   0.7217675   0.3668983  )
        47           S   tau(  47) = (  -0.2499845   0.7217593   0.1181709  )
        48           S   tau(  48) = (  -0.3753625   0.7942039   0.8516391  )
        49           Mo  tau(  49) = (   0.2500010   0.1443372  -0.7272732  )
        50           Mo  tau(  50) = (   0.3750034   0.0721723  -0.2424032  )
        51           S   tau(  51) = (   0.2500017   0.1443391  -0.3667788  )
        52           S   tau(  52) = (   0.3750010   0.0721682  -0.6030489  )
        53           S   tau(  53) = (   0.3750010   0.0721683  -0.8514963  )
        54           S   tau(  54) = (   0.2500016   0.1443391  -0.1180271  )
        55           Mo  tau(  55) = (   0.2500120   0.1444423   0.2425270  )
        56           Mo  tau(  56) = (   0.3753385   0.0727176   0.7280385  )
        57           S   tau(  57) = (   0.2501061   0.1471948   0.6059873  )
        58           S   tau(  58) = (   0.3749665   0.0722824   0.3669588  )
        59           S   tau(  59) = (   0.3750194   0.0722259   0.1181828  )
        60           S   tau(  60) = (   0.2503224   0.1381707   0.8567863  )
        61           Mo  tau(  61) = (   0.1250012   0.3608437  -0.7272732  )
        62           Mo  tau(  62) = (   0.2500029   0.2886782  -0.2424031  )
        63           S   tau(  63) = (   0.1250024   0.3608455  -0.3667794  )
        64           S   tau(  64) = (   0.2500012   0.2886747  -0.6030489  )
        65           S   tau(  65) = (   0.2500012   0.2886748  -0.8514963  )
        66           S   tau(  66) = (   0.1250021   0.3608455  -0.1180270  )
        67           Mo  tau(  67) = (   0.1250146   0.3609220   0.2425310  )
        68           Mo  tau(  68) = (   0.2504060   0.2889449   0.7322230  )
        69           S   tau(  69) = (   0.1260377   0.3627995   0.6088284  )
        70           S   tau(  70) = (   0.2499668   0.2887692   0.3669710  )
        71           S   tau(  71) = (   0.2500114   0.2887581   0.1181457  )
        72           S   tau(  72) = (   0.1159817   0.3569446   0.8558923  )
        73           Mo  tau(  73) = (   0.0000014   0.5773502  -0.7272732  )
        74           Mo  tau(  74) = (   0.1250045   0.5051840  -0.2424036  )
        75           S   tau(  75) = (   0.0000030   0.5773520  -0.3667799  )
        76           S   tau(  76) = (   0.1250014   0.5051812  -0.6030489  )
        77           S   tau(  77) = (   0.1250014   0.5051813  -0.8514963  )
        78           S   tau(  78) = (   0.0000026   0.5773517  -0.1180274  )
        79           Mo  tau(  79) = (   0.0000277   0.5774027   0.2425352  )
        80           Mo  tau(  80) = (   0.1244123   0.5073284   0.7323387  )
        81           S   tau(  81) = (   0.0015839   0.5778224   0.6060731  )
        82           S   tau(  82) = (   0.1249885   0.5052105   0.3669878  )
        83           S   tau(  83) = (   0.1250163   0.5052440   0.1181546  )
        84           S   tau(  84) = (  -0.0063306   0.5826378   0.8568465  )
        85           Mo  tau(  85) = (  -0.1249984   0.7938567  -0.7272732  )
        86           Mo  tau(  86) = (   0.0000069   0.7216896  -0.2424039  )
        87           S   tau(  87) = (  -0.1249975   0.7938582  -0.3667782  )
        88           S   tau(  88) = (   0.0000016   0.7216877  -0.6030489  )
        89           S   tau(  89) = (   0.0000016   0.7216878  -0.8514963  )
        90           S   tau(  90) = (  -0.1249973   0.7938582  -0.1180279  )
        91           Mo  tau(  91) = (  -0.1249896   0.7939312   0.2425787  )
        92           Mo  tau(  92) = (  -0.0004661   0.7235602   0.7280479  )
        93           S   tau(  93) = (  -0.1246539   0.7952907   0.6028036  )
        94           S   tau(  94) = (   0.0000057   0.7217075   0.3669682  )
        95           S   tau(  95) = (  -0.0000058   0.7217536   0.1181837  )
        96           S   tau(  96) = (  -0.1254262   0.7948489   0.8523899  )
        97           Mo  tau(  97) = (   0.5000010   0.1443372  -0.7272732  )
        98           Mo  tau(  98) = (   0.6250001   0.0721662  -0.2424040  )
        99           S   tau(  99) = (   0.5000017   0.1443386  -0.3667801  )
       100           S   tau( 100) = (   0.6250010   0.0721682  -0.6030489  )
       101           S   tau( 101) = (   0.6250010   0.0721683  -0.8514963  )
       102           S   tau( 102) = (   0.5000020   0.1443388  -0.1180261  )
       103           Mo  tau( 103) = (   0.4999896   0.1444085   0.2425760  )
       104           Mo  tau( 104) = (   0.6249106   0.0734024   0.7271439  )
       105           S   tau( 105) = (   0.4997403   0.1454705   0.6028629  )
       106           S   tau( 106) = (   0.6250025   0.0722337   0.3669107  )
       107           S   tau( 107) = (   0.6249747   0.0722025   0.1181744  )
       108           S   tau( 108) = (   0.5004717   0.1456393   0.8518204  )
       109           Mo  tau( 109) = (   0.3750012   0.3608437  -0.7272732  )
       110           Mo  tau( 110) = (   0.4999991   0.2886761  -0.2424038  )
       111           S   tau( 111) = (   0.3750012   0.3608452  -0.3667804  )
       112           S   tau( 112) = (   0.5000012   0.2886747  -0.6030489  )
       113           S   tau( 113) = (   0.5000012   0.2886748  -0.8514963  )
       114           S   tau( 114) = (   0.3750014   0.3608455  -0.1180261  )
       115           Mo  tau( 115) = (   0.3749750   0.3609148   0.2425684  )
       116           Mo  tau( 116) = (   0.5011524   0.2898551   0.7275448  )
       117           S   tau( 117) = (   0.3735446   0.3613798   0.6062215  )
       118           S   tau( 118) = (   0.4999580   0.2887676   0.3669508  )
       119           S   tau( 119) = (   0.4999841   0.2887256   0.1181818  )
       120           S   tau( 120) = (   0.3822446   0.3659056   0.8554316  )
       121           Mo  tau( 121) = (   0.2500014   0.5773502  -0.7272732  )
       122           Mo  tau( 122) = (   0.3749983   0.5051825  -0.2424043  )
       123           S   tau( 123) = (   0.2500017   0.5773519  -0.3667810  )
       124           S   tau( 124) = (   0.3750014   0.5051812  -0.6030489  )
       125           S   tau( 125) = (   0.3750014   0.5051813  -0.8514963  )
       126           S   tau( 126) = (   0.2500018   0.5773519  -0.1180256  )
       127           Mo  tau( 127) = (   0.2499849   0.5773839   0.2425825  )
       128           Mo  tau( 128) = (   0.3768766   0.5074715   0.7281761  )
       129           S   tau( 129) = (   0.2486635   0.5776965   0.6062935  )
       130           S   tau( 130) = (   0.3749671   0.5052274   0.3670086  )
       131           S   tau( 131) = (   0.3749970   0.5052445   0.1181960  )
       132           S   tau( 132) = (   0.2571816   0.5830870   0.8554758  )
       133           Mo  tau( 133) = (   0.1250016   0.7938567  -0.7272732  )
       134           Mo  tau( 134) = (   0.2499995   0.7216883  -0.2424036  )
       135           S   tau( 135) = (   0.1250024   0.7938578  -0.3667813  )
       136           S   tau( 136) = (   0.2500016   0.7216877  -0.6030489  )
       137           S   tau( 137) = (   0.2500016   0.7216878  -0.8514963  )
       138           S   tau( 138) = (   0.1250024   0.7938579  -0.1180253  )
       139           Mo  tau( 139) = (   0.1249925   0.7938982   0.2425783  )
       140           Mo  tau( 140) = (   0.2504874   0.7240318   0.7276005  )
       141           S   tau( 141) = (   0.1247502   0.7949264   0.6029133  )
       142           S   tau( 142) = (   0.2499928   0.7217086   0.3669584  )
       143           S   tau( 143) = (   0.2499817   0.7217168   0.1181890  )
       144           S   tau( 144) = (   0.1251679   0.7955203   0.8518202  )
       145           Mo  tau( 145) = (   0.7500010   0.1443372  -0.7272732  )
       146           Mo  tau( 146) = (   0.8750038   0.0721696  -0.2424038  )
       147           S   tau( 147) = (   0.7500016   0.1443382  -0.3667789  )
       148           S   tau( 148) = (   0.8750010   0.0721682  -0.6030489  )
       149           S   tau( 149) = (   0.8750010   0.0721683  -0.8514963  )
       150           S   tau( 150) = (   0.7500016   0.1443384  -0.1180279  )
       151           Mo  tau( 151) = (   0.7499969   0.1443861   0.2425090  )
       152           Mo  tau( 152) = (   0.8747528   0.0730779   0.7263799  )
       153           S   tau( 153) = (   0.7495020   0.1453181   0.6020842  )
       154           S   tau( 154) = (   0.8749912   0.0722441   0.3668818  )
       155           S   tau( 155) = (   0.8750227   0.0722127   0.1181591  )
       156           S   tau( 156) = (   0.7499182   0.1456588   0.8509527  )
       157           Mo  tau( 157) = (   0.6250012   0.3608437  -0.7272732  )
       158           Mo  tau( 158) = (   0.7500028   0.2886769  -0.2424041  )
       159           S   tau( 159) = (   0.6250015   0.3608451  -0.3667792  )
       160           S   tau( 160) = (   0.7500012   0.2886747  -0.6030489  )
       161           S   tau( 161) = (   0.7500012   0.2886748  -0.8514963  )
       162           S   tau( 162) = (   0.6250016   0.3608454  -0.1180280  )
       163           Mo  tau( 163) = (   0.6249910   0.3608952   0.2425431  )
       164           Mo  tau( 164) = (   0.7494837   0.2899696   0.7262894  )
       165           S   tau( 165) = (   0.6246231   0.3621365   0.6018551  )
       166           S   tau( 166) = (   0.7500034   0.2887135   0.3668814  )
       167           S   tau( 167) = (   0.7500079   0.2887338   0.1181595  )
       168           S   tau( 168) = (   0.6260048   0.3625460   0.8512927  )
       169           Mo  tau( 169) = (   0.5000014   0.5773502  -0.7272732  )
       170           Mo  tau( 170) = (   0.6250029   0.5051841  -0.2424047  )
       171           S   tau( 171) = (   0.5000014   0.5773518  -0.3667794  )
       172           S   tau( 172) = (   0.6250014   0.5051812  -0.6030489  )
       173           S   tau( 173) = (   0.6250014   0.5051813  -0.8514963  )
       174           S   tau( 174) = (   0.5000016   0.5773516  -0.1180277  )
       175           Mo  tau( 175) = (   0.4999891   0.5774067   0.2425764  )
       176           Mo  tau( 176) = (   0.6253058   0.5066864   0.7263366  )
       177           S   tau( 177) = (   0.5001147   0.5786992   0.6018768  )
       178           S   tau( 178) = (   0.6250219   0.5052389   0.3668960  )
       179           S   tau( 179) = (   0.6249897   0.5052360   0.1181749  )
       180           S   tau( 180) = (   0.5022411   0.5798745   0.8515808  )
       181           Mo  tau( 181) = (   0.3750016   0.7938567  -0.7272732  )
       182           Mo  tau( 182) = (   0.5000025   0.7216901  -0.2424039  )
       183           S   tau( 183) = (   0.3750019   0.7938578  -0.3667793  )
       184           S   tau( 184) = (   0.5000016   0.7216877  -0.6030489  )
       185           S   tau( 185) = (   0.5000016   0.7216878  -0.8514963  )
       186           S   tau( 186) = (   0.3750020   0.7938579  -0.1180272  )
       187           Mo  tau( 187) = (   0.3749890   0.7939067   0.2425443  )
       188           Mo  tau( 188) = (   0.5002702   0.7230996   0.7264112  )
       189           S   tau( 189) = (   0.3747820   0.7948530   0.6019718  )
       190           S   tau( 190) = (   0.5000014   0.7217825   0.3669010  )
       191           S   tau( 191) = (   0.5000049   0.7217309   0.1181759  )
       192           S   tau( 192) = (   0.3757788   0.7958654   0.8513800  )
       193           Pd  tau( 193) = (   0.1298567   0.5028633   0.9631584  )
       194           Pd  tau( 194) = (   0.2489715   0.2959876   0.9631435  )
       195           Pd  tau( 195) = (   0.3769152   0.5074987   0.9731620  )

     --------------------------------------------
     DFT-D3 Dispersion Correction (3-body terms):
     --------------------------------------------
       Reference C6 values for interpolation: 

         atom   Coordination number   C6
         S          0.000           268.01
         S          0.995           261.99
         S          1.990           251.62
         Mo         0.000          1691.79
         Mo         1.942          1004.01
         Mo        11.056           674.22
         Pd         0.000          1217.01
         Pd         1.863           573.90
         Pd         5.710           531.75

       Values used:

         atom   Coordination number  R0_AB[au]  C6      C8
         Mo        10.208            3.547    674.22  77634.20
         Mo        10.221            3.547    674.22  77634.20
         S          3.858            3.128    251.62  12327.25
         S          3.859            3.128    251.62  12327.25
         S          3.758            3.128    251.62  12327.25
         S          3.859            3.128    251.62  12327.25
         Mo        10.220            3.547    674.22  77634.20
         Mo        10.221            3.547    674.22  77634.20
         S          3.841            3.128    251.62  12327.25
         S          3.858            3.128    251.62  12327.25
         S          3.858            3.128    251.62  12327.25
         S          3.815            3.128    251.62  12327.25
         Mo        10.208            3.547    674.22  77634.20
         Mo        10.221            3.547    674.22  77634.20
         S          3.858            3.128    251.62  12327.25
         S          3.859            3.128    251.62  12327.25
         S          3.758            3.128    251.62  12327.25
         S          3.859            3.128    251.62  12327.25
         Mo        10.220            3.547    674.22  77634.20
         Mo        10.181            3.547    674.22  77634.20
         S          3.842            3.128    251.62  12327.25
         S          3.854            3.128    251.62  12327.25
         S          3.858            3.128    251.62  12327.25
         S          3.816            3.128    251.62  12327.25
         Mo        10.208            3.547    674.22  77634.20
         Mo        10.221            3.547    674.22  77634.20
         S          3.858            3.128    251.62  12327.25
         S          3.859            3.128    251.62  12327.25
         S          3.758            3.128    251.62  12327.25
         S          3.859            3.128    251.62  12327.25
         Mo        10.219            3.547    674.22  77634.20
         Mo        10.223            3.547    674.22  77634.20
         S          3.850            3.128    251.62  12327.25
         S          3.858            3.128    251.62  12327.25
         S          3.858            3.128    251.62  12327.25
         S          3.817            3.128    251.62  12327.25
         Mo        10.208            3.547    674.22  77634.20
         Mo        10.220            3.547    674.22  77634.20
         S          3.858            3.128    251.62  12327.25
         S          3.859            3.128    251.62  12327.25
         S          3.758            3.128    251.62  12327.25
         S          3.859            3.128    251.62  12327.25
         Mo        10.219            3.547    674.22  77634.20
         Mo        10.251            3.547    674.22  77634.20
         S          3.851            3.128    251.62  12327.25
         S          3.860            3.128    251.62  12327.25
         S          3.859            3.128    251.62  12327.25
         S          3.815            3.128    251.62  12327.25
         Mo        10.208            3.547    674.22  77634.20
         Mo        10.221            3.547    674.22  77634.20
         S          3.858            3.128    251.62  12327.25
         S          3.859            3.128    251.62  12327.25
         S          3.758            3.128    251.62  12327.25
         S          3.859            3.128    251.62  12327.25
         Mo        10.221            3.547    674.22  77634.20
         Mo        10.228            3.547    674.22  77634.20
         S          3.853            3.128    251.62  12327.25
         S          3.856            3.128    251.62  12327.25
         S          3.859            3.128    251.62  12327.25
         S          4.644            3.128    251.62  12327.25
         Mo        10.208            3.547    674.22  77634.20
         Mo        10.221            3.547    674.22  77634.20
         S          3.858            3.128    251.62  12327.25
         S          3.859            3.128    251.62  12327.25
         S          3.758            3.128    251.62  12327.25
         S          3.859            3.128    251.62  12327.25
         Mo        10.222            3.547    674.22  77634.20
         Mo        10.791            3.547    674.22  77634.20
         S          3.878            3.128    251.62  12327.25
         S          3.850            3.128    251.62  12327.25
         S          3.859            3.128    251.62  12327.25
         S          5.613            3.128    251.62  12327.25
         Mo        10.208            3.547    674.22  77634.20
         Mo        10.221            3.547    674.22  77634.20
         S          3.858            3.128    251.62  12327.25
         S          3.859            3.128    251.62  12327.25
         S          3.758            3.128    251.62  12327.25
         S          3.859            3.128    251.62  12327.25
         Mo        10.221            3.547    674.22  77634.20
         Mo        10.792            3.547    674.22  77634.20
         S          3.854            3.128    251.62  12327.25
         S          3.849            3.128    251.62  12327.25
         S          3.859            3.128    251.62  12327.25
         S          4.645            3.128    251.62  12327.25
         Mo        10.208            3.547    674.22  77634.20
         Mo        10.221            3.547    674.22  77634.20
         S          3.858            3.128    251.62  12327.25
         S          3.859            3.128    251.62  12327.25
         S          3.758            3.128    251.62  12327.25
         S          3.859            3.128    251.62  12327.25
         Mo        10.220            3.547    674.22  77634.20
         Mo        10.229            3.547    674.22  77634.20
         S          3.847            3.128    251.62  12327.25
         S          3.855            3.128    251.62  12327.25
         S          3.859            3.128    251.62  12327.25
         S          3.827            3.128    251.62  12327.25
         Mo        10.208            3.547    674.22  77634.20
         Mo        10.221            3.547    674.22  77634.20
         S          3.858            3.128    251.62  12327.25
         S          3.859            3.128    251.62  12327.25
         S          3.758            3.128    251.62  12327.25
         S          3.859            3.128    251.62  12327.25
         Mo        10.221            3.547    674.22  77634.20
         Mo        10.243            3.547    674.22  77634.20
         S          3.860            3.128    251.62  12327.25
         S          3.860            3.128    251.62  12327.25
         S          3.859            3.128    251.62  12327.25
         S          3.766            3.128    251.62  12327.25
         Mo        10.208            3.547    674.21  77634.20
         Mo        10.221            3.547    674.22  77634.20
         S          3.858            3.128    251.62  12327.25
         S          3.859            3.128    251.62  12327.25
         S          3.758            3.128    251.62  12327.25
         S          3.859            3.128    251.62  12327.25
         Mo        10.222            3.547    674.22  77634.20
         Mo        10.224            3.547    674.22  77634.20
         S          3.863            3.128    251.62  12327.25
         S          3.856            3.128    251.62  12327.25
         S          3.859            3.128    251.62  12327.25
         S          5.631            3.128    251.62  12327.25
         Mo        10.208            3.547    674.22  77634.20
         Mo        10.221            3.547    674.22  77634.20
         S          3.858            3.128    251.62  12327.25
         S          3.859            3.128    251.62  12327.25
         S          3.758            3.128    251.62  12327.25
         S          3.859            3.128    251.62  12327.25
         Mo        10.222            3.547    674.22  77634.20
         Mo        10.683            3.547    674.22  77634.20
         S          3.864            3.128    251.62  12327.25
         S          3.852            3.128    251.62  12327.25
         S          3.859            3.128    251.62  12327.25
         S          5.632            3.128    251.62  12327.25
         Mo        10.208            3.547    674.22  77634.20
         Mo        10.221            3.547    674.22  77634.20
         S          3.858            3.128    251.62  12327.25
         S          3.859            3.128    251.62  12327.25
         S          3.758            3.128    251.62  12327.25
         S          3.859            3.128    251.62  12327.25
         Mo        10.221            3.547    674.22  77634.20
         Mo        10.223            3.547    674.22  77634.20
         S          3.860            3.128    251.62  12327.25
         S          3.856            3.128    251.62  12327.25
         S          3.859            3.128    251.62  12327.25
         S          3.766            3.128    251.62  12327.25
         Mo        10.208            3.547    674.22  77634.20
         Mo        10.221            3.547    674.22  77634.20
         S          3.858            3.128    251.62  12327.25
         S          3.859            3.128    251.62  12327.25
         S          3.758            3.128    251.62  12327.25
         S          3.859            3.128    251.62  12327.25
         Mo        10.220            3.547    674.22  77634.20
         Mo        10.267            3.547    674.22  77634.20
         S          3.858            3.128    251.62  12327.25
         S          3.861            3.128    251.62  12327.25
         S          3.858            3.128    251.62  12327.25
         S          3.781            3.128    251.62  12327.25
         Mo        10.208            3.547    674.22  77634.20
         Mo        10.220            3.547    674.22  77634.20
         S          3.858            3.128    251.62  12327.25
         S          3.859            3.128    251.62  12327.25
         S          3.758            3.128    251.62  12327.25
         S          3.859            3.128    251.62  12327.25
         Mo        10.220            3.547    674.22  77634.20
         Mo        10.268            3.547    674.22  77634.20
         S          3.850            3.128    251.62  12327.25
         S          3.862            3.128    251.62  12327.25
         S          3.858            3.128    251.62  12327.25
         S          3.822            3.128    251.62  12327.25
         Mo        10.208            3.547    674.22  77634.20
         Mo        10.221            3.547    674.22  77634.20
         S          3.858            3.128    251.62  12327.25
         S          3.859            3.128    251.62  12327.25
         S          3.758            3.128    251.62  12327.25
         S          3.859            3.128    251.62  12327.25
         Mo        10.220            3.547    674.22  77634.20
         Mo        10.271            3.547    674.22  77634.20
         S          3.839            3.128    251.62  12327.25
         S          3.861            3.128    251.62  12327.25
         S          3.859            3.128    251.62  12327.25
         S          4.784            3.128    251.62  12327.25
         Mo        10.208            3.547    674.22  77634.20
         Mo        10.221            3.547    674.22  77634.20
         S          3.858            3.128    251.62  12327.25
         S          3.859            3.128    251.62  12327.25
         S          3.758            3.128    251.62  12327.25
         S          3.859            3.128    251.62  12327.25
         Mo        10.220            3.547    674.22  77634.20
         Mo        10.270            3.547    674.22  77634.20
         S          3.851            3.128    251.62  12327.25
         S          3.861            3.128    251.62  12327.25
         S          3.859            3.128    251.62  12327.25
         S          3.822            3.128    251.62  12327.25
         Pd         4.274            3.168    531.75  48720.73
         Pd         4.272            3.168    531.75  48720.73
         Pd         3.926            3.168    532.29  48770.37

         Molecular C6 ( Ry / a.u.^6 ) =  14127990.14


     number of k points=     4  Gaussian smearing, width (Ry)=  0.0100
                       cart. coord. in units 2pi/alat
        k(    1) = (   0.0000000   0.0000000   0.0000000), wk =   0.5000000
        k(    2) = (   0.0000000  -0.5773499   0.0000000), wk =   0.5000000
        k(    3) = (  -0.5000000  -0.2886744   0.0000000), wk =   0.5000000
        k(    4) = (  -0.5000000  -0.8660242   0.0000000), wk =   0.5000000

     Dense  grid:  7154885 G-vectors     FFT dimensions: ( 180, 180, 512)

     Smooth grid:  3090769 G-vectors     FFT dimensions: ( 135, 135, 400)

     Estimated max dynamical RAM per process >       3.20 GB

     Estimated total dynamical RAM >     115.19 GB

     Initial potential from superposition of free atoms

     starting charge    1717.9383, renormalised to    1718.0000

     negative rho (up, down):  1.154E-03 0.000E+00
     Starting wfcs are 1182 randomized atomic wfcs
     Checking if some PAW data can be deallocated... 

     total cpu time spent up to now is      203.8 secs

     Self-consistent Calculation

     iteration #  1     ecut=    77.00 Ry     beta= 0.20
     Davidson diagonalization with overlap
     ethr =  1.00E-02,  avg # of iterations =  2.0

     Threshold (ethr) on eigenvalues was too large:
     Diagonalizing with lowered threshold

     Davidson diagonalization with overlap
     ethr =  2.29E-04,  avg # of iterations = 16.2

     negative rho (up, down):  3.332E-04 0.000E+00

     total cpu time spent up to now is     2241.2 secs

     total energy              =  -33329.29557841 Ry
     estimated scf accuracy    <       6.22082398 Ry

     iteration #  2     ecut=    77.00 Ry     beta= 0.20
     Davidson diagonalization with overlap
     ethr =  3.62E-04,  avg # of iterations =  9.0

     negative rho (up, down):  7.830E-05 0.000E+00

     total cpu time spent up to now is     2738.3 secs

     total energy              =  -33328.67741803 Ry
     estimated scf accuracy    <       3.04901960 Ry

     iteration #  3     ecut=    77.00 Ry     beta= 0.20
     Davidson diagonalization with overlap
     ethr =  1.77E-04,  avg # of iterations =  9.8

     negative rho (up, down):  2.075E-05 0.000E+00

     total cpu time spent up to now is     3242.3 secs

     total energy              =  -33328.44721565 Ry
     estimated scf accuracy    <       1.46796874 Ry

     iteration #  4     ecut=    77.00 Ry     beta= 0.20
     Davidson diagonalization with overlap
     c_bands:  1 eigenvalues not converged
     c_bands:  1 eigenvalues not converged
     c_bands:  1 eigenvalues not converged
     ethr =  8.54E-05,  avg # of iterations = 19.0

     negative rho (up, down):  2.292E-05 0.000E+00

     total cpu time spent up to now is     4138.4 secs

     total energy              =  -33329.05793226 Ry
     estimated scf accuracy    <       0.54174523 Ry

     iteration #  5     ecut=    77.00 Ry     beta= 0.20
     Davidson diagonalization with overlap
     ethr =  3.15E-05,  avg # of iterations = 12.2

     negative rho (up, down):  3.133E-05 0.000E+00

     total cpu time spent up to now is     5030.4 secs

     total energy              =  -33329.41295438 Ry
     estimated scf accuracy    <       0.17013357 Ry

     iteration #  6     ecut=    77.00 Ry     beta= 0.20
     Davidson diagonalization with overlap
     c_bands:  4 eigenvalues not converged
     ethr =  9.90E-06,  avg # of iterations = 17.8

     negative rho (up, down):  6.676E-05 0.000E+00

     total cpu time spent up to now is     6307.7 secs

     total energy              =  -33329.54057755 Ry
     estimated scf accuracy    <       0.12115903 Ry

     iteration #  7     ecut=    77.00 Ry     beta= 0.20
     Davidson diagonalization with overlap
     c_bands:  1 eigenvalues not converged
     ethr =  7.05E-06,  avg # of iterations = 15.8

     negative rho (up, down):  6.164E-04 0.000E+00

     total cpu time spent up to now is     6861.8 secs

     total energy              =  -33329.52452804 Ry
     estimated scf accuracy    <       0.09001953 Ry

     iteration #  8     ecut=    77.00 Ry     beta= 0.20
     Davidson diagonalization with overlap
     ethr =  5.24E-06,  avg # of iterations = 16.8

     negative rho (up, down):  5.685E-04 0.000E+00

     total cpu time spent up to now is     7812.2 secs

     total energy              =  -33329.55140990 Ry
     estimated scf accuracy    <       0.10333506 Ry

     iteration #  9     ecut=    77.00 Ry     beta= 0.20
     Davidson diagonalization with overlap
     ethr =  5.24E-06,  avg # of iterations =  6.8

     negative rho (up, down):  4.694E-04 0.000E+00

     total cpu time spent up to now is     8291.6 secs

     total energy              =  -33329.55469223 Ry
     estimated scf accuracy    <       0.01119119 Ry

     iteration # 10     ecut=    77.00 Ry     beta= 0.20
     Davidson diagonalization with overlap
     c_bands:  5 eigenvalues not converged
     ethr =  6.51E-07,  avg # of iterations = 41.5

     negative rho (up, down):  5.440E-04 0.000E+00

     total cpu time spent up to now is    11011.0 secs

     total energy              =  -33329.58096136 Ry
     estimated scf accuracy    <       0.01452610 Ry

     iteration # 11     ecut=    77.00 Ry     beta= 0.20
     Davidson diagonalization with overlap
     ethr =  6.51E-07,  avg # of iterations =  3.5

     negative rho (up, down):  7.111E-04 0.000E+00

     total cpu time spent up to now is    11456.1 secs

     total energy              =  -33329.57737829 Ry
     estimated scf accuracy    <       0.00741813 Ry

     iteration # 12     ecut=    77.00 Ry     beta= 0.20
     Davidson diagonalization with overlap
     ethr =  4.32E-07,  avg # of iterations =  7.2

     negative rho (up, down):  8.341E-04 0.000E+00

     total cpu time spent up to now is    12046.9 secs

     total energy              =  -33329.57860611 Ry
     estimated scf accuracy    <       0.00094516 Ry

     iteration # 13     ecut=    77.00 Ry     beta= 0.20
     Davidson diagonalization with overlap
     c_bands:  3 eigenvalues not converged
     c_bands:  4 eigenvalues not converged
     ethr =  5.50E-08,  avg # of iterations = 20.2

     negative rho (up, down):  7.905E-04 0.000E+00

     total cpu time spent up to now is    14124.3 secs

     total energy              =  -33329.58141078 Ry
     estimated scf accuracy    <       0.00145119 Ry

     iteration # 14     ecut=    77.00 Ry     beta= 0.20
     Davidson diagonalization with overlap
     c_bands:  4 eigenvalues not converged
     ethr =  5.50E-08,  avg # of iterations = 21.5

     negative rho (up, down):  7.985E-04 0.000E+00

     total cpu time spent up to now is    14961.0 secs

     total energy              =  -33329.58118242 Ry
     estimated scf accuracy    <       0.00057060 Ry

     iteration # 15     ecut=    77.00 Ry     beta= 0.20
     Davidson diagonalization with overlap
     c_bands:  4 eigenvalues not converged
     c_bands:  1 eigenvalues not converged
     ethr =  3.32E-08,  avg # of iterations = 16.0

     negative rho (up, down):  9.148E-04 0.000E+00

     total cpu time spent up to now is    15892.1 secs

     total energy              =  -33329.58148824 Ry
     estimated scf accuracy    <       0.00024587 Ry

     iteration # 16     ecut=    77.00 Ry     beta= 0.20
     Davidson diagonalization with overlap
     ethr =  1.43E-08,  avg # of iterations =  7.8

     negative rho (up, down):  9.672E-04 0.000E+00

     total cpu time spent up to now is    16470.6 secs

     total energy              =  -33329.58150551 Ry
     estimated scf accuracy    <       0.00003455 Ry

     iteration # 17     ecut=    77.00 Ry     beta= 0.20
     Davidson diagonalization with overlap
     c_bands:  4 eigenvalues not converged
     ethr =  2.01E-09,  avg # of iterations = 30.8

     negative rho (up, down):  9.770E-04 0.000E+00

     total cpu time spent up to now is    18908.9 secs

     total energy              =  -33329.58161041 Ry
     estimated scf accuracy    <       0.00006838 Ry

     iteration # 18     ecut=    77.00 Ry     beta= 0.20
     Davidson diagonalization with overlap
     c_bands:  5 eigenvalues not converged
     ethr =  2.01E-09,  avg # of iterations = 11.5

     negative rho (up, down):  9.772E-04 0.000E+00

     total cpu time spent up to now is    19503.7 secs

     total energy              =  -33329.58158872 Ry
     estimated scf accuracy    <       0.00006337 Ry

     iteration # 19     ecut=    77.00 Ry     beta= 0.20
     Davidson diagonalization with overlap
     ethr =  2.01E-09,  avg # of iterations =  1.8

     negative rho (up, down):  9.818E-04 0.000E+00

     total cpu time spent up to now is    19952.4 secs

     total energy              =  -33329.58157336 Ry
     estimated scf accuracy    <       0.00003049 Ry

     iteration # 20     ecut=    77.00 Ry     beta= 0.20
     Davidson diagonalization with overlap
     ethr =  1.77E-09,  avg # of iterations =  5.8

     negative rho (up, down):  9.859E-04 0.000E+00

     total cpu time spent up to now is    20448.2 secs

     total energy              =  -33329.58156856 Ry
     estimated scf accuracy    <       0.00000883 Ry

     iteration # 21     ecut=    77.00 Ry     beta= 0.20
     Davidson diagonalization with overlap
     ethr =  5.14E-10,  avg # of iterations = 19.0

     negative rho (up, down):  9.854E-04 0.000E+00

     total cpu time spent up to now is    22430.3 secs

     total energy              =  -33329.58159422 Ry
     estimated scf accuracy    <       0.00001708 Ry

     iteration # 22     ecut=    77.00 Ry     beta= 0.20
     Davidson diagonalization with overlap
     ethr =  5.14E-10,  avg # of iterations =  1.0

     negative rho (up, down):  9.882E-04 0.000E+00

     total cpu time spent up to now is    22848.0 secs

     total energy              =  -33329.58158892 Ry
     estimated scf accuracy    <       0.00001624 Ry

     iteration # 23     ecut=    77.00 Ry     beta= 0.20
     Davidson diagonalization with overlap
     ethr =  5.14E-10,  avg # of iterations =  1.0

     negative rho (up, down):  9.898E-04 0.000E+00

     total cpu time spent up to now is    23266.0 secs

     total energy              =  -33329.58158467 Ry
     estimated scf accuracy    <       0.00001027 Ry

     iteration # 24     ecut=    77.00 Ry     beta= 0.20
     Davidson diagonalization with overlap
     ethr =  5.14E-10,  avg # of iterations =  2.2

     negative rho (up, down):  9.883E-04 0.000E+00

     total cpu time spent up to now is    23709.0 secs

     total energy              =  -33329.58158464 Ry
     estimated scf accuracy    <       0.00000485 Ry

     iteration # 25     ecut=    77.00 Ry     beta= 0.20
     Davidson diagonalization with overlap
     ethr =  2.83E-10,  avg # of iterations =  5.5

     negative rho (up, down):  9.896E-04 0.000E+00

     total cpu time spent up to now is    24294.9 secs

     total energy              =  -33329.58158484 Ry
     estimated scf accuracy    <       0.00000171 Ry

     iteration # 26     ecut=    77.00 Ry     beta= 0.20
     Davidson diagonalization with overlap
     c_bands:  1 eigenvalues not converged
     ethr =  9.95E-11,  avg # of iterations = 13.8

     negative rho (up, down):  9.892E-04 0.000E+00

     total cpu time spent up to now is    25217.6 secs

     End of self-consistent calculation

          k = 0.0000 0.0000 0.0000 (386245 PWs)   bands (ev):

   -88.7792 -88.7755 -88.5743 -66.5881 -66.5881 -66.5868 -66.5807 -66.5671
   -66.5669 -66.5669 -66.5669 -66.5668 -66.5668 -66.5668 -66.5668 -66.5668
   -66.5668 -66.5666 -66.5664 -66.5655 -66.5655 -66.5655 -66.5655 -66.5655
   -66.5655 -66.5654 -66.5622 -66.5621 -66.5466 -66.5458 -66.5456 -66.5455
   -66.5455 -66.5455 -66.5455 -66.5455 -66.5455 -66.5454 -66.5454 -66.5454
   -66.5454 -66.5454 -66.5454 -66.5454 -66.5452 -66.5451 -66.5448 -66.5445
   -66.5441 -66.5441 -66.5441 -66.5441 -66.5441 -66.5441 -66.5441 -66.5441
   -66.5441 -66.5422 -66.5381 -66.5347 -66.5277 -66.5265 -66.5192 -66.5191
   -66.5135 -66.5112 -66.4948 -54.6199 -54.6055 -54.5729 -54.5586 -54.5477
   -54.5223 -54.3875 -54.3832 -54.3479 -40.9156 -40.9156 -40.9156 -40.9155
   -40.9154 -40.9153 -40.9149 -40.9149 -40.9149 -40.9026 -40.8966 -40.8944
   -40.8403 -40.8403 -40.8402 -40.8402 -40.8402 -40.8402 -40.8402 -40.8402
   -40.8402 -40.8400 -40.8400 -40.8399 -40.8396 -40.8396 -40.8395 -40.8395
   -40.8395 -40.8395 -40.8281 -40.8254 -40.8194 -40.8125 -40.8103 -40.8063
   -40.7505 -40.7478 -40.7478 -40.7472 -40.7207 -40.7140 -40.7139 -40.7139
   -40.7139 -40.7139 -40.7139 -40.7139 -40.7139 -40.7139 -40.7137 -40.7136
   -40.7135 -40.7131 -40.7131 -40.7131 -40.7131 -40.7131 -40.7131 -40.7106
   -40.7102 -40.7080 -40.7065 -40.7065 -40.7062 -40.7062 -40.7061 -40.7061
   -40.7061 -40.7061 -40.7061 -40.7061 -40.7060 -40.7060 -40.7057 -40.7055
   -40.7055 -40.7055 -40.7055 -40.7054 -40.7054 -40.7036 -40.7018 -40.6996
   -40.6995 -40.6849 -40.6849 -40.6789 -40.6789 -40.6789 -40.6789 -40.6789
   -40.6789 -40.6789 -40.6788 -40.6788 -40.6786 -40.6786 -40.6785 -40.6780
   -40.6780 -40.6780 -40.6780 -40.6780 -40.6780 -40.6736 -40.6735 -40.6706
   -40.6693 -40.6681 -40.6658 -40.6646 -40.6644 -40.6642 -40.6642 -40.6642
   -40.6642 -40.6642 -40.6642 -40.6641 -40.6641 -40.6641 -40.6641 -40.6641
   -40.6641 -40.6640 -40.6640 -40.6639 -40.6635 -40.6635 -40.6635 -40.6635
   -40.6634 -40.6634 -40.6634 -40.6634 -40.6634 -40.6634 -40.6628 -40.6627
   -40.6591 -40.6582 -40.6554 -40.6532 -40.6519 -40.6458 -40.6440 -40.6382
   -40.6005 -40.6005 -40.6005 -40.6005 -40.6004 -40.6003 -40.5996 -40.5996
   -40.5996 -40.5829 -40.5804 -40.5784 -40.5535 -40.5534 -40.5534 -40.5534
   -40.5534 -40.5534 -40.5534 -40.5534 -40.5534 -40.5532 -40.5531 -40.5530
   -40.5524 -40.5524 -40.5524 -40.5524 -40.5524 -40.5524 -40.5320 -40.5309
   -40.5288 -40.5245 -40.5234 -40.5201 -40.5058 -40.5058 -40.5057 -40.5057
   -40.5048 -40.5048 -40.4750 -40.4739 -20.1645 -20.0634 -19.9608 -19.8532
   -19.4893 -19.4435 -19.3446 -19.2194 -19.2191 -19.2147 -19.2005 -19.1999
   -19.1982 -19.1697 -19.1696 -19.1596 -19.1127 -19.1117 -19.1088 -19.0865
   -19.0864 -19.0773 -19.0084 -19.0078 -19.0063 -18.9980 -18.9980 -18.9948
   -18.8792 -18.7674 -18.6974 -18.6821 -18.6184 -18.5444 -18.4954 -18.4817
   -18.4619 -18.4398 -18.4166 -18.4166 -18.3928 -18.3779 -18.3748 -18.3462
   -18.3103 -18.3067 -18.2640 -18.2473 -18.2463 -18.2342 -18.2113 -18.2067
   -18.1792 -18.1493 -18.1484 -18.1464 -18.1385 -18.1369 -18.1332 -18.0895
   -18.0894 -18.0848 -18.0845 -18.0831 -18.0829 -18.0698 -18.0671 -18.0523
   -18.0516 -18.0466 -18.0454 -18.0409 -18.0404 -18.0397 -18.0318 -18.0285
   -18.0146 -18.0132 -18.0130 -18.0076 -18.0024 -17.9950 -17.9929 -17.9809
   -17.9799 -17.9700 -17.9698 -17.9682 -17.9641 -17.9562 -17.9513 -17.9502
   -17.9196 -17.9170 -17.9166 -17.8965 -17.8962 -17.8845 -17.8839 -17.8820
   -17.8814 -17.8620 -17.8579 -17.8567 -17.8437 -17.8430 -17.8358 -17.8350
   -17.8342 -17.8278 -17.8238 -17.8206 -17.8203 -17.8053 -17.8046 -17.8043
   -17.7936 -17.7930 -17.7896 -17.7883 -17.7875 -17.7830 -17.7612 -17.7611
   -17.7599 -17.7596 -17.7593 -17.7572 -12.0214 -11.9920 -11.9678 -11.9279
   -11.7742 -11.7618 -11.7600 -11.7472 -11.6444 -11.6401 -11.6400 -11.5265
   -11.5236 -11.5214 -11.4688 -11.4092 -11.4046 -11.3077 -11.2959 -11.2173
   -11.2090 -11.2058 -11.2020 -11.2002 -11.1961 -11.1305 -11.1166 -11.1105
   -11.1035 -11.0962 -11.0915 -11.0900 -11.0896 -11.0794 -11.0760 -11.0727
   -11.0387 -11.0369 -11.0277 -11.0218 -11.0168 -11.0127 -11.0116 -11.0056
   -10.9948 -10.9919 -10.9438 -10.9412 -10.9266 -10.9204 -10.9087 -10.9065
   -10.8829 -10.8828 -10.8735 -10.8619 -10.8609 -10.8551 -10.8485 -10.8413
   -10.8403 -10.8382 -10.8135 -10.8130 -10.8083 -10.7992 -10.7978 -10.7943
   -10.7935 -10.7920 -10.7909 -10.7794 -10.7780 -10.7730 -10.7719 -10.7689
   -10.7456 -10.7447 -10.7438 -10.7427 -10.7387 -10.7366 -10.7356 -10.7274
   -10.7270 -10.7019 -10.7018 -10.7011 -10.7010 -10.6998 -10.6992 -10.6350
   -10.6310 -10.6302 -10.5818 -10.5761 -10.5740 -10.5620 -10.5528 -10.5430
   -10.5146 -10.4840 -10.3932 -10.1531 -10.1440 -10.1036 -10.1005 -10.0927
    -9.9315  -9.9222  -9.9079  -9.8726  -9.7922  -9.7843  -9.7839  -9.7711
    -9.7682  -9.7590  -9.7425  -9.7389  -9.7365  -9.7343  -9.7328  -9.7285
    -9.7278  -9.7265  -9.7152  -9.7137  -9.7124  -9.7110  -9.7018  -9.6991
    -9.6790  -9.6600  -9.6380  -9.6103  -9.6003  -9.5999  -9.5952  -9.5927
    -9.5868  -9.5823  -9.5821  -9.5806  -9.5802  -9.5792  -9.5748  -9.5735
    -9.5388  -9.5382  -9.5293  -9.5139  -9.5056  -9.5056  -9.5054  -9.5051
    -9.5049  -9.5046  -9.5014  -9.4849  -9.4735  -9.4685  -9.4654  -9.4475
    -9.4392  -9.4360  -9.4101  -9.3387  -9.3376  -9.3292  -9.3269  -9.3207
    -9.3184  -9.3173  -9.3083  -9.3045  -9.2965  -9.2905  -9.2704  -9.2370
    -9.2287  -9.2248  -9.2146  -9.1979  -9.1966  -9.1855  -9.1671  -9.1500
    -9.1495  -9.1487  -9.1448  -9.1436  -9.1435  -9.1015  -9.1000  -9.0884
    -9.0688  -9.0614  -9.0479  -9.0437  -8.9722  -8.9665  -8.9496  -8.9466
    -8.9432  -8.9422  -8.9297  -8.9251  -8.9114  -8.9111  -8.9059  -8.8812
    -8.8809  -8.8809  -8.8788  -8.8650  -8.8610  -8.8579  -8.8566  -8.8539
    -8.7858  -8.7852  -8.7851  -8.7849  -8.7848  -8.7842  -8.7258  -8.7204
    -8.7163  -8.7146  -8.7127  -8.7035  -8.6733  -8.6459  -8.6408  -8.6334
    -8.6328  -8.6285  -8.6265  -8.5872  -8.5814  -8.5577  -8.5571  -8.5557
    -8.5555  -8.5480  -8.5436  -8.3959  -8.3816  -8.3642  -8.3610  -8.3522
    -8.3304  -8.3303  -8.3254  -8.3251  -8.3192  -8.3188  -8.3124  -8.3001
    -8.2463  -8.2419  -8.2403  -8.2393  -8.2393  -8.2391  -8.2308  -8.2239
    -8.2170  -8.2123  -8.2123  -8.2118  -8.2062  -8.2037  -8.1976  -8.1845
    -8.1844  -8.1842  -8.1828  -8.1820  -8.1816  -7.9719  -7.9386  -7.9168
    -7.8254  -7.8237  -7.8193  -7.7547  -7.7505  -7.7272  -7.7159  -7.6922
    -7.6896  -7.6806  -7.6755  -7.6408  -7.6125  -7.6099  -7.6019  -7.5972
    -7.5881  -7.5829  -7.5746  -7.5670  -7.5664  -7.5468  -7.5443  -7.5099
    -7.5043  -7.4985  -7.4985  -7.4978  -7.4977  -7.4975  -7.4867  -7.4803
    -7.4727  -7.4724  -7.4709  -7.4709  -7.4706  -7.4628  -7.4623  -7.4575
    -7.4468  -7.4462  -7.4461  -7.4458  -7.4457  -7.4432  -7.4272  -7.4193
    -7.4036  -7.3951  -7.3911  -7.3863  -7.3847  -7.3785  -7.3648  -7.3388
    -7.3360  -7.3347  -7.3130  -7.3075  -7.3018  -7.2903  -7.2844  -7.2703
    -7.2669  -7.2662  -7.2565  -7.2549  -7.2511  -7.2424  -7.2364  -7.2187
    -7.2141  -7.2139  -7.1955  -7.1955  -7.1774  -7.1774  -7.1598  -7.1271
    -7.1085  -7.1070  -7.0722  -7.0694  -7.0651  -6.9615  -6.9239  -6.9049
    -6.8794  -6.8741  -6.8386  -6.8287  -6.8169  -6.7901  -6.7839  -6.7617
    -6.7439  -6.7420  -6.7419  -6.6909  -6.6695  -6.6631  -6.6616  -6.6611
    -6.6365  -6.6346  -6.5917  -6.5891  -6.5863  -6.5849  -6.5842  -6.5659
    -6.5360  -6.5337  -6.5314  -6.5153  -6.5144  -6.4976  -6.4915  -6.4789
    -6.4778  -6.4773  -6.4767  -6.4759  -6.4719  -6.4701  -6.4683  -6.4663
    -6.4612  -6.4611  -6.4610  -6.4609  -6.4609  -6.4598  -6.4370  -6.4360
    -6.4229  -6.4044  -6.4015  -6.3819  -6.3741  -6.3737  -6.3648  -6.3607
    -6.3425  -6.3231  -6.3022  -6.3011  -6.2953  -6.2947  -6.2935  -6.2927
    -6.2775  -6.2745  -6.2621  -6.2574  -6.2547  -6.2516  -6.2447  -6.2421
    -6.2390  -6.2239  -6.2173  -6.2158  -6.2144  -6.2141  -6.2134  -6.2058
    -6.1688  -5.9936  -5.7451  -5.6753  -5.6188  -5.5332  -5.5094  -5.3567
    -5.3341  -5.2707  -5.1142  -4.0529  -3.8812  -3.8445  -3.8142  -3.8133
    -3.8109  -3.7957  -3.7928  -3.7926  -3.7912  -3.7851  -3.7849  -3.7587
    -3.7272  -3.7084  -3.6654  -3.6583  -3.6514  -3.6483  -3.6462  -3.6428
    -3.6413  -3.6391  -3.6366  -3.5309  -3.5100  -3.4998  -3.4834  -3.4730
    -3.4597  -3.4597  -3.4445  -3.4426  -3.4381  -3.4353  -3.4342  -3.4328
    -3.4291  -3.4271  -3.4197  -3.4155  -3.4111  -3.4057  -3.4055  -3.4052
    -3.3929  -3.3910  -3.3899  -3.3855  -3.3823  -3.3767  -3.3724  -3.3700
    -3.3678  -3.3638  -3.3612  -3.3596  -3.3525  -3.3499  -3.3481  -3.3154
    -3.3147  -3.3144  -3.3130  -3.3098  -3.3084  -3.3022  -3.2971  -3.2943
    -3.2820  -3.2726  -3.2690  -3.2561  -3.2491  -3.2463  -3.2420  -3.2336
    -3.2226  -3.2216  -3.2049  -3.1850  -3.1673  -3.1646  -3.1591  -3.0782
    -3.0331  -3.0312  -3.0243  -3.0224  -3.0222  -3.0144  -3.0113  -3.0103
    -3.0045  -2.9706  -2.9676  -2.9610  -2.9434  -2.9399  -2.9391  -2.9346
    -2.9340  -2.9321  -2.9320  -2.9258  -2.9255  -2.9242  -2.9192  -2.9181
    -2.9133  -2.9130  -2.9030  -2.8992  -2.8981  -2.8973  -2.8934  -2.8907
    -2.8906  -2.8898  -2.8894  -2.8881  -2.8859  -2.8822  -2.8527  -2.8503
    -2.8423  -2.8356  -2.8337  -2.8176  -2.8140  -2.7962  -2.7688  -2.7683
    -2.7682  -2.7661  -2.7661  -2.7659  -2.7655  -2.7654  -2.7649  -2.7543
    -2.7496  -2.7470  -2.7218  -2.7199  -2.6981  -2.6937  -2.6908  -2.6837
    -2.6799  -2.6299  -2.6293  -2.6008  -2.6001  -2.5963  -2.5926  -2.5852
    -2.5848  -2.5789  -2.5782  -2.5560  -2.5294  -2.5256  -2.5071  -2.5002
    -2.4972  -2.3938  -2.3815  -2.3791  -2.3718  -2.3687  -2.3685

          k = 0.0000-0.5773 0.0000 (386352 PWs)   bands (ev):

   -88.7792 -88.7755 -88.5743 -66.5819 -66.5819 -66.5819 -66.5817 -66.5806
   -66.5806 -66.5791 -66.5713 -66.5713 -66.5712 -66.5712 -66.5701 -66.5700
   -66.5700 -66.5630 -66.5581 -66.5563 -66.5562 -66.5562 -66.5562 -66.5562
   -66.5562 -66.5560 -66.5559 -66.5548 -66.5548 -66.5548 -66.5548 -66.5518
   -66.5517 -66.5517 -66.5515 -66.5504 -66.5504 -66.5478 -66.5455 -66.5455
   -66.5455 -66.5454 -66.5454 -66.5454 -66.5454 -66.5453 -66.5450 -66.5441
   -66.5441 -66.5441 -66.5441 -66.5410 -66.5410 -66.5409 -66.5409 -66.5397
   -66.5397 -66.5396 -66.5384 -66.5332 -66.5311 -66.5241 -66.5210 -66.5184
   -66.5139 -66.5109 -66.4948 -54.6199 -54.6055 -54.5729 -54.5586 -54.5477
   -54.5223 -54.3875 -54.3832 -54.3479 -40.8839 -40.8839 -40.8839 -40.8839
   -40.8839 -40.8838 -40.8838 -40.8836 -40.8833 -40.8833 -40.8833 -40.8833
   -40.8810 -40.8687 -40.8575 -40.8571 -40.8571 -40.8571 -40.8569 -40.8564
   -40.8564 -40.8545 -40.8485 -40.8451 -40.8451 -40.8449 -40.8449 -40.8444
   -40.8444 -40.8418 -40.8245 -40.8026 -40.7944 -40.7944 -40.7944 -40.7944
   -40.7942 -40.7942 -40.7942 -40.7942 -40.7936 -40.7936 -40.7936 -40.7936
   -40.7768 -40.7687 -40.7662 -40.7592 -40.7403 -40.7366 -40.7357 -40.7356
   -40.7356 -40.7354 -40.7350 -40.7350 -40.7261 -40.7261 -40.7260 -40.7259
   -40.7252 -40.7252 -40.7216 -40.7148 -40.7148 -40.7148 -40.7147 -40.7147
   -40.7141 -40.7141 -40.7024 -40.6970 -40.6956 -40.6920 -40.6897 -40.6852
   -40.6852 -40.6852 -40.6852 -40.6852 -40.6852 -40.6850 -40.6850 -40.6845
   -40.6845 -40.6845 -40.6845 -40.6805 -40.6776 -40.6765 -40.6765 -40.6764
   -40.6763 -40.6757 -40.6757 -40.6724 -40.6673 -40.6646 -40.6646 -40.6645
   -40.6644 -40.6643 -40.6642 -40.6642 -40.6642 -40.6641 -40.6641 -40.6641
   -40.6641 -40.6637 -40.6637 -40.6637 -40.6634 -40.6634 -40.6634 -40.6634
   -40.6609 -40.6592 -40.6555 -40.6555 -40.6554 -40.6554 -40.6547 -40.6547
   -40.6547 -40.6490 -40.6462 -40.6396 -40.6337 -40.6337 -40.6337 -40.6337
   -40.6337 -40.6336 -40.6335 -40.6333 -40.6327 -40.6327 -40.6327 -40.6327
   -40.6169 -40.6156 -40.6125 -40.6083 -40.5989 -40.5989 -40.5989 -40.5989
   -40.5988 -40.5988 -40.5988 -40.5988 -40.5980 -40.5980 -40.5980 -40.5980
   -40.5868 -40.5868 -40.5867 -40.5866 -40.5858 -40.5858 -40.5773 -40.5759
   -40.5745 -40.5683 -40.5675 -40.5674 -40.5674 -40.5672 -40.5665 -40.5665
   -40.5652 -40.5505 -40.5505 -40.5504 -40.5503 -40.5497 -40.5495 -40.5495
   -40.5474 -40.5390 -40.5232 -40.5198 -40.5198 -40.5197 -40.5196 -40.5188
   -40.5188 -40.5118 -40.4996 -40.4822 -20.0255 -19.8585 -19.8311 -19.8041
   -19.7320 -19.7104 -19.6221 -19.6141 -19.5247 -19.4502 -19.3938 -19.3868
   -19.3009 -19.2939 -19.1958 -19.1928 -19.0328 -18.9466 -18.9365 -18.7484
   -18.7389 -18.7344 -18.6874 -18.6862 -18.6856 -18.6798 -18.6590 -18.6335
   -18.6189 -18.6174 -18.6092 -18.6059 -18.5647 -18.5452 -18.5430 -18.5207
   -18.5190 -18.5112 -18.5035 -18.4930 -18.4803 -18.4523 -18.4483 -18.4404
   -18.4330 -18.4032 -18.3777 -18.3739 -18.3668 -18.3616 -18.3522 -18.3447
   -18.3058 -18.2996 -18.2910 -18.2820 -18.2236 -18.2189 -18.2116 -18.1977
   -18.1769 -18.1653 -18.1528 -18.1316 -18.1224 -18.0984 -18.0868 -18.0762
   -18.0654 -18.0639 -18.0621 -18.0614 -18.0483 -18.0389 -18.0355 -18.0340
   -18.0315 -18.0290 -18.0265 -18.0180 -18.0137 -18.0071 -18.0028 -17.9937
   -17.9756 -17.9732 -17.9674 -17.9650 -17.9647 -17.9606 -17.9594 -17.9532
   -17.9512 -17.9418 -17.9182 -17.9080 -17.9013 -17.8978 -17.8920 -17.8846
   -17.8577 -17.8551 -17.8465 -17.8387 -17.8249 -17.8177 -17.8083 -17.8064
   -17.8008 -17.7993 -17.7825 -17.7822 -17.7814 -17.7812 -17.7801 -17.7794
   -17.7668 -17.7664 -17.7471 -17.7454 -17.7239 -17.7218 -17.7055 -17.7024
   -17.6906 -17.6889 -17.6825 -17.6823 -11.9043 -11.8687 -11.7620 -11.6872
   -11.6842 -11.5620 -11.5376 -11.4947 -11.4752 -11.4721 -11.4619 -11.4614
   -11.4478 -11.4333 -11.4185 -11.4048 -11.3756 -11.3597 -11.3543 -11.3375
   -11.3236 -11.3078 -11.3040 -11.2961 -11.2689 -11.2557 -11.2485 -11.2380
   -11.2291 -11.2259 -11.2226 -11.2210 -11.2151 -11.2135 -11.1904 -11.1688
   -11.1653 -11.1592 -11.1565 -11.1361 -11.1319 -11.1298 -11.1227 -11.1103
   -11.1091 -11.0889 -11.0780 -11.0643 -11.0435 -11.0386 -11.0315 -10.9937
   -10.9669 -10.9328 -10.9246 -10.9145 -10.8987 -10.8962 -10.8835 -10.8731
   -10.8540 -10.8498 -10.8283 -10.8138 -10.8021 -10.8016 -10.7939 -10.7823
   -10.7754 -10.7743 -10.7734 -10.7730 -10.7700 -10.7663 -10.7624 -10.7602
   -10.7556 -10.7552 -10.7492 -10.7464 -10.7442 -10.7425 -10.7095 -10.7067
   -10.7059 -10.7058 -10.6949 -10.6103 -10.5984 -10.5096 -10.5021 -10.4915
   -10.4852 -10.4526 -10.4247 -10.3615 -10.3325 -10.3055 -10.2342 -10.2046
   -10.1829 -10.1543 -10.1209 -10.1002 -10.0870 -10.0804 -10.0718 -10.0614
   -10.0319 -10.0203 -10.0128  -9.9989  -9.9968  -9.9930  -9.9907  -9.9836
    -9.9693  -9.9496  -9.9372  -9.9040  -9.8972  -9.8847  -9.8808  -9.8768
    -9.8580  -9.8558  -9.8489  -9.8389  -9.8194  -9.8154  -9.7879  -9.7819
    -9.7676  -9.7473  -9.7381  -9.7340  -9.7254  -9.7076  -9.6994  -9.6796
    -9.6639  -9.6501  -9.6266  -9.6212  -9.6009  -9.5964  -9.5860  -9.5775
    -9.5752  -9.5459  -9.5375  -9.5253  -9.5115  -9.5065  -9.5036  -9.4975
    -9.4619  -9.4549  -9.4535  -9.4496  -9.4378  -9.4324  -9.4314  -9.4225
    -9.4201  -9.4104  -9.3970  -9.3910  -9.3544  -9.3426  -9.3270  -9.3002
    -9.2952  -9.2683  -9.2454  -9.2344  -9.1883  -9.1807  -9.1749  -9.1711
    -9.1609  -9.1465  -9.1316  -9.1225  -9.1157  -9.0935  -9.0869  -9.0800
    -9.0743  -9.0648  -9.0384  -9.0157  -9.0140  -9.0072  -9.0059  -8.9932
    -8.9756  -8.9688  -8.9539  -8.9438  -8.9255  -8.9194  -8.9174  -8.9109
    -8.8982  -8.8784  -8.8732  -8.8642  -8.8537  -8.8533  -8.8518  -8.8489
    -8.8440  -8.8415  -8.8355  -8.8319  -8.8300  -8.8253  -8.8224  -8.8191
    -8.8143  -8.8029  -8.8026  -8.7979  -8.7951  -8.7787  -8.7566  -8.7558
    -8.7540  -8.7511  -8.7506  -8.7464  -8.7262  -8.7249  -8.7040  -8.6998
    -8.6961  -8.6946  -8.6925  -8.6877  -8.6710  -8.6307  -8.6213  -8.6141
    -8.6013  -8.5737  -8.4703  -8.4671  -8.4616  -8.4492  -8.4108  -8.4057
    -8.3890  -8.3445  -8.3328  -8.3204  -8.2879  -8.2495  -8.2431  -8.1905
    -8.1720  -8.1195  -8.0904  -8.0903  -8.0811  -8.0809  -8.0699  -8.0698
    -8.0451  -8.0326  -8.0274  -7.9677  -7.9375  -7.9338  -7.9287  -7.8935
    -7.8392  -7.8306  -7.8122  -7.8044  -7.8034  -7.8017  -7.7875  -7.7800
    -7.7766  -7.7747  -7.7685  -7.7663  -7.7627  -7.7578  -7.7575  -7.7559
    -7.7517  -7.7443  -7.7439  -7.7324  -7.7321  -7.7301  -7.7279  -7.7270
    -7.7265  -7.7217  -7.7212  -7.7201  -7.7106  -7.7086  -7.6991  -7.6934
    -7.6929  -7.6877  -7.6824  -7.6614  -7.6596  -7.6587  -7.6585  -7.6495
    -7.6292  -7.6292  -7.6282  -7.6273  -7.6176  -7.6145  -7.5990  -7.5892
    -7.5829  -7.5711  -7.5707  -7.5693  -7.5657  -7.5619  -7.5485  -7.5472
    -7.5450  -7.5269  -7.5267  -7.5244  -7.5223  -7.5136  -7.5105  -7.4880
    -7.4424  -7.4300  -7.4246  -7.4224  -7.4160  -7.4016  -7.3767  -7.3327
    -7.2917  -7.2412  -7.1973  -7.1867  -7.1429  -7.1345  -7.1289  -7.1282
    -7.1221  -7.0917  -7.0792  -7.0703  -7.0694  -7.0591  -7.0398  -7.0348
    -7.0028  -6.9925  -6.9883  -6.9861  -6.9812  -6.9461  -6.9420  -6.9391
    -6.9064  -6.9007  -6.8782  -6.8759  -6.8697  -6.8509  -6.8406  -6.8379
    -6.8228  -6.8222  -6.8211  -6.7979  -6.7875  -6.7600  -6.7464  -6.7296
    -6.7193  -6.6944  -6.6755  -6.6583  -6.6378  -6.6232  -6.6084  -6.5869
    -6.5814  -6.5712  -6.5693  -6.5682  -6.5669  -6.5555  -6.5523  -6.5505
    -6.5497  -6.5436  -6.5422  -6.5417  -6.5415  -6.5386  -6.5329  -6.5050
    -6.4880  -6.4721  -6.4318  -6.4170  -6.3860  -6.3833  -6.3720  -6.3207
    -6.2884  -6.2850  -6.2815  -6.2789  -6.2739  -6.2622  -6.2409  -6.2393
    -6.2383  -6.2358  -6.2349  -6.2347  -6.2228  -6.2177  -6.2136  -6.1891
    -6.1844  -6.1721  -6.1681  -6.1676  -6.1562  -6.1346  -6.1108  -6.0275
    -5.9531  -5.9480  -5.8960  -5.8812  -5.8788  -5.8466  -5.8223  -5.8149
    -5.7676  -5.6938  -5.6734  -5.6029  -5.5775  -5.5650  -5.5516  -5.4589
    -5.3958  -5.3668  -5.3651  -4.1270  -4.0617  -4.0533  -4.0505  -3.9995
    -3.9266  -3.8956  -3.8860  -3.8812  -3.8760  -3.8135  -3.8047  -3.8038
    -3.7924  -3.7912  -3.7766  -3.7749  -3.7648  -3.7608  -3.7583  -3.6956
    -3.6743  -3.6667  -3.6507  -3.6049  -3.5749  -3.5719  -3.5646  -3.5603
    -3.5584  -3.5150  -3.5121  -3.5114  -3.5001  -3.4839  -3.4813  -3.4801
    -3.4779  -3.4710  -3.4598  -3.4479  -3.4422  -3.4396  -3.4388  -3.4332
    -3.4252  -3.4192  -3.4086  -3.4042  -3.3962  -3.3895  -3.3802  -3.3789
    -3.3710  -3.3412  -3.3326  -3.3149  -3.3146  -3.3108  -3.3083  -3.3065
    -3.3017  -3.2998  -3.2792  -3.2658  -3.2595  -3.2458  -3.2445  -3.2426
    -3.2400  -3.2376  -3.2352  -3.2317  -3.2144  -3.2114  -3.1994  -3.1991
    -3.1920  -3.1903  -3.1809  -3.1766  -3.1719  -3.1698  -3.1648  -3.1551
    -3.1460  -3.1427  -3.1385  -3.1309  -3.1248  -3.1230  -3.1229  -3.1169
    -3.1060  -3.0748  -3.0622  -3.0516  -3.0390  -3.0376  -3.0338  -3.0249
    -3.0212  -2.9921  -2.9864  -2.9847  -2.9828  -2.9820  -2.9813  -2.9751
    -2.9726  -2.9704  -2.9687  -2.9647  -2.9583  -2.9527  -2.9515  -2.9497
    -2.9407  -2.9405  -2.9351  -2.9289  -2.9285  -2.9241  -2.9224  -2.9104
    -2.9084  -2.9054  -2.9024  -2.8937  -2.8911  -2.8863  -2.8766  -2.8660
    -2.8557  -2.8486  -2.8422  -2.8356  -2.8350  -2.8268  -2.8108  -2.7633
    -2.7548  -2.7516  -2.7468  -2.7060  -2.7031  -2.6853  -2.6775  -2.5766
    -2.5715  -2.5637  -2.5420  -2.5369  -2.5183  -2.5100  -2.5079  -2.5010
    -2.4905  -2.4876  -2.4866  -2.4852  -2.4804  -2.3987  -2.3755  -2.3631
    -2.3596  -2.3544  -2.3474  -2.3397  -2.3252  -2.3040  -2.3010

          k =-0.5000-0.2887 0.0000 (386352 PWs)   bands (ev):

   -88.7792 -88.7755 -88.5743 -66.5819 -66.5819 -66.5819 -66.5818 -66.5806
   -66.5806 -66.5793 -66.5713 -66.5713 -66.5712 -66.5712 -66.5700 -66.5700
   -66.5697 -66.5626 -66.5588 -66.5563 -66.5563 -66.5562 -66.5562 -66.5562
   -66.5561 -66.5559 -66.5559 -66.5548 -66.5548 -66.5548 -66.5548 -66.5517
   -66.5517 -66.5517 -66.5516 -66.5504 -66.5504 -66.5490 -66.5457 -66.5455
   -66.5455 -66.5455 -66.5454 -66.5454 -66.5451 -66.5451 -66.5441 -66.5441
   -66.5441 -66.5441 -66.5441 -66.5410 -66.5410 -66.5409 -66.5409 -66.5409
   -66.5397 -66.5397 -66.5359 -66.5335 -66.5309 -66.5264 -66.5193 -66.5185
   -66.5141 -66.5109 -66.4948 -54.6199 -54.6055 -54.5729 -54.5586 -54.5477
   -54.5223 -54.3875 -54.3832 -54.3479 -40.8841 -40.8840 -40.8840 -40.8839
   -40.8839 -40.8839 -40.8837 -40.8837 -40.8836 -40.8833 -40.8833 -40.8833
   -40.8833 -40.8693 -40.8606 -40.8571 -40.8571 -40.8571 -40.8569 -40.8565
   -40.8564 -40.8502 -40.8451 -40.8451 -40.8449 -40.8449 -40.8444 -40.8444
   -40.8444 -40.8393 -40.8234 -40.8059 -40.7944 -40.7944 -40.7944 -40.7944
   -40.7943 -40.7942 -40.7942 -40.7942 -40.7936 -40.7936 -40.7936 -40.7936
   -40.7747 -40.7718 -40.7654 -40.7626 -40.7399 -40.7373 -40.7357 -40.7357
   -40.7356 -40.7355 -40.7350 -40.7350 -40.7261 -40.7261 -40.7260 -40.7260
   -40.7252 -40.7252 -40.7192 -40.7161 -40.7148 -40.7148 -40.7147 -40.7147
   -40.7141 -40.7141 -40.7021 -40.6967 -40.6963 -40.6943 -40.6888 -40.6853
   -40.6853 -40.6852 -40.6852 -40.6852 -40.6852 -40.6849 -40.6849 -40.6845
   -40.6845 -40.6845 -40.6845 -40.6772 -40.6765 -40.6764 -40.6764 -40.6763
   -40.6760 -40.6758 -40.6757 -40.6746 -40.6702 -40.6646 -40.6646 -40.6645
   -40.6645 -40.6644 -40.6642 -40.6642 -40.6641 -40.6641 -40.6641 -40.6641
   -40.6640 -40.6637 -40.6637 -40.6637 -40.6634 -40.6634 -40.6634 -40.6634
   -40.6607 -40.6580 -40.6555 -40.6555 -40.6554 -40.6554 -40.6552 -40.6547
   -40.6547 -40.6492 -40.6452 -40.6401 -40.6337 -40.6337 -40.6337 -40.6337
   -40.6336 -40.6336 -40.6335 -40.6333 -40.6328 -40.6327 -40.6327 -40.6327
   -40.6173 -40.6168 -40.6102 -40.6048 -40.5989 -40.5989 -40.5989 -40.5989
   -40.5988 -40.5988 -40.5988 -40.5988 -40.5980 -40.5980 -40.5980 -40.5980
   -40.5868 -40.5867 -40.5867 -40.5865 -40.5858 -40.5858 -40.5802 -40.5743
   -40.5741 -40.5679 -40.5675 -40.5675 -40.5674 -40.5674 -40.5672 -40.5665
   -40.5665 -40.5505 -40.5505 -40.5503 -40.5503 -40.5495 -40.5495 -40.5492
   -40.5442 -40.5428 -40.5219 -40.5198 -40.5198 -40.5197 -40.5196 -40.5188
   -40.5188 -40.5126 -40.5016 -40.4806 -20.0161 -19.8723 -19.8310 -19.8143
   -19.7322 -19.7166 -19.6225 -19.6159 -19.4647 -19.4622 -19.3897 -19.3883
   -19.2964 -19.2946 -19.1936 -19.1928 -19.1234 -18.9162 -18.9129 -18.7489
   -18.7386 -18.7228 -18.6868 -18.6867 -18.6857 -18.6756 -18.6700 -18.6303
   -18.6205 -18.6180 -18.6091 -18.6030 -18.5688 -18.5505 -18.5410 -18.5205
   -18.5204 -18.5107 -18.5034 -18.4874 -18.4827 -18.4569 -18.4521 -18.4403
   -18.4332 -18.4043 -18.3753 -18.3746 -18.3669 -18.3624 -18.3473 -18.3425
   -18.3078 -18.2963 -18.2917 -18.2765 -18.2237 -18.2148 -18.2138 -18.1995
   -18.1740 -18.1651 -18.1512 -18.1301 -18.1263 -18.0978 -18.0854 -18.0757
   -18.0672 -18.0642 -18.0615 -18.0611 -18.0535 -18.0390 -18.0360 -18.0325
   -18.0320 -18.0296 -18.0254 -18.0172 -18.0125 -18.0061 -18.0055 -17.9954
   -17.9746 -17.9725 -17.9682 -17.9655 -17.9641 -17.9609 -17.9599 -17.9551
   -17.9502 -17.9419 -17.9181 -17.9071 -17.9021 -17.8980 -17.8939 -17.8868
   -17.8588 -17.8544 -17.8486 -17.8406 -17.8209 -17.8163 -17.8114 -17.8045
   -17.8013 -17.7971 -17.7831 -17.7822 -17.7815 -17.7809 -17.7803 -17.7792
   -17.7673 -17.7672 -17.7474 -17.7471 -17.7229 -17.7228 -17.7031 -17.7029
   -17.6889 -17.6887 -17.6822 -17.6822 -11.9016 -11.8211 -11.8017 -11.6883
   -11.6865 -11.5940 -11.5404 -11.5065 -11.4795 -11.4642 -11.4614 -11.4605
   -11.4496 -11.4390 -11.4239 -11.3816 -11.3798 -11.3527 -11.3525 -11.3437
   -11.3185 -11.3109 -11.3042 -11.2863 -11.2707 -11.2547 -11.2398 -11.2389
   -11.2305 -11.2273 -11.2224 -11.2184 -11.2152 -11.1960 -11.1925 -11.1696
   -11.1619 -11.1582 -11.1572 -11.1372 -11.1316 -11.1290 -11.1240 -11.1092
   -11.1092 -11.0873 -11.0711 -11.0680 -11.0472 -11.0331 -11.0266 -10.9927
   -10.9789 -10.9377 -10.9293 -10.9088 -10.8988 -10.8986 -10.8838 -10.8757
   -10.8575 -10.8541 -10.8324 -10.8127 -10.8028 -10.8021 -10.7951 -10.7810
   -10.7761 -10.7745 -10.7736 -10.7730 -10.7689 -10.7652 -10.7608 -10.7607
   -10.7559 -10.7551 -10.7504 -10.7470 -10.7439 -10.7431 -10.7212 -10.7066
   -10.7062 -10.7058 -10.7031 -10.5808 -10.5755 -10.5101 -10.5072 -10.4870
   -10.4737 -10.4603 -10.4256 -10.3679 -10.3455 -10.3176 -10.2463 -10.2180
   -10.1563 -10.1487 -10.1184 -10.1067 -10.0841 -10.0804 -10.0717 -10.0630
   -10.0247 -10.0164 -10.0156  -9.9973  -9.9972  -9.9917  -9.9890  -9.9836
    -9.9582  -9.9506  -9.9366  -9.9024  -9.9011  -9.8807  -9.8774  -9.8757
    -9.8693  -9.8565  -9.8536  -9.8457  -9.8213  -9.8107  -9.7882  -9.7817
    -9.7715  -9.7489  -9.7420  -9.7285  -9.7182  -9.7170  -9.6983  -9.6839
    -9.6633  -9.6451  -9.6304  -9.6253  -9.5975  -9.5898  -9.5837  -9.5789
    -9.5709  -9.5437  -9.5351  -9.5294  -9.5162  -9.5058  -9.5007  -9.5004
    -9.4637  -9.4553  -9.4536  -9.4466  -9.4381  -9.4310  -9.4307  -9.4225
    -9.4199  -9.4102  -9.3987  -9.3966  -9.3608  -9.3444  -9.3304  -9.2949
    -9.2788  -9.2763  -9.2469  -9.2357  -9.1953  -9.1800  -9.1727  -9.1661
    -9.1633  -9.1458  -9.1322  -9.1209  -9.1155  -9.0914  -9.0892  -9.0830
    -9.0705  -9.0663  -9.0372  -9.0168  -9.0153  -9.0062  -9.0027  -8.9962
    -8.9740  -8.9656  -8.9528  -8.9439  -8.9273  -8.9192  -8.9176  -8.9104
    -8.8984  -8.8764  -8.8657  -8.8617  -8.8544  -8.8528  -8.8498  -8.8481
    -8.8448  -8.8396  -8.8365  -8.8318  -8.8309  -8.8291  -8.8227  -8.8208
    -8.8123  -8.8029  -8.8024  -8.7973  -8.7941  -8.7883  -8.7565  -8.7558
    -8.7534  -8.7510  -8.7503  -8.7468  -8.7262  -8.7250  -8.7113  -8.7015
    -8.6960  -8.6942  -8.6895  -8.6864  -8.6679  -8.6276  -8.6220  -8.6092
    -8.6012  -8.5778  -8.4778  -8.4720  -8.4660  -8.4657  -8.4081  -8.4051
    -8.3752  -8.3571  -8.3268  -8.3190  -8.2711  -8.2552  -8.2411  -8.2169
    -8.1705  -8.1171  -8.0904  -8.0902  -8.0811  -8.0807  -8.0699  -8.0697
    -8.0481  -8.0305  -8.0197  -7.9766  -7.9333  -7.9316  -7.9286  -7.8838
    -7.8346  -7.8213  -7.8196  -7.8084  -7.8068  -7.8020  -7.7886  -7.7834
    -7.7798  -7.7762  -7.7685  -7.7636  -7.7624  -7.7574  -7.7545  -7.7516
    -7.7493  -7.7442  -7.7440  -7.7326  -7.7324  -7.7302  -7.7281  -7.7265
    -7.7260  -7.7232  -7.7216  -7.7204  -7.7106  -7.7083  -7.6998  -7.6935
    -7.6928  -7.6879  -7.6807  -7.6615  -7.6597  -7.6586  -7.6582  -7.6425
    -7.6295  -7.6290  -7.6283  -7.6276  -7.6168  -7.6147  -7.6006  -7.5967
    -7.5785  -7.5735  -7.5710  -7.5704  -7.5693  -7.5591  -7.5484  -7.5470
    -7.5445  -7.5296  -7.5268  -7.5263  -7.5226  -7.5138  -7.5095  -7.4963
    -7.4292  -7.4269  -7.4260  -7.4214  -7.4090  -7.4042  -7.3828  -7.3345
    -7.2795  -7.2352  -7.2000  -7.1683  -7.1481  -7.1322  -7.1288  -7.1286
    -7.1243  -7.0911  -7.0795  -7.0712  -7.0708  -7.0566  -7.0383  -7.0335
    -7.0009  -6.9905  -6.9895  -6.9798  -6.9780  -6.9483  -6.9439  -6.9390
    -6.9062  -6.9031  -6.8781  -6.8695  -6.8657  -6.8467  -6.8404  -6.8387
    -6.8277  -6.8232  -6.8217  -6.7988  -6.7888  -6.7587  -6.7526  -6.7301
    -6.7188  -6.7186  -6.7012  -6.6688  -6.6408  -6.6159  -6.6134  -6.5843
    -6.5830  -6.5698  -6.5693  -6.5680  -6.5669  -6.5530  -6.5523  -6.5503
    -6.5496  -6.5427  -6.5422  -6.5417  -6.5415  -6.5379  -6.5289  -6.4950
    -6.4876  -6.4671  -6.4400  -6.4334  -6.4052  -6.3712  -6.3681  -6.3164
    -6.2896  -6.2895  -6.2815  -6.2792  -6.2659  -6.2599  -6.2414  -6.2407
    -6.2387  -6.2355  -6.2346  -6.2306  -6.2211  -6.2172  -6.2110  -6.1915
    -6.1905  -6.1760  -6.1680  -6.1673  -6.1587  -6.1511  -6.0890  -5.9916
    -5.9531  -5.9454  -5.8979  -5.8796  -5.8791  -5.8557  -5.8213  -5.8145
    -5.7684  -5.6886  -5.6856  -5.6079  -5.5782  -5.5663  -5.5181  -5.4793
    -5.4078  -5.3664  -5.3577  -4.1221  -4.0581  -4.0544  -4.0520  -3.9947
    -3.9152  -3.9035  -3.8851  -3.8802  -3.8772  -3.8130  -3.8048  -3.8023
    -3.7915  -3.7904  -3.7756  -3.7747  -3.7634  -3.7609  -3.7580  -3.7022
    -3.6757  -3.6616  -3.6516  -3.6013  -3.5807  -3.5685  -3.5646  -3.5611
    -3.5606  -3.5162  -3.5116  -3.5052  -3.5017  -3.5006  -3.4844  -3.4795
    -3.4746  -3.4703  -3.4582  -3.4462  -3.4443  -3.4417  -3.4392  -3.4330
    -3.4250  -3.4208  -3.4114  -3.4077  -3.3942  -3.3869  -3.3824  -3.3791
    -3.3706  -3.3484  -3.3331  -3.3196  -3.3133  -3.3099  -3.3075  -3.3058
    -3.2990  -3.2980  -3.2824  -3.2661  -3.2580  -3.2441  -3.2433  -3.2408
    -3.2400  -3.2374  -3.2371  -3.2334  -3.2128  -3.2005  -3.2001  -3.1926
    -3.1894  -3.1884  -3.1874  -3.1835  -3.1722  -3.1715  -3.1642  -3.1568
    -3.1495  -3.1393  -3.1345  -3.1344  -3.1237  -3.1230  -3.1228  -3.1219
    -3.1140  -3.0745  -3.0616  -3.0504  -3.0432  -3.0411  -3.0334  -3.0274
    -3.0197  -2.9907  -2.9864  -2.9851  -2.9828  -2.9822  -2.9811  -2.9770
    -2.9740  -2.9723  -2.9671  -2.9659  -2.9568  -2.9568  -2.9513  -2.9471
    -2.9448  -2.9399  -2.9321  -2.9291  -2.9275  -2.9252  -2.9249  -2.9122
    -2.9084  -2.9067  -2.9031  -2.8976  -2.8924  -2.8895  -2.8694  -2.8633
    -2.8568  -2.8444  -2.8436  -2.8410  -2.8373  -2.8206  -2.8076  -2.7614
    -2.7539  -2.7505  -2.7469  -2.7140  -2.6892  -2.6831  -2.6783  -2.5807
    -2.5731  -2.5706  -2.5492  -2.5348  -2.5168  -2.5066  -2.5052  -2.4988
    -2.4957  -2.4896  -2.4875  -2.4865  -2.4781  -2.3952  -2.3715  -2.3629
    -2.3587  -2.3502  -2.3491  -2.3324  -2.3262  -2.3035  -2.3015

          k =-0.5000-0.8660 0.0000 (386352 PWs)   bands (ev):

   -88.7792 -88.7755 -88.5743 -66.5820 -66.5819 -66.5819 -66.5817 -66.5806
   -66.5806 -66.5791 -66.5713 -66.5713 -66.5712 -66.5712 -66.5701 -66.5700
   -66.5699 -66.5629 -66.5581 -66.5562 -66.5562 -66.5562 -66.5562 -66.5562
   -66.5562 -66.5560 -66.5559 -66.5548 -66.5548 -66.5548 -66.5548 -66.5518
   -66.5517 -66.5517 -66.5515 -66.5504 -66.5504 -66.5478 -66.5455 -66.5455
   -66.5455 -66.5454 -66.5454 -66.5454 -66.5454 -66.5453 -66.5450 -66.5441
   -66.5441 -66.5441 -66.5441 -66.5410 -66.5410 -66.5410 -66.5409 -66.5397
   -66.5397 -66.5396 -66.5384 -66.5333 -66.5309 -66.5241 -66.5210 -66.5185
   -66.5139 -66.5109 -66.4948 -54.6199 -54.6055 -54.5729 -54.5586 -54.5477
   -54.5223 -54.3875 -54.3832 -54.3479 -40.8839 -40.8839 -40.8839 -40.8839
   -40.8839 -40.8839 -40.8838 -40.8836 -40.8833 -40.8833 -40.8833 -40.8833
   -40.8810 -40.8687 -40.8575 -40.8571 -40.8571 -40.8571 -40.8569 -40.8564
   -40.8564 -40.8545 -40.8485 -40.8451 -40.8451 -40.8449 -40.8449 -40.8444
   -40.8444 -40.8418 -40.8245 -40.8026 -40.7944 -40.7944 -40.7944 -40.7944
   -40.7943 -40.7942 -40.7942 -40.7942 -40.7936 -40.7936 -40.7936 -40.7936
   -40.7768 -40.7687 -40.7662 -40.7592 -40.7403 -40.7366 -40.7357 -40.7356
   -40.7356 -40.7354 -40.7350 -40.7350 -40.7261 -40.7261 -40.7260 -40.7259
   -40.7252 -40.7252 -40.7217 -40.7148 -40.7148 -40.7148 -40.7147 -40.7147
   -40.7141 -40.7141 -40.7024 -40.6969 -40.6955 -40.6920 -40.6898 -40.6852
   -40.6852 -40.6852 -40.6852 -40.6852 -40.6852 -40.6850 -40.6850 -40.6845
   -40.6845 -40.6845 -40.6845 -40.6806 -40.6775 -40.6765 -40.6764 -40.6764
   -40.6762 -40.6757 -40.6757 -40.6723 -40.6673 -40.6646 -40.6646 -40.6645
   -40.6644 -40.6643 -40.6642 -40.6642 -40.6642 -40.6641 -40.6641 -40.6641
   -40.6641 -40.6637 -40.6637 -40.6637 -40.6634 -40.6634 -40.6634 -40.6634
   -40.6610 -40.6592 -40.6555 -40.6555 -40.6554 -40.6554 -40.6547 -40.6547
   -40.6546 -40.6490 -40.6461 -40.6396 -40.6337 -40.6337 -40.6337 -40.6337
   -40.6337 -40.6336 -40.6335 -40.6333 -40.6327 -40.6327 -40.6327 -40.6327
   -40.6168 -40.6157 -40.6124 -40.6085 -40.5989 -40.5989 -40.5989 -40.5989
   -40.5988 -40.5988 -40.5988 -40.5988 -40.5980 -40.5980 -40.5980 -40.5980
   -40.5868 -40.5868 -40.5867 -40.5865 -40.5858 -40.5858 -40.5774 -40.5759
   -40.5745 -40.5684 -40.5675 -40.5674 -40.5674 -40.5672 -40.5665 -40.5665
   -40.5650 -40.5505 -40.5505 -40.5504 -40.5503 -40.5498 -40.5495 -40.5495
   -40.5475 -40.5389 -40.5232 -40.5198 -40.5198 -40.5198 -40.5196 -40.5188
   -40.5188 -40.5117 -40.4995 -40.4823 -20.0254 -19.8587 -19.8311 -19.8042
   -19.7320 -19.7104 -19.6221 -19.6141 -19.5249 -19.4499 -19.3939 -19.3867
   -19.3010 -19.2939 -19.1958 -19.1928 -19.0322 -18.9467 -18.9370 -18.7485
   -18.7390 -18.7347 -18.6875 -18.6861 -18.6856 -18.6799 -18.6589 -18.6337
   -18.6190 -18.6173 -18.6093 -18.6059 -18.5644 -18.5450 -18.5430 -18.5207
   -18.5190 -18.5113 -18.5035 -18.4930 -18.4804 -18.4522 -18.4484 -18.4407
   -18.4330 -18.4035 -18.3780 -18.3739 -18.3669 -18.3614 -18.3523 -18.3444
   -18.3057 -18.2998 -18.2911 -18.2820 -18.2236 -18.2188 -18.2116 -18.1978
   -18.1768 -18.1652 -18.1529 -18.1316 -18.1224 -18.0985 -18.0865 -18.0764
   -18.0651 -18.0637 -18.0620 -18.0613 -18.0483 -18.0387 -18.0350 -18.0337
   -18.0314 -18.0287 -18.0261 -18.0180 -18.0137 -18.0073 -18.0030 -17.9937
   -17.9752 -17.9729 -17.9673 -17.9649 -17.9647 -17.9605 -17.9593 -17.9534
   -17.9509 -17.9414 -17.9179 -17.9080 -17.9012 -17.8976 -17.8915 -17.8844
   -17.8580 -17.8556 -17.8469 -17.8387 -17.8250 -17.8176 -17.8091 -17.8067
   -17.8011 -17.7999 -17.7827 -17.7824 -17.7816 -17.7813 -17.7803 -17.7796
   -17.7677 -17.7671 -17.7483 -17.7465 -17.7239 -17.7220 -17.7044 -17.7016
   -17.6897 -17.6875 -17.6824 -17.6820 -11.9044 -11.8682 -11.7622 -11.6872
   -11.6843 -11.5621 -11.5373 -11.4948 -11.4752 -11.4723 -11.4619 -11.4614
   -11.4478 -11.4333 -11.4187 -11.4053 -11.3756 -11.3597 -11.3542 -11.3374
   -11.3236 -11.3078 -11.3039 -11.2963 -11.2689 -11.2558 -11.2486 -11.2380
   -11.2291 -11.2260 -11.2228 -11.2211 -11.2151 -11.2135 -11.1908 -11.1689
   -11.1653 -11.1591 -11.1565 -11.1361 -11.1320 -11.1299 -11.1227 -11.1103
   -11.1091 -11.0888 -11.0780 -11.0643 -11.0435 -11.0388 -11.0315 -10.9937
   -10.9669 -10.9329 -10.9249 -10.9146 -10.8989 -10.8962 -10.8834 -10.8726
   -10.8538 -10.8499 -10.8287 -10.8140 -10.8019 -10.8010 -10.7930 -10.7823
   -10.7755 -10.7744 -10.7735 -10.7730 -10.7699 -10.7664 -10.7625 -10.7604
   -10.7555 -10.7550 -10.7495 -10.7466 -10.7443 -10.7425 -10.7095 -10.7068
   -10.7059 -10.7058 -10.6946 -10.6104 -10.5974 -10.5094 -10.5013 -10.4912
   -10.4851 -10.4523 -10.4240 -10.3616 -10.3325 -10.3050 -10.2346 -10.2050
   -10.1825 -10.1548 -10.1208 -10.1002 -10.0871 -10.0805 -10.0717 -10.0613
   -10.0316 -10.0198 -10.0121  -9.9992  -9.9970  -9.9935  -9.9905  -9.9836
    -9.9692  -9.9507  -9.9374  -9.9040  -9.8974  -9.8840  -9.8809  -9.8772
    -9.8594  -9.8565  -9.8484  -9.8390  -9.8203  -9.8144  -9.7878  -9.7820
    -9.7675  -9.7472  -9.7377  -9.7339  -9.7254  -9.7079  -9.6996  -9.6798
    -9.6644  -9.6501  -9.6271  -9.6216  -9.6002  -9.5961  -9.5855  -9.5769
    -9.5751  -9.5459  -9.5375  -9.5254  -9.5120  -9.5069  -9.5038  -9.4978
    -9.4620  -9.4548  -9.4535  -9.4494  -9.4376  -9.4323  -9.4312  -9.4223
    -9.4201  -9.4103  -9.3972  -9.3914  -9.3543  -9.3431  -9.3271  -9.3006
    -9.2954  -9.2690  -9.2455  -9.2339  -9.1881  -9.1803  -9.1751  -9.1709
[...]
     atom  165 type  2   force =    -0.00003678   -0.00001176   -0.00002730
     atom  166 type  2   force =    -0.00000035   -0.00001175    0.00005327
     atom  167 type  2   force =     0.00000016   -0.00000018   -0.00009062
     atom  168 type  2   force =    -0.00073609    0.00024766   -0.00406253
     atom  169 type  1   force =    -0.00000005   -0.00000003    0.00255976
     atom  170 type  1   force =     0.00000008   -0.00000003    0.00001003
     atom  171 type  2   force =    -0.00000001    0.00000002   -0.00003393
     atom  172 type  2   force =     0.00000001    0.00000000    0.00017175
     atom  173 type  2   force =     0.00000001   -0.00000001    0.00441405
     atom  174 type  2   force =     0.00000010    0.00000013    0.00009563
     atom  175 type  1   force =     0.00001376    0.00000760   -0.00002740
     atom  176 type  1   force =    -0.00042755   -0.00004524   -0.00199887
     atom  177 type  2   force =    -0.00007137   -0.00004220    0.00024336
     atom  178 type  2   force =     0.00002617    0.00000369    0.00004083
     atom  179 type  2   force =     0.00000081    0.00000050   -0.00009549
     atom  180 type  2   force =    -0.00059877   -0.00034551   -0.00420327
     atom  181 type  1   force =    -0.00000005   -0.00000005    0.00255970
     atom  182 type  1   force =     0.00000004    0.00000007    0.00001002
     atom  183 type  2   force =    -0.00000001    0.00000002   -0.00003387
     atom  184 type  2   force =     0.00000001    0.00000001    0.00017177
     atom  185 type  2   force =    -0.00000000    0.00000001    0.00441405
     atom  186 type  2   force =     0.00000002    0.00000006    0.00009541
     atom  187 type  1   force =    -0.00000087    0.00001980    0.00000092
     atom  188 type  1   force =    -0.00025324   -0.00034725   -0.00199897
     atom  189 type  2   force =    -0.00002777   -0.00002734   -0.00002722
     atom  190 type  2   force =     0.00001570    0.00002203    0.00004095
     atom  191 type  2   force =     0.00000103    0.00000021   -0.00009556
     atom  192 type  2   force =    -0.00015375   -0.00076121   -0.00406262
     atom  193 type  3   force =     0.00025246   -0.00014687   -0.00629386
     atom  194 type  3   force =    -0.00000102    0.00029208   -0.00629376
     atom  195 type  3   force =    -0.00025402   -0.00014660   -0.00629105

     Total force =     0.002563     Total SCF correction =     0.000293
     SCF correction compared to forces is large: reduce conv_thr to get better values
     Energy error            =      1.2E-05 Ry
     Gradient error          =      9.1E-04 Ry/Bohr

     bfgs converged in  17 scf cycles and  16 bfgs steps
     (criteria: energy <  1.0E-04 Ry, force <  1.0E-03 Ry/Bohr)

     End of BFGS Geometry Optimization

     Final energy             =  -33329.5915383242 Ry

     File ./outdir/pwscf.bfgs deleted, as requested
Begin final coordinates

ATOMIC_POSITIONS (angstrom)
Mo            0.0000119917        1.8193638619       -9.1672481230    0   0   0
Mo            1.5756136568        0.9097075315       -3.0554901653    0   0   0
S             0.0000188998        1.8193822938       -4.6232556019    0   0   0
S             1.5756321638        0.9096773839       -7.6014065489    0   0   0
S             1.5756326175        0.9096785128      -10.7330757790    0   0   0
S             0.0000189190        1.8193860094       -1.4877129945    0   0   0
Mo            0.0001853619        1.8210950180        3.0581035240
Mo            1.5731971909        0.9166479586        9.1748062063
S             0.0065906486        1.8276950016        7.5843708579
S             1.5760734522        0.9116502998        4.6257384794
S             1.5756092993        0.9112763789        1.4901344531
S            -0.0152110651        1.8225266801       10.7299671314
Mo           -1.5756053507        4.5484193819       -9.1672481230    0   0   0
Mo            0.0000378379        3.6387394919       -3.0554952701    0   0   0
S            -1.5755913433        4.5484363582       -4.6232494962    0   0   0
S             0.0000148214        3.6387329039       -7.6014065489    0   0   0
S             0.0000152751        3.6387340328      -10.7330757790    0   0   0
S            -1.5755906502        4.5484413613       -1.4877305502    0   0   0
Mo           -1.5754054847        4.5501453437        3.0580894989
Mo           -0.0312524970        3.6360338473        9.1594643410
S            -1.5783117855        4.5727739263        7.5843010965
S             0.0004353930        3.6406945410        4.6262472396
S             0.0003685290        3.6404409318        1.4904755169
S            -1.5938970609        4.5567710567       10.7299548957
Mo           -3.1512226931        7.2774749019       -9.1672481230    0   0   0
Mo           -1.5755910988        6.3678216792       -3.0555115988    0   0   0
S            -3.1512162438        7.2774954350       -4.6232578178    0   0   0
S            -1.5756025210        6.3677884239       -7.6014065489    0   0   0
S            -1.5756020673        6.3677895528      -10.7330757790    0   0   0
S            -3.1512127704        7.2774877076       -1.4877200710    0   0   0
Mo           -3.1511545742        7.2791073139        3.0579505730
Mo           -1.5840483564        6.3851591215        9.1747658692
S            -3.1488827443        7.2941532386        7.5987478393
S            -1.5751649008        6.3697722531        4.6257300469
S            -1.5754794061        6.3692589543        1.4901353432
S            -3.1519992221        7.2943245040       10.7443624647
Mo           -4.7268400355       10.0065304219       -9.1672481230    0   0   0
Mo           -3.1512405618        9.0968403586       -3.0554816746    0   0   0
S            -4.7268341792       10.0065523623       -4.6232463762    0   0   0
S            -3.1512198634        9.0968439439       -7.6014065489    0   0   0
S            -3.1512194097        9.0968450728      -10.7330757790    0   0   0
S            -4.7268370797       10.0065537885       -1.4877176751    0   0   0
Mo           -4.7268072405       10.0081868850        3.0579870503
Mo           -3.1514511309        9.1120196583        9.1709716403
S            -4.7244474349       10.0230357888        7.5987949274
S            -3.1511312231        9.0985950279        4.6255001432
S            -3.1512758178        9.0983324544        1.4900470192
S            -4.7259424535       10.0205286230       10.7444059711
Mo            3.1512517547        1.8193638619       -9.1672481230    0   0   0
Mo            4.7269020221        0.9097289540       -3.0554823951    0   0   0
S             3.1512612351        1.8193882564       -4.6232320683    0   0   0
S             4.7268719268        0.9096773839       -7.6014065489    0   0   0
S             4.7268723805        0.9096785128      -10.7330757790    0   0   0
S             3.1512592485        1.8193890201       -1.4877261251    0   0   0
Mo            3.1511790091        1.8213583984        3.0578532961
Mo            4.7290161303        0.9160553947        9.1759627728
S             3.1515927370        1.8478294152        7.6299954209
S             4.7262227985        0.9114802017        4.6256964534
S             4.7268228578        0.9113697617        1.4901381430
S             3.1505924453        1.7470592729       10.8015800554
Mo            1.5756344123        4.5484193819       -9.1672481230    0   0   0
Mo            3.1512756394        3.6387769522       -3.0554814834    0   0   0
S             1.5756504879        4.5484423799       -4.6232390542    0   0   0
S             3.1512545844        3.6387329039       -7.6014065489    0   0   0
S             3.1512550381        3.6387340328      -10.7330757790    0   0   0
S             1.5756466253        4.5484431864       -1.4877251801    0   0   0
Mo            1.5759357320        4.5501765483        3.0585861951
Mo            3.1523376773        3.6293424043        9.2178771806
S             1.5878787226        4.5708109426        7.6604302683
S             3.1511249594        3.6404316609        4.6270662611
S             3.1512870341        3.6406821872        1.4904736003
S             1.4771232601        4.5069824844       10.7770013528
Mo            0.0000170699        7.2774749019       -9.1672481230    0   0   0
Mo            1.5756764447        6.3678236689       -3.0554877708    0   0   0
S             0.0000381981        7.2774979204       -4.6232454413    0   0   0
S             1.5756372420        6.3677884239       -7.6014065489    0   0   0
S             1.5756376957        6.3677895528      -10.7330757790    0   0   0
S             0.0000328088        7.2774946042       -1.4877307940    0   0   0
Mo            0.0003525595        7.2788070781        3.0579067863
Mo            1.5547346760        6.3964293392        9.2179827118
S             0.0117349342        7.2863716739        7.6299940006
S             1.5755855553        6.3692805887        4.6271371699
S             1.5760754662        6.3690860305        1.4905260615
S            -0.0764590020        7.3362491957       10.8016549813
Mo           -1.5756002725       10.0065304219       -9.1672481230    0   0   0
Mo            0.0000873425        9.0968676911       -3.0554912329    0   0   0
S            -1.5755883952       10.0065504530       -4.6232240150    0   0   0
S             0.0000198996        9.0968439439       -7.6014065489    0   0   0
S             0.0000203533        9.0968450728      -10.7330757790    0   0   0
S            -1.5755859047       10.0065492576       -1.4877362381    0   0   0
Mo           -1.5756012865       10.0081095278        3.0578675546
Mo           -0.0066489543        9.1184793950        9.1759769620
S            -1.5765719301       10.0211767711        7.6014589474
S            -0.0002178942        9.0978971784        4.6257753665
S             0.0002206411        9.0981702728        1.4901879096
S            -1.5787289232       10.0201503513       10.7466233238
Mo            6.3024915177        1.8193638619       -9.1672481230    0   0   0
Mo            7.8781001445        0.9096521684       -3.0554919963    0   0   0
S             6.3025008696        1.8193826232       -4.6232480596    0   0   0
S             7.8781116898        0.9096773839       -7.6014065489    0   0   0
S             7.8781121435        0.9096785128      -10.7330757790    0   0   0
S             6.3025042007        1.8193849068       -1.4877147524    0   0   0
Mo            6.3022025188        1.8210580786        3.0582327217
Mo            7.8763513132        0.9239734034        9.1502662003
S             6.2959539756        1.8239977428        7.5834843335
S             7.8783342175        0.9115176003        4.6250580443
S             7.8776035784        0.9108306435        1.4900500620
S             6.3177302732        1.8240949696       10.7294306328
Mo            4.7268741753        4.5484193819       -9.1672481230    0   0   0
Mo            6.3024679138        3.6387501714       -3.0554895197    0   0   0
S             4.7268748770        4.5484386753       -4.6232519432    0   0   0
S             6.3024943474        3.6387329039       -7.6014065489    0   0   0
S             6.3024948011        3.6387340328      -10.7330757790    0   0   0
S             4.7268770533        4.5484432419       -1.4877137856    0   0   0
Mo            4.7265449957        4.5501531692        3.0587522458
Mo            6.3356750524        3.6352894983        9.1550525678
S             4.7159786126        4.5682361937        7.6555588254
S             6.3020484344        3.6405743444        4.6264342223
S             6.3021135950        3.6404539840        1.4906570752
S             4.8292293563        4.5073391459       10.7724925202
Mo            3.1512568329        7.2774749019       -9.1672481230    0   0   0
Mo            4.7268384135        6.3678043337       -3.0554959052    0   0   0
S             3.1512606125        7.2774972547       -4.6232589675    0   0   0
S             4.7268770050        6.3677884239       -7.6014065489    0   0   0
S             4.7268774587        6.3677895528      -10.7330757790    0   0   0
S             3.1512629079        7.2774963749       -1.4877081835    0   0   0
Mo            3.1512294932        7.2786650862        3.0588413604
Mo            4.7495327365        6.3961915427        9.2135428832
S             3.1497535606        7.2810171091        7.6556739206
S             4.7268468348        6.3693754465        4.6271627610
S             4.7265248077        6.3690898219        1.4906513837
S             3.1534108931        7.4098819223       10.7726029653
Mo            1.5756394905       10.0065304219       -9.1672481230    0   0   0
Mo            3.1512330605        9.0968514907       -3.0554878870    0   0   0
S             1.5756499830       10.0065443759       -4.6232632674    0   0   0
S             3.1512596626        9.0968439439       -7.6014065489    0   0   0
S             3.1512601163        9.0968450728      -10.7330757790    0   0   0
S             1.5756503041       10.0065459699       -1.4877044377    0   0   0
Mo            1.5755970413       10.0077993512        3.0583160234
Mo            3.1515914738        9.1503044228        9.1551289622
S             1.5632230888       10.0213786140        7.5834837074
S             3.1511617552        9.0979990143        4.6265741392
S             3.1512798683        9.0978526668        1.4907632919
S             1.5739718696       10.0405190349       10.7294512907
Mo            9.4537312807        1.8193638619       -9.1672481230    0   0   0
Mo           11.0293863460        0.9096952246       -3.0554894007    0   0   0
S             9.4537395970        1.8193770750       -4.6232328036    0   0   0
S            11.0293514528        0.9096773839       -7.6014065489    0   0   0
S            11.0293519066        0.9096785128      -10.7330757790    0   0   0
S             9.4537393632        1.8193794783       -1.4877366147    0   0   0
Mo            9.4536509520        1.8209358641        3.0570180232
Mo           11.0303569004        0.9250885680        9.1492043609
S             9.4523808989        1.8337397115        7.5790829105
S            11.0290179011        0.9116842684        4.6250169850
S            11.0296468107        0.9107536450        1.4900298363
S             9.4532912470        1.8345256182       10.7153255775
Mo            7.8781139383        4.5484193819       -9.1672481230    0   0   0
Mo            9.4537539161        3.6387607911       -3.0554933032    0   0   0
S             7.8781175448        4.5484378232       -4.6232366318    0   0   0
S             9.4537341104        3.6387329039       -7.6014065489    0   0   0
S             9.4537345641        3.6387340328      -10.7330757790    0   0   0
S             7.8781194018        4.5484411585       -1.4877377057    0   0   0
Mo            7.8778608985        4.5501234219        3.0582814771
Mo            9.4543250421        3.6548246128        9.1491501362
S             7.8852860554        4.5719326385        7.5807011302
S             9.4538112449        3.6400519916        4.6249816539
S             9.4535578124        3.6407026846        1.4899874062
S             7.8960103027        4.5573119236       10.7268319100
Mo            6.3024965959        7.2774749019       -9.1672481230    0   0   0
Mo            7.8781361655        6.3678242352       -3.0555014130    0   0   0
S             6.3024973331        7.2774953556       -4.6232392528    0   0   0
S             7.8781167680        6.3677884239       -7.6014065489    0   0   0
S             7.8781172217        6.3677895528      -10.7330757790    0   0   0
S             6.3024989866        7.2774929744       -1.4877349119    0   0   0
Mo            6.3021828269        7.2788929836        3.0580121582
Mo            7.8881009805        6.3852244257        9.1710895676
S             6.2935467428        7.2875365170        7.6247464707
S             7.8778610274        6.3698847096        4.6256932212
S             7.8779541162        6.3692225201        1.4902815432
S             6.3805849189        7.3378988909       10.7965144045
Mo            4.7268792535       10.0065304219       -9.1672481230    0   0   0
Mo            6.3025111524        9.0968738021       -3.0554915260    0   0   0
S             4.7268840634       10.0065452125       -4.6232380477    0   0   0
S             6.3024994256        9.0968439439       -7.6014065489    0   0   0
S             6.3024998793        9.0968450728      -10.7330757790    0   0   0
S             4.7268847312       10.0065459141       -1.4877283294    0   0   0
Mo            4.7268170583       10.0078530521        3.0583846542
Mo            6.3093568619        9.1196807958        9.1711541893
S             4.7376620236       10.0237582744        7.5807834540
S             6.3027082280        9.0980965934        4.6257721564
S             6.3023161857        9.0982620139        1.4903351395
S             4.7302305961       10.0406621180       10.7268791107
Pd            1.6605509543        6.3398406411       12.1809045987
Pd            3.1561227195        3.7497887741       12.1808484961
Pd            4.6510912091        6.3396150765       12.1741164399
End final coordinates



     Writing all to output data dir ./outdir/pwscf.save/
 
     init_run     :    199.99s CPU    203.48s WALL (       1 calls)
     electrons    : 150642.68s CPU 152164.92s WALL (      17 calls)
     update_pot   :     87.56s CPU     88.29s WALL (      16 calls)
     forces       :   2185.87s CPU   2236.56s WALL (      17 calls)
     force_dftd3  :     13.59s CPU     14.43s WALL (      17 calls)

     Called by init_run:
     wfcinit      :    174.83s CPU    176.88s WALL (       1 calls)
     potinit      :      2.24s CPU      2.31s WALL (       1 calls)
     hinit0       :     15.97s CPU     16.00s WALL (       1 calls)

     Called by electrons:
     c_bands      : 135381.41s CPU 136261.12s WALL (     211 calls)
     sum_band     :  14362.11s CPU  14739.37s WALL (     211 calls)
     v_of_rho     :    106.86s CPU    109.26s WALL (     211 calls)
     newd         :    592.65s CPU    871.69s WALL (     211 calls)
     PAW_pot      :    155.17s CPU    155.20s WALL (     227 calls)
     mix_rho      :     26.08s CPU     26.10s WALL (     211 calls)
     energy_dftd3 :      6.43s CPU      6.44s WALL (      17 calls)

     Called by c_bands:
     init_us_2    :    544.87s CPU    545.13s WALL (    1824 calls)
     init_us_2:cp :    544.86s CPU    545.12s WALL (    1824 calls)
     cegterg      : 133600.74s CPU 134449.15s WALL (     862 calls)

     Called by *egterg:
     cdiaghg      :   8224.74s CPU   8251.48s WALL (   10726 calls)
     h_psi        :  69935.45s CPU  70191.06s WALL (   10862 calls)
     s_psi        :  15062.72s CPU  15122.91s WALL (   10862 calls)
     g_psi        :    127.72s CPU    127.97s WALL (    9996 calls)

     Called by h_psi:
     h_psi:calbec :  15320.41s CPU  15322.87s WALL (   10862 calls)
     vloc_psi     :  39266.16s CPU  39347.41s WALL (   10862 calls)
     add_vuspsi   :  15202.82s CPU  15257.41s WALL (   10862 calls)

     General routines
     calbec       :  21917.29s CPU  21920.75s WALL (   12042 calls)
     fft          :    127.39s CPU    129.89s WALL (    2929 calls)
     ffts         :      5.50s CPU      5.55s WALL (     422 calls)
     fftw         :  32544.17s CPU  32608.39s WALL ( 6168274 calls)
     interpolate  :     11.17s CPU     11.25s WALL (     211 calls)
 
     Parallel routines
 
     PWSCF        :   1d18h43m CPU   1d19h10m WALL

 
   This run was terminated on:  16:13:50   5Nov2023            

=------------------------------------------------------------------------------=
   JOB DONE.
=------------------------------------------------------------------------------=
Application 11372407 resources: utime ~5537502s, stime ~57721s, Rss ~3518132, inblocks ~0, outblocks ~57212208
