
     Program PWSCF v.7.2 starts on  4Aug2023 at 13:40:49 

     This program is part of the open-source Quantum ESPRESSO suite
     for quantum simulation of materials; please cite
         "P. Giannozzi et al., J. Phys.:Condens. Matter 21 395502 (2009);
         "P. Giannozzi et al., J. Phys.:Condens. Matter 29 465901 (2017);
         "P. Giannozzi et al., J. Chem. Phys. 152 154105 (2020);
          URL http://www.quantum-espresso.org", 
     in publications or presentations arising from this work. More details at
     http://www.quantum-espresso.org/quote

     Parallel version (MPI), running on    48 processors

     MPI processes distributed on     1 nodes
     1162456 MiB available memory on the printing compute node when the environment starts
 
     Waiting for input...
     Reading input from standard input
Warning: card &CELL ignored
Warning: card / ignored

     Current dimensions of program PWSCF are:
     Max number of different atomic species (ntypx) = 10
     Max number of k-points (npk) =  40000
     Max angular momentum in pseudopotentials (lmaxx) =  4
     file Mo.pbe-spn-kjpaw_psl.1.0.0.UPF: wavefunction(s)  4S 4D renormalized
     file S.pbe-n-kjpaw_psl.1.0.0.UPF: wavefunction(s)  3S 3P renormalized
     Found identity + (  0.0000  0.2500  0.0000) symmetry
     This is a supercell, fractional translations are disabled
 
     R & G space division:  proc/nbgrp/npool/nimage =      48
     Subspace diagonalization in iterative solution of the eigenvalue problem:
     one sub-group per band group will be used
     ELPA distributed-memory algorithm (size of sub-group:  6*  6 procs)

 
     Parallelization info
     --------------------
     sticks:   dense  smooth     PW     G-vecs:    dense   smooth      PW
     Min         439     251     66               149057    64385    8794
     Max         440     252     67               149065    64399    8811
     Sum       21073   12049   3205              7154885  3090769  422587
 
     Using Slab Decomposition
 


     bravais-lattice index     =            0
     lattice parameter (alat)  =      23.8199  a.u.
     unit-cell volume          =   33861.0433 (a.u.)^3
     number of atoms/cell      =          192
     number of atomic types    =            2
     number of electrons       =      1664.00
     number of Kohn-Sham states=          998
     kinetic-energy cutoff     =      77.0000  Ry
     charge density cutoff     =     539.0000  Ry
     scf convergence threshold =      1.0E-06
     mixing beta               =       0.2000
     number of iterations used =            8  plain     mixing
     energy convergence thresh.=      1.0E-04
     force convergence thresh. =      1.0E-03
     Exchange-correlation= SLA  PW   PBX  PBC
                           (   1   4   3   4   0   0   0)
     nstep                     =         1000


     Effective Screening Medium Method
     =================================
     Boundary Conditions: Vacuum-Slab-Vacuum
     total charge in unit cell        =   0.0000
     grid points for fit at edges     =        4 
 

     celldm(1)=  23.819920  celldm(2)=   0.000000  celldm(3)=   0.000000
     celldm(4)=   0.000000  celldm(5)=   0.000000  celldm(6)=   0.000000

     crystal axes: (cart. coord. in units of alat)
               a(1) = (   1.000000   0.000000   0.000000 )  
               a(2) = (  -0.499999   0.866026   0.000000 )  
               a(3) = (   0.000000   0.000000   2.893000 )  

     reciprocal axes: (cart. coord. in units 2 pi/alat)
               b(1) = (  1.000000  0.577349  0.000000 )  
               b(2) = (  0.000000  1.154700  0.000000 )  
               b(3) = (  0.000000  0.000000  0.345662 )  


     PseudoPot. # 1 for Mo read from file:
     ./pseudo/Mo.pbe-spn-kjpaw_psl.1.0.0.UPF
     MD5 check sum: 317bf72632116215fd98f72de1686f13
     Pseudo is Projector augmented-wave + core cor, Zval = 14.0
     Generated using 'atomic' code by A. Dal Corso  v.7.2
     Shape of augmentation charge: PSQ
     Using radial grid of 1229 points,  6 beta functions with: 
                l(1) =   0
                l(2) =   0
                l(3) =   1
                l(4) =   1
                l(5) =   2
                l(6) =   2
     Q(r) pseudized with 0 coefficients 


     PseudoPot. # 2 for S  read from file:
     ./pseudo/S.pbe-n-kjpaw_psl.1.0.0.UPF
     MD5 check sum: 8b7b5302570d38d5e87fed6a1065abda
     Pseudo is Projector augmented-wave + core cor, Zval =  6.0
     Generated using 'atomic' code by A. Dal Corso  v.7.2
     Shape of augmentation charge: PSQ
     Using radial grid of 1151 points,  6 beta functions with: 
                l(1) =   0
                l(2) =   0
                l(3) =   1
                l(4) =   1
                l(5) =   2
                l(6) =   2
     Q(r) pseudized with 0 coefficients 


     atomic species   valence    mass     pseudopotential
        Mo            14.00    95.95000     Mo( 1.00)
        S              6.00    32.06000     S ( 1.00)

     No symmetry found



   Cartesian axes

     site n.     atom                  positions (alat units)
         1           Mo  tau(   1) = (   0.0000010   0.1443371  -0.7272731  )
         2           Mo  tau(   2) = (   0.1250016   0.0721698  -0.2424027  )
         3           S   tau(   3) = (   0.0000016   0.1443387  -0.3666271  )
         4           S   tau(   4) = (   0.1250010   0.0721682  -0.6030489  )
         5           S   tau(   5) = (   0.1250010   0.0721683  -0.8514963  )
         6           S   tau(   6) = (   0.0000016   0.1443388  -0.1181795  )
         7           Mo  tau(   7) = (   0.0000033   0.1443376   0.2424027  )
         8           Mo  tau(   8) = (   0.1250039   0.0721703   0.7272731  )
         9           S   tau(   9) = (   0.0000039   0.1443392   0.6030487  )
        10           S   tau(  10) = (   0.1250033   0.0721687   0.3666269  )
        11           S   tau(  11) = (   0.1250033   0.0721688   0.1181795  )
        12           S   tau(  12) = (   0.0000039   0.1443393   0.8514963  )
        13           Mo  tau(  13) = (  -0.1249988   0.3608436  -0.7272731  )
        14           Mo  tau(  14) = (   0.0000018   0.2886763  -0.2424027  )
        15           S   tau(  15) = (  -0.1249982   0.3608452  -0.3666271  )
        16           S   tau(  16) = (   0.0000012   0.2886747  -0.6030489  )
        17           S   tau(  17) = (   0.0000012   0.2886748  -0.8514963  )
        18           S   tau(  18) = (  -0.1249982   0.3608453  -0.1181795  )
        19           Mo  tau(  19) = (  -0.1249965   0.3608441   0.2424027  )
        20           Mo  tau(  20) = (   0.0000041   0.2886768   0.7272731  )
        21           S   tau(  21) = (  -0.1249959   0.3608457   0.6030487  )
        22           S   tau(  22) = (   0.0000035   0.2886752   0.3666269  )
        23           S   tau(  23) = (   0.0000035   0.2886753   0.1181795  )
        24           S   tau(  24) = (  -0.1249959   0.3608458   0.8514963  )
        25           Mo  tau(  25) = (  -0.2499986   0.5773501  -0.7272731  )
        26           Mo  tau(  26) = (  -0.1249980   0.5051828  -0.2424027  )
        27           S   tau(  27) = (  -0.2499980   0.5773517  -0.3666271  )
        28           S   tau(  28) = (  -0.1249986   0.5051812  -0.6030489  )
        29           S   tau(  29) = (  -0.1249986   0.5051813  -0.8514963  )
        30           S   tau(  30) = (  -0.2499980   0.5773518  -0.1181795  )
        31           Mo  tau(  31) = (  -0.2499963   0.5773506   0.2424027  )
        32           Mo  tau(  32) = (  -0.1249957   0.5051833   0.7272731  )
        33           S   tau(  33) = (  -0.2499957   0.5773522   0.6030487  )
        34           S   tau(  34) = (  -0.1249963   0.5051817   0.3666269  )
        35           S   tau(  35) = (  -0.1249962   0.5051818   0.1181795  )
        36           S   tau(  36) = (  -0.2499957   0.5773523   0.8514963  )
        37           Mo  tau(  37) = (  -0.3749984   0.7938566  -0.7272731  )
        38           Mo  tau(  38) = (  -0.2499978   0.7216893  -0.2424027  )
        39           S   tau(  39) = (  -0.3749978   0.7938582  -0.3666271  )
        40           S   tau(  40) = (  -0.2499984   0.7216877  -0.6030489  )
        41           S   tau(  41) = (  -0.2499984   0.7216878  -0.8514963  )
        42           S   tau(  42) = (  -0.3749978   0.7938583  -0.1181795  )
        43           Mo  tau(  43) = (  -0.3749961   0.7938571   0.2424027  )
        44           Mo  tau(  44) = (  -0.2499955   0.7216898   0.7272731  )
        45           S   tau(  45) = (  -0.3749955   0.7938586   0.6030487  )
        46           S   tau(  46) = (  -0.2499961   0.7216882   0.3666269  )
        47           S   tau(  47) = (  -0.2499960   0.7216883   0.1181795  )
        48           S   tau(  48) = (  -0.3749955   0.7938588   0.8514963  )
        49           Mo  tau(  49) = (   0.2500010   0.1443371  -0.7272731  )
        50           Mo  tau(  50) = (   0.3750016   0.0721698  -0.2424027  )
        51           S   tau(  51) = (   0.2500016   0.1443387  -0.3666271  )
        52           S   tau(  52) = (   0.3750010   0.0721682  -0.6030489  )
        53           S   tau(  53) = (   0.3750010   0.0721683  -0.8514963  )
        54           S   tau(  54) = (   0.2500016   0.1443388  -0.1181795  )
        55           Mo  tau(  55) = (   0.2500033   0.1443376   0.2424027  )
        56           Mo  tau(  56) = (   0.3750039   0.0721703   0.7272731  )
        57           S   tau(  57) = (   0.2500039   0.1443392   0.6030487  )
        58           S   tau(  58) = (   0.3750033   0.0721687   0.3666269  )
        59           S   tau(  59) = (   0.3750033   0.0721688   0.1181795  )
        60           S   tau(  60) = (   0.2500039   0.1443393   0.8514963  )
        61           Mo  tau(  61) = (   0.1250012   0.3608436  -0.7272731  )
        62           Mo  tau(  62) = (   0.2500018   0.2886763  -0.2424027  )
        63           S   tau(  63) = (   0.1250018   0.3608452  -0.3666271  )
        64           S   tau(  64) = (   0.2500012   0.2886747  -0.6030489  )
        65           S   tau(  65) = (   0.2500012   0.2886748  -0.8514963  )
        66           S   tau(  66) = (   0.1250018   0.3608453  -0.1181795  )
        67           Mo  tau(  67) = (   0.1250035   0.3608441   0.2424027  )
        68           Mo  tau(  68) = (   0.2500041   0.2886768   0.7272731  )
        69           S   tau(  69) = (   0.1250041   0.3608457   0.6030487  )
        70           S   tau(  70) = (   0.2500035   0.2886752   0.3666269  )
        71           S   tau(  71) = (   0.2500035   0.2886753   0.1181795  )
        72           S   tau(  72) = (   0.1250041   0.3608458   0.8514963  )
        73           Mo  tau(  73) = (   0.0000014   0.5773501  -0.7272731  )
        74           Mo  tau(  74) = (   0.1250020   0.5051828  -0.2424027  )
        75           S   tau(  75) = (   0.0000020   0.5773517  -0.3666271  )
        76           S   tau(  76) = (   0.1250014   0.5051812  -0.6030489  )
        77           S   tau(  77) = (   0.1250014   0.5051813  -0.8514963  )
        78           S   tau(  78) = (   0.0000020   0.5773518  -0.1181795  )
        79           Mo  tau(  79) = (   0.0000037   0.5773506   0.2424027  )
        80           Mo  tau(  80) = (   0.1250043   0.5051833   0.7272731  )
        81           S   tau(  81) = (   0.0000043   0.5773522   0.6030487  )
        82           S   tau(  82) = (   0.1250037   0.5051817   0.3666269  )
        83           S   tau(  83) = (   0.1250038   0.5051818   0.1181795  )
        84           S   tau(  84) = (   0.0000043   0.5773523   0.8514963  )
        85           Mo  tau(  85) = (  -0.1249984   0.7938566  -0.7272731  )
        86           Mo  tau(  86) = (   0.0000022   0.7216893  -0.2424027  )
        87           S   tau(  87) = (  -0.1249978   0.7938582  -0.3666271  )
        88           S   tau(  88) = (   0.0000016   0.7216877  -0.6030489  )
        89           S   tau(  89) = (   0.0000016   0.7216878  -0.8514963  )
        90           S   tau(  90) = (  -0.1249978   0.7938583  -0.1181795  )
        91           Mo  tau(  91) = (  -0.1249961   0.7938571   0.2424027  )
        92           Mo  tau(  92) = (   0.0000045   0.7216898   0.7272731  )
        93           S   tau(  93) = (  -0.1249955   0.7938586   0.6030487  )
        94           S   tau(  94) = (   0.0000039   0.7216882   0.3666269  )
        95           S   tau(  95) = (   0.0000040   0.7216883   0.1181795  )
        96           S   tau(  96) = (  -0.1249955   0.7938588   0.8514963  )
        97           Mo  tau(  97) = (   0.5000010   0.1443371  -0.7272731  )
        98           Mo  tau(  98) = (   0.6250016   0.0721698  -0.2424027  )
        99           S   tau(  99) = (   0.5000016   0.1443387  -0.3666271  )
       100           S   tau( 100) = (   0.6250010   0.0721682  -0.6030489  )
       101           S   tau( 101) = (   0.6250010   0.0721683  -0.8514963  )
       102           S   tau( 102) = (   0.5000016   0.1443388  -0.1181795  )
       103           Mo  tau( 103) = (   0.5000033   0.1443376   0.2424027  )
       104           Mo  tau( 104) = (   0.6250039   0.0721703   0.7272731  )
       105           S   tau( 105) = (   0.5000039   0.1443392   0.6030487  )
       106           S   tau( 106) = (   0.6250033   0.0721687   0.3666269  )
       107           S   tau( 107) = (   0.6250033   0.0721688   0.1181795  )
       108           S   tau( 108) = (   0.5000039   0.1443393   0.8514963  )
       109           Mo  tau( 109) = (   0.3750012   0.3608436  -0.7272731  )
       110           Mo  tau( 110) = (   0.5000018   0.2886763  -0.2424027  )
       111           S   tau( 111) = (   0.3750018   0.3608452  -0.3666271  )
       112           S   tau( 112) = (   0.5000012   0.2886747  -0.6030489  )
       113           S   tau( 113) = (   0.5000012   0.2886748  -0.8514963  )
       114           S   tau( 114) = (   0.3750018   0.3608453  -0.1181795  )
       115           Mo  tau( 115) = (   0.3750035   0.3608441   0.2424027  )
       116           Mo  tau( 116) = (   0.5000041   0.2886768   0.7272731  )
       117           S   tau( 117) = (   0.3750041   0.3608457   0.6030487  )
       118           S   tau( 118) = (   0.5000035   0.2886752   0.3666269  )
       119           S   tau( 119) = (   0.5000035   0.2886753   0.1181795  )
       120           S   tau( 120) = (   0.3750041   0.3608458   0.8514963  )
       121           Mo  tau( 121) = (   0.2500014   0.5773501  -0.7272731  )
       122           Mo  tau( 122) = (   0.3750020   0.5051828  -0.2424027  )
       123           S   tau( 123) = (   0.2500020   0.5773517  -0.3666271  )
       124           S   tau( 124) = (   0.3750014   0.5051812  -0.6030489  )
       125           S   tau( 125) = (   0.3750014   0.5051813  -0.8514963  )
       126           S   tau( 126) = (   0.2500020   0.5773518  -0.1181795  )
       127           Mo  tau( 127) = (   0.2500037   0.5773506   0.2424027  )
       128           Mo  tau( 128) = (   0.3750043   0.5051833   0.7272731  )
       129           S   tau( 129) = (   0.2500043   0.5773522   0.6030487  )
       130           S   tau( 130) = (   0.3750037   0.5051817   0.3666269  )
       131           S   tau( 131) = (   0.3750038   0.5051818   0.1181795  )
       132           S   tau( 132) = (   0.2500043   0.5773523   0.8514963  )
       133           Mo  tau( 133) = (   0.1250016   0.7938566  -0.7272731  )
       134           Mo  tau( 134) = (   0.2500022   0.7216893  -0.2424027  )
       135           S   tau( 135) = (   0.1250022   0.7938582  -0.3666271  )
       136           S   tau( 136) = (   0.2500016   0.7216877  -0.6030489  )
       137           S   tau( 137) = (   0.2500016   0.7216878  -0.8514963  )
       138           S   tau( 138) = (   0.1250022   0.7938583  -0.1181795  )
       139           Mo  tau( 139) = (   0.1250039   0.7938571   0.2424027  )
       140           Mo  tau( 140) = (   0.2500045   0.7216898   0.7272731  )
       141           S   tau( 141) = (   0.1250045   0.7938586   0.6030487  )
       142           S   tau( 142) = (   0.2500039   0.7216882   0.3666269  )
       143           S   tau( 143) = (   0.2500040   0.7216883   0.1181795  )
       144           S   tau( 144) = (   0.1250045   0.7938588   0.8514963  )
       145           Mo  tau( 145) = (   0.7500010   0.1443371  -0.7272731  )
       146           Mo  tau( 146) = (   0.8750016   0.0721698  -0.2424027  )
       147           S   tau( 147) = (   0.7500016   0.1443387  -0.3666271  )
       148           S   tau( 148) = (   0.8750010   0.0721682  -0.6030489  )
       149           S   tau( 149) = (   0.8750010   0.0721683  -0.8514963  )
       150           S   tau( 150) = (   0.7500016   0.1443388  -0.1181795  )
       151           Mo  tau( 151) = (   0.7500033   0.1443376   0.2424027  )
       152           Mo  tau( 152) = (   0.8750039   0.0721703   0.7272731  )
       153           S   tau( 153) = (   0.7500039   0.1443392   0.6030487  )
       154           S   tau( 154) = (   0.8750033   0.0721687   0.3666269  )
       155           S   tau( 155) = (   0.8750033   0.0721688   0.1181795  )
       156           S   tau( 156) = (   0.7500039   0.1443393   0.8514963  )
       157           Mo  tau( 157) = (   0.6250012   0.3608436  -0.7272731  )
       158           Mo  tau( 158) = (   0.7500018   0.2886763  -0.2424027  )
       159           S   tau( 159) = (   0.6250018   0.3608452  -0.3666271  )
       160           S   tau( 160) = (   0.7500012   0.2886747  -0.6030489  )
       161           S   tau( 161) = (   0.7500012   0.2886748  -0.8514963  )
       162           S   tau( 162) = (   0.6250018   0.3608453  -0.1181795  )
       163           Mo  tau( 163) = (   0.6250035   0.3608441   0.2424027  )
       164           Mo  tau( 164) = (   0.7500041   0.2886768   0.7272731  )
       165           S   tau( 165) = (   0.6250041   0.3608457   0.6030487  )
       166           S   tau( 166) = (   0.7500035   0.2886752   0.3666269  )
       167           S   tau( 167) = (   0.7500035   0.2886753   0.1181795  )
       168           S   tau( 168) = (   0.6250041   0.3608458   0.8514963  )
       169           Mo  tau( 169) = (   0.5000014   0.5773501  -0.7272731  )
       170           Mo  tau( 170) = (   0.6250020   0.5051828  -0.2424027  )
       171           S   tau( 171) = (   0.5000020   0.5773517  -0.3666271  )
       172           S   tau( 172) = (   0.6250014   0.5051812  -0.6030489  )
       173           S   tau( 173) = (   0.6250014   0.5051813  -0.8514963  )
       174           S   tau( 174) = (   0.5000020   0.5773518  -0.1181795  )
       175           Mo  tau( 175) = (   0.5000037   0.5773506   0.2424027  )
       176           Mo  tau( 176) = (   0.6250043   0.5051833   0.7272731  )
       177           S   tau( 177) = (   0.5000043   0.5773522   0.6030487  )
       178           S   tau( 178) = (   0.6250037   0.5051817   0.3666269  )
       179           S   tau( 179) = (   0.6250038   0.5051818   0.1181795  )
       180           S   tau( 180) = (   0.5000043   0.5773523   0.8514963  )
       181           Mo  tau( 181) = (   0.3750016   0.7938566  -0.7272731  )
       182           Mo  tau( 182) = (   0.5000022   0.7216893  -0.2424027  )
       183           S   tau( 183) = (   0.3750022   0.7938582  -0.3666271  )
       184           S   tau( 184) = (   0.5000016   0.7216877  -0.6030489  )
       185           S   tau( 185) = (   0.5000016   0.7216878  -0.8514963  )
       186           S   tau( 186) = (   0.3750022   0.7938583  -0.1181795  )
       187           Mo  tau( 187) = (   0.3750039   0.7938571   0.2424027  )
       188           Mo  tau( 188) = (   0.5000045   0.7216898   0.7272731  )
       189           S   tau( 189) = (   0.3750045   0.7938586   0.6030487  )
       190           S   tau( 190) = (   0.5000039   0.7216882   0.3666269  )
       191           S   tau( 191) = (   0.5000040   0.7216883   0.1181795  )
       192           S   tau( 192) = (   0.3750045   0.7938588   0.8514963  )

     --------------------------------------------
     DFT-D3 Dispersion Correction (3-body terms):
     --------------------------------------------
       Reference C6 values for interpolation: 

         atom   Coordination number   C6
         S          0.000           268.01
         S          0.995           261.99
         S          1.990           251.62
         Mo         0.000          1691.79
         Mo         1.942          1004.01
         Mo        11.056           674.22

       Values used:

         atom   Coordination number  R0_AB[au]  C6      C8
         Mo        10.208            3.547    674.22  77634.20
         Mo        10.222            3.547    674.22  77634.20
         S          3.860            3.128    251.62  12327.25
         S          3.858            3.128    251.62  12327.25
         S          3.758            3.128    251.62  12327.25
         S          3.860            3.128    251.62  12327.25
         Mo        10.222            3.547    674.22  77634.20
         Mo        10.208            3.547    674.22  77634.20
         S          3.858            3.128    251.62  12327.25
         S          3.860            3.128    251.62  12327.25
         S          3.860            3.128    251.62  12327.25
         S          3.758            3.128    251.62  12327.25
         Mo        10.208            3.547    674.22  77634.20
         Mo        10.222            3.547    674.22  77634.20
         S          3.860            3.128    251.62  12327.25
         S          3.858            3.128    251.62  12327.25
         S          3.758            3.128    251.62  12327.25
         S          3.860            3.128    251.62  12327.25
         Mo        10.222            3.547    674.22  77634.20
         Mo        10.208            3.547    674.22  77634.20
         S          3.858            3.128    251.62  12327.25
         S          3.860            3.128    251.62  12327.25
         S          3.860            3.128    251.62  12327.25
         S          3.758            3.128    251.62  12327.25
         Mo        10.208            3.547    674.22  77634.20
         Mo        10.222            3.547    674.22  77634.20
         S          3.860            3.128    251.62  12327.25
         S          3.858            3.128    251.62  12327.25
         S          3.758            3.128    251.62  12327.25
         S          3.860            3.128    251.62  12327.25
         Mo        10.222            3.547    674.22  77634.20
         Mo        10.208            3.547    674.22  77634.20
         S          3.858            3.128    251.62  12327.25
         S          3.860            3.128    251.62  12327.25
         S          3.860            3.128    251.62  12327.25
         S          3.758            3.128    251.62  12327.25
         Mo        10.208            3.547    674.21  77634.20
         Mo        10.222            3.547    674.22  77634.20
         S          3.860            3.128    251.62  12327.25
         S          3.858            3.128    251.62  12327.25
         S          3.758            3.128    251.62  12327.25
         S          3.860            3.128    251.62  12327.25
         Mo        10.222            3.547    674.22  77634.20
         Mo        10.208            3.547    674.22  77634.20
         S          3.858            3.128    251.62  12327.25
         S          3.860            3.128    251.62  12327.25
         S          3.860            3.128    251.62  12327.25
         S          3.758            3.128    251.62  12327.25
         Mo        10.208            3.547    674.22  77634.20
         Mo        10.222            3.547    674.22  77634.20
         S          3.860            3.128    251.62  12327.25
         S          3.858            3.128    251.62  12327.25
         S          3.758            3.128    251.62  12327.25
         S          3.860            3.128    251.62  12327.25
         Mo        10.222            3.547    674.22  77634.20
         Mo        10.208            3.547    674.22  77634.20
         S          3.858            3.128    251.62  12327.25
         S          3.860            3.128    251.62  12327.25
         S          3.860            3.128    251.62  12327.25
         S          3.758            3.128    251.62  12327.25
         Mo        10.208            3.547    674.22  77634.20
         Mo        10.222            3.547    674.22  77634.20
         S          3.860            3.128    251.62  12327.25
         S          3.858            3.128    251.62  12327.25
         S          3.758            3.128    251.62  12327.25
         S          3.860            3.128    251.62  12327.25
         Mo        10.222            3.547    674.22  77634.20
         Mo        10.208            3.547    674.22  77634.20
         S          3.858            3.128    251.62  12327.25
         S          3.860            3.128    251.62  12327.25
         S          3.860            3.128    251.62  12327.25
         S          3.758            3.128    251.62  12327.25
         Mo        10.208            3.547    674.22  77634.20
         Mo        10.222            3.547    674.22  77634.20
         S          3.860            3.128    251.62  12327.25
         S          3.858            3.128    251.62  12327.25
         S          3.758            3.128    251.62  12327.25
         S          3.860            3.128    251.62  12327.25
         Mo        10.222            3.547    674.22  77634.20
         Mo        10.208            3.547    674.22  77634.20
         S          3.858            3.128    251.62  12327.25
         S          3.860            3.128    251.62  12327.25
         S          3.860            3.128    251.62  12327.25
         S          3.758            3.128    251.62  12327.25
         Mo        10.208            3.547    674.22  77634.20
         Mo        10.222            3.547    674.22  77634.20
         S          3.860            3.128    251.62  12327.25
         S          3.858            3.128    251.62  12327.25
         S          3.758            3.128    251.62  12327.25
         S          3.860            3.128    251.62  12327.25
         Mo        10.222            3.547    674.22  77634.20
         Mo        10.208            3.547    674.22  77634.20
         S          3.858            3.128    251.62  12327.25
         S          3.860            3.128    251.62  12327.25
         S          3.860            3.128    251.62  12327.25
         S          3.758            3.128    251.62  12327.25
         Mo        10.208            3.547    674.22  77634.20
         Mo        10.222            3.547    674.22  77634.20
         S          3.860            3.128    251.62  12327.25
         S          3.858            3.128    251.62  12327.25
         S          3.758            3.128    251.62  12327.25
         S          3.860            3.128    251.62  12327.25
         Mo        10.222            3.547    674.22  77634.20
         Mo        10.208            3.547    674.22  77634.20
         S          3.858            3.128    251.62  12327.25
         S          3.860            3.128    251.62  12327.25
         S          3.860            3.128    251.62  12327.25
         S          3.758            3.128    251.62  12327.25
         Mo        10.208            3.547    674.22  77634.20
         Mo        10.222            3.547    674.22  77634.20
         S          3.860            3.128    251.62  12327.25
         S          3.858            3.128    251.62  12327.25
         S          3.758            3.128    251.62  12327.25
         S          3.860            3.128    251.62  12327.25
         Mo        10.222            3.547    674.22  77634.20
         Mo        10.208            3.547    674.22  77634.20
         S          3.858            3.128    251.62  12327.25
         S          3.860            3.128    251.62  12327.25
         S          3.860            3.128    251.62  12327.25
         S          3.758            3.128    251.62  12327.25
         Mo        10.208            3.547    674.21  77634.20
         Mo        10.222            3.547    674.22  77634.20
         S          3.860            3.128    251.62  12327.25
         S          3.858            3.128    251.62  12327.25
         S          3.758            3.128    251.62  12327.25
         S          3.860            3.128    251.62  12327.25
         Mo        10.222            3.547    674.22  77634.20
         Mo        10.208            3.547    674.21  77634.20
         S          3.858            3.128    251.62  12327.25
         S          3.860            3.128    251.62  12327.25
         S          3.860            3.128    251.62  12327.25
         S          3.758            3.128    251.62  12327.25
         Mo        10.208            3.547    674.22  77634.20
         Mo        10.222            3.547    674.22  77634.20
         S          3.860            3.128    251.62  12327.25
         S          3.858            3.128    251.62  12327.25
         S          3.758            3.128    251.62  12327.25
         S          3.860            3.128    251.62  12327.25
         Mo        10.222            3.547    674.22  77634.20
         Mo        10.208            3.547    674.22  77634.20
         S          3.858            3.128    251.62  12327.25
         S          3.860            3.128    251.62  12327.25
         S          3.860            3.128    251.62  12327.25
         S          3.758            3.128    251.62  12327.25
         Mo        10.208            3.547    674.22  77634.20
         Mo        10.222            3.547    674.22  77634.20
         S          3.860            3.128    251.62  12327.25
         S          3.858            3.128    251.62  12327.25
         S          3.758            3.128    251.62  12327.25
         S          3.860            3.128    251.62  12327.25
         Mo        10.222            3.547    674.22  77634.20
         Mo        10.208            3.547    674.21  77634.20
         S          3.858            3.128    251.62  12327.25
         S          3.860            3.128    251.62  12327.25
         S          3.860            3.128    251.62  12327.25
         S          3.758            3.128    251.62  12327.25
         Mo        10.208            3.547    674.22  77634.20
         Mo        10.222            3.547    674.22  77634.20
         S          3.860            3.128    251.62  12327.25
         S          3.858            3.128    251.62  12327.25
         S          3.758            3.128    251.62  12327.25
         S          3.860            3.128    251.62  12327.25
         Mo        10.222            3.547    674.22  77634.20
         Mo        10.208            3.547    674.22  77634.20
         S          3.858            3.128    251.62  12327.25
         S          3.860            3.128    251.62  12327.25
         S          3.860            3.128    251.62  12327.25
         S          3.758            3.128    251.62  12327.25
         Mo        10.208            3.547    674.22  77634.20
         Mo        10.222            3.547    674.22  77634.20
         S          3.860            3.128    251.62  12327.25
         S          3.858            3.128    251.62  12327.25
         S          3.758            3.128    251.62  12327.25
         S          3.860            3.128    251.62  12327.25
         Mo        10.222            3.547    674.22  77634.20
         Mo        10.208            3.547    674.22  77634.20
         S          3.858            3.128    251.62  12327.25
         S          3.860            3.128    251.62  12327.25
         S          3.860            3.128    251.62  12327.25
         S          3.758            3.128    251.62  12327.25
         Mo        10.208            3.547    674.22  77634.20
         Mo        10.222            3.547    674.22  77634.20
         S          3.860            3.128    251.62  12327.25
         S          3.858            3.128    251.62  12327.25
         S          3.758            3.128    251.62  12327.25
         S          3.860            3.128    251.62  12327.25
         Mo        10.222            3.547    674.22  77634.20
         Mo        10.208            3.547    674.22  77634.20
         S          3.858            3.128    251.62  12327.25
         S          3.860            3.128    251.62  12327.25
         S          3.860            3.128    251.62  12327.25
         S          3.758            3.128    251.62  12327.25

         Molecular C6 ( Ry / a.u.^6 ) =  13613703.99


     number of k points=     4  Gaussian smearing, width (Ry)=  0.0100
                       cart. coord. in units 2pi/alat
        k(    1) = (   0.0000000   0.0000000   0.0000000), wk =   0.5000000
        k(    2) = (   0.0000000  -0.5773499   0.0000000), wk =   0.5000000
        k(    3) = (  -0.5000000  -0.2886745   0.0000000), wk =   0.5000000
        k(    4) = (  -0.5000000  -0.8660244   0.0000000), wk =   0.5000000

     Dense  grid:  7154885 G-vectors     FFT dimensions: ( 180, 180, 512)

     Smooth grid:  3090769 G-vectors     FFT dimensions: ( 135, 135, 400)

     Estimated max dynamical RAM per process >       2.37 GB

     Estimated total dynamical RAM >     113.67 GB

     Initial potential from superposition of free atoms

     starting charge    1663.9395, renormalised to    1664.0000

     negative rho (up, down):  7.245E-04 0.000E+00
     Starting wfcs are 1152 randomized atomic wfcs
     Checking if some PAW data can be deallocated... 

     total cpu time spent up to now is      127.7 secs

     Self-consistent Calculation

     iteration #  1     ecut=    77.00 Ry     beta= 0.20
     Davidson diagonalization with overlap
     ethr =  1.00E-02,  avg # of iterations =  2.0

     Threshold (ethr) on eigenvalues was too large:
     Diagonalizing with lowered threshold

     Davidson diagonalization with overlap
     c_bands:  1 eigenvalues not converged
     c_bands:  3 eigenvalues not converged
     ethr =  1.14E-04,  avg # of iterations = 20.0

     negative rho (up, down):  1.569E-04 0.000E+00

     total cpu time spent up to now is     1948.3 secs

     total energy              =  -31793.73946001 Ry
     estimated scf accuracy    <       6.79534809 Ry

     iteration #  2     ecut=    77.00 Ry     beta= 0.20
     Davidson diagonalization with overlap
     ethr =  4.08E-04,  avg # of iterations =  1.0

     negative rho (up, down):  1.473E-05 0.000E+00

     total cpu time spent up to now is     2207.8 secs

     total energy              =  -31792.28269377 Ry
     estimated scf accuracy    <       3.50806159 Ry

     iteration #  3     ecut=    77.00 Ry     beta= 0.20
     Davidson diagonalization with overlap
     ethr =  2.11E-04,  avg # of iterations =  5.8

     negative rho (up, down):  9.424E-06 0.000E+00

     total cpu time spent up to now is     2531.8 secs

     total energy              =  -31792.43328025 Ry
     estimated scf accuracy    <       0.62171755 Ry

     iteration #  4     ecut=    77.00 Ry     beta= 0.20
     Davidson diagonalization with overlap
     c_bands:  3 eigenvalues not converged
     ethr =  3.74E-05,  avg # of iterations = 14.5

     negative rho (up, down):  4.652E-06 0.000E+00

     total cpu time spent up to now is     3843.7 secs

     total energy              =  -31794.91120756 Ry
     estimated scf accuracy    <       1.83874428 Ry

     iteration #  5     ecut=    77.00 Ry     beta= 0.20
     Davidson diagonalization with overlap
     ethr =  3.74E-05,  avg # of iterations =  7.0

     negative rho (up, down):  1.893E-06 0.000E+00

     total cpu time spent up to now is     4171.0 secs

     total energy              =  -31796.01966209 Ry
     estimated scf accuracy    <       3.06373363 Ry

     iteration #  6     ecut=    77.00 Ry     beta= 0.20
     Davidson diagonalization with overlap
     ethr =  3.74E-05,  avg # of iterations = 11.2

     negative rho (up, down):  2.191E-05 0.000E+00

     total cpu time spent up to now is     4597.7 secs

     total energy              =  -31793.17519732 Ry
     estimated scf accuracy    <       6.03627284 Ry

     iteration #  7     ecut=    77.00 Ry     beta= 0.20
     Davidson diagonalization with overlap
     ethr =  3.74E-05,  avg # of iterations = 10.0

     negative rho (up, down):  9.449E-05 0.000E+00

     total cpu time spent up to now is     5055.0 secs

     total energy              =  -31793.13591532 Ry
     estimated scf accuracy    <       0.86863544 Ry

     iteration #  8     ecut=    77.00 Ry     beta= 0.20
     Davidson diagonalization with overlap
     ethr =  3.74E-05,  avg # of iterations =  8.5

     negative rho (up, down):  1.059E-04 0.000E+00

     total cpu time spent up to now is     5607.2 secs

     total energy              =  -31793.65777878 Ry
     estimated scf accuracy    <       0.06903296 Ry

     iteration #  9     ecut=    77.00 Ry     beta= 0.20
     Davidson diagonalization with overlap
     ethr =  4.15E-06,  avg # of iterations = 13.2

     negative rho (up, down):  9.930E-05 0.000E+00

     total cpu time spent up to now is     6544.9 secs

     total energy              =  -31793.72520355 Ry
     estimated scf accuracy    <       0.19974355 Ry

     iteration # 10     ecut=    77.00 Ry     beta= 0.20
     Davidson diagonalization with overlap
     ethr =  4.15E-06,  avg # of iterations =  2.2

     negative rho (up, down):  1.151E-04 0.000E+00

     total cpu time spent up to now is     6829.5 secs

     total energy              =  -31793.65511569 Ry
     estimated scf accuracy    <       0.10209187 Ry

     iteration # 11     ecut=    77.00 Ry     beta= 0.20
     Davidson diagonalization with overlap
     ethr =  4.15E-06,  avg # of iterations =  8.2

     negative rho (up, down):  4.393E-04 0.000E+00

     total cpu time spent up to now is     7408.5 secs

     total energy              =  -31793.70654419 Ry
     estimated scf accuracy    <       0.04013388 Ry

     iteration # 12     ecut=    77.00 Ry     beta= 0.20
     Davidson diagonalization with overlap
     c_bands:  2 eigenvalues not converged
     c_bands:  1 eigenvalues not converged
     c_bands:  2 eigenvalues not converged
     ethr =  2.41E-06,  avg # of iterations = 15.5

     negative rho (up, down):  8.698E-04 0.000E+00

     total cpu time spent up to now is     7730.1 secs

     total energy              =  -31793.70531160 Ry
     estimated scf accuracy    <       0.00679740 Ry

     iteration # 13     ecut=    77.00 Ry     beta= 0.20
     Davidson diagonalization with overlap
     c_bands:  4 eigenvalues not converged
     c_bands:  5 eigenvalues not converged
     c_bands:  4 eigenvalues not converged
     ethr =  4.08E-07,  avg # of iterations = 39.0

     negative rho (up, down):  7.989E-04 0.000E+00

     total cpu time spent up to now is     8706.2 secs

     total energy              =  -31793.71360070 Ry
     estimated scf accuracy    <       0.00081566 Ry

     iteration # 14     ecut=    77.00 Ry     beta= 0.20
     Davidson diagonalization with overlap
     c_bands:  1 eigenvalues not converged
     c_bands:  5 eigenvalues not converged
     c_bands:  3 eigenvalues not converged
     c_bands:  4 eigenvalues not converged
     ethr =  4.90E-08,  avg # of iterations = 20.0

     negative rho (up, down):  7.876E-04 0.000E+00

     total cpu time spent up to now is     9536.1 secs

     total energy              =  -31793.71479201 Ry
     estimated scf accuracy    <       0.00050381 Ry

     iteration # 15     ecut=    77.00 Ry     beta= 0.20
     Davidson diagonalization with overlap
     c_bands:  3 eigenvalues not converged
     c_bands:  4 eigenvalues not converged
     ethr =  3.03E-08,  avg # of iterations = 15.0

     negative rho (up, down):  7.503E-04 0.000E+00

     total cpu time spent up to now is     9875.0 secs

     total energy              =  -31793.71520608 Ry
     estimated scf accuracy    <       0.00029543 Ry

     iteration # 16     ecut=    77.00 Ry     beta= 0.20
     Davidson diagonalization with overlap
     c_bands:  1 eigenvalues not converged
     c_bands:  1 eigenvalues not converged
     c_bands:  4 eigenvalues not converged
     ethr =  1.78E-08,  avg # of iterations = 27.2

     negative rho (up, down):  8.111E-04 0.000E+00

     total cpu time spent up to now is    10663.3 secs

     total energy              =  -31793.71479174 Ry
     estimated scf accuracy    <       0.00136421 Ry

     iteration # 17     ecut=    77.00 Ry     beta= 0.20
     Davidson diagonalization with overlap
     c_bands:  1 eigenvalues not converged
     ethr =  1.78E-08,  avg # of iterations = 12.0

     negative rho (up, down):  8.125E-04 0.000E+00

     total cpu time spent up to now is    11150.5 secs

     total energy              =  -31793.71507287 Ry
     estimated scf accuracy    <       0.00024389 Ry

     iteration # 18     ecut=    77.00 Ry     beta= 0.20
     Davidson diagonalization with overlap
     c_bands:  1 eigenvalues not converged
     ethr =  1.47E-08,  avg # of iterations =  5.8

     negative rho (up, down):  8.142E-04 0.000E+00

     total cpu time spent up to now is    11422.5 secs

     total energy              =  -31793.71494172 Ry
     estimated scf accuracy    <       0.00041222 Ry

     iteration # 19     ecut=    77.00 Ry     beta= 0.20
     Davidson diagonalization with overlap
     ethr =  1.47E-08,  avg # of iterations =  5.8

     negative rho (up, down):  8.290E-04 0.000E+00

     total cpu time spent up to now is    11717.3 secs

     total energy              =  -31793.71484453 Ry
     estimated scf accuracy    <       0.00020722 Ry

     iteration # 20     ecut=    77.00 Ry     beta= 0.20
     Davidson diagonalization with overlap
     ethr =  1.25E-08,  avg # of iterations =  9.5

     negative rho (up, down):  8.034E-04 0.000E+00

     total cpu time spent up to now is    12380.6 secs

     total energy              =  -31793.71496817 Ry
     estimated scf accuracy    <       0.00066602 Ry

     iteration # 21     ecut=    77.00 Ry     beta= 0.20
     Davidson diagonalization with overlap
     ethr =  1.25E-08,  avg # of iterations =  3.0

     negative rho (up, down):  7.920E-04 0.000E+00

     total cpu time spent up to now is    12667.4 secs

     total energy              =  -31793.71515876 Ry
     estimated scf accuracy    <       0.00027564 Ry

     iteration # 22     ecut=    77.00 Ry     beta= 0.20
     Davidson diagonalization with overlap
     ethr =  1.25E-08,  avg # of iterations = 15.5

     negative rho (up, down):  8.274E-04 0.000E+00

     total cpu time spent up to now is    13627.1 secs

     total energy              =  -31793.71454732 Ry
     estimated scf accuracy    <       0.00406492 Ry

     iteration # 23     ecut=    77.00 Ry     beta= 0.20
     Davidson diagonalization with overlap
     ethr =  1.25E-08,  avg # of iterations = 12.5

     negative rho (up, down):  8.306E-04 0.000E+00

     total cpu time spent up to now is    14309.6 secs

     total energy              =  -31793.71495720 Ry
     estimated scf accuracy    <       0.00046467 Ry

     iteration # 24     ecut=    77.00 Ry     beta= 0.20
     Davidson diagonalization with overlap
     ethr =  1.25E-08,  avg # of iterations =  1.0

     negative rho (up, down):  8.301E-04 0.000E+00

     total cpu time spent up to now is    14566.0 secs

     total energy              =  -31793.71487331 Ry
     estimated scf accuracy    <       0.00041895 Ry

     iteration # 25     ecut=    77.00 Ry     beta= 0.20
     Davidson diagonalization with overlap
     ethr =  1.25E-08,  avg # of iterations =  4.2

     negative rho (up, down):  8.224E-04 0.000E+00

     total cpu time spent up to now is    14859.8 secs

     total energy              =  -31793.71478299 Ry
     estimated scf accuracy    <       0.00023914 Ry

     iteration # 26     ecut=    77.00 Ry     beta= 0.20
     Davidson diagonalization with overlap
     ethr =  1.25E-08,  avg # of iterations =  6.8

     negative rho (up, down):  8.315E-04 0.000E+00

     total cpu time spent up to now is    15318.8 secs

     total energy              =  -31793.71495702 Ry
     estimated scf accuracy    <       0.00004533 Ry

     iteration # 27     ecut=    77.00 Ry     beta= 0.20
     Davidson diagonalization with overlap
     ethr =  2.72E-09,  avg # of iterations =  9.5

     negative rho (up, down):  8.401E-04 0.000E+00

     total cpu time spent up to now is    15818.5 secs

     total energy              =  -31793.71496797 Ry
     estimated scf accuracy    <       0.00004464 Ry

     iteration # 28     ecut=    77.00 Ry     beta= 0.20
     Davidson diagonalization with overlap
     ethr =  2.68E-09,  avg # of iterations =  5.2

     negative rho (up, down):  8.467E-04 0.000E+00

     total cpu time spent up to now is    16175.6 secs

     total energy              =  -31793.71497101 Ry
     estimated scf accuracy    <       0.00000640 Ry

     iteration # 29     ecut=    77.00 Ry     beta= 0.20
     Davidson diagonalization with overlap
     ethr =  3.84E-10,  avg # of iterations =  8.5

     negative rho (up, down):  8.490E-04 0.000E+00

     total cpu time spent up to now is    16832.0 secs

     total energy              =  -31793.71498091 Ry
     estimated scf accuracy    <       0.00000284 Ry

     iteration # 30     ecut=    77.00 Ry     beta= 0.20
     Davidson diagonalization with overlap
     ethr =  1.71E-10,  avg # of iterations =  6.0

     negative rho (up, down):  8.568E-04 0.000E+00

     total cpu time spent up to now is    17155.3 secs

     End of self-consistent calculation

          k = 0.0000 0.0000 0.0000 (386245 PWs)   bands (ev):

   -66.7720 -66.7720 -66.7696 -66.7695 -66.7507 -66.7507 -66.7507 -66.7507
   -66.7507 -66.7507 -66.7507 -66.7507 -66.7507 -66.7507 -66.7507 -66.7507
   -66.7482 -66.7482 -66.7482 -66.7482 -66.7482 -66.7482 -66.7482 -66.7482
   -66.7482 -66.7482 -66.7482 -66.7482 -66.7293 -66.7293 -66.7293 -66.7293
   -66.7293 -66.7293 -66.7293 -66.7293 -66.7293 -66.7293 -66.7293 -66.7293
   -66.7293 -66.7293 -66.7293 -66.7293 -66.7293 -66.7293 -66.7268 -66.7268
   -66.7268 -66.7268 -66.7268 -66.7268 -66.7268 -66.7268 -66.7268 -66.7268
   -66.7268 -66.7268 -66.7268 -66.7268 -66.7268 -66.7268 -66.7268 -66.7268
   -41.1009 -41.1009 -41.1009 -41.1009 -41.1009 -41.1009 -41.0976 -41.0975
   -41.0975 -41.0975 -41.0975 -41.0975 -41.0255 -41.0255 -41.0255 -41.0255
   -41.0255 -41.0255 -41.0255 -41.0255 -41.0255 -41.0255 -41.0255 -41.0255
   -41.0222 -41.0222 -41.0222 -41.0222 -41.0222 -41.0222 -41.0222 -41.0222
   -41.0222 -41.0222 -41.0222 -41.0222 -40.9323 -40.9322 -40.9298 -40.9298
   -40.8990 -40.8990 -40.8990 -40.8990 -40.8990 -40.8990 -40.8990 -40.8990
   -40.8990 -40.8990 -40.8990 -40.8990 -40.8957 -40.8957 -40.8957 -40.8957
   -40.8957 -40.8957 -40.8957 -40.8957 -40.8957 -40.8957 -40.8957 -40.8957
   -40.8905 -40.8905 -40.8905 -40.8905 -40.8905 -40.8904 -40.8904 -40.8904
   -40.8904 -40.8904 -40.8904 -40.8904 -40.8880 -40.8880 -40.8880 -40.8880
   -40.8880 -40.8880 -40.8880 -40.8880 -40.8880 -40.8880 -40.8880 -40.8880
   -40.8639 -40.8639 -40.8639 -40.8639 -40.8639 -40.8639 -40.8639 -40.8639
   -40.8639 -40.8639 -40.8639 -40.8639 -40.8606 -40.8606 -40.8606 -40.8606
   -40.8606 -40.8606 -40.8606 -40.8606 -40.8606 -40.8606 -40.8606 -40.8606
   -40.8484 -40.8484 -40.8484 -40.8484 -40.8484 -40.8484 -40.8484 -40.8484
   -40.8484 -40.8484 -40.8484 -40.8484 -40.8483 -40.8483 -40.8483 -40.8483
   -40.8483 -40.8483 -40.8460 -40.8460 -40.8460 -40.8460 -40.8460 -40.8460
   -40.8460 -40.8460 -40.8460 -40.8460 -40.8460 -40.8460 -40.8460 -40.8460
   -40.8460 -40.8460 -40.8459 -40.8459 -40.7855 -40.7854 -40.7854 -40.7854
   -40.7854 -40.7854 -40.7822 -40.7822 -40.7822 -40.7822 -40.7822 -40.7822
   -40.7383 -40.7383 -40.7383 -40.7383 -40.7383 -40.7383 -40.7383 -40.7383
   -40.7383 -40.7383 -40.7383 -40.7383 -40.7351 -40.7351 -40.7351 -40.7351
   -40.7351 -40.7351 -40.7351 -40.7351 -40.7350 -40.7350 -40.7350 -40.7350
   -40.6906 -40.6906 -40.6906 -40.6906 -40.6874 -40.6874 -40.6874 -40.6874
   -20.2707 -20.1953 -20.0992 -20.0237 -19.3987 -19.3987 -19.3987 -19.3987
   -19.3986 -19.3986 -19.3322 -19.3322 -19.3322 -19.3322 -19.3322 -19.3322
   -19.2448 -19.2448 -19.2448 -19.2448 -19.2448 -19.2448 -19.1738 -19.1738
   -19.1738 -19.1738 -19.1738 -19.1738 -19.0260 -18.8849 -18.7369 -18.6325
   -18.6127 -18.6126 -18.6126 -18.6126 -18.6126 -18.6126 -18.5024 -18.5024
   -18.5024 -18.5024 -18.5024 -18.5023 -18.3947 -18.3947 -18.3947 -18.3947
   -18.3947 -18.3947 -18.3227 -18.3227 -18.3227 -18.3227 -18.3227 -18.3227
   -18.2745 -18.2745 -18.2745 -18.2745 -18.2745 -18.2744 -18.2408 -18.2407
   -18.2407 -18.2407 -18.2407 -18.2407 -18.2309 -18.2309 -18.2309 -18.2026
   -18.2026 -18.2026 -18.1927 -18.1927 -18.1927 -18.1927 -18.1927 -18.1927
   -18.1631 -18.1631 -18.1631 -18.1459 -18.1459 -18.1459 -18.1459 -18.1459
   -18.1459 -18.1258 -18.1258 -18.1257 -18.0644 -18.0644 -18.0644 -18.0588
   -18.0588 -18.0588 -18.0588 -18.0587 -18.0587 -18.0271 -18.0271 -18.0271
   -18.0067 -18.0067 -18.0067 -18.0067 -18.0067 -18.0067 -18.0008 -18.0008
   -18.0008 -17.9890 -17.9890 -17.9890 -17.9665 -17.9665 -17.9665 -17.9665
   -17.9665 -17.9665 -17.9442 -17.9442 -17.9442 -17.9442 -17.9442 -17.9442
   -12.1245 -11.9659 -11.9659 -11.9659 -11.8759 -11.8759 -11.8758 -11.8686
   -11.7677 -11.7677 -11.7676 -11.6889 -11.6889 -11.6889 -11.5286 -11.3880
   -11.3880 -11.3880 -11.3880 -11.3880 -11.3880 -11.2863 -11.2863 -11.2863
   -11.2863 -11.2863 -11.2863 -11.2302 -11.2118 -11.2118 -11.2118 -11.2118
   -11.2118 -11.2118 -11.2011 -11.2011 -11.2011 -11.2011 -11.2011 -11.2011
   -11.1241 -11.1241 -11.1241 -11.1241 -11.1241 -11.1241 -11.0586 -11.0586
   -11.0586 -11.0586 -11.0586 -11.0586 -10.9988 -10.9988 -10.9988 -10.9936
   -10.9936 -10.9936 -10.9936 -10.9936 -10.9936 -10.9499 -10.9499 -10.9499
   -10.9494 -10.9494 -10.9494 -10.9493 -10.9493 -10.9493 -10.9480 -10.9479
   -10.9479 -10.9479 -10.9479 -10.9479 -10.9099 -10.9099 -10.9099 -10.9099
   -10.9099 -10.9099 -10.8850 -10.8850 -10.8850 -10.8850 -10.8850 -10.8849
   -10.8612 -10.8612 -10.8612 -10.7794 -10.7794 -10.7794 -10.7271 -10.7271
   -10.7270 -10.7270 -10.7270 -10.7270 -10.3298 -10.3298 -10.3298 -10.1212
   -10.1212 -10.1211  -9.9480  -9.9480  -9.9480  -9.9480  -9.9480  -9.9480
    -9.9202  -9.9201  -9.9201  -9.9171  -9.9171  -9.9171  -9.9171  -9.9171
    -9.9171  -9.8936  -9.8936  -9.8936  -9.8936  -9.8936  -9.8936  -9.7799
    -9.7799  -9.7799  -9.7685  -9.7685  -9.7685  -9.7685  -9.7685  -9.7685
    -9.7603  -9.7603  -9.7603  -9.7603  -9.7603  -9.7603  -9.6925  -9.6925
    -9.6925  -9.6925  -9.6925  -9.6925  -9.6846  -9.6846  -9.6846  -9.6846
    -9.6846  -9.6846  -9.6549  -9.6549  -9.6549  -9.6549  -9.6549  -9.6549
    -9.5888  -9.5888  -9.5888  -9.5888  -9.5888  -9.5888  -9.4699  -9.4699
    -9.4699  -9.4699  -9.4699  -9.4699  -9.4464  -9.4464  -9.4464  -9.4464
    -9.4464  -9.4464  -9.3626  -9.3626  -9.3626  -9.3626  -9.3626  -9.3626
    -9.3267  -9.3267  -9.3267  -9.3267  -9.3267  -9.3267  -9.2402  -9.2402
    -9.2402  -9.2402  -9.2402  -9.2402  -9.1395  -9.1394  -9.1394  -9.1129
    -9.1129  -9.1129  -9.0842  -9.0842  -9.0842  -9.0665  -9.0665  -9.0665
    -9.0637  -9.0637  -9.0637  -9.0637  -9.0637  -9.0637  -8.9728  -8.9728
    -8.9728  -8.9728  -8.9728  -8.9728  -8.9660  -8.9660  -8.9660  -8.9660
    -8.9660  -8.9660  -8.8729  -8.8729  -8.8729  -8.8729  -8.8729  -8.8729
    -8.7898  -8.7898  -8.7898  -8.7898  -8.7898  -8.7898  -8.7361  -8.7361
    -8.7361  -8.7361  -8.7361  -8.7361  -8.6439  -8.5234  -8.5234  -8.5171
    -8.5171  -8.5091  -8.5091  -8.5082  -8.5082  -8.4338  -8.4338  -8.4338
    -8.4338  -8.4338  -8.4338  -8.4106  -8.4106  -8.4105  -8.4105  -8.4105
    -8.4105  -8.3852  -8.3852  -8.3852  -8.3852  -8.3852  -8.3852  -8.3699
    -8.3699  -8.3699  -8.3699  -8.3699  -8.3699  -8.1454  -8.0094  -8.0094
    -8.0094  -7.9366  -7.9365  -7.9365  -7.8465  -7.8465  -7.8465  -7.7812
    -7.7812  -7.7812  -7.7644  -7.7644  -7.7643  -7.7643  -7.7643  -7.7643
    -7.6938  -7.6937  -7.6937  -7.6937  -7.6937  -7.6937  -7.6783  -7.6783
    -7.6783  -7.6783  -7.6783  -7.6783  -7.6696  -7.6696  -7.6696  -7.6696
    -7.6696  -7.6696  -7.6461  -7.6461  -7.6461  -7.6461  -7.6461  -7.6461
    -7.6334  -7.6334  -7.6334  -7.6334  -7.6334  -7.6334  -7.5457  -7.5457
    -7.5456  -7.5456  -7.5456  -7.5456  -7.5435  -7.5435  -7.5435  -7.5435
    -7.5435  -7.5435  -7.5125  -7.4319  -7.4319  -7.4318  -7.4318  -7.4318
    -7.4318  -7.4104  -7.4104  -7.4104  -7.4104  -7.4104  -7.4104  -7.4079
    -7.4078  -7.3906  -7.3906  -7.3733  -7.3733  -7.3646  -7.3645  -7.2003
    -7.2003  -7.2003  -7.2003  -7.2003  -7.2003  -6.9758  -6.9758  -6.9758
    -6.9758  -6.9758  -6.9758  -6.9428  -6.9428  -6.9428  -6.8793  -6.8793
    -6.8793  -6.8570  -6.8099  -6.8099  -6.8099  -6.7622  -6.7622  -6.7622
    -6.7450  -6.7450  -6.7450  -6.7450  -6.7450  -6.7450  -6.6775  -6.6775
    -6.6775  -6.6775  -6.6774  -6.6774  -6.6579  -6.6579  -6.6579  -6.6484
    -6.6484  -6.6484  -6.6484  -6.6484  -6.6484  -6.6423  -6.6423  -6.6423
    -6.6423  -6.6423  -6.6423  -6.6113  -6.6113  -6.6113  -6.5710  -6.5710
    -6.5710  -6.5518  -6.5518  -6.5518  -6.4864  -6.4864  -6.4864  -6.4864
    -6.4864  -6.4864  -6.4536  -6.4536  -6.4535  -6.4535  -6.4535  -6.4535
    -6.4192  -6.4192  -6.4191  -6.4191  -6.4191  -6.4191  -6.3973  -6.3973
    -6.3973  -6.3973  -6.3973  -6.3973  -6.3071  -5.8140  -5.4858  -5.3009
    -3.9873  -3.9873  -3.9873  -3.9873  -3.9873  -3.9872  -3.9637  -3.9636
    -3.9636  -3.9636  -3.9636  -3.9635  -3.8191  -3.8191  -3.8191  -3.8190
    -3.8190  -3.8190  -3.8164  -3.8163  -3.8163  -3.8162  -3.8162  -3.8162
    -3.6320  -3.6319  -3.6318  -3.6318  -3.6316  -3.6316  -3.6163  -3.6163
    -3.6163  -3.6163  -3.6163  -3.6163  -3.5922  -3.5922  -3.5922  -3.5875
    -3.5875  -3.5875  -3.5874  -3.5874  -3.5874  -3.5781  -3.5781  -3.5781
    -3.5619  -3.5619  -3.5618  -3.5551  -3.5550  -3.5550  -3.5550  -3.5550
    -3.5549  -3.5512  -3.5512  -3.5512  -3.4820  -3.4820  -3.4820  -3.4820
    -3.4820  -3.4820  -3.4813  -3.4812  -3.4812  -3.4812  -3.4812  -3.4812
    -3.4255  -3.4255  -3.4255  -3.4255  -3.4254  -3.4254  -3.3440  -3.3439
    -3.3439  -3.3439  -3.3438  -3.3438  -3.2004  -3.2001  -3.2000  -3.1998
    -3.1995  -3.1993  -3.1850  -3.1850  -3.1850  -3.1176  -3.1171  -3.1168
    -3.1168  -3.1165  -3.1162  -3.1096  -3.1095  -3.1055  -3.1055  -3.1054
    -3.1016  -3.1016  -3.0871  -3.0865  -3.0865  -3.0864  -3.0864  -3.0863
    -3.0845  -3.0845  -3.0758  -3.0758  -3.0714  -3.0713  -3.0711  -3.0711
    -3.0710  -3.0707  -3.0156  -3.0156  -3.0153  -2.9509  -2.9508  -2.9506
    -2.9503  -2.9502  -2.9500  -2.9489  -2.9488  -2.9487  -2.9429  -2.9425
    -2.9419  -2.9416  -2.9415  -2.9408  -2.9308  -2.9307  -2.8801  -2.8800
    -2.8799  -2.8799  -2.8799  -2.8798  -2.8725  -2.8725  -2.8162  -2.8159
    -2.7794  -2.7794  -2.7612  -2.7610  -2.7606  -2.7603  -2.7593  -2.7583
    -2.6904  -2.6903  -2.6902  -2.6902  -2.6902  -2.6900

          k = 0.0000-0.5773 0.0000 (386352 PWs)   bands (ev):

   -66.7658 -66.7658 -66.7658 -66.7658 -66.7633 -66.7633 -66.7633 -66.7633
   -66.7551 -66.7551 -66.7551 -66.7551 -66.7527 -66.7527 -66.7527 -66.7527
   -66.7400 -66.7400 -66.7400 -66.7400 -66.7400 -66.7400 -66.7400 -66.7400
   -66.7376 -66.7375 -66.7375 -66.7375 -66.7375 -66.7375 -66.7375 -66.7375
   -66.7356 -66.7356 -66.7356 -66.7356 -66.7331 -66.7331 -66.7331 -66.7331
   -66.7293 -66.7293 -66.7293 -66.7293 -66.7293 -66.7293 -66.7293 -66.7293
   -66.7268 -66.7268 -66.7268 -66.7268 -66.7268 -66.7268 -66.7268 -66.7268
   -66.7249 -66.7248 -66.7248 -66.7248 -66.7224 -66.7224 -66.7224 -66.7224
   -41.0693 -41.0692 -41.0692 -41.0692 -41.0692 -41.0692 -41.0692 -41.0692
   -41.0659 -41.0659 -41.0659 -41.0659 -41.0659 -41.0659 -41.0659 -41.0659
   -41.0424 -41.0424 -41.0424 -41.0424 -41.0391 -41.0391 -41.0391 -41.0391
   -41.0304 -41.0303 -41.0303 -41.0303 -41.0270 -41.0270 -41.0270 -41.0270
   -40.9796 -40.9796 -40.9796 -40.9796 -40.9796 -40.9796 -40.9796 -40.9796
   -40.9763 -40.9763 -40.9763 -40.9763 -40.9763 -40.9762 -40.9762 -40.9762
   -40.9201 -40.9200 -40.9200 -40.9200 -40.9176 -40.9176 -40.9176 -40.9176
   -40.9111 -40.9111 -40.9111 -40.9111 -40.9079 -40.9079 -40.9079 -40.9079
   -40.8991 -40.8991 -40.8991 -40.8991 -40.8967 -40.8967 -40.8967 -40.8967
   -40.8695 -40.8695 -40.8695 -40.8695 -40.8694 -40.8694 -40.8694 -40.8694
   -40.8671 -40.8671 -40.8671 -40.8670 -40.8670 -40.8670 -40.8670 -40.8670
   -40.8607 -40.8607 -40.8607 -40.8607 -40.8583 -40.8583 -40.8583 -40.8583
   -40.8496 -40.8496 -40.8496 -40.8496 -40.8484 -40.8484 -40.8484 -40.8484
   -40.8484 -40.8484 -40.8484 -40.8484 -40.8464 -40.8464 -40.8464 -40.8464
   -40.8460 -40.8460 -40.8460 -40.8460 -40.8460 -40.8460 -40.8460 -40.8460
   -40.8397 -40.8397 -40.8397 -40.8397 -40.8373 -40.8373 -40.8373 -40.8373
   -40.8186 -40.8186 -40.8186 -40.8186 -40.8186 -40.8186 -40.8186 -40.8186
   -40.8154 -40.8154 -40.8154 -40.8154 -40.8154 -40.8154 -40.8154 -40.8154
   -40.7838 -40.7838 -40.7838 -40.7838 -40.7838 -40.7838 -40.7838 -40.7838
   -40.7806 -40.7806 -40.7806 -40.7806 -40.7806 -40.7806 -40.7806 -40.7806
   -40.7717 -40.7717 -40.7717 -40.7717 -40.7685 -40.7684 -40.7684 -40.7684
   -40.7524 -40.7524 -40.7523 -40.7523 -40.7491 -40.7491 -40.7491 -40.7491
   -40.7353 -40.7353 -40.7353 -40.7353 -40.7321 -40.7321 -40.7321 -40.7321
   -40.7046 -40.7046 -40.7046 -40.7046 -40.7014 -40.7014 -40.7014 -40.7014
   -20.0328 -20.0328 -19.9590 -19.9590 -19.8643 -19.8643 -19.7893 -19.7893
   -19.5954 -19.5954 -19.5261 -19.5261 -19.4357 -19.4357 -19.3628 -19.3628
   -18.9131 -18.9131 -18.8802 -18.8802 -18.8802 -18.8802 -18.8244 -18.8244
   -18.8244 -18.8244 -18.7797 -18.7797 -18.7488 -18.7488 -18.7488 -18.7488
   -18.7050 -18.7050 -18.6853 -18.6853 -18.6853 -18.6853 -18.6420 -18.6420
   -18.6284 -18.6284 -18.5869 -18.5869 -18.5809 -18.5809 -18.5461 -18.5461
   -18.5156 -18.5156 -18.4693 -18.4693 -18.4592 -18.4592 -18.3894 -18.3894
   -18.3640 -18.3640 -18.3640 -18.3640 -18.2760 -18.2760 -18.2760 -18.2760
   -18.2533 -18.2533 -18.2533 -18.2533 -18.2519 -18.2519 -18.2222 -18.2222
   -18.2222 -18.2222 -18.1961 -18.1961 -18.1961 -18.1961 -18.1797 -18.1797
   -18.1783 -18.1783 -18.1783 -18.1783 -18.1453 -18.1453 -18.1453 -18.1453
   -18.1356 -18.1356 -18.1356 -18.1356 -18.1181 -18.1181 -18.0809 -18.0809
   -18.0621 -18.0621 -18.0621 -18.0620 -18.0169 -18.0169 -18.0169 -18.0168
   -17.9832 -17.9832 -17.9832 -17.9832 -17.9716 -17.9716 -17.9659 -17.9659
   -17.9659 -17.9659 -17.9580 -17.9580 -17.9394 -17.9394 -17.9169 -17.9169
   -17.8985 -17.8985 -17.8815 -17.8815 -17.8680 -17.8680 -17.8661 -17.8661
   -11.8628 -11.8628 -11.6631 -11.6631 -11.6631 -11.6631 -11.6325 -11.6325
   -11.6157 -11.6157 -11.5778 -11.5778 -11.5778 -11.5777 -11.5378 -11.5378
   -11.4752 -11.4752 -11.4752 -11.4752 -11.4648 -11.4648 -11.4207 -11.4207
   -11.4147 -11.4147 -11.4032 -11.4032 -11.4032 -11.4032 -11.3747 -11.3747
   -11.3333 -11.3333 -11.3246 -11.3246 -11.3187 -11.3187 -11.3187 -11.3187
   -11.2867 -11.2867 -11.2811 -11.2811 -11.2469 -11.2469 -11.1989 -11.1989
   -11.1989 -11.1989 -11.0862 -11.0862 -11.0495 -11.0495 -11.0495 -11.0495
   -11.0148 -11.0148 -10.9796 -10.9795 -10.9629 -10.9629 -10.9629 -10.9629
   -10.9548 -10.9548 -10.9450 -10.9450 -10.9404 -10.9404 -10.9404 -10.9404
   -10.9394 -10.9394 -10.9394 -10.9394 -10.9364 -10.9364 -10.8995 -10.8995
   -10.8995 -10.8995 -10.8835 -10.8835 -10.8835 -10.8835 -10.6796 -10.6796
   -10.6664 -10.6664 -10.6159 -10.6159 -10.5148 -10.5148 -10.3810 -10.3810
   -10.2840 -10.2840 -10.2840 -10.2840 -10.2252 -10.2252 -10.2252 -10.2252
   -10.1986 -10.1986 -10.1986 -10.1986 -10.1473 -10.1473 -10.1473 -10.1473
   -10.1467 -10.1467 -10.0631 -10.0631 -10.0631 -10.0631 -10.0474 -10.0474
   -10.0424 -10.0424 -10.0424 -10.0424  -9.9977  -9.9977  -9.9346  -9.9346
    -9.9165  -9.9165  -9.9165  -9.9165  -9.8835  -9.8835  -9.8539  -9.8539
    -9.8539  -9.8539  -9.7986  -9.7986  -9.7986  -9.7986  -9.7728  -9.7728
    -9.7413  -9.7413  -9.6816  -9.6816  -9.6816  -9.6816  -9.6816  -9.6816
    -9.6816  -9.6816  -9.6537  -9.6537  -9.6353  -9.6353  -9.6099  -9.6099
    -9.6092  -9.6092  -9.5834  -9.5834  -9.5628  -9.5627  -9.5627  -9.5627
    -9.4798  -9.4798  -9.3786  -9.3786  -9.3718  -9.3718  -9.3223  -9.3223
    -9.3223  -9.3222  -9.3007  -9.3007  -9.3007  -9.3007  -9.2306  -9.2306
    -9.1996  -9.1996  -9.1922  -9.1922  -9.1688  -9.1688  -9.1688  -9.1688
    -9.1534  -9.1534  -9.1534  -9.1534  -9.0919  -9.0919  -9.0701  -9.0701
    -9.0700  -9.0700  -9.0673  -9.0673  -9.0330  -9.0330  -9.0330  -9.0330
    -9.0262  -9.0262  -9.0128  -9.0128  -9.0063  -9.0063  -9.0063  -9.0063
    -8.9921  -8.9921  -8.9882  -8.9882  -8.9662  -8.9662  -8.9520  -8.9520
    -8.9480  -8.9480  -8.9305  -8.9305  -8.9305  -8.9305  -8.9262  -8.9262
    -8.8983  -8.8983  -8.8812  -8.8812  -8.8684  -8.8684  -8.8253  -8.8253
    -8.7828  -8.7828  -8.7132  -8.7132  -8.6633  -8.6633  -8.6241  -8.6241
    -8.5607  -8.5607  -8.4950  -8.4950  -8.3857  -8.3857  -8.2841  -8.2841
    -8.2738  -8.2738  -8.2627  -8.2627  -8.2590  -8.2590  -8.2091  -8.2091
    -8.1196  -8.1196  -8.0834  -8.0834  -7.9885  -7.9885  -7.9885  -7.9885
    -7.9569  -7.9569  -7.9569  -7.9569  -7.9381  -7.9381  -7.9336  -7.9336
    -7.9336  -7.9336  -7.9332  -7.9332  -7.9313  -7.9313  -7.9249  -7.9249
    -7.9191  -7.9191  -7.9191  -7.9191  -7.9126  -7.9126  -7.9091  -7.9091
    -7.8929  -7.8929  -7.8929  -7.8929  -7.8596  -7.8596  -7.8596  -7.8596
    -7.8404  -7.8404  -7.8404  -7.8404  -7.8316  -7.8316  -7.8208  -7.8208
    -7.8208  -7.8208  -7.8014  -7.8014  -7.8014  -7.8014  -7.7821  -7.7821
    -7.7651  -7.7651  -7.7447  -7.7447  -7.7413  -7.7413  -7.7413  -7.7413
    -7.7245  -7.7245  -7.7136  -7.7136  -7.6866  -7.6866  -7.6769  -7.6769
    -7.6769  -7.6769  -7.5912  -7.5912  -7.5912  -7.5912  -7.5485  -7.5485
    -7.3183  -7.3183  -7.3183  -7.3183  -7.2829  -7.2829  -7.2829  -7.2829
    -7.2513  -7.2513  -7.2211  -7.2211  -7.2211  -7.2211  -7.1566  -7.1566
    -7.1554  -7.1554  -7.1554  -7.1554  -7.1374  -7.1373  -7.0888  -7.0888
    -7.0480  -7.0480  -7.0372  -7.0372  -7.0042  -7.0042  -7.0034  -7.0034
    -6.9660  -6.9660  -6.9414  -6.9414  -6.9023  -6.9022  -6.8176  -6.8176
    -6.8158  -6.8158  -6.7649  -6.7649  -6.7579  -6.7579  -6.7579  -6.7579
    -6.7400  -6.7400  -6.7400  -6.7400  -6.7285  -6.7285  -6.7285  -6.7285
    -6.7259  -6.7259  -6.7259  -6.7259  -6.6268  -6.6268  -6.5856  -6.5856
    -6.5324  -6.5324  -6.4751  -6.4751  -6.4751  -6.4751  -6.4282  -6.4282
    -6.4248  -6.4248  -6.4248  -6.4248  -6.4201  -6.4201  -6.4143  -6.4143
    -6.3761  -6.3761  -6.3761  -6.3761  -6.3458  -6.3458  -6.3458  -6.3458
    -6.3270  -6.3270  -6.1446  -6.1446  -6.0930  -6.0930  -6.0334  -6.0334
    -5.9894  -5.9894  -5.9818  -5.9818  -5.8113  -5.8113  -5.7318  -5.7318
    -4.2253  -4.2253  -4.2253  -4.2253  -4.0737  -4.0737  -4.0421  -4.0418
    -4.0418  -4.0416  -3.9903  -3.9902  -3.9722  -3.9722  -3.9554  -3.9554
    -3.9466  -3.9465  -3.9237  -3.9237  -3.8072  -3.8072  -3.8072  -3.8072
    -3.7437  -3.7437  -3.7437  -3.7437  -3.7334  -3.7334  -3.6983  -3.6983
    -3.6638  -3.6638  -3.6597  -3.6596  -3.6596  -3.6593  -3.6225  -3.6225
    -3.6165  -3.6164  -3.6068  -3.6068  -3.6068  -3.6068  -3.5917  -3.5917
    -3.5620  -3.5620  -3.5620  -3.5620  -3.5488  -3.5487  -3.4906  -3.4905
    -3.4905  -3.4905  -3.4879  -3.4878  -3.4820  -3.4820  -3.4475  -3.4473
    -3.4297  -3.4294  -3.4253  -3.4252  -3.4252  -3.4252  -3.4221  -3.4220
    -3.3891  -3.3890  -3.3781  -3.3781  -3.3780  -3.3780  -3.3584  -3.3583
    -3.3500  -3.3499  -3.3406  -3.3404  -3.3123  -3.3122  -3.3071  -3.3071
    -3.3071  -3.3070  -3.3053  -3.3053  -3.3051  -3.3051  -3.2339  -3.2330
    -3.2057  -3.2056  -3.1951  -3.1951  -3.1951  -3.1951  -3.1668  -3.1667
    -3.1657  -3.1656  -3.1656  -3.1655  -3.1521  -3.1521  -3.1461  -3.1460
    -3.1380  -3.1379  -3.1298  -3.1296  -3.1128  -3.1126  -3.1125  -3.1102
    -3.0915  -3.0914  -3.0913  -3.0912  -3.0878  -3.0876  -3.0859  -3.0858
    -3.0728  -3.0725  -3.0723  -3.0722  -3.0288  -3.0282  -3.0274  -3.0273
    -3.0138  -3.0137  -2.9903  -2.9895  -2.9291  -2.9290  -2.9288  -2.9287
    -2.8475  -2.8475  -2.8475  -2.8474  -2.7517  -2.7516  -2.7127  -2.7127
    -2.6823  -2.6823  -2.6813  -2.6678  -2.6678  -2.6628  -2.6594  -2.6592
    -2.6592  -2.6591  -2.5253  -2.5236  -2.4856  -2.4856

          k =-0.5000-0.2887 0.0000 (386352 PWs)   bands (ev):

   -66.7658 -66.7658 -66.7658 -66.7658 -66.7633 -66.7633 -66.7633 -66.7633
   -66.7551 -66.7551 -66.7551 -66.7551 -66.7527 -66.7527 -66.7527 -66.7527
   -66.7400 -66.7400 -66.7400 -66.7400 -66.7400 -66.7400 -66.7400 -66.7400
   -66.7376 -66.7375 -66.7375 -66.7375 -66.7375 -66.7375 -66.7375 -66.7375
   -66.7356 -66.7356 -66.7356 -66.7355 -66.7331 -66.7331 -66.7331 -66.7331
   -66.7293 -66.7293 -66.7293 -66.7293 -66.7293 -66.7293 -66.7293 -66.7293
   -66.7268 -66.7268 -66.7268 -66.7268 -66.7268 -66.7268 -66.7268 -66.7268
   -66.7248 -66.7248 -66.7248 -66.7248 -66.7224 -66.7224 -66.7224 -66.7224
   -41.0693 -41.0693 -41.0692 -41.0692 -41.0692 -41.0692 -41.0692 -41.0692
   -41.0659 -41.0659 -41.0659 -41.0659 -41.0659 -41.0659 -41.0659 -41.0659
   -41.0424 -41.0424 -41.0424 -41.0424 -41.0391 -41.0391 -41.0391 -41.0391
   -41.0304 -41.0303 -41.0303 -41.0303 -41.0270 -41.0270 -41.0270 -41.0270
   -40.9796 -40.9796 -40.9796 -40.9796 -40.9796 -40.9796 -40.9796 -40.9796
   -40.9763 -40.9763 -40.9763 -40.9763 -40.9763 -40.9762 -40.9762 -40.9762
   -40.9201 -40.9200 -40.9200 -40.9200 -40.9176 -40.9176 -40.9176 -40.9176
   -40.9111 -40.9111 -40.9111 -40.9111 -40.9079 -40.9079 -40.9079 -40.9079
   -40.8991 -40.8991 -40.8991 -40.8991 -40.8967 -40.8967 -40.8967 -40.8967
   -40.8695 -40.8695 -40.8695 -40.8695 -40.8694 -40.8694 -40.8694 -40.8694
   -40.8671 -40.8671 -40.8670 -40.8670 -40.8670 -40.8670 -40.8670 -40.8670
   -40.8607 -40.8607 -40.8607 -40.8607 -40.8583 -40.8583 -40.8583 -40.8583
   -40.8496 -40.8496 -40.8496 -40.8496 -40.8484 -40.8484 -40.8484 -40.8484
   -40.8484 -40.8484 -40.8484 -40.8483 -40.8464 -40.8464 -40.8464 -40.8464
   -40.8460 -40.8460 -40.8460 -40.8460 -40.8460 -40.8460 -40.8460 -40.8460
   -40.8397 -40.8397 -40.8397 -40.8397 -40.8373 -40.8373 -40.8373 -40.8373
   -40.8186 -40.8186 -40.8186 -40.8186 -40.8186 -40.8186 -40.8186 -40.8186
   -40.8154 -40.8154 -40.8154 -40.8154 -40.8154 -40.8154 -40.8154 -40.8154
   -40.7838 -40.7838 -40.7838 -40.7838 -40.7838 -40.7838 -40.7838 -40.7838
   -40.7806 -40.7806 -40.7806 -40.7806 -40.7806 -40.7806 -40.7806 -40.7806
   -40.7717 -40.7717 -40.7717 -40.7717 -40.7685 -40.7684 -40.7684 -40.7684
   -40.7524 -40.7524 -40.7523 -40.7523 -40.7491 -40.7491 -40.7491 -40.7491
   -40.7353 -40.7353 -40.7353 -40.7353 -40.7321 -40.7321 -40.7321 -40.7321
   -40.7046 -40.7046 -40.7046 -40.7046 -40.7014 -40.7014 -40.7014 -40.7014
   -20.0328 -20.0328 -19.9590 -19.9590 -19.8643 -19.8643 -19.7893 -19.7893
   -19.5954 -19.5954 -19.5261 -19.5261 -19.4357 -19.4357 -19.3628 -19.3628
   -18.9131 -18.9131 -18.8802 -18.8802 -18.8802 -18.8802 -18.8244 -18.8244
   -18.8244 -18.8244 -18.7797 -18.7797 -18.7488 -18.7488 -18.7488 -18.7488
   -18.7050 -18.7050 -18.6853 -18.6853 -18.6853 -18.6853 -18.6420 -18.6420
   -18.6284 -18.6284 -18.5869 -18.5869 -18.5809 -18.5809 -18.5461 -18.5461
   -18.5156 -18.5156 -18.4693 -18.4693 -18.4592 -18.4592 -18.3894 -18.3894
   -18.3640 -18.3640 -18.3640 -18.3640 -18.2761 -18.2760 -18.2760 -18.2760
   -18.2534 -18.2533 -18.2533 -18.2533 -18.2519 -18.2519 -18.2223 -18.2222
   -18.2222 -18.2222 -18.1961 -18.1961 -18.1961 -18.1961 -18.1797 -18.1797
   -18.1783 -18.1783 -18.1782 -18.1782 -18.1453 -18.1453 -18.1453 -18.1453
   -18.1356 -18.1356 -18.1356 -18.1356 -18.1181 -18.1181 -18.0809 -18.0809
   -18.0621 -18.0621 -18.0620 -18.0620 -18.0169 -18.0169 -18.0168 -18.0168
   -17.9833 -17.9833 -17.9832 -17.9832 -17.9716 -17.9716 -17.9659 -17.9659
   -17.9659 -17.9659 -17.9580 -17.9580 -17.9394 -17.9394 -17.9169 -17.9169
   -17.8985 -17.8985 -17.8815 -17.8815 -17.8680 -17.8680 -17.8661 -17.8661
   -11.8628 -11.8628 -11.6631 -11.6631 -11.6631 -11.6631 -11.6325 -11.6325
   -11.6157 -11.6157 -11.5778 -11.5778 -11.5777 -11.5777 -11.5378 -11.5378
   -11.4752 -11.4752 -11.4752 -11.4752 -11.4648 -11.4648 -11.4207 -11.4207
   -11.4147 -11.4147 -11.4032 -11.4032 -11.4032 -11.4032 -11.3747 -11.3747
   -11.3333 -11.3332 -11.3246 -11.3246 -11.3187 -11.3187 -11.3187 -11.3187
   -11.2867 -11.2867 -11.2811 -11.2811 -11.2469 -11.2469 -11.1989 -11.1989
   -11.1989 -11.1989 -11.0862 -11.0862 -11.0495 -11.0495 -11.0495 -11.0495
   -11.0148 -11.0148 -10.9796 -10.9795 -10.9629 -10.9629 -10.9629 -10.9629
   -10.9548 -10.9548 -10.9450 -10.9450 -10.9404 -10.9404 -10.9404 -10.9404
   -10.9394 -10.9394 -10.9394 -10.9394 -10.9364 -10.9364 -10.8995 -10.8995
   -10.8995 -10.8995 -10.8835 -10.8835 -10.8835 -10.8834 -10.6796 -10.6796
   -10.6664 -10.6664 -10.6159 -10.6158 -10.5148 -10.5148 -10.3810 -10.3810
   -10.2840 -10.2840 -10.2840 -10.2840 -10.2252 -10.2252 -10.2252 -10.2252
   -10.1986 -10.1986 -10.1986 -10.1986 -10.1473 -10.1473 -10.1473 -10.1473
   -10.1467 -10.1467 -10.0631 -10.0631 -10.0631 -10.0631 -10.0474 -10.0474
   -10.0424 -10.0424 -10.0423 -10.0423  -9.9977  -9.9977  -9.9346  -9.9346
    -9.9165  -9.9165  -9.9165  -9.9165  -9.8835  -9.8835  -9.8539  -9.8539
    -9.8539  -9.8538  -9.7986  -9.7986  -9.7986  -9.7986  -9.7728  -9.7728
    -9.7413  -9.7413  -9.6816  -9.6816  -9.6816  -9.6816  -9.6816  -9.6816
    -9.6816  -9.6815  -9.6537  -9.6537  -9.6353  -9.6353  -9.6099  -9.6099
    -9.6092  -9.6092  -9.5834  -9.5834  -9.5628  -9.5628  -9.5627  -9.5627
    -9.4798  -9.4798  -9.3786  -9.3786  -9.3718  -9.3718  -9.3223  -9.3223
    -9.3222  -9.3222  -9.3007  -9.3007  -9.3007  -9.3007  -9.2306  -9.2306
    -9.1996  -9.1996  -9.1922  -9.1922  -9.1688  -9.1688  -9.1688  -9.1688
    -9.1534  -9.1534  -9.1534  -9.1534  -9.0919  -9.0919  -9.0701  -9.0701
    -9.0700  -9.0700  -9.0673  -9.0673  -9.0330  -9.0330  -9.0330  -9.0330
    -9.0262  -9.0262  -9.0128  -9.0128  -9.0063  -9.0063  -9.0063  -9.0063
    -8.9921  -8.9921  -8.9882  -8.9882  -8.9662  -8.9662  -8.9520  -8.9520
    -8.9480  -8.9480  -8.9305  -8.9305  -8.9305  -8.9305  -8.9262  -8.9262
    -8.8983  -8.8983  -8.8812  -8.8812  -8.8684  -8.8684  -8.8253  -8.8253
    -8.7828  -8.7828  -8.7132  -8.7132  -8.6633  -8.6633  -8.6241  -8.6241
    -8.5607  -8.5607  -8.4950  -8.4950  -8.3857  -8.3857  -8.2841  -8.2841
    -8.2738  -8.2738  -8.2627  -8.2627  -8.2590  -8.2590  -8.2091  -8.2091
    -8.1195  -8.1195  -8.0833  -8.0833  -7.9885  -7.9885  -7.9885  -7.9885
    -7.9569  -7.9569  -7.9569  -7.9569  -7.9382  -7.9381  -7.9336  -7.9336
    -7.9336  -7.9336  -7.9332  -7.9332  -7.9313  -7.9313  -7.9249  -7.9249
    -7.9191  -7.9191  -7.9191  -7.9191  -7.9126  -7.9126  -7.9091  -7.9091
    -7.8929  -7.8929  -7.8929  -7.8929  -7.8596  -7.8596  -7.8596  -7.8596
    -7.8404  -7.8404  -7.8404  -7.8404  -7.8316  -7.8316  -7.8208  -7.8208
    -7.8208  -7.8208  -7.8014  -7.8014  -7.8014  -7.8014  -7.7821  -7.7821
    -7.7651  -7.7651  -7.7448  -7.7447  -7.7413  -7.7413  -7.7413  -7.7413
    -7.7245  -7.7245  -7.7136  -7.7136  -7.6866  -7.6866  -7.6769  -7.6769
    -7.6769  -7.6769  -7.5912  -7.5912  -7.5912  -7.5912  -7.5485  -7.5485
    -7.3183  -7.3183  -7.3183  -7.3183  -7.2829  -7.2829  -7.2829  -7.2829
    -7.2513  -7.2513  -7.2211  -7.2211  -7.2211  -7.2211  -7.1566  -7.1566
    -7.1554  -7.1554  -7.1554  -7.1554  -7.1374  -7.1373  -7.0888  -7.0888
    -7.0480  -7.0480  -7.0372  -7.0372  -7.0042  -7.0042  -7.0034  -7.0034
    -6.9660  -6.9660  -6.9414  -6.9414  -6.9022  -6.9022  -6.8176  -6.8176
    -6.8158  -6.8158  -6.7649  -6.7649  -6.7579  -6.7579  -6.7579  -6.7579
    -6.7400  -6.7400  -6.7400  -6.7400  -6.7285  -6.7285  -6.7285  -6.7285
    -6.7259  -6.7259  -6.7259  -6.7259  -6.6268  -6.6268  -6.5856  -6.5856
    -6.5324  -6.5324  -6.4751  -6.4751  -6.4751  -6.4751  -6.4282  -6.4282
    -6.4248  -6.4248  -6.4248  -6.4248  -6.4201  -6.4201  -6.4143  -6.4143
    -6.3761  -6.3761  -6.3761  -6.3761  -6.3458  -6.3458  -6.3458  -6.3458
    -6.3270  -6.3270  -6.1446  -6.1446  -6.0930  -6.0930  -6.0334  -6.0334
    -5.9894  -5.9894  -5.9818  -5.9818  -5.8113  -5.8113  -5.7318  -5.7318
    -4.2253  -4.2253  -4.2253  -4.2253  -4.0737  -4.0736  -4.0423  -4.0420
    -4.0420  -4.0420  -3.9903  -3.9903  -3.9723  -3.9722  -3.9555  -3.9555
    -3.9466  -3.9465  -3.9237  -3.9237  -3.8072  -3.8072  -3.8071  -3.8071
    -3.7437  -3.7437  -3.7437  -3.7436  -3.7334  -3.7334  -3.6983  -3.6983
    -3.6638  -3.6638  -3.6596  -3.6596  -3.6595  -3.6595  -3.6226  -3.6225
    -3.6163  -3.6160  -3.6068  -3.6068  -3.6067  -3.6067  -3.5917  -3.5917
    -3.5620  -3.5620  -3.5620  -3.5619  -3.5486  -3.5485  -3.4905  -3.4905
    -3.4905  -3.4905  -3.4879  -3.4878  -3.4820  -3.4820  -3.4474  -3.4472
    -3.4301  -3.4300  -3.4253  -3.4253  -3.4253  -3.4252  -3.4227  -3.4227
    -3.3891  -3.3891  -3.3781  -3.3781  -3.3779  -3.3779  -3.3585  -3.3584
    -3.3500  -3.3500  -3.3407  -3.3406  -3.3123  -3.3122  -3.3072  -3.3072
    -3.3072  -3.3071  -3.3054  -3.3053  -3.3052  -3.3051  -3.2343  -3.2312
    -3.2057  -3.2057  -3.1951  -3.1951  -3.1951  -3.1950  -3.1668  -3.1667
    -3.1656  -3.1655  -3.1654  -3.1654  -3.1519  -3.1518  -3.1462  -3.1461
    -3.1384  -3.1382  -3.1297  -3.1297  -3.1127  -3.1123  -3.1119  -3.1113
    -3.0911  -3.0908  -3.0906  -3.0906  -3.0879  -3.0877  -3.0858  -3.0856
    -3.0728  -3.0727  -3.0722  -3.0721  -3.0280  -3.0277  -3.0274  -3.0267
    -3.0139  -3.0137  -2.9920  -2.9912  -2.9292  -2.9288  -2.9280  -2.9277
    -2.8476  -2.8475  -2.8471  -2.8470  -2.7517  -2.7517  -2.7127  -2.7126
    -2.6823  -2.6823  -2.6764  -2.6679  -2.6678  -2.6663  -2.6599  -2.6596
    -2.6595  -2.6593  -2.5254  -2.5242  -2.4858  -2.4855

          k =-0.5000-0.8660 0.0000 (386352 PWs)   bands (ev):

   -66.7658 -66.7658 -66.7658 -66.7658 -66.7633 -66.7633 -66.7633 -66.7633
   -66.7551 -66.7551 -66.7551 -66.7551 -66.7527 -66.7527 -66.7527 -66.7527
   -66.7400 -66.7400 -66.7400 -66.7400 -66.7400 -66.7400 -66.7400 -66.7400
   -66.7376 -66.7375 -66.7375 -66.7375 -66.7375 -66.7375 -66.7375 -66.7375
   -66.7356 -66.7356 -66.7356 -66.7356 -66.7331 -66.7331 -66.7331 -66.7331
   -66.7293 -66.7293 -66.7293 -66.7293 -66.7293 -66.7293 -66.7293 -66.7293
   -66.7268 -66.7268 -66.7268 -66.7268 -66.7268 -66.7268 -66.7268 -66.7268
   -66.7249 -66.7248 -66.7248 -66.7248 -66.7224 -66.7224 -66.7224 -66.7224
   -41.0693 -41.0693 -41.0693 -41.0692 -41.0692 -41.0692 -41.0692 -41.0692
   -41.0659 -41.0659 -41.0659 -41.0659 -41.0659 -41.0659 -41.0659 -41.0659
   -41.0424 -41.0424 -41.0424 -41.0424 -41.0391 -41.0391 -41.0391 -41.0391
   -41.0304 -41.0303 -41.0303 -41.0303 -41.0270 -41.0270 -41.0270 -41.0270
   -40.9796 -40.9796 -40.9796 -40.9796 -40.9796 -40.9796 -40.9796 -40.9796
   -40.9763 -40.9763 -40.9763 -40.9763 -40.9763 -40.9762 -40.9762 -40.9762
   -40.9201 -40.9200 -40.9200 -40.9200 -40.9176 -40.9176 -40.9176 -40.9176
   -40.9111 -40.9111 -40.9111 -40.9111 -40.9079 -40.9079 -40.9079 -40.9079
   -40.8992 -40.8991 -40.8991 -40.8991 -40.8967 -40.8967 -40.8967 -40.8967
   -40.8695 -40.8695 -40.8695 -40.8695 -40.8694 -40.8694 -40.8694 -40.8694
   -40.8671 -40.8671 -40.8671 -40.8670 -40.8670 -40.8670 -40.8670 -40.8670
   -40.8607 -40.8607 -40.8607 -40.8607 -40.8583 -40.8583 -40.8583 -40.8583
   -40.8496 -40.8496 -40.8496 -40.8496 -40.8484 -40.8484 -40.8484 -40.8484
   -40.8484 -40.8484 -40.8483 -40.8483 -40.8464 -40.8464 -40.8464 -40.8464
   -40.8460 -40.8460 -40.8460 -40.8460 -40.8460 -40.8460 -40.8460 -40.8460
   -40.8397 -40.8397 -40.8397 -40.8397 -40.8373 -40.8373 -40.8373 -40.8373
   -40.8186 -40.8186 -40.8186 -40.8186 -40.8186 -40.8186 -40.8186 -40.8186
   -40.8154 -40.8154 -40.8154 -40.8154 -40.8154 -40.8154 -40.8154 -40.8154
   -40.7838 -40.7838 -40.7838 -40.7838 -40.7838 -40.7838 -40.7838 -40.7838
   -40.7806 -40.7806 -40.7806 -40.7806 -40.7806 -40.7806 -40.7806 -40.7806
   -40.7717 -40.7717 -40.7717 -40.7717 -40.7685 -40.7685 -40.7684 -40.7684
   -40.7524 -40.7523 -40.7523 -40.7523 -40.7491 -40.7491 -40.7491 -40.7491
   -40.7353 -40.7353 -40.7353 -40.7353 -40.7321 -40.7321 -40.7321 -40.7321
   -40.7046 -40.7046 -40.7046 -40.7046 -40.7014 -40.7014 -40.7014 -40.7014
   -20.0328 -20.0328 -19.9590 -19.9590 -19.8643 -19.8643 -19.7893 -19.7893
   -19.5954 -19.5954 -19.5261 -19.5261 -19.4357 -19.4357 -19.3628 -19.3628
   -18.9131 -18.9131 -18.8802 -18.8802 -18.8802 -18.8802 -18.8244 -18.8244
   -18.8244 -18.8244 -18.7797 -18.7797 -18.7488 -18.7488 -18.7488 -18.7488
   -18.7050 -18.7050 -18.6853 -18.6853 -18.6853 -18.6853 -18.6420 -18.6420
   -18.6284 -18.6284 -18.5869 -18.5869 -18.5809 -18.5809 -18.5461 -18.5461
   -18.5156 -18.5156 -18.4693 -18.4693 -18.4592 -18.4592 -18.3894 -18.3894
   -18.3640 -18.3640 -18.3640 -18.3640 -18.2760 -18.2760 -18.2760 -18.2760
   -18.2533 -18.2533 -18.2533 -18.2533 -18.2519 -18.2518 -18.2222 -18.2222
   -18.2222 -18.2222 -18.1961 -18.1961 -18.1961 -18.1961 -18.1797 -18.1797
   -18.1783 -18.1783 -18.1783 -18.1782 -18.1453 -18.1453 -18.1453 -18.1453
   -18.1356 -18.1356 -18.1356 -18.1356 -18.1181 -18.1181 -18.0809 -18.0809
   -18.0621 -18.0621 -18.0621 -18.0620 -18.0169 -18.0169 -18.0169 -18.0168
   -17.9833 -17.9833 -17.9832 -17.9832 -17.9716 -17.9716 -17.9659 -17.9659
   -17.9659 -17.9659 -17.9580 -17.9580 -17.9394 -17.9394 -17.9169 -17.9169
   -17.8985 -17.8985 -17.8815 -17.8815 -17.8680 -17.8680 -17.8661 -17.8661
   -11.8628 -11.8628 -11.6631 -11.6631 -11.6631 -11.6631 -11.6325 -11.6325
   -11.6157 -11.6157 -11.5778 -11.5778 -11.5777 -11.5777 -11.5378 -11.5378
   -11.4752 -11.4752 -11.4752 -11.4752 -11.4648 -11.4648 -11.4207 -11.4207
   -11.4147 -11.4147 -11.4032 -11.4032 -11.4032 -11.4032 -11.3747 -11.3747
   -11.3333 -11.3332 -11.3246 -11.3246 -11.3187 -11.3187 -11.3187 -11.3187
   -11.2867 -11.2867 -11.2811 -11.2811 -11.2469 -11.2469 -11.1989 -11.1989
   -11.1989 -11.1989 -11.0862 -11.0862 -11.0495 -11.0495 -11.0495 -11.0495
   -11.0148 -11.0148 -10.9796 -10.9795 -10.9629 -10.9629 -10.9629 -10.9629
   -10.9548 -10.9548 -10.9450 -10.9450 -10.9404 -10.9404 -10.9404 -10.9404
   -10.9394 -10.9394 -10.9394 -10.9394 -10.9364 -10.9364 -10.8995 -10.8995
   -10.8995 -10.8995 -10.8835 -10.8835 -10.8835 -10.8834 -10.6796 -10.6796
   -10.6664 -10.6664 -10.6159 -10.6158 -10.5148 -10.5148 -10.3810 -10.3810
   -10.2840 -10.2840 -10.2840 -10.2840 -10.2252 -10.2252 -10.2252 -10.2252
   -10.1986 -10.1986 -10.1986 -10.1986 -10.1473 -10.1473 -10.1473 -10.1473
   -10.1467 -10.1467 -10.0631 -10.0631 -10.0631 -10.0631 -10.0474 -10.0474
   -10.0424 -10.0424 -10.0424 -10.0423  -9.9977  -9.9977  -9.9346  -9.9346
    -9.9165  -9.9165  -9.9165  -9.9165  -9.8835  -9.8835  -9.8539  -9.8539
    -9.8539  -9.8538  -9.7986  -9.7986  -9.7986  -9.7986  -9.7728  -9.7728
    -9.7413  -9.7413  -9.6816  -9.6816  -9.6816  -9.6816  -9.6816  -9.6816
    -9.6816  -9.6816  -9.6537  -9.6537  -9.6353  -9.6353  -9.6099  -9.6099
    -9.6092  -9.6092  -9.5834  -9.5834  -9.5628  -9.5628  -9.5628  -9.5628
    -9.4798  -9.4798  -9.3786  -9.3786  -9.3718  -9.3718  -9.3222  -9.3222
    -9.3222  -9.3222  -9.3007  -9.3007  -9.3007  -9.3007  -9.2306  -9.2306
    -9.1996  -9.1996  -9.1922  -9.1922  -9.1688  -9.1688  -9.1688  -9.1688
    -9.1534  -9.1534  -9.1534  -9.1534  -9.0919  -9.0919  -9.0701  -9.0700
    -9.0700  -9.0700  -9.0673  -9.0673  -9.0330  -9.0330  -9.0330  -9.0330
    -9.0262  -9.0262  -9.0128  -9.0128  -9.0063  -9.0063  -9.0063  -9.0063
    -8.9921  -8.9921  -8.9882  -8.9882  -8.9662  -8.9662  -8.9520  -8.9520
    -8.9480  -8.9480  -8.9305  -8.9305  -8.9305  -8.9305  -8.9262  -8.9262
[...]
     atom  150 type  2   force =    -0.00000001   -0.00000004    0.00009729
     atom  151 type  1   force =     0.00000000   -0.00000004   -0.00001219
     atom  152 type  1   force =    -0.00000001   -0.00000001   -0.00255926
     atom  153 type  2   force =    -0.00000001   -0.00000001   -0.00017549
     atom  154 type  2   force =    -0.00000000    0.00000000    0.00003172
     atom  155 type  2   force =    -0.00000001   -0.00000002   -0.00009662
     atom  156 type  2   force =    -0.00000001   -0.00000001   -0.00441508
     atom  157 type  1   force =     0.00000000    0.00000000    0.00255988
     atom  158 type  1   force =    -0.00000000   -0.00000002    0.00001529
     atom  159 type  2   force =    -0.00000003   -0.00000001   -0.00003286
     atom  160 type  2   force =     0.00000000    0.00000000    0.00017140
     atom  161 type  2   force =    -0.00000000    0.00000000    0.00441589
     atom  162 type  2   force =    -0.00000003   -0.00000001    0.00009729
     atom  163 type  1   force =    -0.00000002    0.00000000   -0.00001220
     atom  164 type  1   force =    -0.00000001   -0.00000000   -0.00255925
     atom  165 type  2   force =    -0.00000001   -0.00000000   -0.00017550
     atom  166 type  2   force =    -0.00000001   -0.00000002    0.00003173
     atom  167 type  2   force =    -0.00000001   -0.00000002   -0.00009661
     atom  168 type  2   force =    -0.00000001   -0.00000000   -0.00441506
     atom  169 type  1   force =    -0.00000000   -0.00000000    0.00255989
     atom  170 type  1   force =    -0.00000005    0.00000001    0.00001528
     atom  171 type  2   force =    -0.00000005   -0.00000001   -0.00003286
     atom  172 type  2   force =    -0.00000000    0.00000000    0.00017140
     atom  173 type  2   force =    -0.00000000    0.00000000    0.00441589
     atom  174 type  2   force =    -0.00000005    0.00000000    0.00009729
     atom  175 type  1   force =     0.00000002    0.00000004   -0.00001221
     atom  176 type  1   force =    -0.00000001    0.00000000   -0.00255925
     atom  177 type  2   force =     0.00000000    0.00000000   -0.00017549
     atom  178 type  2   force =    -0.00000000    0.00000002    0.00003173
     atom  179 type  2   force =    -0.00000003    0.00000002   -0.00009661
     atom  180 type  2   force =    -0.00000001   -0.00000001   -0.00441506
     atom  181 type  1   force =    -0.00000000   -0.00000000    0.00255990
     atom  182 type  1   force =    -0.00000006   -0.00000001    0.00001531
     atom  183 type  2   force =    -0.00000003   -0.00000003   -0.00003285
     atom  184 type  2   force =    -0.00000001   -0.00000000    0.00017141
     atom  185 type  2   force =    -0.00000000    0.00000000    0.00441589
     atom  186 type  2   force =    -0.00000002   -0.00000002    0.00009729
     atom  187 type  1   force =     0.00000000   -0.00000000   -0.00001221
     atom  188 type  1   force =    -0.00000001   -0.00000000   -0.00255926
     atom  189 type  2   force =     0.00000000    0.00000000   -0.00017551
     atom  190 type  2   force =     0.00000000    0.00000000    0.00003172
     atom  191 type  2   force =    -0.00000001   -0.00000000   -0.00009662
     atom  192 type  2   force =    -0.00000001   -0.00000001   -0.00441507

     Total force =     0.000411     Total SCF correction =     0.000524
     SCF correction compared to forces is large: reduce conv_thr to get better values
     Energy error            =      4.1E-06 Ry
     Gradient error          =      7.5E-05 Ry/Bohr

     bfgs converged in   4 scf cycles and   3 bfgs steps
     (criteria: energy <  1.0E-04 Ry, force <  1.0E-03 Ry/Bohr)

     End of BFGS Geometry Optimization

     Final energy             =  -31793.7153119103 Ry

     File ./outdir/pwscf.bfgs deleted, as requested
Begin final coordinates

ATOMIC_POSITIONS (angstrom)
Mo            0.0000119917        1.8193638619       -9.1672481230    0   0   0
Mo            1.5756136568        0.9097075315       -3.0554901653
S             0.0000188998        1.8193822938       -4.6232556019
S             1.5756321638        0.9096773839       -7.6014065489    0   0   0
S             1.5756326175        0.9096785128      -10.7330757790    0   0   0
S             0.0000189190        1.8193860094       -1.4877129945
Mo            0.0000517814        1.8193304630        3.0554709409
Mo            1.5756571273        0.9096999807        9.1669578430
S             0.0000473625        1.8193902382        7.5990237458
S             1.5756670144        0.9096790202        4.6231899327
S             1.5756615492        0.9096849696        1.4876959964
S             0.0000478263        1.8193885884       10.7360262282
Mo           -1.5756053507        4.5484193819       -9.1672481230    0   0   0
Mo            0.0000378379        3.6387394919       -3.0554952701
S            -1.5755913433        4.5484363582       -4.6232494962
S             0.0000148214        3.6387329039       -7.6014065489    0   0   0
S             0.0000152751        3.6387340328      -10.7330757790    0   0   0
S            -1.5755906502        4.5484413613       -1.4877305502
Mo           -1.5755958788        4.5484289705        3.0554554571
Mo            0.0000481411        3.6387555979        9.1669545061
S            -1.5755712293        4.5484455814        7.5990204222
S             0.0000467611        3.6387390983        4.6231698781
S             0.0000436021        3.6387322161        1.4877170767
S            -1.5755725313        4.5484471207       10.7360276379
Mo           -3.1512226931        7.2774749019       -9.1672481230    0   0   0
Mo           -1.5755910988        6.3678216792       -3.0555115988
S            -3.1512162438        7.2774954350       -4.6232578178
S            -1.5756025210        6.3677884239       -7.6014065489    0   0   0
S            -1.5756020673        6.3677895528      -10.7330757790    0   0   0
S            -3.1512127704        7.2774877076       -1.4877200710
Mo           -3.1512176589        7.2774767378        3.0554673834
Mo           -1.5755714992        6.3678102747        9.1669575114
S            -3.1511867745        7.2775007117        7.5990172253
S            -1.5755730459        6.3677997557        4.6231788497
S            -1.5755792414        6.3677984106        1.4877056139
S            -3.1511875916        7.2775004765       10.7360303647
Mo           -4.7268400355       10.0065304219       -9.1672481230    0   0   0
Mo           -3.1512405618        9.0968403586       -3.0554816746
S            -4.7268341792       10.0065523623       -4.6232463762
S            -3.1512198634        9.0968439439       -7.6014065489    0   0   0
S            -3.1512194097        9.0968450728      -10.7330757790    0   0   0
S            -4.7268370797       10.0065537885       -1.4877176751
Mo           -4.7268299082       10.0065528280        3.0554444078
Mo           -3.1511956745        9.0968680136        9.1669581746
S            -4.7268011272       10.0065554263        7.5990202888
S            -3.1511918038        9.0968595990        4.6231725957
S            -3.1511903781        9.0968530391        1.4877105966
S            -4.7268025269       10.0065532436       10.7360274484
Mo            3.1512517547        1.8193638619       -9.1672481230    0   0   0
Mo            4.7269020221        0.9097289540       -3.0554823951
S             3.1512612351        1.8193882564       -4.6232320683
S             4.7268719268        0.9096773839       -7.6014065489    0   0   0
S             4.7268723805        0.9096785128      -10.7330757790    0   0   0
S             3.1512592485        1.8193890201       -1.4877261251
Mo            3.1512859282        1.8193631580        3.0554522638
Mo            4.7269210428        0.9097103912        9.1669554333
S             3.1512907519        1.8193880211        7.5990163107
S             4.7268928600        0.9096777456        4.6232005047
S             4.7269017428        0.9096838694        1.4876906017
S             3.1512901228        1.8193891150       10.7360340709
Mo            1.5756344123        4.5484193819       -9.1672481230    0   0   0
Mo            3.1512756394        3.6387769522       -3.0554814834
S             1.5756504879        4.5484423799       -4.6232390542
S             3.1512545844        3.6387329039       -7.6014065489    0   0   0
S             3.1512550381        3.6387340328      -10.7330757790    0   0   0
S             1.5756466253        4.5484431864       -1.4877251801
Mo            1.5756889252        4.5484350247        3.0554461843
Mo            3.1512964451        3.6387674358        9.1669570131
S             1.5756704116        4.5484459095        7.5990201110
S             3.1512804630        3.6387367987        4.6231895946
S             3.1512811430        3.6387339748        1.4876853743
S             1.5756734225        4.5484473230       10.7360280607
Mo            0.0000170699        7.2774749019       -9.1672481230    0   0   0
Mo            1.5756764447        6.3678236689       -3.0554877708
S             0.0000381981        7.2774979204       -4.6232454413
S             1.5756372420        6.3677884239       -7.6014065489    0   0   0
S             1.5756376957        6.3677895528      -10.7330757790    0   0   0
S             0.0000328088        7.2774946042       -1.4877307940
Mo            0.0000491004        7.2775077947        3.0554457079
Mo            1.5756828518        6.3678203102        9.1669572708
S             0.0000519202        7.2775023885        7.5990165125
S             1.5756632836        6.3677964896        4.6231822451
S             1.5756618168        6.3677957265        1.4876852296
S             0.0000525827        7.2775022910       10.7360332046
Mo           -1.5756002725       10.0065304219       -9.1672481230    0   0   0
Mo            0.0000873425        9.0968676911       -3.0554912329
S            -1.5755883952       10.0065504530       -4.6232240150
S             0.0000198996        9.0968439439       -7.6014065489    0   0   0
S             0.0000203533        9.0968450728      -10.7330757790    0   0   0
S            -1.5755859047       10.0065492576       -1.4877362381
Mo           -1.5755397558       10.0065486558        3.0554492107
Mo            0.0000710954        9.0968779063        9.1669569442
S            -1.5755637347       10.0065552656        7.5990136907
S             0.0000492818        9.0968518238        4.6231946333
S             0.0000492129        9.0968539757        1.4876792013
S            -1.5755631602       10.0065547138       10.7360379198
Mo            6.3024915177        1.8193638619       -9.1672481230    0   0   0
Mo            7.8781001445        0.9096521684       -3.0554919963
S             6.3025008696        1.8193826232       -4.6232480596
S             7.8781116898        0.9096773839       -7.6014065489    0   0   0
S             7.8781121435        0.9096785128      -10.7330757790    0   0   0
S             6.3025042007        1.8193849068       -1.4877147524
Mo            6.3024862793        1.8193295760        3.0554810008
Mo            7.8781350728        0.9096952552        9.1669565045
S             6.3025273347        1.8193900633        7.5990240414
S             7.8781395005        0.9096774910        4.6231842589
S             7.8781357657        0.9096867126        1.4877117601
S             6.3025268526        1.8193909804       10.7360262155
Mo            4.7268741753        4.5484193819       -9.1672481230    0   0   0
Mo            6.3024679138        3.6387501714       -3.0554895197
S             4.7268748770        4.5484386753       -4.6232519432
S             6.3024943474        3.6387329039       -7.6014065489    0   0   0
S             6.3024948011        3.6387340328      -10.7330757790    0   0   0
S             4.7268770533        4.5484432419       -1.4877137856
Mo            4.7268634967        4.5483921539        3.0554455066
Mo            6.3025245206        3.6387556765        9.1669570363
S             4.7269115534        4.5484445334        7.5990188801
S             6.3025197172        3.6387403818        4.6231707419
S             6.3025234518        3.6387304344        1.4877211609
S             4.7269114297        4.5484452178       10.7360255410
Mo            3.1512568329        7.2774749019       -9.1672481230    0   0   0
Mo            4.7268384135        6.3678043337       -3.0554959052
S             3.1512606125        7.2774972547       -4.6232589675
S             4.7268770050        6.3677884239       -7.6014065489    0   0   0
S             4.7268774587        6.3677895528      -10.7330757790    0   0   0
S             3.1512629079        7.2774963749       -1.4877081835
Mo            3.1512507673        7.2774693361        3.0554407833
Mo            4.7269058096        6.3678134543        9.1669568823
S             3.1512929467        7.2775006667        7.5990202475
S             4.7269041601        6.3677940637        4.6231618360
S             4.7269092571        6.3677941373        1.4877108351
S             3.1512938326        7.2775000071       10.7360259985
Mo            1.5756394905       10.0065304219       -9.1672481230    0   0   0
Mo            3.1512330605        9.0968514907       -3.0554878870
S             1.5756499830       10.0065443759       -4.6232632674
S             3.1512596626        9.0968439439       -7.6014065489    0   0   0
S             3.1512601163        9.0968450728      -10.7330757790    0   0   0
S             1.5756503041       10.0065459699       -1.4877044377
Mo            1.5756286154       10.0065294312        3.0554456399
Mo            3.1512857427        9.0968653205        9.1669576047
S             1.5756741252       10.0065580027        7.5990244441
S             3.1512835992        9.0968499411        4.6231678749
S             3.1512881890        9.0968552869        1.4877084853
S             1.5756737326       10.0065557900       10.7360258086
Mo            9.4537312807        1.8193638619       -9.1672481230    0   0   0
Mo           11.0293863460        0.9096952246       -3.0554894007
S             9.4537395970        1.8193770750       -4.6232328036
S            11.0293514528        0.9096773839       -7.6014065489    0   0   0
S            11.0293519066        0.9096785128      -10.7330757790    0   0   0
S             9.4537393632        1.8193794783       -1.4877366147
Mo            9.4537839204        1.8193625182        3.0554639557
Mo           11.0294006502        0.9097058759        9.1669568023
S             9.4537679802        1.8193908477        7.5990154990
S            11.0293865661        0.9096815009        4.6232015090
S            11.0293875108        0.9096847747        1.4876968139
S             9.4537703003        1.8193920845       10.7360351026
Mo            7.8781139383        4.5484193819       -9.1672481230    0   0   0
Mo            9.4537539161        3.6387607911       -3.0554933032
S             7.8781175448        4.5484378232       -4.6232366318
S             9.4537341104        3.6387329039       -7.6014065489    0   0   0
S             9.4537345641        3.6387340328      -10.7330757790    0   0   0
S             7.8781194018        4.5484411585       -1.4877377057
Mo            7.8781629948        4.5484597612        3.0554546738
Mo            9.4537759350        3.6387686950        9.1669573578
S             7.8781526187        4.5484455553        7.5990174538
S             9.4537628002        3.6387408989        4.6231889621
S             9.4537632172        3.6387377381        1.4877014637
S             7.8781527463        4.5484472855       10.7360305346
Mo            6.3024965959        7.2774749019       -9.1672481230    0   0   0
Mo            7.8781361655        6.3678242352       -3.0555014130
S             6.3024973331        7.2774953556       -4.6232392528
S             7.8781167680        6.3677884239       -7.6014065489    0   0   0
S             7.8781172217        6.3677895528      -10.7330757790    0   0   0
S             6.3024989866        7.2774929744       -1.4877349119
Mo            6.3025699140        7.2775054979        3.0554558425
Mo            7.8781584769        6.3678204568        9.1669580728
S             6.3025354024        7.2775011973        7.5990165151
S             7.8781467492        6.3677994847        4.6232012808
S             7.8781502436        6.3678000106        1.4876886335
S             6.3025363050        7.2775020467       10.7360312255
Mo            4.7268792535       10.0065304219       -9.1672481230    0   0   0
Mo            6.3025111524        9.0968738021       -3.0554915260
S             4.7268840634       10.0065452125       -4.6232380477
S             6.3024994256        9.0968439439       -7.6014065489    0   0   0
S             6.3024998793        9.0968450728      -10.7330757790    0   0   0
S             4.7268847312       10.0065459141       -1.4877283294
Mo            4.7269315756       10.0065553552        3.0554614657
Mo            6.3025449714        9.0968750197        9.1669598238
S             4.7269159997       10.0065576012        7.5990155636
S             6.3025321918        9.0968565884        4.6231930766
S             6.3025281099        9.0968562267        1.4876901271
S             4.7269184077       10.0065566471       10.7360321739
End final coordinates



     Writing all to output data dir ./outdir/pwscf.save/
 
     init_run     :    121.61s CPU    127.48s WALL (       1 calls)
     electrons    :  33262.84s CPU  34530.83s WALL (       4 calls)
     update_pot   :     12.61s CPU     12.73s WALL (       3 calls)
     forces       :    356.32s CPU    360.83s WALL (       4 calls)
     force_dftd3  :      2.45s CPU      2.58s WALL (       4 calls)

     Called by init_run:
     wfcinit      :    102.92s CPU    108.29s WALL (       1 calls)
     potinit      :      1.85s CPU      1.90s WALL (       1 calls)
     hinit0       :     11.62s CPU     11.67s WALL (       1 calls)

     Called by electrons:
     c_bands      :  30385.56s CPU  31476.00s WALL (      67 calls)
     sum_band     :   2676.87s CPU   2827.01s WALL (      67 calls)
     v_of_rho     :     20.32s CPU     21.70s WALL (      67 calls)
     newd         :    134.54s CPU    159.47s WALL (      67 calls)
     PAW_pot      :     35.81s CPU     35.92s WALL (      70 calls)
     mix_rho      :      5.48s CPU      5.89s WALL (      67 calls)
     energy_dftd3 :      1.48s CPU      1.48s WALL (       4 calls)

     Called by c_bands:
     init_us_2    :     94.84s CPU     95.48s WALL (     568 calls)
     init_us_2:cp :     94.84s CPU     95.48s WALL (     568 calls)
     cegterg      :  29907.16s CPU  30991.38s WALL (     277 calls)

     Called by *egterg:
     cdiaghg      :    996.15s CPU    999.19s WALL (    2755 calls)
     h_psi        :  13762.55s CPU  14757.83s WALL (    2787 calls)
     s_psi        :   3066.83s CPU   3084.38s WALL (    2787 calls)
     g_psi        :     27.62s CPU     27.72s WALL (    2506 calls)

     Called by h_psi:
     h_psi:calbec :   3720.83s CPU   3731.02s WALL (    2787 calls)
     vloc_psi     :   6922.92s CPU   7869.49s WALL (    2787 calls)
     add_vuspsi   :   3070.93s CPU   3090.34s WALL (    2787 calls)

     General routines
     calbec       :   4993.22s CPU   5006.74s WALL (    3131 calls)
     fft          :     77.25s CPU     79.43s WALL (     914 calls)
     ffts         :      1.29s CPU      1.43s WALL (     134 calls)
     fftw         :   6090.92s CPU   7137.18s WALL ( 2214658 calls)
     interpolate  :      1.81s CPU      2.01s WALL (      67 calls)
 
     Parallel routines
 
     PWSCF        :      9h24m CPU      9h47m WALL

 
   This run was terminated on:  23:28:15   4Aug2023            

=------------------------------------------------------------------------------=
   JOB DONE.
=------------------------------------------------------------------------------=
