ITEM: TIMESTEP
0
ITEM: NUMBER OF ATOMS
573
ITEM: BOX BOUNDS xy xz yz pp pp ff
-9.8299323600000008e+00 2.9489797079999999e+01 -9.8299323600000008e+00
0.0000000000000000e+00 2.7601942391000001e+01 0.0000000000000000e+00
0.0000000000000000e+00 3.6159325252999999e+01 0.0000000000000000e+00
ITEM: ATOMS id type element x y z ix iy iz
1 6 Si 0.0107922 5.40113 5.83817 0 0 0
2 6 Si 1.38607 1.27865 6.4883 0 0 0
3 6 Si 3.89733 2.51221 5 0 0 0
4 5 O 0.867075 4.68982 7.12125 0 0 0
5 5 O -1.13785 6.50901 6.45469 0 0 0
6 5 O 2.94713 1.78388 6.22748 0 0 0
7 5 O -0.952567 4.11933 5.15665 0 0 0
8 5 O 0.442021 1.86105 5.21008 0 0 0
9 5 O 0.873461 1.79135 7.98682 0 0 0
10 6 Si 0.106333 1.06354 9.29484 0 0 0
11 6 Si -0.936148 3.88733 9.95414 0 0 0
12 6 Si 1.5328 5.10101 8.58267 0 0 0
13 5 O 1.2519 0.53822 10.3708 0 0 0
14 5 O 4.04756 2.23288 9.98862 0 0 0
15 5 O 0.615217 4.50128 9.85687 0 0 0
16 5 O 1.55924 6.74966 8.75312 0 0 0
17 5 O 3.04078 4.40192 8.66853 0 0 0
18 5 O 3.37544 4.54793 11.3781 0 0 0
19 6 Si -2.44719 12.3017 5.83776 0 0 0
20 6 Si -1.07171 8.1796 6.48794 0 0 0
21 6 Si 1.43985 9.41269 5 0 0 0
22 5 O -1.58977 11.5914 7.12085 0 0 0
23 5 O -3.59505 13.4093 6.45441 0 0 0
24 5 O 0.489697 8.68453 6.22774 0 0 0
25 5 O -3.41005 11.0198 5.15665 0 0 0
26 5 O -2.01546 8.76153 5.21008 0 0 0
27 5 O -1.58429 8.69198 7.98684 0 0 0
28 6 Si -2.35071 7.96432 9.29492 0 0 0
29 6 Si -3.39387 10.7881 9.95343 0 0 0
30 6 Si -0.924329 12.0009 8.58262 0 0 0
31 5 O -1.20554 7.43922 10.3712 0 0 0
32 5 O 1.59046 9.13369 9.98802 0 0 0
33 5 O -1.84248 11.4013 9.85711 0 0 0
34 5 O -0.89815 13.6499 8.75399 0 0 0
35 5 O 0.583795 11.3015 8.66807 0 0 0
36 5 O 0.917505 11.4486 11.3777 0 0 0
73 6 Si 4.92561 5.40104 5.83762 0 0 0
74 6 Si 6.30066 1.27925 6.48837 0 0 0
75 6 Si 8.8123 2.51221 5 0 0 0
76 5 O 5.78203 4.69005 7.12116 0 0 0
77 5 O 3.77736 6.50846 6.45466 0 0 0
78 5 O 7.86214 1.78439 6.22758 0 0 0
79 5 O 3.9624 4.11933 5.15665 0 0 0
80 5 O 5.35699 1.86105 5.21008 0 0 0
81 5 O 5.78714 1.79172 7.98671 0 0 0
82 6 Si 5.02097 1.06397 9.29511 0 0 0
83 6 Si 3.97823 3.88735 9.95366 0 0 0
84 6 Si 6.44797 5.10064 8.5827 0 0 0
85 5 O 6.16679 0.537717 10.3706 0 0 0
86 5 O 8.96265 2.23297 9.98799 0 0 0
87 5 O 5.52971 4.50119 9.85706 0 0 0
88 5 O 6.47456 6.74963 8.75361 0 0 0
89 5 O 7.95633 4.40149 8.66913 0 0 0
90 5 O 8.29047 4.54781 11.3787 0 0 0
91 6 Si 2.46834 12.302 5.83846 0 0 0
92 6 Si 3.84297 8.17941 6.48826 0 0 0
93 6 Si 6.35482 9.41269 5 0 0 0
94 5 O 3.32503 11.5909 7.12137 0 0 0
95 5 O 1.31951 13.409 6.45595 0 0 0
96 5 O 5.40467 8.68407 6.22733 0 0 0
97 5 O 1.50492 11.0198 5.15665 0 0 0
98 5 O 2.8995 8.76153 5.21008 0 0 0
99 5 O 3.32994 8.69151 7.9871 0 0 0
100 6 Si 2.56339 7.9639 9.29463 0 0 0
101 6 Si 1.52141 10.7879 9.95374 0 0 0
102 6 Si 3.99045 12.0012 8.58253 0 0 0
103 5 O 3.7087 7.43844 10.3703 0 0 0
104 5 O 6.5051 9.13363 9.98785 0 0 0
105 5 O 3.07203 11.4015 9.85696 0 0 0
106 5 O 4.01787 13.6498 8.75401 0 0 0
107 5 O 5.49843 11.3019 8.66833 0 0 0
108 5 O 5.83238 11.4488 11.378 0 0 0
145 6 Si 9.84093 5.40119 5.83848 0 0 0
146 6 Si 11.215 1.27945 6.48766 0 0 0
147 6 Si 13.7273 2.51221 5 0 0 0
148 5 O 10.697 4.69073 7.1214 0 0 0
149 5 O 8.69188 6.50904 6.45438 0 0 0
150 5 O 12.7771 1.78388 6.22765 0 0 0
151 5 O 8.87737 4.11933 5.15665 0 0 0
152 5 O 10.272 1.86105 5.21008 0 0 0
153 5 O 10.7023 1.79139 7.98661 0 0 0
154 6 Si 9.93606 1.06409 9.29477 0 0 0
155 6 Si 8.894 3.88753 9.9546 0 0 0
156 6 Si 11.3626 5.10093 8.58284 0 0 0
157 5 O 11.0816 0.538007 10.3701 0 0 0
158 5 O 13.8778 2.23355 9.98781 0 0 0
159 5 O 10.4446 4.50153 9.85753 0 0 0
160 5 O 11.3895 6.74963 8.75396 0 0 0
161 5 O 12.8708 4.40231 8.66902 0 0 0
163 6 Si 7.38298 12.302 5.83754 0 0 0
164 6 Si 8.75835 8.17994 6.48772 0 0 0
165 6 Si 11.2698 9.41269 5 0 0 0
166 5 O 8.23977 11.591 7.12067 0 0 0
167 5 O 6.23441 13.4094 6.45406 0 0 0
168 5 O 10.3199 8.68479 6.22756 0 0 0
169 5 O 6.41988 11.0198 5.15665 0 0 0
170 5 O 7.81447 8.76153 5.21008 0 0 0
171 5 O 8.24532 8.69231 7.98664 0 0 0
172 6 Si 7.47884 7.96439 9.29488 0 0 0
173 6 Si 6.43616 10.7879 9.95362 0 0 0
174 6 Si 8.90542 12.0012 8.58213 0 0 0
175 5 O 8.6243 7.43919 10.371 0 0 0
176 5 O 11.4202 9.13318 9.9884 0 0 0
177 5 O 7.98757 11.401 9.85681 0 0 0
178 5 O 8.93217 13.6503 8.75357 0 0 0
179 5 O 10.4138 11.3018 8.66764 0 0 0
378 5 O -1.54029 4.54807 11.3779 1 0 0
396 5 O -3.99672 11.4487 11.3778 1 0 0
434 2 H 2.4322 4.35102 11.5434 0 0 0
435 2 H -1.3749 6.62271 10.8878 0 0 0
436 2 H -0.0261351 11.252 11.542 0 0 0
437 2 H -3.83211 13.5235 10.8882 0 0 0
442 2 H 7.34691 4.35148 11.5436 0 0 0
443 2 H 3.53962 6.62336 10.8884 0 0 0
444 2 H 4.88955 11.2514 11.5429 0 0 0
445 2 H 1.08268 13.5237 10.8885 0 0 0
450 2 H 12.2619 4.35118 11.543 0 0 0
451 2 H 8.45511 6.62307 10.8878 0 0 0
452 2 H 9.80286 11.2513 11.541 0 0 0
453 2 H 5.9986 13.5235 10.8883 0 0 0
481 1 C 3.28428 12.8555 17.4858 0 0 0
488 1 C 8.88274 12.511 17.3507 0 0 0
489 1 C 7.8315 11.2805 15.5372 0 0 0
490 1 C 8.9749 10.6814 14.6882 0 0 0
491 1 C 9.38989 9.25046 15.1695 0 0 0
492 1 C 8.20524 8.45871 15.8178 0 0 0
493 1 C 6.84106 8.89426 15.2204 0 0 0
494 1 C 6.54963 10.4001 15.5161 0 0 0
511 2 H 3.5091 11.8006 17.1998 0 0 0
512 2 H 2.2635 13.1054 17.1106 0 0 0
513 2 H 4.02349 13.5241 16.9951 0 0 0
524 2 H 7.61899 12.3295 15.2322 0 0 0
525 2 H 9.84663 11.3768 14.6947 0 0 0
526 2 H 8.61466 10.6451 13.6302 0 0 0
527 2 H 10.2273 9.3286 15.9032 0 0 0
528 2 H 9.79479 8.68422 14.2952 0 0 0
529 2 H 8.18868 8.64786 16.9187 0 0 0
530 2 H 8.35909 7.36128 15.6834 0 0 0
531 2 H 6.85281 8.71861 14.115 0 0 0
532 2 H 6.01255 8.26453 15.6246 0 0 0
533 2 H 6.04727 10.5157 16.5066 0 0 0
534 2 H 5.84625 10.8112 14.7524 0 0 0
564 5 O 9.07409 13.4814 16.6232 0 0 0
565 5 O 8.28361 11.3389 16.9582 0 0 0
482 1 C 3.32419 13.0185 19.0263 0 0 0
483 1 C 2.33603 12.0462 19.7141 0 0 0
485 1 C 5.80599 13.1548 19.1484 0 0 0
486 1 C 8.25625 13.239 19.7219 0 0 0
487 1 C 9.27425 12.4523 18.8356 0 0 0
495 1 C 8.84809 13.4863 21.1237 0 0 0
514 2 H 1.28885 12.2804 19.4112 0 0 0
515 2 H 2.41144 12.1275 20.8228 0 0 0
516 2 H 2.5621 10.9938 19.4262 0 0 0
520 2 H 6.6882 12.1639 20.7657 0 0 0
523 2 H 9.33226 11.3951 19.1805 0 0 0
560 4 N 6.91806 12.5497 19.8261 0 0 0
562 5 O 4.64721 12.5471 19.5685 0 0 0
567 5 O 8.0904 13.3896 22.1719 0 0 0
37 6 Si -4.90393 19.2026 5.83843 0 0 0
38 6 Si -3.5291 15.0795 6.48858 0 0 0
39 6 Si -1.01763 16.3132 5 0 0 0
40 5 O -4.04722 18.4912 7.12105 0 0 0
41 5 O -6.0527 20.31 6.45511 0 0 0
42 5 O -1.96775 15.5845 6.22751 0 0 0
43 5 O -5.86753 17.9203 5.15665 0 0 0
44 5 O -4.47294 15.662 5.21008 0 0 0
45 5 O -4.04233 15.5922 7.98701 0 0 0
46 6 Si -4.80911 14.8643 9.29486 0 0 0
47 6 Si -5.85111 17.6884 9.95409 0 0 0
48 6 Si -3.38212 18.9015 8.58226 0 0 0
49 5 O -3.66348 14.3393 10.3706 0 0 0
50 5 O -0.867535 16.0336 9.98963 0 0 0
51 5 O -4.30012 18.3023 9.85657 0 0 0
52 5 O -3.35515 20.5504 8.75371 0 0 0
53 5 O -1.87415 18.2023 8.66908 0 0 0
54 5 O -1.53925 18.3489 11.3792 0 0 0
55 6 Si -7.3617 26.1028 5.8374 0 0 0
56 6 Si -5.98688 21.9804 6.48815 0 0 0
57 6 Si -3.47512 23.2137 5 0 0 0
58 5 O -6.50504 25.3918 7.12048 0 0 0
59 5 O -8.51005 27.2102 6.45398 0 0 0
60 5 O -4.42552 22.4852 6.22764 0 0 0
61 5 O -8.32502 24.8208 5.15665 0 0 0
62 5 O -6.93043 22.5625 5.21008 0 0 0
63 5 O -6.49944 22.4925 7.98685 0 0 0
64 6 Si -7.26617 21.7655 9.29489 0 0 0
65 6 Si -8.30923 24.5887 9.95384 0 0 0
66 6 Si -5.83981 25.8021 8.58259 0 0 0
67 5 O -6.12088 21.2397 10.3708 0 0 0
68 5 O -3.32473 22.9332 9.98883 0 0 0
69 5 O -6.75779 25.202 9.85696 0 0 0
70 5 O -5.81288 27.4506 8.75355 0 0 0
71 5 O -4.33109 25.1022 8.66817 0 0 0
72 5 O -3.99738 25.2496 11.3788 0 0 0
109 6 Si 0.0108661 19.202 5.83813 0 0 0
110 6 Si 1.38606 15.0801 6.48789 0 0 0
111 6 Si 3.89733 16.3132 5 0 0 0
112 5 O 0.867209 18.4911 7.12164 0 0 0
113 5 O -1.13721 20.3098 6.45463 0 0 0
114 5 O 2.94713 15.5856 6.22714 0 0 0
115 5 O -0.952567 17.9203 5.15665 0 0 0
116 5 O 0.442021 15.662 5.21008 0 0 0
117 5 O 0.872268 15.593 7.98673 0 0 0
118 6 Si 0.106406 14.8647 9.29525 0 0 0
119 6 Si -0.936318 17.6886 9.9545 0 0 0
120 6 Si 1.53284 18.9018 8.58274 0 0 0
121 5 O 1.25305 14.3388 10.3703 0 0 0
122 5 O 4.04732 16.0336 9.98872 0 0 0
123 5 O 0.614997 18.3021 9.85706 0 0 0
124 5 O 1.55965 20.5507 8.75363 0 0 0
125 5 O 3.04089 18.2024 8.66876 0 0 0
126 5 O 3.37515 18.3489 11.3784 0 0 0
127 6 Si -2.44686 26.1026 5.83809 0 0 0
128 6 Si -1.07224 21.9804 6.48823 0 0 0
129 6 Si 1.43985 23.2137 5 0 0 0
130 5 O -1.59076 25.391 7.12146 0 0 0
131 5 O -3.59553 27.2104 6.45501 0 0 0
132 5 O 0.489112 22.4852 6.22822 0 0 0
133 5 O -3.41005 24.8208 5.15665 0 0 0
134 5 O -2.01546 22.5625 5.21008 0 0 0
135 5 O -1.5849 22.4928 7.98704 0 0 0
136 6 Si -2.35127 21.7647 9.29445 0 0 0
137 6 Si -3.39433 24.5882 9.95469 0 0 0
138 6 Si -0.924899 25.8025 8.58272 0 0 0
139 5 O -1.20599 21.2393 10.3709 0 0 0
140 5 O 1.59022 22.934 9.98877 0 0 0
141 5 O -1.84255 25.202 9.85695 0 0 0
142 5 O -0.897709 27.451 8.75363 0 0 0
143 5 O 0.583637 25.103 8.66846 0 0 0
144 5 O 0.917399 25.2496 11.3788 0 0 0
181 6 Si 4.92574 19.2022 5.83732 0 0 0
182 6 Si 6.30096 15.0798 6.48864 0 0 0
183 6 Si 8.8123 16.3132 5 0 0 0
184 5 O 5.78239 18.4914 7.12102 0 0 0
185 5 O 3.77739 20.3099 6.45425 0 0 0
186 5 O 7.86219 15.5847 6.22751 0 0 0
187 5 O 3.9624 17.9203 5.15665 0 0 0
188 5 O 5.35699 15.662 5.21008 0 0 0
189 5 O 5.78774 15.5923 7.98695 0 0 0
190 6 Si 5.02142 14.8646 9.29539 0 0 0
191 6 Si 3.97853 17.6881 9.9542 0 0 0
192 6 Si 6.44801 18.9016 8.58245 0 0 0
193 5 O 6.16695 14.3395 10.3716 0 0 0
194 5 O 8.96282 16.0336 9.9887 0 0 0
195 5 O 5.52974 18.3016 9.85681 0 0 0
196 5 O 6.47426 20.5503 8.75366 0 0 0
197 5 O 7.9561 18.2022 8.66846 0 0 0
199 6 Si 2.46808 26.1025 5.83816 0 0 0
200 6 Si 3.84314 21.9804 6.48834 0 0 0
201 6 Si 6.35482 23.2137 5 0 0 0
202 5 O 3.32417 25.3915 7.12105 0 0 0
203 5 O 1.31936 27.2104 6.45423 0 0 0
204 5 O 5.40436 22.4855 6.22782 0 0 0
205 5 O 1.50492 24.8208 5.15665 0 0 0
206 5 O 2.8995 22.5625 5.21008 0 0 0
207 5 O 3.33 22.4932 7.98686 0 0 0
208 6 Si 2.56387 21.765 9.2948 0 0 0
209 6 Si 1.52057 24.5884 9.95445 0 0 0
210 6 Si 3.99003 25.8029 8.58238 0 0 0
211 5 O 3.70922 21.2397 10.3703 0 0 0
212 5 O 6.5047 22.9341 9.98861 0 0 0
213 5 O 3.07202 25.2025 9.85695 0 0 0
214 5 O 4.01689 27.4512 8.75369 0 0 0
215 5 O 5.49849 25.103 8.6687 0 0 0
414 5 O -6.45517 18.3489 11.3779 1 0 0
432 5 O -8.91261 25.2493 11.3776 1 0 0
433 2 H -8.74705 27.3244 10.888 0 -1 0
438 2 H -2.4828 18.1519 11.5443 0 0 0
439 2 H -6.28939 20.4235 10.8877 0 0 0
440 2 H -4.94165 25.0525 11.5431 0 0 0
441 2 H -3.8332 27.3245 10.8881 0 -1 0
446 2 H 2.43152 18.1517 11.5428 0 0 0
447 2 H -1.37513 20.4242 10.8883 0 0 0
448 2 H -0.0263854 25.0526 11.5435 0 0 0
449 2 H 1.08187 27.325 10.8882 0 -1 0
454 2 H 7.34693 18.1521 11.5432 0 0 0
455 2 H 3.53995 20.4241 10.888 0 0 0
456 2 H 4.8885 25.0522 11.5439 0 0 0
484 1 C 3.08264 14.4808 19.4773 0 0 0
517 2 H 3.80227 15.1734 18.9879 0 0 0
518 2 H 2.04559 14.7943 19.2108 0 0 0
519 2 H 3.19684 14.5664 20.5838 0 0 0
521 2 H 8.08815 14.2444 19.2553 0 0 0
559 3 Mg 9.74777 13.8828 23.2525 0 0 0
563 5 O 5.91568 14.0432 18.2988 0 0 0
162 5 O 13.2052 4.548 11.3775 0 0 0
180 5 O 10.7467 11.4486 11.3775 0 0 0
217 6 Si 14.7557 5.40078 5.83746 0 0 0
218 6 Si 16.1303 1.27915 6.48826 0 0 0
219 6 Si 18.6422 2.51221 5 0 0 0
220 5 O 15.6123 4.69016 7.12107 0 0 0
221 5 O 13.6067 6.50844 6.45357 0 0 0
222 5 O 17.6919 1.78395 6.22768 0 0 0
223 5 O 13.7923 4.11933 5.15665 0 0 0
224 5 O 15.1869 1.86105 5.21008 0 0 0
225 5 O 15.6175 1.79138 7.98674 0 0 0
226 6 Si 14.851 1.06427 9.29504 0 0 0
227 6 Si 13.8082 3.88764 9.95375 0 0 0
228 6 Si 16.2772 5.10111 8.58281 0 0 0
229 5 O 15.9963 0.538186 10.3701 0 0 0
230 5 O 18.7924 2.23238 9.98881 0 0 0
231 5 O 15.3593 4.501 9.85701 0 0 0
232 5 O 16.3042 6.74986 8.75341 0 0 0
233 5 O 17.7861 4.40159 8.66809 0 0 0
234 5 O 18.12 4.54846 11.3787 0 0 0
235 6 Si 12.2981 12.3015 5.83808 0 0 0
236 6 Si 13.6736 8.17884 6.48837 0 0 0
237 6 Si 16.1847 9.41269 5 0 0 0
238 5 O 13.1549 11.5905 7.12138 0 0 0
239 5 O 11.1497 13.4095 6.45452 0 0 0
240 5 O 15.2348 8.68417 6.22682 0 0 0
241 5 O 11.3348 11.0198 5.15665 0 0 0
242 5 O 12.7294 8.76153 5.21008 0 0 0
243 5 O 13.1609 8.69168 7.98714 0 0 0
244 6 Si 12.394 7.96384 9.29498 0 0 0
245 6 Si 11.3511 10.7876 9.95354 0 0 0
246 6 Si 13.8204 12.0014 8.58261 0 0 0
247 5 O 13.5396 7.43887 10.371 0 0 0
248 5 O 16.335 9.13314 9.98872 0 0 0
249 5 O 12.9026 11.4009 9.85672 0 0 0
250 5 O 13.8466 13.65 8.75382 0 0 0
251 5 O 15.3287 11.3024 8.66847 0 0 0
252 5 O 15.663 11.449 11.3786 0 0 0
289 6 Si 19.6705 5.40078 5.83807 0 0 0
290 6 Si 21.045 1.27918 6.48817 0 0 0
291 6 Si 23.5572 2.51221 5 0 0 0
292 5 O 20.527 4.68985 7.12147 0 0 0
293 5 O 18.5217 6.50884 6.45458 0 0 0
294 5 O 22.6067 1.78367 6.22749 0 0 0
295 5 O 18.7073 4.11933 5.15665 0 0 0
296 5 O 20.1019 1.86105 5.21008 0 0 0
297 5 O 20.5321 1.79162 7.98692 0 0 0
298 6 Si 19.7661 1.06333 9.29472 0 0 0
299 6 Si 18.7231 3.8871 9.95412 0 0 0
300 6 Si 21.1925 5.10143 8.58286 0 0 0
301 5 O 20.9118 0.538127 10.3712 0 0 0
302 5 O 23.7075 2.23236 9.98785 0 0 0
303 5 O 20.2748 4.50117 9.85726 0 0 0
304 5 O 21.2199 6.75048 8.75359 0 0 0
305 5 O 22.7007 4.40178 8.66857 0 0 0
306 5 O 23.0349 4.54799 11.3782 0 0 0
307 6 Si 17.2129 12.3019 5.83718 0 0 0
308 6 Si 18.5877 8.17943 6.48807 0 0 0
309 6 Si 21.0997 9.41269 5 0 0 0
310 5 O 18.07 11.5912 7.12061 0 0 0
311 5 O 16.0646 13.4094 6.45429 0 0 0
312 5 O 20.1492 8.68412 6.22773 0 0 0
313 5 O 16.2498 11.0198 5.15665 0 0 0
314 5 O 17.6444 8.76153 5.21008 0 0 0
315 5 O 18.075 8.69178 7.98657 0 0 0
316 6 Si 17.3085 7.96433 9.2946 0 0 0
317 6 Si 16.2663 10.7878 9.95407 0 0 0
318 6 Si 18.7357 12.0013 8.58231 0 0 0
319 5 O 18.4537 7.43849 10.3708 0 0 0
320 5 O 21.2502 9.13359 9.98844 0 0 0
321 5 O 17.8178 11.4011 9.85668 0 0 0
322 5 O 18.762 13.6502 8.75373 0 0 0
323 5 O 20.2439 11.3017 8.66875 0 0 0
324 5 O 20.5778 11.4482 11.3781 0 0 0
361 6 Si 24.5855 5.40159 5.83748 0 0 0
362 6 Si 25.9603 1.27923 6.48787 0 0 0
363 6 Si 28.4722 2.51221 5 0 0 0
364 5 O 25.4423 4.69079 7.12074 0 0 0
365 5 O 23.437 6.50932 6.45466 0 0 0
366 5 O 27.5222 1.78385 6.22813 0 0 0
367 5 O 23.6223 4.11933 5.15665 0 0 0
368 5 O 25.0169 1.86105 5.21008 0 0 0
369 5 O 25.4471 1.7914 7.9866 0 0 0
370 6 Si 24.6812 1.06315 9.29464 0 0 0
371 6 Si 23.6381 3.887 9.95379 0 0 0
372 6 Si 26.1079 5.10048 8.58261 0 0 0
373 5 O 25.8267 0.53864 10.3709 0 0 0
374 5 O 28.623 2.23283 9.98829 0 0 0
375 5 O 25.1898 4.5008 9.85693 0 0 0
376 5 O 26.1349 6.74933 8.75415 0 0 0
377 5 O 27.6159 4.40067 8.66855 0 0 0
379 6 Si 22.128 12.302 5.83855 0 0 0
380 6 Si 23.5028 8.1797 6.48837 0 0 0
381 6 Si 26.0147 9.41269 5 0 0 0
382 5 O 22.985 11.5904 7.12135 0 0 0
383 5 O 20.9797 13.4094 6.45519 0 0 0
384 5 O 25.0641 8.68433 6.22796 0 0 0
385 5 O 21.1648 11.0198 5.15665 0 0 0
386 5 O 22.5594 8.76153 5.21008 0 0 0
387 5 O 22.9902 8.69165 7.98714 0 0 0
388 6 Si 22.2237 7.96454 9.29504 0 0 0
389 6 Si 21.1816 10.788 9.95408 0 0 0
390 6 Si 23.6504 12.0012 8.58258 0 0 0
391 5 O 23.3686 7.43908 10.371 0 0 0
392 5 O 26.1651 9.13344 9.98777 0 0 0
393 5 O 22.7326 11.4017 9.85667 0 0 0
394 5 O 23.6772 13.65 8.75369 0 0 0
395 5 O 25.1584 11.3028 8.66854 0 0 0
458 2 H 17.176 4.3513 11.5422 0 0 0
459 2 H 13.3713 6.62306 10.8886 0 0 0
460 2 H 14.7201 11.2514 11.5439 0 0 0
461 2 H 10.9122 13.5235 10.8879 0 0 0
466 2 H 22.0911 4.35091 11.5423 0 0 0
467 2 H 18.285 6.62345 10.8882 0 0 0
468 2 H 19.634 11.2517 11.5426 0 0 0
469 2 H 15.8271 13.5238 10.888 0 0 0
474 2 H 27.0059 4.35078 11.5421 0 0 0
475 2 H 23.2003 6.62297 10.8881 0 0 0
476 2 H 24.5499 11.2513 11.5436 0 0 0
477 2 H 20.7425 13.5236 10.8883 0 0 0
502 1 C 12.1956 13.3469 27.1895 0 0 0
503 1 C 12.5003 13.3747 28.6956 0 0 0
505 1 C 14.9059 12.7166 30.7509 0 0 0
506 1 C 16.1712 12.474 29.8613 0 0 0
522 2 H 10.2706 12.9353 18.9435 0 0 0
546 2 H 11.6761 12.3889 26.9657 0 0 0
547 2 H 13.1392 13.4066 26.6012 0 0 0
549 2 H 14.2072 11.8488 30.7025 0 0 0
550 2 H 15.2008 12.8179 31.8249 0 0 0
551 2 H 15.9006 11.8313 28.9899 0 0 0
552 2 H 16.9182 11.8929 30.4557 0 0 0
554 2 H 17.9098 13.6581 29.1754 0 0 0
566 5 O 10.1013 13.7934 21.2498 0 0 0
570 5 O 11.7255 12.9854 29.5648 0 0 0
572 5 O 10.3004 13.0697 25.035 0 0 0
198 5 O 8.29014 18.3494 11.378 0 0 0
216 5 O 5.83211 25.2496 11.378 0 0 0
253 6 Si 9.84079 19.2021 5.83761 0 0 0
254 6 Si 11.2153 15.08 6.48817 0 0 0
255 6 Si 13.7273 16.3132 5 0 0 0
256 5 O 10.6967 18.4912 7.12124 0 0 0
257 5 O 8.69236 20.3098 6.45402 0 0 0
258 5 O 12.7767 15.5844 6.22771 0 0 0
259 5 O 8.87737 17.9203 5.15665 0 0 0
260 5 O 10.272 15.662 5.21008 0 0 0
261 5 O 10.7023 15.5922 7.98695 0 0 0
262 6 Si 9.93597 14.8649 9.2947 0 0 0
263 6 Si 8.89351 17.6882 9.95412 0 0 0
264 6 Si 11.3629 18.9017 8.58253 0 0 0
265 5 O 11.0812 14.3387 10.3708 0 0 0
266 5 O 13.8779 16.0337 9.98836 0 0 0
267 5 O 10.4445 18.3024 9.85703 0 0 0
268 5 O 11.3893 20.5506 8.75301 0 0 0
269 5 O 12.8712 18.2025 8.66857 0 0 0
270 5 O 13.2051 18.3487 11.3782 0 0 0
271 6 Si 7.38326 26.1026 5.83875 0 0 0
272 6 Si 8.75772 21.9805 6.48782 0 0 0
273 6 Si 11.2698 23.2137 5 0 0 0
274 5 O 8.23916 25.3916 7.12161 0 0 0
275 5 O 6.23434 27.2105 6.45473 0 0 0
276 5 O 10.3194 22.4854 6.22779 0 0 0
277 5 O 6.41988 24.8208 5.15665 0 0 0
278 5 O 7.81447 22.5625 5.21008 0 0 0
279 5 O 8.24466 22.4931 7.98674 0 0 0
280 6 Si 7.47836 21.7651 9.29492 0 0 0
281 6 Si 6.43593 24.5888 9.95436 0 0 0
282 6 Si 8.90515 25.802 8.58275 0 0 0
283 5 O 8.62429 21.2395 10.3709 0 0 0
284 5 O 11.4204 22.9342 9.98843 0 0 0
285 5 O 7.9869 25.2027 9.85671 0 0 0
286 5 O 8.93216 27.4505 8.75388 0 0 0
287 5 O 10.4132 25.1024 8.66908 0 0 0
288 5 O 10.7473 25.2489 11.3786 0 0 0
325 6 Si 14.756 19.2018 5.83805 0 0 0
326 6 Si 16.1302 15.0798 6.48822 0 0 0
327 6 Si 18.6422 16.3132 5 0 0 0
328 5 O 15.6122 18.4914 7.12145 0 0 0
329 5 O 13.6071 20.3096 6.45403 0 0 0
330 5 O 17.6918 15.5847 6.22833 0 0 0
331 5 O 13.7923 17.9203 5.15665 0 0 0
332 5 O 15.1869 15.662 5.21008 0 0 0
333 5 O 15.6168 15.5924 7.98657 0 0 0
334 6 Si 14.8507 14.8646 9.29462 0 0 0
335 6 Si 13.8084 17.6882 9.95443 0 0 0
336 6 Si 16.2776 18.9017 8.58277 0 0 0
337 5 O 15.9965 14.3386 10.3702 0 0 0
338 5 O 18.7925 16.0337 9.98893 0 0 0
339 5 O 15.3597 18.3016 9.85702 0 0 0
340 5 O 16.3046 20.5505 8.75357 0 0 0
341 5 O 17.7861 18.2026 8.66869 0 0 0
342 5 O 18.1199 18.3488 11.3791 0 0 0
343 6 Si 12.2979 26.1025 5.83815 0 0 0
344 6 Si 13.673 21.9804 6.48748 0 0 0
345 6 Si 16.1847 23.2137 5 0 0 0
346 5 O 13.1546 25.3916 7.1215 0 0 0
347 5 O 11.1494 27.2104 6.455 0 0 0
348 5 O 15.2347 22.4852 6.22737 0 0 0
349 5 O 11.3348 24.8208 5.15665 0 0 0
350 5 O 12.7294 22.5625 5.21008 0 0 0
351 5 O 13.1606 22.4928 7.98687 0 0 0
352 6 Si 12.3938 21.765 9.29469 0 0 0
353 6 Si 11.3508 24.5887 9.95418 0 0 0
354 6 Si 13.8202 25.8017 8.58286 0 0 0
355 5 O 13.5397 21.2387 10.3702 0 0 0
356 5 O 16.335 22.9342 9.9888 0 0 0
357 5 O 12.902 25.2024 9.85725 0 0 0
358 5 O 13.8472 27.4505 8.75372 0 0 0
359 5 O 15.3282 25.1027 8.6691 0 0 0
360 5 O 15.6625 25.2495 11.3786 0 0 0
397 6 Si 19.6702 19.202 5.83837 0 0 0
398 6 Si 21.0456 15.08 6.48797 0 0 0
399 6 Si 23.5572 16.3132 5 0 0 0
400 5 O 20.5269 18.491 7.12144 0 0 0
401 5 O 18.522 20.3101 6.45442 0 0 0
402 5 O 22.607 15.5846 6.22744 0 0 0
403 5 O 18.7073 17.9203 5.15665 0 0 0
404 5 O 20.1019 15.662 5.21008 0 0 0
405 5 O 20.5329 15.5924 7.9866 0 0 0
406 6 Si 19.7663 14.8651 9.29483 0 0 0
407 6 Si 18.7232 17.6883 9.95461 0 0 0
408 6 Si 21.1927 18.9017 8.58301 0 0 0
409 5 O 20.9119 14.3389 10.3709 0 0 0
410 5 O 23.7078 16.0338 9.98826 0 0 0
411 5 O 20.2747 18.3021 9.85744 0 0 0
412 5 O 21.2198 20.551 8.75379 0 0 0
413 5 O 22.7008 18.2021 8.66902 0 0 0
415 6 Si 17.213 26.1021 5.83842 0 0 0
416 6 Si 18.5883 21.9805 6.4882 0 0 0
417 6 Si 21.0997 23.2137 5 0 0 0
418 5 O 18.0692 25.3913 7.12188 0 0 0
419 5 O 16.0642 27.2103 6.4543 0 0 0
420 5 O 20.1495 22.4855 6.22766 0 0 0
421 5 O 16.2498 24.8208 5.15665 0 0 0
422 5 O 17.6444 22.5625 5.21008 0 0 0
423 5 O 18.0748 22.4929 7.98681 0 0 0
424 6 Si 17.3084 21.7655 9.29494 0 0 0
425 6 Si 16.2658 24.5888 9.95452 0 0 0
426 6 Si 18.7353 25.8021 8.58294 0 0 0
427 5 O 18.4544 21.2393 10.3706 0 0 0
428 5 O 21.2505 22.9344 9.9881 0 0 0
429 5 O 17.8173 25.2027 9.85671 0 0 0
430 5 O 18.762 27.4508 8.75352 0 0 0
431 5 O 20.2432 25.1033 8.66864 0 0 0
457 2 H 5.99679 27.3244 10.8879 0 -1 0
462 2 H 12.2611 18.1519 11.5428 0 0 0
463 2 H 8.45458 20.424 10.888 0 0 0
464 2 H 9.80382 25.0526 11.5435 0 0 0
465 2 H 10.9126 27.325 10.8884 0 -1 0
470 2 H 17.1767 18.1515 11.5438 0 0 0
471 2 H 13.3692 20.4239 10.8885 0 0 0
472 2 H 14.7189 25.0529 11.5438 0 0 0
473 2 H 15.8278 27.3244 10.888 0 -1 0
478 2 H 22.0908 18.1515 11.5427 0 0 0
479 2 H 18.2846 20.4244 10.8883 0 0 0
480 2 H 19.6342 25.0522 11.5427 0 0 0
496 1 C 12.2731 18.8325 29.9763 0 0 0
497 1 C 11.7487 19.1521 28.5535 0 0 0
498 1 C 12.5545 20.3059 27.9101 0 0 0
499 1 C 10.2276 19.4453 28.5309 0 0 0
500 1 C 11.5256 16.7661 27.8825 0 0 0
501 1 C 11.2469 14.5191 26.7812 0 0 0
504 1 C 14.1513 14.0079 30.3633 0 0 0
507 1 C 16.816 13.8034 29.3442 0 0 0
508 1 C 16.5685 14.973 30.3333 0 0 0
509 1 C 15.0433 15.2766 30.4792 0 0 0
510 1 C 10.6598 14.2671 25.3782 0 0 0
535 2 H 13.3597 18.5812 29.9436 0 0 0
536 2 H 12.1446 19.7272 30.6308 0 0 0
537 2 H 11.7216 17.9769 30.4214 0 0 0
538 2 H 12.4249 21.2437 28.499 0 0 0
539 2 H 12.211 20.4917 26.8665 0 0 0
540 2 H 13.6393 20.0528 27.8794 0 0 0
541 2 H 9.65301 18.6082 28.9851 0 0 0
542 2 H 10.0121 20.3793 29.1018 0 0 0
543 2 H 9.87945 19.5927 27.4813 0 0 0
544 2 H 12.0827 16.3235 25.9154 0 0 0
545 2 H 10.3852 14.5393 27.4981 0 0 0
548 2 H 13.2101 14.1079 30.9487 0 0 0
553 2 H 16.3718 14.0732 28.3553 0 0 0
555 2 H 17.0008 14.7064 31.3308 0 0 0
556 2 H 17.1049 15.8937 30.0001 0 0 0
557 2 H 14.7087 15.9945 29.692 0 0 0
558 2 H 14.8425 15.766 31.4626 0 0 0
561 4 N 11.9249 15.8658 26.8374 0 0 0
568 5 O 12.0451 18.0105 27.6178 0 0 0
569 5 O 10.8614 16.43 28.8669 0 0 0
571 5 O 13.7465 13.9023 28.9307 0 0 0
573 5 O 10.5242 15.2535 24.5472 0 0 0
ITEM: TIMESTEP
100000
ITEM: NUMBER OF ATOMS
573
ITEM: BOX BOUNDS xy xz yz pp pp ff
-9.8299323600000008e+00 2.9489797079999999e+01 -9.8299323600000008e+00
0.0000000000000000e+00 2.7601942391000001e+01 0.0000000000000000e+00
0.0000000000000000e+00 3.6159325252999999e+01 0.0000000000000000e+00
ITEM: ATOMS id type element x y z ix iy iz
1 6 Si 0.0107922 5.40113 5.83817 0 0 0
2 6 Si 1.38607 1.27865 6.4883 0 0 0
3 6 Si 3.89733 2.51221 5 0 0 0
4 5 O 0.867075 4.68982 7.12125 0 0 0
5 5 O -1.13785 6.50901 6.45469 0 0 0
6 5 O 2.94713 1.78388 6.22748 0 0 0
7 5 O -0.952567 4.11933 5.15665 0 0 0
8 5 O 0.442021 1.86105 5.21008 0 0 0
9 5 O 0.873461 1.79135 7.98682 0 0 0
10 6 Si 0.106333 1.06354 9.29484 0 0 0
11 6 Si -0.936148 3.88733 9.95414 0 0 0
12 6 Si 1.5328 5.10101 8.58267 0 0 0
13 5 O 1.2519 0.53822 10.3708 0 0 0
14 5 O 4.04756 2.23288 9.98862 0 0 0
15 5 O 0.615217 4.50128 9.85687 0 0 0
16 5 O 1.55924 6.74966 8.75312 0 0 0
17 5 O 3.04078 4.40192 8.66853 0 0 0
18 5 O 3.37544 4.54793 11.3781 0 0 0
19 6 Si -2.44719 12.3017 5.83776 0 0 0
20 6 Si -1.07171 8.1796 6.48794 0 0 0
21 6 Si 1.43985 9.41269 5 0 0 0
22 5 O -1.58977 11.5914 7.12085 0 0 0
23 5 O -3.59505 13.4093 6.45441 0 0 0
24 5 O 0.489697 8.68453 6.22774 0 0 0
25 5 O -3.41005 11.0198 5.15665 0 0 0
26 5 O -2.01546 8.76153 5.21008 0 0 0
27 5 O -1.58429 8.69198 7.98684 0 0 0
28 6 Si -2.35071 7.96432 9.29492 0 0 0
29 6 Si -3.39387 10.7881 9.95343 0 0 0
30 6 Si -0.924329 12.0009 8.58262 0 0 0
31 5 O -1.20554 7.43922 10.3712 0 0 0
32 5 O 1.59046 9.13369 9.98802 0 0 0
33 5 O -1.84248 11.4013 9.85711 0 0 0
34 5 O -0.89815 13.6499 8.75399 0 0 0
35 5 O 0.583795 11.3015 8.66807 0 0 0
36 5 O 0.917505 11.4486 11.3777 0 0 0
73 6 Si 4.92561 5.40104 5.83762 0 0 0
74 6 Si 6.30066 1.27925 6.48837 0 0 0
75 6 Si 8.8123 2.51221 5 0 0 0
76 5 O 5.78203 4.69005 7.12116 0 0 0
77 5 O 3.77736 6.50846 6.45466 0 0 0
78 5 O 7.86214 1.78439 6.22758 0 0 0
79 5 O 3.9624 4.11933 5.15665 0 0 0
80 5 O 5.35699 1.86105 5.21008 0 0 0
81 5 O 5.78714 1.79172 7.98671 0 0 0
82 6 Si 5.02097 1.06397 9.29511 0 0 0
83 6 Si 3.97823 3.88735 9.95366 0 0 0
84 6 Si 6.44797 5.10064 8.5827 0 0 0
85 5 O 6.16679 0.537717 10.3706 0 0 0
86 5 O 8.96265 2.23297 9.98799 0 0 0
87 5 O 5.52971 4.50119 9.85706 0 0 0
88 5 O 6.47456 6.74963 8.75361 0 0 0
89 5 O 7.95633 4.40149 8.66913 0 0 0
90 5 O 8.29047 4.54781 11.3787 0 0 0
91 6 Si 2.46834 12.302 5.83846 0 0 0
92 6 Si 3.84297 8.17941 6.48826 0 0 0
93 6 Si 6.35482 9.41269 5 0 0 0
94 5 O 3.32503 11.5909 7.12137 0 0 0
95 5 O 1.31951 13.409 6.45595 0 0 0
96 5 O 5.40467 8.68407 6.22733 0 0 0
97 5 O 1.50492 11.0198 5.15665 0 0 0
98 5 O 2.8995 8.76153 5.21008 0 0 0
99 5 O 3.32994 8.69151 7.9871 0 0 0
100 6 Si 2.56339 7.9639 9.29463 0 0 0
101 6 Si 1.52141 10.7879 9.95374 0 0 0
102 6 Si 3.99045 12.0012 8.58253 0 0 0
103 5 O 3.7087 7.43844 10.3703 0 0 0
104 5 O 6.5051 9.13363 9.98785 0 0 0
105 5 O 3.07203 11.4015 9.85696 0 0 0
106 5 O 4.01787 13.6498 8.75401 0 0 0
107 5 O 5.49843 11.3019 8.66833 0 0 0
108 5 O 5.83238 11.4488 11.378 0 0 0
145 6 Si 9.84093 5.40119 5.83848 0 0 0
146 6 Si 11.215 1.27945 6.48766 0 0 0
147 6 Si 13.7273 2.51221 5 0 0 0
148 5 O 10.697 4.69073 7.1214 0 0 0
149 5 O 8.69188 6.50904 6.45438 0 0 0
150 5 O 12.7771 1.78388 6.22765 0 0 0
151 5 O 8.87737 4.11933 5.15665 0 0 0
152 5 O 10.272 1.86105 5.21008 0 0 0
153 5 O 10.7023 1.79139 7.98661 0 0 0
154 6 Si 9.93606 1.06409 9.29477 0 0 0
155 6 Si 8.894 3.88753 9.9546 0 0 0
156 6 Si 11.3626 5.10093 8.58284 0 0 0
157 5 O 11.0816 0.538007 10.3701 0 0 0
158 5 O 13.8778 2.23355 9.98781 0 0 0
159 5 O 10.4446 4.50153 9.85753 0 0 0
160 5 O 11.3895 6.74963 8.75396 0 0 0
161 5 O 12.8708 4.40231 8.66902 0 0 0
163 6 Si 7.38298 12.302 5.83754 0 0 0
164 6 Si 8.75835 8.17994 6.48772 0 0 0
165 6 Si 11.2698 9.41269 5 0 0 0
166 5 O 8.23977 11.591 7.12067 0 0 0
167 5 O 6.23441 13.4094 6.45406 0 0 0
168 5 O 10.3199 8.68479 6.22756 0 0 0
169 5 O 6.41988 11.0198 5.15665 0 0 0
170 5 O 7.81447 8.76153 5.21008 0 0 0
171 5 O 8.24532 8.69231 7.98664 0 0 0
172 6 Si 7.47884 7.96439 9.29488 0 0 0
173 6 Si 6.43616 10.7879 9.95362 0 0 0
174 6 Si 8.90542 12.0012 8.58213 0 0 0
175 5 O 8.6243 7.43919 10.371 0 0 0
176 5 O 11.4202 9.13318 9.9884 0 0 0
177 5 O 7.98757 11.401 9.85681 0 0 0
178 5 O 8.93217 13.6503 8.75357 0 0 0
179 5 O 10.4138 11.3018 8.66764 0 0 0
378 5 O -1.54029 4.54807 11.3779 1 0 0
396 5 O -3.99672 11.4487 11.3778 1 0 0
434 2 H 2.4322 4.35102 11.5434 0 0 0
435 2 H -1.3749 6.62271 10.8878 0 0 0
436 2 H -0.0261351 11.252 11.542 0 0 0
437 2 H -3.83211 13.5235 10.8882 0 0 0
442 2 H 7.34691 4.35148 11.5436 0 0 0
443 2 H 3.53962 6.62336 10.8884 0 0 0
444 2 H 4.88955 11.2514 11.5429 0 0 0
445 2 H 1.08268 13.5237 10.8885 0 0 0
450 2 H 12.2619 4.35118 11.543 0 0 0
451 2 H 8.45511 6.62307 10.8878 0 0 0
452 2 H 9.80286 11.2513 11.541 0 0 0
453 2 H 5.9986 13.5235 10.8883 0 0 0
481 1 C 0.354434 8.74908 13.2454 0 0 0
488 1 C 4.74302 9.75347 16.5937 0 0 0
489 1 C 5.41202 9.22525 14.3175 0 0 0
490 1 C 6.95338 9.32217 14.2758 0 0 0
491 1 C 7.64694 7.95605 14.5983 0 0 0
492 1 C 6.78507 6.72034 14.1731 0 0 0
493 1 C 5.87902 7.05479 12.9587 0 0 0
494 1 C 4.85354 8.17897 13.3114 0 0 0
511 2 H 1.1279 8.00021 12.9523 0 0 0
512 2 H -0.326449 8.90197 12.3746 0 0 0
513 2 H 0.859166 9.70998 13.4826 0 0 0
524 2 H 4.94777 10.2266 14.1746 0 0 0
525 2 H 7.29478 10.1217 14.9743 0 0 0
526 2 H 7.23362 9.66639 13.2494 0 0 0
527 2 H 7.86704 7.89463 15.6907 0 0 0
528 2 H 8.63669 7.92814 14.0799 0 0 0
529 2 H 6.13567 6.40738 15.0266 0 0 0
530 2 H 7.44803 5.85303 13.9399 0 0 0
531 2 H 6.52118 7.38041 12.1017 0 0 0
532 2 H 5.33432 6.14533 12.6086 0 0 0
533 2 H 3.93006 7.74111 13.7613 0 0 0
534 2 H 4.53404 8.71099 12.383 0 0 0
565 5 O 5.00774 8.76439 15.6781 0 0 0
564 5 O 4.82669 10.9582 16.3722 0 0 0
563 5 O 1.38477 10.0233 15.7575 0 0 0
487 1 C 4.31276 9.14921 17.9397 0 0 0
482 1 C -0.46277 8.23633 14.4581 0 0 0
562 5 O 0.456155 7.88517 15.5978 0 0 0
485 1 C 1.26447 8.85579 16.1391 0 0 0
521 2 H 2.43314 10.2709 17.8823 0 0 0
484 1 C -1.51023 9.2666 14.9494 0 0 0
514 2 H -1.84912 6.97163 13.3118 0 0 0
516 2 H -0.344796 6.12386 13.8551 0 0 0
523 2 H 4.64541 8.08905 18.0135 0 0 0
515 2 H -1.65667 6.47938 15.043 0 0 0
483 1 C -1.1191 6.86957 14.1484 0 0 0
519 2 H -2.01969 8.88985 15.8677 0 0 0
560 4 N 2.01659 8.28235 17.2197 0 0 0
518 2 H -2.28581 9.42462 14.1631 0 0 0
517 2 H -1.03127 10.2436 15.1803 0 0 0
520 2 H 1.54139 7.48876 17.698 0 0 0
510 1 C 1.2561 8.22383 24.0894 0 0 0
501 1 C 0.876721 7.9701 25.5619 0 0 0
545 2 H -0.1348 7.48672 25.561 0 0 0
549 2 H 2.27718 4.60431 29.8023 0 0 0
503 1 C 1.34778 6.42347 27.5447 0 0 0
495 1 C 2.39059 8.9718 19.601 0 0 0
566 5 O 3.12593 9.46525 20.5478 0 0 0
548 2 H 0.420985 6.2513 29.8314 0 0 0
559 3 Mg 1.81531 8.60116 21.8437 0 0 0
496 1 C -1.85686 10.5927 29.5011 0 0 0
572 5 O 1.68569 7.24484 23.3562 0 0 0
502 1 C 1.89118 6.98058 26.2195 0 0 0
570 5 O 0.503634 5.53572 27.6269 0 0 0
567 5 O 1.34096 8.26651 19.889 0 0 0
546 2 H 2.0366 6.12375 25.525 0 0 0
571 5 O 1.92647 7.06103 28.6149 0 0 0
547 2 H 2.864 7.49662 26.3849 0 0 0
504 1 C 1.46053 6.62587 29.9643 0 0 0
505 1 C 2.39298 5.49787 30.4593 0 0 0
550 2 H 2.02762 5.18913 31.4702 0 0 0
573 5 O 1.14138 9.41442 23.5879 0 0 0
535 2 H -0.920991 10.6291 30.1076 0 0 0
551 2 H 4.40812 5.70471 29.5813 0 0 0
509 1 C 1.51077 7.88397 30.8772 0 0 0
561 4 N 0.763489 9.27448 26.3119 0 0 0
558 2 H 0.651769 7.84315 31.5895 0 0 0
506 1 C 3.88949 5.95118 30.5384 0 0 0
552 2 H 4.4012 5.35329 31.3319 0 0 0
569 5 O -1.29738 8.65581 27.2805 0 0 0
557 2 H 1.34338 8.7765 30.2273 0 0 0
555 2 H 2.78971 7.45441 32.627 0 0 0
508 1 C 2.85315 8.02124 31.6639 0 0 0
507 1 C 4.04771 7.48017 30.8345 0 0 0
553 2 H 4.09657 8.04343 29.871 0 0 0
500 1 C -0.45437 9.52211 27.0313 0 0 0
544 2 H 1.14466 10.1073 25.8163 0 0 0
522 2 H 4.78893 9.74696 18.7481 0 0 0
556 2 H 3.01715 9.08937 31.9442 0 0 0
554 2 H 5.01101 7.66966 31.3658 0 0 0
537 2 H -2.11689 9.52979 29.3088 0 0 0
541 2 H -3.21099 10.2401 27.064 0 0 0
568 5 O -0.479292 10.84 27.4199 0 0 0
497 1 C -1.67114 11.3686 28.1727 0 0 0