
     Program PWSCF v.7.3 starts on  8Mar2024 at 16:39: 6 

     This program is part of the open-source Quantum ESPRESSO suite
     for quantum simulation of materials; please cite
         "P. Giannozzi et al., J. Phys.:Condens. Matter 21 395502 (2009);
         "P. Giannozzi et al., J. Phys.:Condens. Matter 29 465901 (2017);
         "P. Giannozzi et al., J. Chem. Phys. 152 154105 (2020);
          URL http://www.quantum-espresso.org", 
     in publications or presentations arising from this work. More details at
     http://www.quantum-espresso.org/quote

     Parallel version (MPI & OpenMP), running on      36 processor cores
     Number of MPI processes:                36
     Threads/MPI process:                     1

     MPI processes distributed on     1 nodes
     559481 MiB available memory on the printing compute node when the environment starts
 
     Waiting for input...
     Reading input from standard input
Warning: card &CELL ignored
Warning: card / ignored

     Current dimensions of program PWSCF are:
     Max number of different atomic species (ntypx) = 10
     Max number of k-points (npk) =  40000
     Max angular momentum in pseudopotentials (lmaxx) =  4
     file Mo.pbe-spn-kjpaw_psl.1.0.0.UPF: wavefunction(s)  4S 4D renormalized
     file S.pbe-n-kjpaw_psl.1.0.0.UPF: wavefunction(s)  3S 3P renormalized
     file Pt.pbe-spfn-kjpaw_psl.1.0.0.UPF: wavefunction(s)  5P 4F renormalized
     file Pd.pbe-spn-kjpaw_psl.1.0.0.UPF: wavefunction(s)  4S 5S 4D renormalized
 
     R & G space division:  proc/nbgrp/npool/nimage =      36
     Subspace diagonalization in iterative solution of the eigenvalue problem:
     one sub-group per band group will be used
     scalapack distributed-memory algorithm (size of sub-group:  6*  6 procs)

 
     Parallelization info
     --------------------
     sticks:   dense  smooth     PW     G-vecs:    dense   smooth      PW
     Min         586     335     89               165416    71459    9765
     Max         587     337     90               165425    71461    9778
     Sum       21109   12085   3205              5955087  2572543  351657
 
     Using Slab Decomposition
 


     bravais-lattice index     =            0
     lattice parameter (alat)  =      23.8395  a.u.
     unit-cell volume          =   28182.8498 (a.u.)^3
     number of atoms/cell      =          146
     number of atomic types    =            4
     number of electrons       =      1298.00
     number of Kohn-Sham states=          779
     kinetic-energy cutoff     =      77.0000  Ry
     charge density cutoff     =     539.0000  Ry
     scf convergence threshold =      1.0E-06
     mixing beta               =       0.2000
     number of iterations used =            8  plain     mixing
     energy convergence thresh.=      1.0E-04
     force convergence thresh. =      1.0E-03
     Exchange-correlation= SLA  PW   PBX  PBC
                           (   1   4   3   4   0   0   0)
     nstep                     =         1000


     Effective Screening Medium Method
     =================================
     Boundary Conditions: Vacuum-Slab-Vacuum
     total charge in unit cell        =   0.0000
     grid points for fit at edges     =        4 
 

     celldm(1)=  23.839504  celldm(2)=   0.000000  celldm(3)=   0.000000
     celldm(4)=   0.000000  celldm(5)=   0.000000  celldm(6)=   0.000000

     crystal axes: (cart. coord. in units of alat)
               a(1) = (   1.000000   0.000000   0.000000 )  
               a(2) = (  -0.500001   0.866026   0.000000 )  
               a(3) = (   0.000000   0.000000   2.401941 )  

     reciprocal axes: (cart. coord. in units 2 pi/alat)
               b(1) = (  1.000000  0.577351  0.000000 )  
               b(2) = (  0.000000  1.154700  0.000000 )  
               b(3) = (  0.000000  0.000000  0.416330 )  


     PseudoPot. # 1 for Mo read from file:
     ./pseudo/Mo.pbe-spn-kjpaw_psl.1.0.0.UPF
     MD5 check sum: 317bf72632116215fd98f72de1686f13
     Pseudo is Projector augmented-wave + core cor, Zval = 14.0
     Generated using 'atomic' code by A. Dal Corso  v.7.2
     Shape of augmentation charge: PSQ
     Using radial grid of 1229 points,  6 beta functions with: 
                l(1) =   0
                l(2) =   0
                l(3) =   1
                l(4) =   1
                l(5) =   2
                l(6) =   2
     Q(r) pseudized with 0 coefficients 


     PseudoPot. # 2 for S  read from file:
     ./pseudo/S.pbe-n-kjpaw_psl.1.0.0.UPF
     MD5 check sum: 8b7b5302570d38d5e87fed6a1065abda
     Pseudo is Projector augmented-wave + core cor, Zval =  6.0
     Generated using 'atomic' code by A. Dal Corso  v.7.2
     Shape of augmentation charge: PSQ
     Using radial grid of 1151 points,  6 beta functions with: 
                l(1) =   0
                l(2) =   0
                l(3) =   1
                l(4) =   1
                l(5) =   2
                l(6) =   2
     Q(r) pseudized with 0 coefficients 


     PseudoPot. # 3 for Pt read from file:
     ./pseudo/Pt.pbe-spfn-kjpaw_psl.1.0.0.UPF
     MD5 check sum: 620096ebf4e6ebacc94de60fd67efcb5
     Pseudo is Projector augmented-wave + core cor, Zval = 32.0
     Generated using 'atomic' code by A. Dal Corso  v.7.2
     Shape of augmentation charge: PSQ
     Using radial grid of 1277 points,  8 beta functions with: 
                l(1) =   0
                l(2) =   0
                l(3) =   1
                l(4) =   1
                l(5) =   2
                l(6) =   2
                l(7) =   3
                l(8) =   3
     Q(r) pseudized with 0 coefficients 


     PseudoPot. # 4 for Pd read from file:
     ./pseudo/Pd.pbe-spn-kjpaw_psl.1.0.0.UPF
     MD5 check sum: a60571a671f2502b8a6a4569d20a6edb
     Pseudo is Projector augmented-wave + core cor, Zval = 18.0
     Generated using 'atomic' code by A. Dal Corso  v.7.2
     Shape of augmentation charge: PSQ
     Using radial grid of 1235 points,  6 beta functions with: 
                l(1) =   0
                l(2) =   0
                l(3) =   1
                l(4) =   1
                l(5) =   2
                l(6) =   2
     Q(r) pseudized with 0 coefficients 


     atomic species   valence    mass     pseudopotential
     Mo               14.00    95.95000     Mo( 1.00)
     S                 6.00    32.06000     S ( 1.00)
     Pt               32.00   195.08400     Pt( 1.00)
     Pd               18.00   106.42000     Pd( 1.00)

     No symmetry found



   Cartesian axes

     site n.     atom                  positions (alat units)
         1        Mo     tau(   1) = (   0.1245066   0.2151403   0.4829270  )
         2        Mo     tau(   2) = (   0.1250004   0.0721694  -0.4825273  )
         3        Mo     tau(   3) = (   0.0000143   0.1443586  -0.0000404  )
         4        S      tau(   4) = (   0.0000004   0.0000006  -0.6064556  )
         5        S      tau(   5) = (   0.1249859   0.0722111  -0.1241825  )
         6        S      tau(   6) = (   0.0002990   0.1445714   0.3572522  )
         7        S      tau(   7) = (   0.0000004   0.0000005  -0.3584711  )
         8        S      tau(   8) = (   0.1250243   0.0721377   0.1241202  )
         9        S      tau(   9) = (  -0.0011552   0.1430195   0.6061730  )
        10        Mo     tau(  10) = (  -0.0014303   0.4332690   0.4829269  )
        11        Mo     tau(  11) = (   0.0000001   0.2886759  -0.4825273  )
        12        Mo     tau(  12) = (  -0.1249759   0.3608474  -0.0000404  )
        13        S      tau(  13) = (  -0.1249999   0.2165071  -0.6064556  )
        14        S      tau(  14) = (   0.0000250   0.2886908  -0.1241273  )
        15        S      tau(  15) = (  -0.1246483   0.3609863   0.3572522  )
        16        S      tau(  16) = (  -0.1249998   0.2165070  -0.3584711  )
        17        S      tau(  17) = (   0.0000923   0.2887297   0.1242244  )
        18        S      tau(  18) = (  -0.1267194   0.3605027   0.6061730  )
        19        Mo     tau(  19) = (  -0.1251617   0.6496109   0.4820319  )
        20        Mo     tau(  20) = (  -0.1250002   0.5051824  -0.4825273  )
        21        Mo     tau(  21) = (  -0.2500022   0.5773395  -0.0001503  )
        22        S      tau(  22) = (  -0.2500002   0.4330136  -0.6064556  )
        23        S      tau(  23) = (  -0.1249718   0.5051500  -0.1241823  )
        24        S      tau(  24) = (  -0.2500018   0.5776353   0.3574746  )
        25        S      tau(  25) = (  -0.2500001   0.4330135  -0.3584711  )
        26        S      tau(  26) = (  -0.1250162   0.5052198   0.1241203  )
        27        S      tau(  27) = (  -0.2500018   0.5771316   0.6060170  )
        28        Mo     tau(  28) = (   0.2499988  -0.0001852   0.4820322  )
        29        Mo     tau(  29) = (  -0.2500004   0.7216889  -0.4825273  )
        30        Mo     tau(  30) = (  -0.3750121   0.7938628  -0.0001504  )
        31        S      tau(  31) = (  -0.3750004   0.6495201  -0.6064556  )
        32        S      tau(  32) = (  -0.2500022   0.7216884  -0.1242395  )
        33        S      tau(  33) = (  -0.3747547   0.7937137   0.3574746  )
        34        S      tau(  34) = (  -0.3750004   0.6495200  -0.3584711  )
        35        S      tau(  35) = (  -0.2500023   0.7216883   0.1240244  )
        36        S      tau(  36) = (  -0.3751912   0.7939655   0.6060169  )
        37        Mo     tau(  37) = (   0.3754907   0.2151405   0.4829271  )
        38        Mo     tau(  38) = (   0.3750004   0.0721694  -0.4825273  )
        39        Mo     tau(  39) = (   0.2499984   0.1443573  -0.0000731  )
        40        S      tau(  40) = (   0.2500004   0.0000006  -0.6064556  )
        41        S      tau(  41) = (   0.3750112   0.0722112  -0.1241824  )
        42        S      tau(  42) = (   0.2499987   0.1444686   0.3583292  )
        43        S      tau(  43) = (   0.2500004   0.0000005  -0.3584711  )
        44        S      tau(  44) = (   0.3749727   0.0721378   0.1241202  )
        45        S      tau(  45) = (   0.2499989   0.1436262   0.6067914  )
        46        Mo     tau(  46) = (   0.2499982   0.4330120   0.4873213  )
        47        Mo     tau(  47) = (   0.2500001   0.2886759  -0.4825273  )
        48        Mo     tau(  48) = (   0.1250313   0.3608632  -0.0000369  )
        49        S      tau(  49) = (   0.1250001   0.2165071  -0.6064556  )
        50        S      tau(  50) = (   0.2499984   0.2886902  -0.1241509  )
        51        S      tau(  51) = (   0.1269276   0.3619573   0.3622727  )
        52        S      tau(  52) = (   0.1250002   0.2165070  -0.3584711  )
        53        S      tau(  53) = (   0.2499983   0.2886817   0.1242427  )
        54        S      tau(  54) = (   0.1143670   0.3547054   0.6129634  )
        55        Mo     tau(  55) = (   0.1240620   0.6506275   0.4829270  )
        56        Mo     tau(  56) = (   0.1249998   0.5051824  -0.4825273  )
        57        Mo     tau(  57) = (   0.0000150   0.5773409  -0.0000731  )
        58        S      tau(  58) = (  -0.0000002   0.4330136  -0.6064556  )
        59        S      tau(  59) = (   0.1250108   0.5051746  -0.1241509  )
        60        S      tau(  60) = (   0.0001121   0.5772840   0.3583290  )
        61        S      tau(  61) = (  -0.0000001   0.4330135  -0.3584711  )
        62        S      tau(  62) = (   0.1250034   0.5051788   0.1242428  )
        63        S      tau(  63) = (  -0.0006172   0.5777056   0.6067911  )
        64        Mo     tau(  64) = (   0.5000733   0.0000423   0.4811256  )
        65        Mo     tau(  65) = (  -0.0000004   0.7216889  -0.4825273  )
        66        Mo     tau(  66) = (  -0.1249927   0.7938628  -0.0001503  )
        67        S      tau(  67) = (  -0.1250004   0.6495201  -0.6064556  )
        68        S      tau(  68) = (   0.0000406   0.7216783  -0.1241824  )
        69        S      tau(  69) = (  -0.1252496   0.7937135   0.3574746  )
        70        S      tau(  70) = (  -0.1250004   0.6495200  -0.3584711  )
        71        S      tau(  71) = (  -0.0000422   0.7216817   0.1241204  )
        72        S      tau(  72) = (  -0.1248129   0.7939655   0.6060170  )
        73        Mo     tau(  73) = (   0.6251034   0.2164454   0.4813717  )
        74        Mo     tau(  74) = (   0.6250004   0.0721694  -0.4825273  )
        75        Mo     tau(  75) = (   0.4999826   0.1443587  -0.0000403  )
        76        S      tau(  76) = (   0.5000004   0.0000006  -0.6064556  )
        77        S      tau(  77) = (   0.6249765   0.0721563  -0.1241436  )
        78        S      tau(  78) = (   0.4996985   0.1445712   0.3572516  )
        79        S      tau(  79) = (   0.5000004   0.0000005  -0.3584711  )
        80        S      tau(  80) = (   0.6250052   0.0721729   0.1241442  )
        81        S      tau(  81) = (   0.5011529   0.1430194   0.6061729  )
        82        Mo     tau(  82) = (   0.5014272   0.4332689   0.4829269  )
        83        Mo     tau(  83) = (   0.5000001   0.2886759  -0.4825273  )
        84        Mo     tau(  84) = (   0.3749652   0.3608633  -0.0000370  )
        85        S      tau(  85) = (   0.3750001   0.2165071  -0.6064556  )
        86        S      tau(  86) = (   0.4999715   0.2886908  -0.1241272  )
        87        S      tau(  87) = (   0.3730698   0.3619571   0.3622724  )
        88        S      tau(  88) = (   0.3750002   0.2165070  -0.3584711  )
        89        S      tau(  89) = (   0.4999043   0.2887298   0.1242243  )
        90        S      tau(  90) = (   0.3856284   0.3547066   0.6129638  )
        91        Mo     tau(  91) = (   0.3759345   0.6506277   0.4829270  )
        92        Mo     tau(  92) = (   0.3749998   0.5051824  -0.4825273  )
        93        Mo     tau(  93) = (   0.2499980   0.5773127  -0.0000370  )
        94        S      tau(  94) = (   0.2499998   0.4330136  -0.6064556  )
        95        S      tau(  95) = (   0.3749852   0.5051745  -0.1241508  )
        96        S      tau(  96) = (   0.2499983   0.5751230   0.3622722  )
        97        S      tau(  97) = (   0.2499999   0.4330135  -0.3584711  )
        98        S      tau(  98) = (   0.3749925   0.5051788   0.1242430  )
        99        S      tau(  99) = (   0.2499985   0.5896211   0.6129642  )
       100        Mo     tau( 100) = (   0.7499990   0.0001203   0.4813716  )
       101        Mo     tau( 101) = (   0.2499996   0.7216889  -0.4825273  )
       102        Mo     tau( 102) = (   0.1250080   0.7938333  -0.0000403  )
       103        S      tau( 103) = (   0.1249996   0.6495201  -0.6064556  )
       104        S      tau( 104) = (   0.2499977   0.7216576  -0.1241273  )
       105        S      tau( 105) = (   0.1250507   0.7934796   0.3572514  )
       106        S      tau( 106) = (   0.1249996   0.6495200  -0.3584711  )
       107        S      tau( 107) = (   0.2499978   0.7215798   0.1242243  )
       108        S      tau( 108) = (   0.1244341   0.7955149   0.6061727  )
       109        Mo     tau( 109) = (  -0.1251058   0.2164455   0.4813720  )
       110        Mo     tau( 110) = (   0.8750004   0.0721694  -0.4825273  )
       111        Mo     tau( 111) = (   0.7499984   0.1443377  -0.0000951  )
       112        S      tau( 112) = (   0.7500004   0.0000006  -0.6064556  )
       113        S      tau( 113) = (   0.8750204   0.0721563  -0.1241436  )
       114        S      tau( 114) = (   0.7499989   0.1443372   0.3571897  )
       115        S      tau( 115) = (   0.7500004   0.0000005  -0.3584711  )
       116        S      tau( 116) = (   0.8749917   0.0721728   0.1241442  )
       117        S      tau( 117) = (   0.7499986   0.1443371   0.6056765  )
       118        Mo     tau( 118) = (  -0.2500015   0.4329261   0.4811261  )
       119        Mo     tau( 119) = (   0.7500001   0.2886759  -0.4825273  )
       120        Mo     tau( 120) = (   0.6249722   0.3608476  -0.0000403  )
       121        S      tau( 121) = (   0.6250001   0.2165071  -0.6064556  )
       122        S      tau( 122) = (   0.7499981   0.2887008  -0.1241435  )
       123        S      tau( 123) = (   0.6246456   0.3609863   0.3572519  )
       124        S      tau( 124) = (   0.6250002   0.2165070  -0.3584711  )
       125        S      tau( 125) = (   0.7499982   0.2886677   0.1241441  )
       126        S      tau( 126) = (   0.6267164   0.3605023   0.6061731  )
       127        Mo     tau( 127) = (  -0.3748420   0.6496111   0.4820319  )
       128        Mo     tau( 128) = (   0.6249998   0.5051824  -0.4825273  )
       129        Mo     tau( 129) = (   0.4999808   0.5773409  -0.0000733  )
       130        S      tau( 130) = (   0.4999998   0.4330136  -0.6064556  )
       131        S      tau( 131) = (   0.6249676   0.5051499  -0.1241823  )
       132        S      tau( 132) = (   0.4998845   0.5772841   0.3583289  )
       133        S      tau( 133) = (   0.4999999   0.4330135  -0.3584711  )
       134        S      tau( 134) = (   0.6250119   0.5052197   0.1241202  )
       135        S      tau( 135) = (   0.5006138   0.5777054   0.6067911  )
       136        Mo     tau( 136) = (  -0.0000756   0.0000425   0.4811258  )
       137        Mo     tau( 137) = (   0.4999996   0.7216889  -0.4825273  )
       138        Mo     tau( 138) = (   0.3749875   0.7938333  -0.0000404  )
       139        S      tau( 139) = (   0.3749996   0.6495201  -0.6064556  )
       140        S      tau( 140) = (   0.4999549   0.7216781  -0.1241825  )
       141        S      tau( 141) = (   0.3749453   0.7934797   0.3572516  )
       142        S      tau( 142) = (   0.3749996   0.6495200  -0.3584711  )
       143        S      tau( 143) = (   0.5000375   0.7216816   0.1241203  )
       144        S      tau( 144) = (   0.3755618   0.7955149   0.6061729  )
       145        Pt     tau( 145) = (   0.2499972   0.4330095   0.7045710  )
       146        Pd     tau( 146) = (  -0.1250860   0.2164828   0.7250707  )

     --------------------------------------------
     DFT-D3 Dispersion Correction (3-body terms):
     --------------------------------------------
       Reference C6 values for interpolation: 

         atom   Coordination number   C6
         S          0.000           268.01
         S          0.995           261.99
         S          1.990           251.62
         Mo         0.000          1691.79
         Mo         1.942          1004.01
         Mo        11.056           674.22
         Pd         0.000          1217.01
         Pd         1.863           573.90
         Pd         5.710           531.75
         Pt         0.000           782.29
         Pt         1.919           692.72
         Pt         6.667           673.75

       Values used:

         atom   Coordination number  R0_AB[au]  C6      C8
         Mo        10.181            3.547    674.22  77634.20
         Mo        10.189            3.547    674.22  77634.20
         Mo        10.200            3.547    674.22  77634.20
         S          3.753            3.128    251.62  12327.25
         S          3.858            3.128    251.62  12327.25
         S          3.846            3.128    251.62  12327.25
         S          3.859            3.128    251.62  12327.25
         S          3.860            3.128    251.62  12327.25
         S          4.774            3.128    251.62  12327.25
         Mo        10.181            3.547    674.22  77634.20
         Mo        10.189            3.547    674.22  77634.20
         Mo        10.200            3.547    674.22  77634.20
         S          3.753            3.128    251.62  12327.25
         S          3.859            3.128    251.62  12327.25
         S          3.846            3.128    251.62  12327.25
         S          3.858            3.128    251.62  12327.25
         S          3.855            3.128    251.62  12327.25
         S          4.774            3.128    251.62  12327.25
         Mo        10.217            3.547    674.22  77634.20
         Mo        10.189            3.547    674.22  77634.20
         Mo        10.200            3.547    674.22  77634.20
         S          3.753            3.128    251.62  12327.25
         S          3.858            3.128    251.62  12327.25
         S          3.861            3.128    251.62  12327.25
         S          3.859            3.128    251.62  12327.25
         S          3.860            3.128    251.62  12327.25
         S          3.763            3.128    251.62  12327.25
         Mo        10.217            3.547    674.22  77634.20
         Mo        10.189            3.547    674.22  77634.20
         Mo        10.200            3.547    674.22  77634.20
         S          3.753            3.128    251.62  12327.25
         S          3.858            3.128    251.62  12327.25
         S          3.861            3.128    251.62  12327.25
         S          3.859            3.128    251.62  12327.25
         S          3.863            3.128    251.62  12327.25
         S          3.763            3.128    251.62  12327.25
         Mo        10.173            3.547    674.22  77634.20
         Mo        10.189            3.547    674.22  77634.20
         Mo        10.202            3.547    674.22  77634.20
         S          3.753            3.128    251.62  12327.25
         S          3.858            3.128    251.62  12327.25
         S          3.858            3.128    251.62  12327.25
         S          3.859            3.128    251.62  12327.25
         S          3.860            3.128    251.62  12327.25
         S          3.752            3.128    251.62  12327.25
         Mo        10.888            3.547    674.22  77634.20
         Mo        10.189            3.547    674.22  77634.20
         Mo        10.203            3.547    674.22  77634.20
         S          3.753            3.128    251.62  12327.25
         S          3.859            3.128    251.62  12327.25
         S          3.865            3.128    251.62  12327.25
         S          3.859            3.128    251.62  12327.25
         S          3.851            3.128    251.62  12327.25
         S          4.669            3.128    251.62  12327.25
         Mo        10.173            3.547    674.22  77634.20
         Mo        10.189            3.547    674.22  77634.20
         Mo        10.201            3.547    674.22  77634.20
         S          3.753            3.128    251.62  12327.25
         S          3.859            3.128    251.62  12327.25
         S          3.858            3.128    251.62  12327.25
         S          3.859            3.128    251.62  12327.25
         S          3.851            3.128    251.62  12327.25
         S          3.752            3.128    251.62  12327.25
         Mo        10.230            3.547    674.22  77634.20
         Mo        10.189            3.547    674.22  77634.20
         Mo        10.200            3.547    674.22  77634.20
         S          3.753            3.128    251.62  12327.25
         S          3.858            3.128    251.62  12327.25
         S          3.861            3.128    251.62  12327.25
         S          3.859            3.128    251.62  12327.25
         S          3.860            3.128    251.62  12327.25
         S          3.762            3.128    251.62  12327.25
         Mo        10.224            3.547    674.22  77634.20
         Mo        10.189            3.547    674.22  77634.20
         Mo        10.200            3.547    674.22  77634.20
         S          3.753            3.128    251.62  12327.25
         S          3.858            3.128    251.62  12327.25
         S          3.845            3.128    251.62  12327.25
         S          3.859            3.128    251.62  12327.25
         S          3.860            3.128    251.62  12327.25
         S          3.822            3.128    251.62  12327.25
         Mo        10.173            3.547    674.22  77634.20
         Mo        10.189            3.547    674.22  77634.20
         Mo        10.203            3.547    674.21  77634.20
         S          3.753            3.128    251.62  12327.25
         S          3.859            3.128    251.62  12327.25
         S          3.864            3.128    251.62  12327.25
         S          3.859            3.128    251.62  12327.25
         S          3.855            3.128    251.62  12327.25
         S          4.653            3.128    251.62  12327.25
         Mo        10.173            3.547    674.22  77634.20
         Mo        10.189            3.547    674.22  77634.20
         Mo        10.203            3.547    674.21  77634.20
         S          3.753            3.128    251.62  12327.25
         S          3.859            3.128    251.62  12327.25
         S          3.864            3.128    251.62  12327.25
         S          3.859            3.128    251.62  12327.25
         S          3.851            3.128    251.62  12327.25
         S          4.653            3.128    251.62  12327.25
         Mo        10.224            3.547    674.22  77634.20
         Mo        10.189            3.547    674.22  77634.20
         Mo        10.200            3.547    674.22  77634.20
         S          3.753            3.128    251.62  12327.25
         S          3.859            3.128    251.62  12327.25
         S          3.845            3.128    251.62  12327.25
         S          3.859            3.128    251.62  12327.25
         S          3.855            3.128    251.62  12327.25
         S          3.822            3.128    251.62  12327.25
         Mo        10.740            3.547    674.22  77634.20
         Mo        10.189            3.547    674.22  77634.20
         Mo        10.200            3.547    674.22  77634.20
         S          3.753            3.128    251.62  12327.25
         S          3.858            3.128    251.62  12327.25
         S          3.854            3.128    251.62  12327.25
         S          3.858            3.128    251.62  12327.25
         S          3.860            3.128    251.62  12327.25
         S          4.736            3.128    251.62  12327.25
         Mo        10.239            3.547    674.22  77634.20
         Mo        10.189            3.547    674.22  77634.20
         Mo        10.200            3.547    674.22  77634.20
         S          3.753            3.128    251.62  12327.25
         S          3.858            3.128    251.62  12327.25
         S          3.846            3.128    251.62  12327.25
         S          3.858            3.128    251.62  12327.25
         S          3.860            3.128    251.62  12327.25
         S          3.831            3.128    251.62  12327.25
         Mo        10.217            3.547    674.22  77634.20
         Mo        10.189            3.547    674.22  77634.20
         Mo        10.202            3.547    674.22  77634.20
         S          3.753            3.128    251.62  12327.25
         S          3.858            3.128    251.62  12327.25
         S          3.858            3.128    251.62  12327.25
         S          3.859            3.128    251.62  12327.25
         S          3.860            3.128    251.62  12327.25
         S          3.752            3.128    251.62  12327.25
         Mo        10.239            3.547    674.22  77634.20
         Mo        10.189            3.547    674.22  77634.20
         Mo        10.200            3.547    674.22  77634.20
         S          3.753            3.128    251.62  12327.25
         S          3.858            3.128    251.62  12327.25
         S          3.846            3.128    251.62  12327.25
         S          3.859            3.128    251.62  12327.25
         S          3.860            3.128    251.62  12327.25
         S          3.831            3.128    251.62  12327.25
         Pt         4.026            3.168    692.72  72035.17
         Pd         3.488            3.168    573.90  52582.67

         Molecular C6 ( Ry / a.u.^6 ) =   7937607.21


     number of k points=     4  Gaussian smearing, width (Ry)=  0.0100
                       cart. coord. in units 2pi/alat
        k(    1) = (   0.0000000   0.0000000   0.0000000), wk =   0.5000000
        k(    2) = (   0.0000000  -0.5773499   0.0000000), wk =   0.5000000
        k(    3) = (  -0.5000000  -0.2886755   0.0000000), wk =   0.5000000
        k(    4) = (  -0.5000000  -0.8660254   0.0000000), wk =   0.5000000

     Dense  grid:  5955087 G-vectors     FFT dimensions: ( 180, 180, 432)

     Smooth grid:  2572543 G-vectors     FFT dimensions: ( 135, 135, 320)

     Estimated max dynamical RAM per process >       3.07 GB

     Estimated total dynamical RAM >     110.53 GB

     Initial potential from superposition of free atoms

     starting charge    1297.9541, renormalised to    1298.0000

     negative rho (up, down):  8.967E-04 0.000E+00
     Starting wfcs are  891 randomized atomic wfcs
     Checking if some PAW data can be deallocated... 

     total cpu time spent up to now is       99.9 secs

     Self-consistent Calculation

     iteration #  1     ecut=    77.00 Ry     beta= 0.20
     Davidson diagonalization with overlap
     ethr =  1.00E-02,  avg # of iterations =  2.0

     Threshold (ethr) on eigenvalues was too large:
     Diagonalizing with lowered threshold

     Davidson diagonalization with overlap
     ethr =  1.77E-04,  avg # of iterations = 14.2

     negative rho (up, down):  2.808E-04 0.000E+00

     total cpu time spent up to now is     1153.0 secs

     total energy              =  -26031.71230808 Ry
     estimated scf accuracy    <       5.10626184 Ry

     iteration #  2     ecut=    77.00 Ry     beta= 0.20
     Davidson diagonalization with overlap
     ethr =  3.93E-04,  avg # of iterations =  2.0

     negative rho (up, down):  4.233E-05 0.000E+00

     total cpu time spent up to now is     1375.4 secs

     total energy              =  -26030.71049318 Ry
     estimated scf accuracy    <       2.63148926 Ry

     iteration #  3     ecut=    77.00 Ry     beta= 0.20
     Davidson diagonalization with overlap
     ethr =  2.03E-04,  avg # of iterations = 14.0

     negative rho (up, down):  3.398E-05 0.000E+00

     total cpu time spent up to now is     1656.9 secs

     total energy              =  -26030.97319288 Ry
     estimated scf accuracy    <       1.21804494 Ry

     iteration #  4     ecut=    77.00 Ry     beta= 0.20
     Davidson diagonalization with overlap
     ethr =  9.38E-05,  avg # of iterations = 19.8

     negative rho (up, down):  3.340E-05 0.000E+00

     total cpu time spent up to now is     2082.5 secs

     total energy              =  -26031.48964949 Ry
     estimated scf accuracy    <       0.36183883 Ry

     iteration #  5     ecut=    77.00 Ry     beta= 0.20
     Davidson diagonalization with overlap
     ethr =  2.79E-05,  avg # of iterations = 21.2

     negative rho (up, down):  5.424E-05 0.000E+00

     total cpu time spent up to now is     2692.5 secs

     total energy              =  -26031.73625771 Ry
     estimated scf accuracy    <       0.19447589 Ry

     iteration #  6     ecut=    77.00 Ry     beta= 0.20
     Davidson diagonalization with overlap
     ethr =  1.50E-05,  avg # of iterations = 10.2

     negative rho (up, down):  1.383E-04 0.000E+00

     total cpu time spent up to now is     2948.0 secs

     total energy              =  -26031.73096316 Ry
     estimated scf accuracy    <       0.12552671 Ry

     iteration #  7     ecut=    77.00 Ry     beta= 0.20
     Davidson diagonalization with overlap
     ethr =  9.67E-06,  avg # of iterations = 11.8

     negative rho (up, down):  4.803E-04 0.000E+00

     total cpu time spent up to now is     3214.3 secs

     total energy              =  -26031.73684870 Ry
     estimated scf accuracy    <       0.05695758 Ry

     iteration #  8     ecut=    77.00 Ry     beta= 0.20
     Davidson diagonalization with overlap
     c_bands:  1 eigenvalues not converged
     c_bands:  1 eigenvalues not converged
     ethr =  4.39E-06,  avg # of iterations = 43.2

     negative rho (up, down):  6.490E-04 0.000E+00

     total cpu time spent up to now is     4062.5 secs

     total energy              =  -26031.77268385 Ry
     estimated scf accuracy    <       0.04551034 Ry

     iteration #  9     ecut=    77.00 Ry     beta= 0.20
     Davidson diagonalization with overlap
     ethr =  3.51E-06,  avg # of iterations =  1.5

     negative rho (up, down):  5.362E-04 0.000E+00

     total cpu time spent up to now is     4273.7 secs

     total energy              =  -26031.76666120 Ry
     estimated scf accuracy    <       0.01559052 Ry

     iteration # 10     ecut=    77.00 Ry     beta= 0.20
     Davidson diagonalization with overlap
     c_bands:  4 eigenvalues not converged
     c_bands:  2 eigenvalues not converged
     c_bands:  3 eigenvalues not converged
     ethr =  1.20E-06,  avg # of iterations = 23.5

     negative rho (up, down):  5.744E-04 0.000E+00

     total cpu time spent up to now is     4828.0 secs

     total energy              =  -26031.78063509 Ry
     estimated scf accuracy    <       0.00482015 Ry

     iteration # 11     ecut=    77.00 Ry     beta= 0.20
     Davidson diagonalization with overlap
     c_bands:  3 eigenvalues not converged
     ethr =  3.71E-07,  avg # of iterations = 14.0

     negative rho (up, down):  6.046E-04 0.000E+00

     total cpu time spent up to now is     5271.4 secs

     total energy              =  -26031.78293585 Ry
     estimated scf accuracy    <       0.00503520 Ry

     iteration # 12     ecut=    77.00 Ry     beta= 0.20
     Davidson diagonalization with overlap
     ethr =  3.71E-07,  avg # of iterations =  1.2

     negative rho (up, down):  8.724E-04 0.000E+00

     total cpu time spent up to now is     5478.3 secs

     total energy              =  -26031.78072785 Ry
     estimated scf accuracy    <       0.00357165 Ry

     iteration # 13     ecut=    77.00 Ry     beta= 0.20
     Davidson diagonalization with overlap
     ethr =  2.75E-07,  avg # of iterations = 11.0

     negative rho (up, down):  8.190E-04 0.000E+00

     total cpu time spent up to now is     5894.0 secs

     total energy              =  -26031.78288921 Ry
     estimated scf accuracy    <       0.00111616 Ry

     iteration # 14     ecut=    77.00 Ry     beta= 0.20
     Davidson diagonalization with overlap
     ethr =  8.60E-08,  avg # of iterations =  7.0

     negative rho (up, down):  8.019E-04 0.000E+00

     total cpu time spent up to now is     6160.6 secs

     total energy              =  -26031.78292097 Ry
     estimated scf accuracy    <       0.00038087 Ry

     iteration # 15     ecut=    77.00 Ry     beta= 0.20
     Davidson diagonalization with overlap
     c_bands:  1 eigenvalues not converged
     c_bands:  5 eigenvalues not converged
     ethr =  2.93E-08,  avg # of iterations = 17.5

     negative rho (up, down):  8.335E-04 0.000E+00

     total cpu time spent up to now is     6628.1 secs

     total energy              =  -26031.78324225 Ry
     estimated scf accuracy    <       0.00010563 Ry

     iteration # 16     ecut=    77.00 Ry     beta= 0.20
     Davidson diagonalization with overlap
     c_bands:  3 eigenvalues not converged
     ethr =  8.14E-09,  avg # of iterations = 17.0

     negative rho (up, down):  8.939E-04 0.000E+00

     total cpu time spent up to now is     7148.6 secs

     total energy              =  -26031.78332544 Ry
     estimated scf accuracy    <       0.00004321 Ry

     iteration # 17     ecut=    77.00 Ry     beta= 0.20
     Davidson diagonalization with overlap
     ethr =  3.33E-09,  avg # of iterations = 15.8

     negative rho (up, down):  9.106E-04 0.000E+00

     total cpu time spent up to now is     7574.2 secs

     total energy              =  -26031.78335149 Ry
     estimated scf accuracy    <       0.00001723 Ry

     iteration # 18     ecut=    77.00 Ry     beta= 0.20
     Davidson diagonalization with overlap
     c_bands:  1 eigenvalues not converged
     ethr =  1.33E-09,  avg # of iterations = 16.2

     negative rho (up, down):  9.061E-04 0.000E+00

     total cpu time spent up to now is     8016.2 secs

     total energy              =  -26031.78335986 Ry
     estimated scf accuracy    <       0.00002110 Ry

     iteration # 19     ecut=    77.00 Ry     beta= 0.20
     Davidson diagonalization with overlap
     ethr =  1.33E-09,  avg # of iterations =  1.2

     negative rho (up, down):  9.019E-04 0.000E+00

     total cpu time spent up to now is     8222.5 secs

     total energy              =  -26031.78335369 Ry
     estimated scf accuracy    <       0.00001323 Ry

     iteration # 20     ecut=    77.00 Ry     beta= 0.20
     Davidson diagonalization with overlap
     ethr =  1.02E-09,  avg # of iterations =  7.0

     negative rho (up, down):  9.046E-04 0.000E+00

     total cpu time spent up to now is     8576.1 secs

     total energy              =  -26031.78335923 Ry
     estimated scf accuracy    <       0.00000146 Ry

     iteration # 21     ecut=    77.00 Ry     beta= 0.20
     Davidson diagonalization with overlap
     ethr =  1.13E-10,  avg # of iterations = 19.0

     negative rho (up, down):  9.107E-04 0.000E+00

     total cpu time spent up to now is     9246.0 secs

     End of self-consistent calculation

          k = 0.0000 0.0000 0.0000 (321495 PWs)   bands (ev):

  -102.8885 -88.2612 -71.2004 -71.1837 -71.1786 -71.1767 -71.1641 -71.1613
   -71.1539 -66.6323 -66.6112 -66.6112 -66.6112 -66.6112 -66.6112 -66.6112
   -66.5900 -66.5900 -66.5900 -66.5900 -66.5900 -66.5900 -66.5900 -66.5900
   -66.5900 -66.5664 -66.5456 -66.5456 -66.5453 -66.5452 -66.5451 -66.5448
   -66.5247 -66.5244 -66.5244 -66.5244 -66.5239 -66.5239 -66.5237 -66.5237
   -66.5236 -66.4946 -66.4826 -66.4785 -66.4739 -66.4723 -66.4664 -66.4594
   -66.4537 -66.4451 -66.4448 -66.4420 -66.4405 -66.4385 -66.4340 -66.4176
   -66.4101 -57.1426 -57.1155 -57.1069 -54.0778 -54.0692 -54.0638 -40.9586
   -40.9586 -40.9586 -40.8916 -40.8915 -40.8914 -40.8838 -40.8838 -40.8838
   -40.8838 -40.8838 -40.8838 -40.8170 -40.8169 -40.8167 -40.8167 -40.8166
   -40.8166 -40.8145 -40.8092 -40.8056 -40.7925 -40.7583 -40.7583 -40.7583
   -40.7583 -40.7583 -40.7583 -40.7511 -40.7511 -40.7511 -40.7511 -40.7511
   -40.7511 -40.7386 -40.7386 -40.7356 -40.7333 -40.7270 -40.7234 -40.7234
   -40.7234 -40.7234 -40.7234 -40.7234 -40.7200 -40.7174 -40.7131 -40.7094
   -40.7094 -40.7094 -40.7094 -40.7094 -40.7094 -40.7093 -40.7093 -40.7093
   -40.6917 -40.6914 -40.6914 -40.6913 -40.6913 -40.6912 -40.6860 -40.6859
   -40.6857 -40.6855 -40.6855 -40.6853 -40.6600 -40.6568 -40.6568 -40.6565
   -40.6565 -40.6564 -40.6564 -40.6456 -40.6456 -40.6456 -40.6446 -40.6443
   -40.6442 -40.6442 -40.6439 -40.6439 -40.6437 -40.6436 -40.6436 -40.6394
   -40.6205 -40.6167 -40.6162 -40.6133 -40.6126 -40.6124 -40.6108 -40.6051
   -40.6022 -40.5988 -40.5988 -40.5988 -40.5988 -40.5988 -40.5988 -40.5899
   -40.5866 -40.5861 -40.5827 -40.5789 -40.5788 -40.5788 -40.5777 -40.5768
   -40.5749 -40.5716 -40.5696 -40.5694 -40.5667 -40.5639 -40.5623 -40.5573
   -40.5559 -40.5515 -40.5515 -40.5494 -40.5325 -40.5321 -40.5321 -40.5320
   -40.5319 -40.5319 -40.4974 -40.4952 -40.4928 -40.4848 -40.4848 -40.4518
   -40.4496 -40.4447 -40.4427 -40.4425 -40.4320 -40.3943 -40.3909 -20.0724
   -19.9940 -19.8602 -19.3002 -19.2304 -19.2072 -19.2005 -19.1992 -19.1969
   -19.1851 -19.1750 -19.1519 -19.1170 -19.1061 -19.0853 -19.0360 -19.0306
   -19.0236 -19.0075 -18.9968 -18.9647 -18.8270 -18.6731 -18.4996 -18.4974
   -18.4912 -18.4652 -18.4297 -18.4084 -18.4022 -18.3586 -18.3497 -18.3338
   -18.3091 -18.2942 -18.2765 -18.2306 -18.1882 -18.1696 -18.1657 -18.1601
   -18.1402 -18.1025 -18.0920 -18.0920 -18.0918 -18.0914 -18.0912 -18.0911
   -18.0665 -18.0550 -18.0528 -18.0513 -18.0509 -18.0505 -18.0116 -18.0101
   -18.0073 -18.0061 -18.0021 -18.0009 -17.9785 -17.9776 -17.9775 -17.9380
   -17.9259 -17.9217 -17.9164 -17.9140 -17.8955 -17.8952 -17.8925 -17.8873
   -17.8765 -17.8737 -17.8670 -17.8654 -17.8610 -17.8372 -17.8356 -17.8300
   -17.8187 -17.8103 -17.8065 -17.7992 -17.7946 -17.7886 -17.7702 -17.7653
   -17.7576 -17.7430 -17.7359 -17.7242 -17.7139 -17.7112 -17.7020 -11.9525
   -11.8836 -11.7567 -11.7246 -11.7054 -11.7013 -11.6925 -11.6222 -11.6166
   -11.6115 -11.5770 -11.3563 -11.2908 -11.2106 -11.1892 -11.1625 -11.1609
   -11.1498 -11.1412 -11.1317 -11.0983 -11.0865 -11.0817 -11.0813 -11.0763
   -11.0744 -11.0709 -11.0522 -11.0040 -10.9692 -10.9516 -10.9501 -10.9500
   -10.9281 -10.9268 -10.9102 -10.8889 -10.8803 -10.8764 -10.8699 -10.8660
   -10.8581 -10.8368 -10.8341 -10.8001 -10.7989 -10.7972 -10.7861 -10.7848
   -10.7837 -10.7821 -10.7798 -10.7789 -10.7636 -10.7607 -10.7541 -10.7502
   -10.7469 -10.7393 -10.7369 -10.7330 -10.7327 -10.7170 -10.7152 -10.7026
   -10.6789 -10.6575 -10.6518 -10.6387 -10.5998 -10.5953 -10.5690 -10.5623
   -10.5576 -10.5506 -10.3670 -10.3103 -10.0822 -10.0634 -10.0021  -9.9948
    -9.9942  -9.9008  -9.8501  -9.8301  -9.8195  -9.7641  -9.7573  -9.7402
    -9.7363  -9.7255  -9.7230  -9.7114  -9.6847  -9.6676  -9.6640  -9.6411
    -9.6400  -9.6319  -9.6209  -9.6058  -9.5996  -9.5780  -9.5708  -9.5698
    -9.5658  -9.5628  -9.5533  -9.5311  -9.5269  -9.5267  -9.5254  -9.5241
    -9.5230  -9.5207  -9.5075  -9.4920  -9.4908  -9.4739  -9.4677  -9.4168
    -9.4089  -9.3994  -9.3940  -9.3864  -9.3811  -9.3414  -9.3146  -9.3132
    -9.3043  -9.2933  -9.2855  -9.2695  -9.2578  -9.2481  -9.2402  -9.2107
    -9.1718  -9.1615  -9.1547  -9.1466  -9.1426  -9.1404  -9.1313  -9.0708
    -9.0179  -9.0147  -9.0093  -8.9840  -8.9821  -8.9711  -8.9704  -8.9702
    -8.9685  -8.9623  -8.9262  -8.9254  -8.9082  -8.8941  -8.8883  -8.8868
    -8.8735  -8.8570  -8.8097  -8.7984  -8.7847  -8.7623  -8.7578  -8.7549
    -8.7524  -8.7476  -8.7413  -8.7342  -8.7339  -8.7213  -8.7136  -8.6883
    -8.6880  -8.6745  -8.6691  -8.6637  -8.6621  -8.6420  -8.5304  -8.4026
    -8.4020  -8.3812  -8.3812  -8.3488  -8.3124  -8.3086  -8.3059  -8.2695
    -8.2693  -8.2692  -8.2691  -8.2691  -8.2690  -8.2628  -8.2257  -8.2085
    -8.2046  -8.1976  -8.1932  -8.1920  -8.1894  -8.1776  -8.1702  -8.1347
    -8.0205  -8.0159  -7.9807  -7.9449  -7.8845  -7.8714  -7.8621  -7.8545
    -7.6593  -7.6356  -7.6111  -7.5753  -7.5349  -7.5348  -7.5337  -7.5336
    -7.5336  -7.5335  -7.5173  -7.5102  -7.4883  -7.4881  -7.4880  -7.4872
    -7.4867  -7.4859  -7.4719  -7.4688  -7.4623  -7.4603  -7.4547  -7.4493
    -7.4492  -7.4472  -7.4405  -7.4204  -7.4191  -7.4178  -7.4147  -7.4139
    -7.4110  -7.4019  -7.3967  -7.3961  -7.3835  -7.3720  -7.3697  -7.3682
    -7.3650  -7.3629  -7.3476  -7.3400  -7.2630  -7.2525  -7.2525  -7.2313
    -7.2141  -7.1857  -7.1847  -7.1825  -7.1684  -7.1674  -7.1474  -7.0539
    -7.0011  -6.9980  -6.9724  -6.8880  -6.8864  -6.8828  -6.8301  -6.8005
    -6.7914  -6.7512  -6.7499  -6.7373  -6.7187  -6.6825  -6.6512  -6.6182
    -6.6166  -6.6094  -6.6090  -6.5897  -6.5729  -6.5673  -6.5544  -6.5414
    -6.5369  -6.5149  -6.5020  -6.4799  -6.4682  -6.4682  -6.4628  -6.4605
    -6.4571  -6.4484  -6.4327  -6.4244  -6.4083  -6.4006  -6.3844  -6.3829
    -6.3717  -6.3687  -6.3684  -6.3266  -6.3004  -6.3004  -6.3004  -6.3004
    -6.3004  -6.3004  -6.2772  -6.2599  -6.2532  -6.2237  -6.2228  -6.2221
    -6.2221  -6.2217  -6.2187  -6.1740  -6.1645  -6.1512  -6.0987  -6.0651
    -6.0220  -5.8262  -5.6820  -5.6192  -5.6024  -5.4276  -5.4172  -5.3741
    -5.0754  -4.1082  -3.8657  -3.7894  -3.7863  -3.7805  -3.7804  -3.7641
    -3.7566  -3.7523  -3.7500  -3.7488  -3.7474  -3.7275  -3.6781  -3.5699
    -3.5554  -3.5442  -3.5428  -3.5328  -3.5327  -3.5234  -3.5141  -3.5133
    -3.5090  -3.4409  -3.4409  -3.4407  -3.4274  -3.4241  -3.4231  -3.4223
    -3.4213  -3.4208  -3.3848  -3.3739  -3.3738  -3.3734  -3.3591  -3.3528
    -3.3415  -3.3325  -3.3282  -3.3259  -3.3209  -3.3148  -3.3071  -3.3050
    -3.3042  -3.3031  -3.2890  -3.2873  -3.2800  -3.2633  -3.2471  -3.2242
    -3.2178  -3.2140  -3.1967  -3.1920  -3.1722  -3.1714  -3.1596  -3.1546
    -2.9756  -2.9752  -2.9751  -2.9696  -2.9695  -2.9610  -2.9112  -2.9052
    -2.9034  -2.9026  -2.9021  -2.9018  -2.9015  -2.9015  -2.9013  -2.8898
    -2.8878  -2.8825  -2.8787  -2.8724  -2.8487  -2.8466  -2.8402  -2.8376
    -2.8321  -2.8319  -2.8294  -2.8286  -2.8204  -2.8151  -2.8139  -2.7947
    -2.7906  -2.7766  -2.7666  -2.7504  -2.7501  -2.7442  -2.7185  -2.7127
    -2.7097  -2.6934  -2.6918  -2.6912  -2.6864  -2.6735  -2.6702  -2.6423
    -2.6382  -2.6381  -2.6165  -2.5938  -2.5876  -2.5830  -2.5732  -2.5571
    -2.5488  -2.4885  -2.4828  -2.4774  -2.4651  -2.4397  -2.4280  -2.4159
    -2.4106  -2.4024  -2.3969

          k = 0.0000-0.5773 0.0000 (321564 PWs)   bands (ev):

  -102.8885 -88.2612 -71.2004 -71.1837 -71.1787 -71.1767 -71.1641 -71.1613
   -71.1539 -66.6261 -66.6261 -66.6156 -66.6156 -66.6006 -66.6006 -66.6006
   -66.6006 -66.5962 -66.5962 -66.5900 -66.5900 -66.5900 -66.5900 -66.5856
   -66.5856 -66.5604 -66.5600 -66.5497 -66.5496 -66.5348 -66.5348 -66.5348
   -66.5345 -66.5305 -66.5301 -66.5244 -66.5243 -66.5241 -66.5237 -66.5198
   -66.5196 -66.4930 -66.4844 -66.4799 -66.4755 -66.4706 -66.4652 -66.4578
   -66.4537 -66.4453 -66.4444 -66.4427 -66.4419 -66.4385 -66.4334 -66.4178
   -66.4100 -57.1426 -57.1155 -57.1069 -54.0778 -54.0693 -54.0638 -40.9272
   -40.9272 -40.9272 -40.9272 -40.9006 -40.9006 -40.8887 -40.8887 -40.8604
   -40.8603 -40.8600 -40.8599 -40.8382 -40.8382 -40.8382 -40.8382 -40.8337
   -40.8334 -40.8217 -40.8215 -40.7895 -40.7878 -40.7804 -40.7804 -40.7734
   -40.7713 -40.7713 -40.7712 -40.7711 -40.7703 -40.7703 -40.7619 -40.7597
   -40.7597 -40.7567 -40.7501 -40.7374 -40.7303 -40.7303 -40.7302 -40.7302
   -40.7234 -40.7216 -40.7216 -40.7151 -40.7148 -40.7134 -40.7094 -40.7094
   -40.7094 -40.7093 -40.7093 -40.7093 -40.7035 -40.7034 -40.7007 -40.7007
   -40.6943 -40.6942 -40.6912 -40.6843 -40.6818 -40.6785 -40.6785 -40.6785
   -40.6785 -40.6762 -40.6650 -40.6649 -40.6649 -40.6647 -40.6564 -40.6560
   -40.6556 -40.6462 -40.6442 -40.6442 -40.6440 -40.6440 -40.6440 -40.6440
   -40.6440 -40.6437 -40.6425 -40.6424 -40.6354 -40.6353 -40.6320 -40.6320
   -40.6276 -40.6192 -40.6131 -40.6128 -40.6128 -40.6127 -40.6120 -40.6119
   -40.6117 -40.6114 -40.6080 -40.5960 -40.5959 -40.5959 -40.5908 -40.5843
   -40.5821 -40.5773 -40.5773 -40.5772 -40.5771 -40.5767 -40.5757 -40.5699
   -40.5676 -40.5654 -40.5654 -40.5654 -40.5650 -40.5632 -40.5607 -40.5528
   -40.5499 -40.5462 -40.5458 -40.5335 -40.5325 -40.5292 -40.5290 -40.5225
   -40.5205 -40.4989 -40.4985 -40.4953 -40.4932 -40.4904 -40.4864 -40.4824
   -40.4683 -40.4604 -40.4563 -40.4404 -40.4331 -40.4172 -40.3983 -19.8534
   -19.8294 -19.7903 -19.7293 -19.6389 -19.6106 -19.4049 -19.3968 -19.3463
   -19.3180 -19.2119 -19.2001 -18.7977 -18.7862 -18.7339 -18.7131 -18.6866
   -18.6852 -18.6790 -18.6763 -18.6401 -18.6232 -18.5937 -18.5747 -18.5558
   -18.5527 -18.5386 -18.5213 -18.4900 -18.4826 -18.4389 -18.4366 -18.4205
   -18.4069 -18.3769 -18.3586 -18.3460 -18.3374 -18.3168 -18.2674 -18.2633
   -18.2254 -18.2129 -18.1936 -18.1746 -18.1613 -18.1440 -18.1120 -18.0973
   -18.0874 -18.0720 -18.0718 -18.0718 -18.0716 -18.0587 -18.0525 -18.0359
   -18.0224 -18.0010 -17.9969 -17.9929 -17.9902 -17.9850 -17.9793 -17.9575
   -17.9532 -17.9378 -17.9295 -17.9207 -17.9143 -17.8933 -17.8908 -17.8821
   -17.8784 -17.8703 -17.8662 -17.8301 -17.8238 -17.8136 -17.8084 -17.8084
   -17.8044 -17.7669 -17.7603 -17.7544 -17.7485 -17.7482 -17.7334 -17.7323
   -17.7306 -17.7230 -17.7004 -17.6890 -17.6863 -17.6331 -17.6227 -11.8133
   -11.6664 -11.6267 -11.5602 -11.5065 -11.4825 -11.4199 -11.4193 -11.4159
   -11.4150 -11.3992 -11.3870 -11.3593 -11.3400 -11.3306 -11.3237 -11.3167
   -11.3020 -11.2689 -11.2670 -11.2592 -11.2464 -11.2320 -11.2258 -11.2163
   -11.2014 -11.2014 -11.1561 -11.1555 -11.1488 -11.1059 -11.1008 -11.0966
   -11.0953 -11.0297 -11.0113 -10.9469 -10.9349 -10.9215 -10.9192 -10.9148
   -10.8805 -10.8634 -10.8589 -10.8439 -10.8408 -10.8266 -10.8152 -10.8039
   -10.7965 -10.7895 -10.7758 -10.7737 -10.7735 -10.7723 -10.7675 -10.7658
   -10.7494 -10.7293 -10.7140 -10.7059 -10.7054 -10.6969 -10.6774 -10.5811
   -10.5393 -10.5265 -10.4724 -10.4378 -10.4305 -10.3393 -10.3106 -10.2367
   -10.2185 -10.1708 -10.1328 -10.0831 -10.0695 -10.0620 -10.0555 -10.0139
    -9.9838  -9.9711  -9.9603  -9.9124  -9.9067  -9.8876  -9.8816  -9.8791
    -9.8772  -9.8629  -9.8526  -9.8446  -9.8364  -9.8299  -9.8284  -9.7672
    -9.7575  -9.7430  -9.7196  -9.7040  -9.6968  -9.6957  -9.6726  -9.6576
    -9.6566  -9.6483  -9.6449  -9.6361  -9.6160  -9.6069  -9.5956  -9.5821
    -9.5665  -9.5621  -9.5527  -9.5170  -9.4927  -9.4897  -9.4754  -9.4715
    -9.4541  -9.4153  -9.4142  -9.4089  -9.3758  -9.3074  -9.2724  -9.2643
    -9.2474  -9.2059  -9.1592  -9.1409  -9.1340  -9.1277  -9.1064  -9.0929
    -9.0922  -9.0765  -9.0734  -9.0527  -9.0371  -9.0174  -9.0059  -8.9892
    -8.9851  -8.9742  -8.9611  -8.9530  -8.9512  -8.9352  -8.9251  -8.9143
    -8.8982  -8.8973  -8.8903  -8.8850  -8.8759  -8.8747  -8.8601  -8.8549
    -8.8351  -8.8180  -8.8106  -8.8051  -8.8017  -8.7989  -8.7931  -8.7855
    -8.7840  -8.7816  -8.7704  -8.7626  -8.7538  -8.7469  -8.7342  -8.7089
    -8.7082  -8.7003  -8.6904  -8.6826  -8.6502  -8.6070  -8.5179  -8.4627
    -8.4566  -8.4506  -8.4087  -8.3771  -8.3690  -8.3324  -8.2939  -8.2519
    -8.1721  -8.1377  -8.1376  -8.0959  -8.0657  -8.0651  -8.0616  -8.0188
    -8.0080  -7.9603  -7.9241  -7.8821  -7.8764  -7.8734  -7.8212  -7.8135
    -7.8068  -7.7977  -7.7945  -7.7910  -7.7910  -7.7900  -7.7854  -7.7802
    -7.7661  -7.7463  -7.7459  -7.7449  -7.7423  -7.7334  -7.7214  -7.7204
    -7.7063  -7.7031  -7.6969  -7.6920  -7.6796  -7.6776  -7.6713  -7.6671
    -7.6597  -7.6520  -7.6418  -7.6410  -7.6318  -7.6265  -7.6207  -7.6122
    -7.6059  -7.6057  -7.5984  -7.5821  -7.5665  -7.5625  -7.5438  -7.5391
    -7.5309  -7.5171  -7.5107  -7.4919  -7.4717  -7.4592  -7.4434  -7.4070
    -7.4041  -7.3472  -7.3286  -7.2360  -7.2086  -7.1824  -7.1795  -7.1709
    -7.1506  -7.1092  -7.0857  -7.0701  -7.0482  -7.0258  -7.0028  -6.9825
    -6.9597  -6.9538  -6.9478  -6.9429  -6.9217  -6.8895  -6.8846  -6.8564
    -6.8463  -6.8449  -6.8087  -6.7849  -6.7742  -6.7680  -6.7457  -6.6943
    -6.6819  -6.6408  -6.6330  -6.6100  -6.6035  -6.6028  -6.6027  -6.6027
    -6.5995  -6.5927  -6.5491  -6.5453  -6.5340  -6.5333  -6.5317  -6.5303
    -6.4923  -6.4659  -6.4316  -6.4077  -6.4027  -6.3799  -6.3615  -6.2967
    -6.2717  -6.2711  -6.2707  -6.2703  -6.2541  -6.2114  -6.2044  -6.1959
    -6.1894  -6.1888  -6.1865  -6.1701  -6.1538  -6.1450  -6.1167  -6.0894
    -6.0631  -5.9226  -5.9226  -5.8977  -5.8807  -5.8478  -5.8436  -5.7971
    -5.7458  -5.6399  -5.5982  -5.5904  -5.5436  -5.4891  -5.4172  -5.3758
    -5.3612  -4.1200  -3.9861  -3.9661  -3.9594  -3.9310  -3.8379  -3.8378
    -3.8355  -3.8067  -3.7847  -3.7729  -3.7726  -3.7260  -3.7212  -3.7082
    -3.6959  -3.6646  -3.6334  -3.5802  -3.5448  -3.5418  -3.5396  -3.5360
    -3.5307  -3.5237  -3.5235  -3.4987  -3.4916  -3.4634  -3.4464  -3.4453
    -3.4366  -3.4326  -3.4243  -3.4177  -3.4148  -3.4088  -3.4034  -3.3660
    -3.3585  -3.3527  -3.3344  -3.3093  -3.2996  -3.2922  -3.2906  -3.2824
    -3.2688  -3.2586  -3.2581  -3.2540  -3.2484  -3.2171  -3.2150  -3.2146
    -3.2140  -3.2132  -3.2090  -3.1814  -3.1743  -3.1707  -3.1678  -3.1542
    -3.1500  -3.1461  -3.1337  -3.1269  -3.1257  -3.0970  -3.0741  -3.0692
    -3.0551  -3.0471  -3.0145  -3.0113  -3.0092  -2.9752  -2.9726  -2.9701
    -2.9681  -2.9520  -2.9511  -2.9510  -2.9504  -2.9205  -2.9085  -2.9038
    -2.9019  -2.8908  -2.8802  -2.8749  -2.8657  -2.8583  -2.8521  -2.8484
    -2.8411  -2.8346  -2.8227  -2.8167  -2.8125  -2.7996  -2.7829  -2.7764
    -2.7606  -2.7471  -2.7440  -2.7381  -2.7345  -2.6807  -2.6753  -2.6521
    -2.6464  -2.5991  -2.5890  -2.5884  -2.5795  -2.5708  -2.5694  -2.5080
    -2.5030  -2.4543  -2.4508  -2.4372  -2.4336  -2.4181  -2.4013  -2.3226
    -2.2926  -2.2693  -2.2492

          k =-0.5000-0.2887 0.0000 (321564 PWs)   bands (ev):

  -102.8885 -88.2612 -71.2004 -71.1837 -71.1787 -71.1767 -71.1641 -71.1613
   -71.1539 -66.6261 -66.6261 -66.6156 -66.6156 -66.6006 -66.6006 -66.6006
   -66.6006 -66.5962 -66.5962 -66.5900 -66.5900 -66.5900 -66.5900 -66.5856
   -66.5856 -66.5604 -66.5600 -66.5498 -66.5495 -66.5348 -66.5348 -66.5348
   -66.5344 -66.5305 -66.5301 -66.5243 -66.5243 -66.5241 -66.5237 -66.5198
   -66.5196 -66.4926 -66.4858 -66.4794 -66.4730 -66.4728 -66.4647 -66.4578
   -66.4541 -66.4461 -66.4455 -66.4415 -66.4403 -66.4384 -66.4341 -66.4178
   -66.4100 -57.1426 -57.1155 -57.1069 -54.0778 -54.0692 -54.0638 -40.9272
   -40.9272 -40.9272 -40.9272 -40.9006 -40.9006 -40.8887 -40.8887 -40.8603
   -40.8603 -40.8602 -40.8598 -40.8382 -40.8382 -40.8382 -40.8382 -40.8336
   -40.8334 -40.8217 -40.8215 -40.7871 -40.7808 -40.7804 -40.7804 -40.7774
   -40.7714 -40.7713 -40.7712 -40.7711 -40.7703 -40.7703 -40.7665 -40.7623
   -40.7597 -40.7597 -40.7512 -40.7360 -40.7303 -40.7303 -40.7302 -40.7302
   -40.7234 -40.7216 -40.7216 -40.7151 -40.7148 -40.7133 -40.7094 -40.7094
   -40.7094 -40.7093 -40.7093 -40.7093 -40.7035 -40.7033 -40.7007 -40.7007
   -40.6943 -40.6942 -40.6885 -40.6853 -40.6793 -40.6785 -40.6785 -40.6785
   -40.6785 -40.6740 -40.6650 -40.6650 -40.6649 -40.6646 -40.6570 -40.6564
   -40.6561 -40.6442 -40.6441 -40.6440 -40.6440 -40.6440 -40.6440 -40.6440
   -40.6436 -40.6428 -40.6425 -40.6423 -40.6354 -40.6353 -40.6320 -40.6320
   -40.6287 -40.6203 -40.6190 -40.6128 -40.6128 -40.6120 -40.6120 -40.6116
   -40.6116 -40.6114 -40.5994 -40.5959 -40.5959 -40.5948 -40.5917 -40.5877
   -40.5823 -40.5785 -40.5774 -40.5773 -40.5772 -40.5771 -40.5734 -40.5701
   -40.5676 -40.5654 -40.5654 -40.5653 -40.5650 -40.5630 -40.5628 -40.5518
   -40.5499 -40.5463 -40.5458 -40.5306 -40.5301 -40.5293 -40.5290 -40.5290
   -40.5256 -40.4989 -40.4985 -40.4956 -40.4925 -40.4884 -40.4839 -40.4829
   -40.4699 -40.4655 -40.4548 -40.4362 -40.4293 -40.4127 -40.4054 -19.8398
   -19.8349 -19.7712 -19.7602 -19.6349 -19.6281 -19.3986 -19.3966 -19.3290
   -19.3161 -19.2058 -19.1988 -18.8182 -18.7835 -18.7623 -18.7186 -18.6857
   -18.6835 -18.6788 -18.6777 -18.6514 -18.6048 -18.5805 -18.5658 -18.5549
   -18.5529 -18.5234 -18.5153 -18.4923 -18.4671 -18.4424 -18.4368 -18.4225
   -18.4074 -18.3938 -18.3693 -18.3626 -18.3324 -18.3186 -18.2981 -18.2468
   -18.2188 -18.2113 -18.1840 -18.1760 -18.1586 -18.1181 -18.1117 -18.0941
   -18.0741 -18.0728 -18.0718 -18.0718 -18.0716 -18.0598 -18.0523 -18.0350
   -18.0209 -18.0037 -17.9997 -17.9939 -17.9884 -17.9857 -17.9849 -17.9655
   -17.9522 -17.9403 -17.9222 -17.9201 -17.9192 -17.8969 -17.8928 -17.8813
   -17.8810 -17.8748 -17.8683 -17.8325 -17.8193 -17.8168 -17.8118 -17.8084
   -17.8084 -17.7653 -17.7628 -17.7516 -17.7489 -17.7484 -17.7379 -17.7325
   -17.7319 -17.7238 -17.6915 -17.6893 -17.6811 -17.6352 -17.6197 -11.7920
   -11.6655 -11.6167 -11.5802 -11.5177 -11.4996 -11.4228 -11.4180 -11.4159
   -11.4149 -11.3972 -11.3881 -11.3785 -11.3452 -11.3248 -11.3220 -11.3108
   -11.3074 -11.2977 -11.2805 -11.2503 -11.2315 -11.2281 -11.2231 -11.2014
   -11.2014 -11.1871 -11.1556 -11.1553 -11.1273 -11.1059 -11.1021 -11.0968
   -11.0951 -11.0141 -10.9967 -10.9761 -10.9347 -10.9240 -10.9161 -10.9069
   -10.8914 -10.8615 -10.8614 -10.8522 -10.8404 -10.8290 -10.8214 -10.8199
   -10.7953 -10.7821 -10.7754 -10.7739 -10.7733 -10.7723 -10.7645 -10.7638
   -10.7447 -10.7435 -10.7109 -10.7066 -10.7061 -10.6977 -10.6667 -10.5495
   -10.5188 -10.5110 -10.4908 -10.4448 -10.4319 -10.3760 -10.3259 -10.2663
   -10.2393 -10.1183 -10.0930 -10.0691 -10.0672 -10.0637 -10.0502 -10.0221
    -9.9941  -9.9720  -9.9559  -9.9388  -9.9116  -9.8909  -9.8789  -9.8762
    -9.8700  -9.8533  -9.8490  -9.8397  -9.8365  -9.8327  -9.8181  -9.7906
    -9.7582  -9.7258  -9.7204  -9.7007  -9.6922  -9.6914  -9.6777  -9.6587
    -9.6547  -9.6534  -9.6401  -9.6371  -9.6160  -9.6028  -9.5929  -9.5716
    -9.5599  -9.5569  -9.5522  -9.5016  -9.4818  -9.4813  -9.4724  -9.4611
    -9.4602  -9.4276  -9.4233  -9.4133  -9.4033  -9.3495  -9.2983  -9.2897
    -9.2307  -9.1988  -9.1600  -9.1455  -9.1344  -9.1303  -9.1107  -9.0911
    -9.0840  -9.0807  -9.0731  -9.0539  -9.0500  -9.0126  -9.0026  -8.9907
    -8.9783  -8.9663  -8.9653  -8.9561  -8.9426  -8.9306  -8.9291  -8.9184
    -8.9067  -8.8930  -8.8920  -8.8780  -8.8777  -8.8751  -8.8563  -8.8477
    -8.8357  -8.8230  -8.8095  -8.8016  -8.7945  -8.7898  -8.7880  -8.7845
    -8.7832  -8.7789  -8.7706  -8.7677  -8.7644  -8.7476  -8.7349  -8.7202
    -8.7078  -8.6962  -8.6883  -8.6852  -8.6426  -8.6116  -8.4784  -8.4623
    -8.4567  -8.4475  -8.4175  -8.3725  -8.3688  -8.3365  -8.2766  -8.2729
    -8.1877  -8.1716  -8.1377  -8.1376  -8.0659  -8.0650  -8.0522  -8.0208
    -8.0152  -7.9295  -7.8865  -7.8765  -7.8735  -7.8378  -7.8226  -7.8118
    -7.8117  -7.7967  -7.7937  -7.7910  -7.7909  -7.7904  -7.7863  -7.7797
    -7.7495  -7.7463  -7.7452  -7.7444  -7.7277  -7.7240  -7.7214  -7.7188
    -7.7150  -7.7084  -7.6984  -7.6882  -7.6873  -7.6771  -7.6744  -7.6718
    -7.6611  -7.6604  -7.6562  -7.6560  -7.6299  -7.6238  -7.6187  -7.6067
    -7.6058  -7.6058  -7.5865  -7.5795  -7.5667  -7.5641  -7.5527  -7.5392
    -7.5357  -7.5149  -7.5100  -7.4948  -7.4827  -7.4628  -7.4600  -7.4467
    -7.3918  -7.3321  -7.3030  -7.2203  -7.2153  -7.1893  -7.1774  -7.1668
    -7.1598  -7.0991  -7.0810  -7.0610  -7.0566  -7.0074  -7.0001  -6.9964
    -6.9576  -6.9545  -6.9498  -6.9299  -6.9158  -6.9068  -6.9057  -6.8640
    -6.8447  -6.8370  -6.8363  -6.7874  -6.7781  -6.7515  -6.7286  -6.6944
    -6.6780  -6.6658  -6.6228  -6.6152  -6.6031  -6.6027  -6.6026  -6.6025
    -6.5960  -6.5863  -6.5492  -6.5458  -6.5357  -6.5339  -6.5318  -6.5292
    -6.5177  -6.4598  -6.4384  -6.4265  -6.4094  -6.3731  -6.3300  -6.2899
    -6.2712  -6.2708  -6.2708  -6.2700  -6.2448  -6.2075  -6.2069  -6.1930
    -6.1922  -6.1881  -6.1869  -6.1671  -6.1515  -6.1456  -6.1331  -6.0986
    -6.0701  -5.9226  -5.9226  -5.8717  -5.8597  -5.8496  -5.8370  -5.8247
    -5.7544  -5.6371  -5.6010  -5.5763  -5.5639  -5.4501  -5.4129  -5.4018
    -5.3646  -4.1105  -3.9687  -3.9672  -3.9534  -3.9478  -3.8383  -3.8381
    -3.8379  -3.8194  -3.7734  -3.7732  -3.7592  -3.7292  -3.7288  -3.7031
    -3.7027  -3.6924  -3.6196  -3.5901  -3.5419  -3.5411  -3.5401  -3.5396
    -3.5237  -3.5236  -3.5222  -3.4955  -3.4950  -3.4874  -3.4468  -3.4452
    -3.4382  -3.4340  -3.4209  -3.4175  -3.4131  -3.4054  -3.4040  -3.3627
    -3.3543  -3.3521  -3.3239  -3.3055  -3.3051  -3.2936  -3.2904  -3.2904
    -3.2683  -3.2611  -3.2587  -3.2501  -3.2379  -3.2159  -3.2152  -3.2144
    -3.2140  -3.2138  -3.2029  -3.1816  -3.1785  -3.1690  -3.1627  -3.1554
    -3.1483  -3.1460  -3.1311  -3.1302  -3.1200  -3.1082  -3.0784  -3.0680
    -3.0477  -3.0423  -3.0400  -3.0112  -3.0096  -2.9755  -2.9740  -2.9695
    -2.9677  -2.9514  -2.9509  -2.9508  -2.9503  -2.9150  -2.9123  -2.9039
    -2.9018  -2.8871  -2.8787  -2.8759  -2.8610  -2.8581  -2.8572  -2.8504
    -2.8455  -2.8354  -2.8200  -2.8108  -2.8083  -2.7998  -2.7732  -2.7726
    -2.7620  -2.7510  -2.7449  -2.7402  -2.7367  -2.6808  -2.6735  -2.6531
    -2.6430  -2.6052  -2.5895  -2.5877  -2.5783  -2.5668  -2.5658  -2.5076
    -2.5009  -2.4561  -2.4512  -2.4289  -2.4281  -2.4259  -2.3907  -2.3409
    -2.3193  -2.2842  -2.2342

          k =-0.5000-0.8660 0.0000 (321564 PWs)   bands (ev):

  -102.8885 -88.2612 -71.2004 -71.1837 -71.1787 -71.1767 -71.1641 -71.1613
   -71.1539 -66.6261 -66.6261 -66.6156 -66.6156 -66.6006 -66.6006 -66.6006
   -66.6006 -66.5962 -66.5962 -66.5900 -66.5900 -66.5900 -66.5900 -66.5856
   -66.5856 -66.5604 -66.5600 -66.5497 -66.5496 -66.5348 -66.5348 -66.5348
   -66.5345 -66.5305 -66.5301 -66.5244 -66.5242 -66.5241 -66.5237 -66.5198
   -66.5196 -66.4930 -66.4844 -66.4799 -66.4755 -66.4707 -66.4652 -66.4578
   -66.4537 -66.4453 -66.4444 -66.4427 -66.4419 -66.4385 -66.4334 -66.4178
   -66.4100 -57.1426 -57.1155 -57.1069 -54.0778 -54.0693 -54.0638 -40.9272
   -40.9272 -40.9272 -40.9272 -40.9006 -40.9006 -40.8887 -40.8887 -40.8604
   -40.8603 -40.8601 -40.8598 -40.8382 -40.8382 -40.8382 -40.8382 -40.8337
   -40.8334 -40.8217 -40.8215 -40.7896 -40.7878 -40.7804 -40.7804 -40.7734
   -40.7713 -40.7713 -40.7712 -40.7711 -40.7703 -40.7703 -40.7619 -40.7597
   -40.7597 -40.7567 -40.7501 -40.7374 -40.7303 -40.7303 -40.7303 -40.7302
   -40.7235 -40.7216 -40.7216 -40.7151 -40.7148 -40.7134 -40.7094 -40.7094
   -40.7093 -40.7093 -40.7093 -40.7093 -40.7035 -40.7033 -40.7007 -40.7007
   -40.6943 -40.6942 -40.6912 -40.6843 -40.6818 -40.6785 -40.6785 -40.6785
   -40.6785 -40.6762 -40.6650 -40.6649 -40.6649 -40.6647 -40.6564 -40.6560
   -40.6556 -40.6462 -40.6442 -40.6441 -40.6440 -40.6440 -40.6440 -40.6440
   -40.6440 -40.6437 -40.6425 -40.6424 -40.6354 -40.6353 -40.6320 -40.6320
   -40.6276 -40.6192 -40.6131 -40.6128 -40.6128 -40.6127 -40.6120 -40.6119
   -40.6117 -40.6114 -40.6080 -40.5960 -40.5959 -40.5959 -40.5908 -40.5843
   -40.5821 -40.5773 -40.5773 -40.5772 -40.5771 -40.5767 -40.5757 -40.5699
   -40.5676 -40.5654 -40.5654 -40.5654 -40.5650 -40.5631 -40.5607 -40.5528
   -40.5499 -40.5462 -40.5458 -40.5335 -40.5325 -40.5292 -40.5290 -40.5224
   -40.5204 -40.4989 -40.4985 -40.4953 -40.4932 -40.4904 -40.4864 -40.4824
   -40.4683 -40.4604 -40.4563 -40.4405 -40.4331 -40.4172 -40.3983 -19.8534
   -19.8294 -19.7903 -19.7293 -19.6389 -19.6107 -19.4049 -19.3968 -19.3462
   -19.3180 -19.2119 -19.2001 -18.7977 -18.7862 -18.7339 -18.7131 -18.6866
   -18.6852 -18.6790 -18.6763 -18.6401 -18.6232 -18.5936 -18.5747 -18.5558
   -18.5527 -18.5386 -18.5214 -18.4900 -18.4826 -18.4389 -18.4366 -18.4205
   -18.4069 -18.3769 -18.3586 -18.3460 -18.3374 -18.3168 -18.2673 -18.2633
   -18.2254 -18.2129 -18.1936 -18.1746 -18.1613 -18.1440 -18.1120 -18.0973
   -18.0874 -18.0720 -18.0718 -18.0718 -18.0716 -18.0587 -18.0525 -18.0359
   -18.0224 -18.0010 -17.9969 -17.9929 -17.9902 -17.9850 -17.9793 -17.9575
   -17.9532 -17.9378 -17.9295 -17.9207 -17.9143 -17.8933 -17.8908 -17.8821
   -17.8784 -17.8703 -17.8662 -17.8301 -17.8238 -17.8136 -17.8084 -17.8084
   -17.8044 -17.7669 -17.7603 -17.7544 -17.7485 -17.7482 -17.7334 -17.7323
   -17.7306 -17.7230 -17.7004 -17.6890 -17.6863 -17.6331 -17.6227 -11.8133
   -11.6664 -11.6267 -11.5603 -11.5065 -11.4825 -11.4199 -11.4193 -11.4159
   -11.4150 -11.3992 -11.3870 -11.3593 -11.3401 -11.3306 -11.3237 -11.3167
   -11.3020 -11.2689 -11.2670 -11.2592 -11.2464 -11.2320 -11.2258 -11.2163
   -11.2014 -11.2014 -11.1561 -11.1555 -11.1488 -11.1059 -11.1008 -11.0966
   -11.0953 -11.0297 -11.0113 -10.9469 -10.9349 -10.9215 -10.9192 -10.9148
   -10.8805 -10.8634 -10.8588 -10.8439 -10.8408 -10.8266 -10.8151 -10.8040
   -10.7965 -10.7895 -10.7758 -10.7737 -10.7735 -10.7723 -10.7675 -10.7658
   -10.7494 -10.7293 -10.7140 -10.7059 -10.7054 -10.6969 -10.6774 -10.5811
   -10.5393 -10.5264 -10.4724 -10.4378 -10.4305 -10.3393 -10.3106 -10.2367
   -10.2185 -10.1709 -10.1326 -10.0831 -10.0695 -10.0620 -10.0555 -10.0139
    -9.9838  -9.9712  -9.9603  -9.9124  -9.9067  -9.8876  -9.8816  -9.8791
    -9.8772  -9.8630  -9.8526  -9.8446  -9.8364  -9.8299  -9.8284  -9.7672
    -9.7575  -9.7430  -9.7196  -9.7040  -9.6968  -9.6957  -9.6726  -9.6576
    -9.6566  -9.6483  -9.6449  -9.6361  -9.6160  -9.6069  -9.5956  -9.5821
    -9.5665  -9.5621  -9.5527  -9.5170  -9.4927  -9.4897  -9.4754  -9.4715
    -9.4541  -9.4153  -9.4142  -9.4089  -9.3758  -9.3074  -9.2724  -9.2643
    -9.2474  -9.2059  -9.1592  -9.1409  -9.1340  -9.1277  -9.1064  -9.0929
    -9.0922  -9.0765  -9.0734  -9.0527  -9.0371  -9.0174  -9.0059  -8.9892
    -8.9851  -8.9742  -8.9611  -8.9530  -8.9512  -8.9352  -8.9251  -8.9143
    -8.8982  -8.8973  -8.8903  -8.8850  -8.8759  -8.8747  -8.8601  -8.8549
    -8.8351  -8.8180  -8.8106  -8.8051  -8.8017  -8.7989  -8.7931  -8.7855
    -8.7840  -8.7816  -8.7704  -8.7626  -8.7538  -8.7469  -8.7342  -8.7089
    -8.7082  -8.7003  -8.6905  -8.6826  -8.6502  -8.6070  -8.5179  -8.4627
    -8.4566  -8.4506  -8.4087  -8.3771  -8.3690  -8.3324  -8.2939  -8.2519
    -8.1721  -8.1377  -8.1376  -8.0959  -8.0657  -8.0651  -8.0616  -8.0188
    -8.0081  -7.9603  -7.9241  -7.8821  -7.8764  -7.8734  -7.8212  -7.8135
    -7.8068  -7.7977  -7.7945  -7.7910  -7.7910  -7.7900  -7.7854  -7.7802
    -7.7660  -7.7463  -7.7459  -7.7449  -7.7423  -7.7334  -7.7214  -7.7204
    -7.7063  -7.7031  -7.6969  -7.6920  -7.6796  -7.6776  -7.6713  -7.6671
    -7.6597  -7.6520  -7.6418  -7.6410  -7.6318  -7.6265  -7.6208  -7.6122
    -7.6059  -7.6057  -7.5984  -7.5821  -7.5665  -7.5625  -7.5438  -7.5391
    -7.5309  -7.5171  -7.5107  -7.4919  -7.4717  -7.4592  -7.4434  -7.4070
    -7.4041  -7.3472  -7.3287  -7.2360  -7.2086  -7.1824  -7.1795  -7.1709
    -7.1506  -7.1092  -7.0857  -7.0701  -7.0482  -7.0258  -7.0028  -6.9825
    -6.9597  -6.9538  -6.9479  -6.9429  -6.9217  -6.8895  -6.8846  -6.8564
    -6.8463  -6.8449  -6.8088  -6.7849  -6.7742  -6.7680  -6.7457  -6.6943
    -6.6819  -6.6408  -6.6330  -6.6100  -6.6035  -6.6028  -6.6027  -6.6027
    -6.5995  -6.5926  -6.5491  -6.5453  -6.5340  -6.5334  -6.5317  -6.5303
    -6.4923  -6.4659  -6.4316  -6.4077  -6.4027  -6.3799  -6.3615  -6.2967
    -6.2717  -6.2711  -6.2707  -6.2703  -6.2541  -6.2114  -6.2044  -6.1959
    -6.1894  -6.1888  -6.1865  -6.1702  -6.1538  -6.1450  -6.1167  -6.0895
    -6.0631  -5.9226  -5.9226  -5.8977  -5.8807  -5.8478  -5.8436  -5.7971
    -5.7458  -5.6399  -5.5982  -5.5905  -5.5436  -5.4891  -5.4171  -5.3759
    -5.3612  -4.1199  -3.9861  -3.9661  -3.9594  -3.9310  -3.8382  -3.8381
    -3.8356  -3.8068  -3.7848  -3.7729  -3.7726  -3.7259  -3.7211  -3.7082
    -3.6959  -3.6646  -3.6334  -3.5801  -3.5448  -3.5418  -3.5396  -3.5360
    -3.5307  -3.5238  -3.5235  -3.4987  -3.4916  -3.4633  -3.4463  -3.4451
    -3.4364  -3.4327  -3.4245  -3.4179  -3.4148  -3.4089  -3.4034  -3.3661
    -3.3585  -3.3528  -3.3343  -3.3093  -3.2998  -3.2922  -3.2906  -3.2827
    -3.2689  -3.2587  -3.2581  -3.2542  -3.2485  -3.2172  -3.2150  -3.2145
    -3.2140  -3.2131  -3.2092  -3.1814  -3.1744  -3.1710  -3.1678  -3.1541
    -3.1499  -3.1461  -3.1336  -3.1269  -3.1257  -3.0973  -3.0742  -3.0692
    -3.0553  -3.0472  -3.0146  -3.0117  -3.0096  -2.9752  -2.9726  -2.9702
    -2.9681  -2.9519  -2.9510  -2.9507  -2.9502  -2.9207  -2.9086  -2.9039
    -2.9019  -2.8906  -2.8800  -2.8748  -2.8655  -2.8580  -2.8520  -2.8483
    -2.8412  -2.8349  -2.8223  -2.8164  -2.8126  -2.8001  -2.7825  -2.7761
    -2.7604  -2.7465  -2.7427  -2.7369  -2.7296  -2.6770  -2.6722  -2.6483
    -2.6435  -2.5982  -2.5887  -2.5879  -2.5793  -2.5707  -2.5692  -2.5076
    -2.5027  -2.4548  -2.4510  -2.4374  -2.4332  -2.4174  -2.4019  -2.3189
    -2.2866  -2.2665  -2.2363

     the Fermi energy is    -4.6083 ev

!    total energy              =  -26031.78335970 Ry
     total all-electron energy =   -512284.352987 Ry
     estimated scf accuracy    <       0.00000098 Ry
     smearing contrib. (-TS)   =      -0.00000002 Ry
     internal energy E=F+TS    =  -26031.78335968 Ry

     The total energy is F=E-TS. E is the sum of the following terms:
     one-electron contribution =  491529.92307043 Ry
     hartree contribution      = -245904.54809767 Ry
     xc contribution           =   -1534.70354150 Ry
     ewald contribution        = -253929.68975805 Ry
     DFT-D3 Dispersion         =      -4.02156794 Ry
     one-center paw contrib.   =  -16188.74346494 Ry

     convergence has been achieved in  21 iterations

     negative rho (up, down):  9.107E-04 0.000E+00

     Forces acting on atoms (cartesian axes, Ry/au):

     atom    1 type  1   force =     0.00286108   -0.00066239   -0.00186850
     atom    2 type  1   force =     0.00000875    0.00000332    0.00190884
     atom    3 type  1   force =    -0.00002170   -0.00000349    0.00001200
     atom    4 type  2   force =     0.00000030   -0.00000092   -0.00328780
     atom    5 type  2   force =     0.00000284    0.00000505    0.00001735
     atom    6 type  2   force =    -0.00043819    0.00022105    0.00270409
     atom    7 type  2   force =     0.00000141   -0.00000360    0.00149243
     atom    8 type  2   force =     0.00001904    0.00000444    0.00005038
     atom    9 type  2   force =     0.02351187   -0.01380098    0.01289692
     atom   10 type  1   force =     0.00084871    0.00280888   -0.00186834
     atom   11 type  1   force =     0.00000701    0.00000931    0.00190734
     atom   12 type  1   force =    -0.00001765   -0.00000848    0.00001118
     atom   13 type  2   force =     0.00000050    0.00000227   -0.00328739
     atom   14 type  2   force =    -0.00001759   -0.00000762    0.00003537
     atom   15 type  2   force =    -0.00003226   -0.00048776    0.00270485
     atom   16 type  2   force =    -0.00000266    0.00000074    0.00150963
     atom   17 type  2   force =    -0.00000936   -0.00000463    0.00002825
     atom   18 type  2   force =    -0.00019590    0.02730423    0.01287554
     atom   19 type  1   force =     0.00009850   -0.00059539    0.00005372
     atom   20 type  1   force =    -0.00000097    0.00000703    0.00191197
     atom   21 type  1   force =    -0.00004561    0.00002924    0.00002236
     atom   22 type  2   force =    -0.00000124    0.00000165   -0.00328463
     atom   23 type  2   force =     0.00000840   -0.00000174    0.00001903
     atom   24 type  2   force =    -0.00011046    0.00001370   -0.00015872
     atom   25 type  2   force =    -0.00000168    0.00000317    0.00149239
     atom   26 type  2   force =     0.00001374    0.00001469    0.00004767
     atom   27 type  2   force =     0.00005759    0.00023579    0.00065184
     atom   28 type  1   force =    -0.00046194    0.00038262    0.00005347
     atom   29 type  1   force =     0.00000345   -0.00000039    0.00191708
     atom   30 type  1   force =     0.00000976   -0.00005976    0.00002532
     atom   31 type  2   force =     0.00000002    0.00000007   -0.00328680
     atom   32 type  2   force =    -0.00000086   -0.00000022   -0.00004122
     atom   33 type  2   force =    -0.00004431   -0.00010537   -0.00015749
     atom   34 type  2   force =    -0.00000360   -0.00000309    0.00149935
     atom   35 type  2   force =     0.00000589   -0.00000010   -0.00005271
     atom   36 type  2   force =     0.00023236   -0.00006797    0.00065266
     atom   37 type  1   force =     0.00011886   -0.00025189    0.00075134
     atom   38 type  1   force =    -0.00000111    0.00000191    0.00191420
     atom   39 type  1   force =     0.00004799    0.00000987    0.00000353
     atom   40 type  2   force =     0.00000090   -0.00000082   -0.00328607
     atom   41 type  2   force =     0.00000024    0.00000546    0.00000830
     atom   42 type  2   force =    -0.00001791    0.00045462   -0.00032883
     atom   43 type  2   force =     0.00000290    0.00000372    0.00150020
     atom   44 type  2   force =    -0.00002191   -0.00000070   -0.00002106
     atom   45 type  2   force =     0.00002243    0.00019371    0.00054083
     atom   46 type  1   force =     0.00033436    0.00018526   -0.00024452
     atom   47 type  1   force =     0.00000740    0.00000356    0.00191084
     atom   48 type  1   force =     0.00003570    0.00002646    0.00002638
     atom   49 type  2   force =     0.00000130    0.00000104   -0.00328534
     atom   50 type  2   force =     0.00000196    0.00002569    0.00000798
     atom   51 type  2   force =     0.00091242    0.00052587   -0.00059682
     atom   52 type  2   force =     0.00000137    0.00000813    0.00149411
     atom   53 type  2   force =     0.00001120   -0.00000866   -0.00004147
     atom   54 type  2   force =     0.00042748    0.00024770   -0.00020490
     atom   55 type  1   force =    -0.00016961    0.00022752    0.00075511
     atom   56 type  1   force =     0.00000943    0.00000310    0.00190936
     atom   57 type  1   force =     0.00002223    0.00003344    0.00000850
     atom   58 type  2   force =    -0.00000027    0.00000064   -0.00328444
     atom   59 type  2   force =     0.00002441   -0.00001194    0.00000925
     atom   60 type  2   force =     0.00038415   -0.00024332   -0.00032752
     atom   61 type  2   force =     0.00000567   -0.00000079    0.00149341
     atom   62 type  2   force =     0.00000007    0.00001077   -0.00004593
     atom   63 type  2   force =     0.00017643   -0.00007969    0.00054048
     atom   64 type  1   force =     0.00048352    0.00027680    0.00011496
     atom   65 type  1   force =    -0.00000211    0.00000033    0.00191386
     atom   66 type  1   force =    -0.00000391   -0.00000381   -0.00001715
     atom   67 type  2   force =    -0.00000015    0.00000107   -0.00328524
     atom   68 type  2   force =     0.00000768   -0.00000512    0.00000756
     atom   69 type  2   force =    -0.00012778   -0.00007319   -0.00009148
     atom   70 type  2   force =     0.00000513    0.00000043    0.00149648
     atom   71 type  2   force =    -0.00001168   -0.00002007   -0.00002462
     atom   72 type  2   force =    -0.00017234   -0.00010039   -0.00014148
     atom   73 type  1   force =    -0.00320546   -0.00001581   -0.00227184
     atom   74 type  1   force =     0.00000019    0.00000140    0.00191316
     atom   75 type  1   force =    -0.00002375    0.00001479    0.00002759
     atom   76 type  2   force =    -0.00000137   -0.00000072   -0.00328588
     atom   77 type  2   force =     0.00004098    0.00002310    0.00004944
     atom   78 type  2   force =     0.00002297    0.00025768   -0.00019292
     atom   79 type  2   force =    -0.00000286   -0.00000099    0.00149356
     atom   80 type  2   force =    -0.00003610   -0.00002143    0.00007702
     atom   81 type  2   force =     0.00013676    0.00001341    0.00078653
     atom   82 type  1   force =    -0.00020330    0.00039342    0.00054642
     atom   83 type  1   force =    -0.00000438    0.00000170    0.00191053
     atom   84 type  1   force =     0.00002362   -0.00003512   -0.00001261
     atom   85 type  2   force =    -0.00000057    0.00000011   -0.00328805
     atom   86 type  2   force =     0.00001888   -0.00001120    0.00002681
     atom   87 type  2   force =    -0.00010435   -0.00000578    0.00003957
     atom   88 type  2   force =     0.00000024    0.00000777    0.00149505
     atom   89 type  2   force =     0.00001575   -0.00000478   -0.00000494
     atom   90 type  2   force =    -0.00045414   -0.00025270   -0.00052944
     atom   91 type  1   force =     0.00024510   -0.00038077    0.00055125
     atom   92 type  1   force =    -0.00000224    0.00000012    0.00190853
     atom   93 type  1   force =    -0.00002283    0.00003131   -0.00001205
     atom   94 type  2   force =     0.00000116    0.00000007   -0.00328490
     atom   95 type  2   force =    -0.00002065   -0.00001401    0.00002015
     atom   96 type  2   force =    -0.00005696   -0.00009124    0.00003776
     atom   97 type  2   force =     0.00000111    0.00000184    0.00150008
     atom   98 type  2   force =     0.00000979    0.00000682   -0.00004094
     atom   99 type  2   force =    -0.00044772   -0.00025560   -0.00053150
     atom  100 type  1   force =    -0.00162515   -0.00276471   -0.00227494
     atom  101 type  1   force =    -0.00000257   -0.00000653    0.00191142
     atom  102 type  1   force =    -0.00000337   -0.00003034    0.00002525
     atom  103 type  2   force =    -0.00000060   -0.00000013   -0.00328624
     atom  104 type  2   force =    -0.00000121    0.00001994    0.00002478
     atom  105 type  2   force =     0.00023313   -0.00011047   -0.00019046
     atom  106 type  2   force =     0.00000502   -0.00000291    0.00149613
     atom  107 type  2   force =     0.00000289    0.00001472   -0.00000412
     atom  108 type  2   force =     0.00008017    0.00011030    0.00078638
     atom  109 type  1   force =     0.00023077    0.00013590   -0.02462066
     atom  110 type  1   force =    -0.00000510   -0.00000295    0.00191283
     atom  111 type  1   force =    -0.00000160    0.00000560    0.00011967
     atom  112 type  2   force =     0.00000033   -0.00000066   -0.00328597
     atom  113 type  2   force =    -0.00004380    0.00002139    0.00004240
     atom  114 type  2   force =     0.00054875    0.00031901    0.00245123
     atom  115 type  2   force =    -0.00000204   -0.00000100    0.00151008
     atom  116 type  2   force =     0.00003706   -0.00004563    0.00006884
     atom  117 type  2   force =    -0.02310661   -0.01334015    0.01279690
     atom  118 type  1   force =    -0.00154095    0.00249912   -0.00228877
     atom  119 type  1   force =    -0.00000868    0.00000343    0.00191307
     atom  120 type  1   force =    -0.00004017    0.00002457    0.00003862
     atom  121 type  2   force =    -0.00000037    0.00000084   -0.00328108
     atom  122 type  2   force =    -0.00000128   -0.00004793    0.00004660
     atom  123 type  2   force =    -0.00083989    0.00047727   -0.00110053
     atom  124 type  2   force =    -0.00000078    0.00000155    0.00150767
     atom  125 type  2   force =    -0.00001955    0.00005550    0.00006771
     atom  126 type  2   force =     0.00091519   -0.00067882   -0.00077295
     atom  127 type  1   force =    -0.00001247   -0.00001818    0.00040515
     atom  128 type  1   force =    -0.00000734   -0.00000170    0.00191069
     atom  129 type  1   force =     0.00004465    0.00002147   -0.00002136
     atom  130 type  2   force =     0.00000141    0.00000042   -0.00328633
     atom  131 type  2   force =    -0.00000743   -0.00000294    0.00000594
     atom  132 type  2   force =    -0.00021481   -0.00012281   -0.00027095
     atom  133 type  2   force =    -0.00000564   -0.00000158    0.00149663
     atom  134 type  2   force =    -0.00002319    0.00002060   -0.00002411
     atom  135 type  2   force =     0.00016596    0.00009323   -0.00006788
     atom  136 type  1   force =     0.00139820   -0.00258559   -0.00228848
     atom  137 type  1   force =    -0.00000037   -0.00001143    0.00191221
     atom  138 type  1   force =    -0.00000190   -0.00005109    0.00003744
     atom  139 type  2   force =     0.00000243    0.00000070   -0.00328616
     atom  140 type  2   force =    -0.00000549   -0.00000743    0.00000627
     atom  141 type  2   force =    -0.00000709   -0.00096893   -0.00109794
     atom  142 type  2   force =    -0.00000605   -0.00000513    0.00149534
     atom  143 type  2   force =     0.00000731   -0.00003256   -0.00002458
     atom  144 type  2   force =    -0.00013474    0.00113006   -0.00076827
     atom  145 type  3   force =    -0.00131234   -0.00076171    0.00138612
     atom  146 type  4   force =     0.00057780    0.00030427   -0.00957730

     Total force =     0.059350     Total SCF correction =     0.003832

     BFGS Geometry Optimization
     Energy error            =      0.0E+00 Ry
     Gradient error          =      2.7E-02 Ry/Bohr

     number of scf cycles    =   1
     number of bfgs steps    =   0

     energy             new  =  -26031.7833597008 Ry

     new trust radius        =       0.0301883867 bohr
     new conv_thr            =       0.0000010000 Ry


ATOMIC_POSITIONS (angstrom)
Mo               1.5722054164        2.7137132776        6.0912913523
Mo               1.5769197498        0.9104407117       -6.0872367793    0   0   0
Mo               0.0001687714        1.8211285971       -0.0005034360
S                0.0000044503        0.0000077495       -7.6506323570    0   0   0
S                1.5767395018        0.9109689637       -1.5665924456
S                0.0035406063        1.8239311849        4.5082823391
S                0.0000053241        0.0000068460       -4.5222282367    0   0   0
S                1.5772313530        0.9100427779        1.5658435283
S               -0.0021314759        1.7969336938        7.6538921095
Mo              -0.0175943233        5.4673142545        6.0912892010
[...]
     atom   70 type  2   force =     0.00000549   -0.00000501    0.00150799
     atom   71 type  2   force =     0.00004049   -0.00002158    0.00006987
     atom   72 type  2   force =     0.00001806    0.00001012   -0.00045558
     atom   73 type  1   force =     0.00014924   -0.00023240    0.00009350
     atom   74 type  1   force =    -0.00000191   -0.00000102    0.00189726
     atom   75 type  1   force =    -0.00002746    0.00000274   -0.00001278
     atom   76 type  2   force =    -0.00000129   -0.00000102   -0.00327934
     atom   77 type  2   force =    -0.00002351   -0.00001409   -0.00002046
     atom   78 type  2   force =     0.00001411    0.00013169    0.00014430
     atom   79 type  2   force =     0.00000232    0.00000162    0.00150821
     atom   80 type  2   force =    -0.00006742   -0.00003880   -0.00006979
     atom   81 type  2   force =     0.00018953   -0.00008681   -0.00002257
     atom   82 type  1   force =     0.00000679   -0.00001232   -0.00015628
     atom   83 type  1   force =    -0.00000217   -0.00000157    0.00189609
     atom   84 type  1   force =    -0.00000045    0.00001053   -0.00003511
     atom   85 type  2   force =    -0.00000060   -0.00000115   -0.00328006
     atom   86 type  2   force =     0.00001602    0.00000677   -0.00000894
     atom   87 type  2   force =    -0.00007481   -0.00024093   -0.00001124
     atom   88 type  2   force =    -0.00000111    0.00001096    0.00148471
     atom   89 type  2   force =    -0.00001709    0.00001885   -0.00002258
     atom   90 type  2   force =    -0.00003537    0.00004447   -0.00016198
     atom   91 type  1   force =    -0.00000732    0.00001029   -0.00015646
     atom   92 type  1   force =    -0.00000166   -0.00000096    0.00189735
     atom   93 type  1   force =     0.00000795   -0.00000671   -0.00003521
     atom   94 type  2   force =    -0.00000082   -0.00000078   -0.00327917
     atom   95 type  2   force =     0.00000104    0.00000142   -0.00003453
     atom   96 type  2   force =    -0.00024739    0.00005667   -0.00001006
     atom   97 type  2   force =    -0.00000373   -0.00000186    0.00149491
     atom   98 type  2   force =    -0.00000674   -0.00000318    0.00000461
     atom   99 type  2   force =     0.00002059   -0.00005439   -0.00016179
     atom  100 type  1   force =    -0.00012856    0.00024651    0.00009338
     atom  101 type  1   force =    -0.00000242   -0.00000105    0.00189608
     atom  102 type  1   force =    -0.00001189   -0.00002575   -0.00001249
     atom  103 type  2   force =    -0.00000106   -0.00000039   -0.00328007
     atom  104 type  2   force =     0.00001488    0.00001197   -0.00000989
     atom  105 type  2   force =     0.00011922   -0.00005435    0.00014350
     atom  106 type  2   force =     0.00000870   -0.00000602    0.00148460
     atom  107 type  2   force =     0.00000943   -0.00002303   -0.00002096
     atom  108 type  2   force =     0.00001871    0.00020762   -0.00002294
     atom  109 type  1   force =    -0.00004865   -0.00002716   -0.00076905
     atom  110 type  1   force =    -0.00000212   -0.00000019    0.00189721
     atom  111 type  1   force =    -0.00001450   -0.00000777    0.00000063
     atom  112 type  2   force =    -0.00000117   -0.00000106   -0.00327965
     atom  113 type  2   force =     0.00001036    0.00000719   -0.00001068
     atom  114 type  2   force =     0.00007935    0.00004548    0.00016961
     atom  115 type  2   force =    -0.00000194    0.00000499    0.00150971
     atom  116 type  2   force =    -0.00000623    0.00002602    0.00000357
     atom  117 type  2   force =     0.00020565    0.00011880    0.00020609
     atom  118 type  1   force =     0.00028077   -0.00004044    0.00003348
     atom  119 type  1   force =    -0.00000134   -0.00000155    0.00189722
     atom  120 type  1   force =    -0.00000730   -0.00000229    0.00000397
     atom  121 type  2   force =    -0.00000123   -0.00000088   -0.00327965
     atom  122 type  2   force =     0.00001149    0.00000361   -0.00000959
     atom  123 type  2   force =     0.00043438   -0.00025634    0.00034835
     atom  124 type  2   force =     0.00000317   -0.00000373    0.00150965
     atom  125 type  2   force =     0.00001916   -0.00002022    0.00000305
     atom  126 type  2   force =     0.00029318   -0.00016763   -0.00049910
     atom  127 type  1   force =    -0.00006215   -0.00003779    0.00011539
     atom  128 type  1   force =    -0.00000206   -0.00000073    0.00189900
     atom  129 type  1   force =    -0.00000730   -0.00000457   -0.00003053
     atom  130 type  2   force =    -0.00000054   -0.00000083   -0.00327891
     atom  131 type  2   force =     0.00000190   -0.00002119   -0.00001193
     atom  132 type  2   force =     0.00019713    0.00011329   -0.00008570
     atom  133 type  2   force =    -0.00000531   -0.00000648    0.00149639
     atom  134 type  2   force =    -0.00001305    0.00000106   -0.00002206
     atom  135 type  2   force =    -0.00011878   -0.00006883   -0.00011664
     atom  136 type  1   force =     0.00010625    0.00026364    0.00003322
     atom  137 type  1   force =    -0.00000159   -0.00000137    0.00189897
     atom  138 type  1   force =    -0.00000516   -0.00000565    0.00000408
     atom  139 type  2   force =    -0.00000075   -0.00000050   -0.00327892
     atom  140 type  2   force =    -0.00001842    0.00001305   -0.00001308
     atom  141 type  2   force =    -0.00000367    0.00050438    0.00034803
     atom  142 type  2   force =    -0.00000849   -0.00000098    0.00149645
     atom  143 type  2   force =    -0.00000637   -0.00001068   -0.00002094
     atom  144 type  2   force =     0.00000106    0.00033841   -0.00049945
     atom  145 type  3   force =     0.00024510    0.00014333   -0.00016466
     atom  146 type  4   force =     0.00011453    0.00006622   -0.00073337

     Total force =     0.002516     Total SCF correction =     0.000462
     SCF correction compared to forces is large: reduce conv_thr to get better values
     Energy error            =      1.2E-05 Ry
     Gradient error          =      7.7E-04 Ry/Bohr

     bfgs converged in  16 scf cycles and  15 bfgs steps
     (criteria: energy <  1.0E-04 Ry, force <  1.0E-03 Ry/Bohr)

     End of BFGS Geometry Optimization

     Final energy             =  -26031.7955242265 Ry

     File ./outdir/pwscf.bfgs deleted, as requested
Begin final coordinates

ATOMIC_POSITIONS (angstrom)
Mo               1.5867633212        2.7131082969        6.0947695628
Mo               1.5769197498        0.9104407117       -6.0872367793    0   0   0
Mo              -0.0001824174        1.8213054035        0.0001189394
S                0.0000044503        0.0000077495       -7.6506323570    0   0   0
S                1.5762857680        0.9112566280       -1.5660991123
S               -0.0152211099        1.8341699359        4.5466276749
S                0.0000053241        0.0000068460       -4.5222282367    0   0   0
S                1.5762563807        0.9106831874        1.5668814225
S                0.0844558639        1.7447169447        7.6978810869
Mo              -0.0108358050        5.4802295427        6.0947675052
Mo               0.0000011799        3.6417399547       -6.0872367793    0   0   0
Mo              -1.5766408590        4.5518092436        0.0001174361
S               -1.5769141197        2.7313069925       -7.6506323570    0   0   0
S                0.0000058386        3.6417529116       -1.5655850889
S               -1.5730083041        4.5323312838        4.5466267228
S               -1.5769132459        2.7313060890       -4.5222282367    0   0   0
S                0.0012668567        3.6424821941        1.5679671269
S               -1.6006426783        4.6633826620        7.6978714331
Mo              -1.5786466072        8.1964725848        6.0701138292
Mo              -1.5769173901        6.3730391977       -6.0872367793    0   0   0
Mo              -3.1536895683        7.2830401574       -0.0016661516
S               -3.1538326896        5.4626062355       -7.6506323570    0   0   0
S               -1.5765347649        6.3720942252       -1.5661032233
S               -3.1531316424        7.2848348309        4.4974482615
S               -3.1538318159        5.4626053320       -4.5222282367    0   0   0
S               -1.5770490255        6.3723550548        1.5668839854
S               -3.1596596565        7.2978608321        7.6386318899
Mo               3.1551915570       -0.0027715931        6.0701208304
Mo              -3.1538359601        9.1043384407       -6.0872367793    0   0   0
Mo              -4.7310582961       10.0151197366       -0.0016648400
S               -4.7307512596        8.1939054785       -7.6506323570    0   0   0
S               -3.1542229854        9.1041187048       -1.5675119326
S               -4.7292247869       10.0147055614        4.4974501816
S               -4.7307503859        8.1939045750       -4.5222282367    0   0   0
S               -3.1536344636        9.1044572388        1.5639077630
S               -4.7212077165       10.0025284630        7.6386413872
Mo               4.7369289587        2.7133898967        6.0800953262
Mo               4.7307503218        0.9104407117       -6.0872367793    0   0   0
Mo               3.1534821358        1.8211758341       -0.0006723154
S                3.1538350223        0.0000077495       -7.6506323570    0   0   0
S                4.7310748101        0.9115198868       -1.5665216889
S                3.1526984032        1.8234571258        4.5080446552
S                3.1538358961        0.0000068460       -4.5222282367    0   0   0
S                4.7302273839        0.9097283447        1.5653114431
S                3.1709430257        1.8083575967        7.6494470809
Mo               3.1546905094        5.4631021074        6.1429974022
Mo               3.1538317519        3.6417399547       -6.0872367793    0   0   0
Mo               1.5771653881        4.5523247055       -0.0005595947
S                1.5769164523        2.7313069925       -7.6506323570    0   0   0
S                3.1536161145        3.6416924346       -1.5663815219
S                1.6012567193        4.5662264883        4.5682156854
S                1.5769173261        2.7313060890       -4.5222282367    0   0   0
S                3.1539245184        3.6421202974        1.5669057422
S                1.4405833455        4.4734596668        7.7330458889
Mo               1.5644915624        8.2082159584        6.0800921852
Mo               1.5769131819        6.3730391977       -6.0872367793    0   0   0
Mo               0.0000759610        7.2830255050       -0.0006719945
S               -0.0000021176        5.4626062355       -7.6506323570    0   0   0
S                1.5767526332        6.3728880488       -1.5663820194
S                0.0016723345        7.2811958772        4.5080441299
S               -0.0000012439        5.4626053320       -4.5222282367    0   0   0
S                1.5772784279        6.3729410134        1.5669090424
S               -0.0022870166        7.3045485762        7.6494392475
Mo               6.3076964618        0.0000227650        6.0598655368
Mo              -0.0000053881        9.1043384407       -6.0872367793    0   0   0
Mo              -1.5768234638       10.0148320426       -0.0026593151
S               -1.5769206876        8.1939054785       -7.6506323570    0   0   0
S                0.0010846866        9.1040839736       -1.5665240317
S               -1.5798102384       10.0131100170        4.4982961383
S               -1.5769198139        8.1939045750       -4.5222282367    0   0   0
S               -0.0008900777        9.1042489725        1.5653161031
S               -1.5751220194       10.0158089080        7.6345963846
Mo               7.8719778352        2.7325878178        6.0756571198
Mo               7.8845808939        0.9104407117       -6.0872367793    0   0   0
Mo               6.3078520087        1.8211388661        0.0001863526
S                6.3076655943        0.0000077495       -7.6506323570    0   0   0
S                7.8849681467        0.9106715357       -1.5649618977
S                6.3070523817        1.8249220220        4.4962568879
S                6.3076664681        0.0000068460       -4.5222282367    0   0   0
S                7.8855681062        0.9110161995        1.5679293064
S                6.3067545282        1.8012738949        7.6419470092
Mo               6.3236211070        5.4669192663        6.0874826173
Mo               6.3076623239        3.6417399547       -6.0872367793    0   0   0
Mo               4.7303648193        4.5522192383       -0.0011073285
S                4.7307470244        2.7313069925       -7.6506323570    0   0   0
S                6.3077153234        3.6414499039       -1.5658217355
S                4.7057206430        4.5692421089        4.5621690828
S                4.7307478981        2.7313060890       -4.5222282367    0   0   0
S                6.3063170291        3.6427941456        1.5670169677
S                4.8594877141        4.4762235423        7.7231817522
Mo               4.7424599959        8.2055725289        6.0874836178
Mo               4.7307437539        6.3730391977       -6.0872367793    0   0   0
Mo               3.1536714888        7.2831239151       -0.0011072966
S                3.1538284544        5.4626062355       -7.6506323570    0   0   0
S                4.7304845519        6.3728916092       -1.5668163133
S                3.1561055716        7.2532610265        4.5621656355
S                3.1538293281        5.4626053320       -4.5222282367    0   0   0
S                4.7306984686        6.3730159058        1.5660034223
S                3.1524270777        7.4329457505        7.7231802377
Mo               9.4563102475       -0.0115465589        6.0756616693
Mo               3.1538251839        9.1043384407       -6.0872367793    0   0   0
Mo               1.5772246964       10.0148095173        0.0001852655
S                1.5769098844        8.1939054785       -7.6506323570    0   0   0
S                3.1535926802        9.1045323445       -1.5658197519
S                1.5801177421       10.0122189569        4.4962589062
S                1.5769107581        8.1939045750       -4.5222282367    0   0   0
S                3.1540553795        9.1026499752        1.5670131462
S                1.5594836695       10.0237802080        7.6419477829
Mo              -1.5754440583        2.7321505136        6.1317312375
Mo              11.0384114659        0.9104407117       -6.0872367793    0   0   0
Mo               9.4618516365        1.8210876997        0.0001940900
S                9.4614961663        0.0000077495       -7.6506323570    0   0   0
S               11.0383231279        0.9106059610       -1.5654040550
S                9.4833740447        1.8335034716        4.5462710080
S                9.4614970401        0.0000068460       -4.5222282367    0   0   0
S               11.0386687919        0.9101271296        1.5673772530
S                9.3709878701        1.7686197164        7.6898974691
Mo              -3.1638651815        5.4742293616        6.0719516762
Mo               9.4614928959        3.6417399547       -6.0872367793    0   0   0
Mo               7.8843501428        4.5521918252       -0.0003553704
S                7.8845775964        2.7313069925       -7.6506323570    0   0   0
S                9.4615871605        3.6415953618       -1.5654072772
S                7.8784689414        4.5542663748        4.5034185990
S                7.8845784701        2.7313060890       -4.5222282367    0   0   0
S                9.4613466455        3.6421342586        1.5673781348
S                7.8994102516        4.5514358995        7.6463465142
Mo              -4.7284405216        8.1952417229        6.0668053905
Mo               7.8845743259        6.3730391977       -6.0872367793    0   0   0
Mo               6.3075783718        7.2834293291       -0.0017036565
S                6.3076590264        5.4626062355       -7.6506323570    0   0   0
S                7.8845926843        6.3724730413       -1.5667734173
S                6.3021670247        7.2803031662        4.5112087056
S                6.3076599001        5.4626053320       -4.5222282367    0   0   0
S                7.8843626451        6.3736831639        1.5654565085
S                6.3171512432        7.2889520411        7.6470651511
Mo               0.0050534542       -0.0144947582        6.0719587083
Mo               6.3076557559        9.1043384407       -6.0872367793    0   0   0
Mo               4.7306354840       10.0145736182       -0.0003547739
S                4.7307404564        8.1939054785       -7.6506323570    0   0   0
S                6.3071721831        9.1046425304       -1.5667695255
S                4.7294984314       10.0084362001        4.5034216289
S                4.7307413301        8.1939045750       -4.5222282367    0   0   0
S                6.3081039510        9.1038371671        1.5654544216
S                4.7375195078       10.0279832604        7.6463539920
Pt               3.1426692926        5.4561712627        8.8856153315
Pd              -1.5684394284        2.7361981900        9.0132678153
End final coordinates



     Writing all to output data dir ./outdir/pwscf.save/ :
     XML data file, charge density, pseudopotentials, collected wavefunctions
 
     init_run     :     97.04s CPU     99.24s WALL (       1 calls)
     electrons    :  63744.62s CPU  64681.44s WALL (      16 calls)
     update_pot   :     19.71s CPU     20.30s WALL (      15 calls)
     forces       :   1159.63s CPU   1184.63s WALL (      16 calls)
     force_dftd3  :      6.10s CPU      6.35s WALL (      16 calls)

     Called by init_run:
     wfcinit      :     78.93s CPU     79.95s WALL (       1 calls)
     potinit      :      1.10s CPU      1.20s WALL (       1 calls)
     hinit0       :      9.21s CPU      9.27s WALL (       1 calls)

     Called by electrons:
     c_bands      :  55635.47s CPU  56198.33s WALL (     188 calls)
     sum_band     :   6975.19s CPU   7166.76s WALL (     188 calls)
     v_of_rho     :     54.66s CPU     61.21s WALL (     190 calls)
     newd         :    965.85s CPU   1146.34s WALL (     190 calls)
     PAW_pot      :    152.44s CPU    153.66s WALL (     205 calls)
     mix_rho      :     13.63s CPU     15.63s WALL (     188 calls)
     energy_dftd3 :      3.42s CPU      3.44s WALL (      16 calls)

     Called by c_bands:
     init_us_2    :    266.24s CPU    267.63s WALL (    1632 calls)
     init_us_2:cp :    266.23s CPU    267.62s WALL (    1632 calls)
     cegterg      :  54508.92s CPU  55066.95s WALL (     761 calls)

     Called by *egterg:
     cdiaghg      :   2622.20s CPU   2731.69s WALL (    8401 calls)
     h_psi        :  28368.20s CPU  28557.86s WALL (    8521 calls)
     s_psi        :   6104.77s CPU   6132.58s WALL (    8521 calls)
     g_psi        :     63.32s CPU     63.55s WALL (    7756 calls)

     Called by h_psi:
     h_psi:calbec :   5960.30s CPU   5982.26s WALL (    8521 calls)
     vloc_psi     :  16132.37s CPU  16227.68s WALL (    8521 calls)
     add_vuspsi   :   6139.61s CPU   6168.47s WALL (    8521 calls)

     General routines
     calbec       :   8523.59s CPU   8553.99s WALL (    9589 calls)
     fft          :     40.74s CPU     46.76s WALL (    2643 calls)
     ffts         :      2.50s CPU      2.57s WALL (     378 calls)
     fftw         :  12033.35s CPU  12105.61s WALL ( 4233752 calls)
     interpolate  :      4.50s CPU      4.96s WALL (     190 calls)
 
     Parallel routines
 
     PWSCF        :     18h10m CPU     18h27m WALL

 
   This run was terminated on:  11: 6:17   9Mar2024            

=------------------------------------------------------------------------------=
   JOB DONE.
=------------------------------------------------------------------------------=
