
     Program PWSCF v.7.3 starts on 12Mar2024 at 18:16:38 

     This program is part of the open-source Quantum ESPRESSO suite
     for quantum simulation of materials; please cite
         "P. Giannozzi et al., J. Phys.:Condens. Matter 21 395502 (2009);
         "P. Giannozzi et al., J. Phys.:Condens. Matter 29 465901 (2017);
         "P. Giannozzi et al., J. Chem. Phys. 152 154105 (2020);
          URL http://www.quantum-espresso.org", 
     in publications or presentations arising from this work. More details at
     http://www.quantum-espresso.org/quote

     Parallel version (MPI & OpenMP), running on      36 processor cores
     Number of MPI processes:                36
     Threads/MPI process:                     1

     MPI processes distributed on     1 nodes
     555776 MiB available memory on the printing compute node when the environment starts
 
     Waiting for input...
     Reading input from standard input
Warning: card &CELL ignored
Warning: card / ignored

     Current dimensions of program PWSCF are:
     Max number of different atomic species (ntypx) = 10
     Max number of k-points (npk) =  40000
     Max angular momentum in pseudopotentials (lmaxx) =  4
     file Mo.pbe-spn-kjpaw_psl.1.0.0.UPF: wavefunction(s)  4S 4D renormalized
     file S.pbe-n-kjpaw_psl.1.0.0.UPF: wavefunction(s)  3S 3P renormalized
     file Pt.pbe-spfn-kjpaw_psl.1.0.0.UPF: wavefunction(s)  5P 4F renormalized
     file Pd.pbe-spn-kjpaw_psl.1.0.0.UPF: wavefunction(s)  4S 5S 4D renormalized
 
     R & G space division:  proc/nbgrp/npool/nimage =      36
     Subspace diagonalization in iterative solution of the eigenvalue problem:
     one sub-group per band group will be used
     scalapack distributed-memory algorithm (size of sub-group:  6*  6 procs)

 
     Parallelization info
     --------------------
     sticks:   dense  smooth     PW     G-vecs:    dense   smooth      PW
     Min         585     334     89               198743    85850   11735
     Max         586     335     90               198750    85861   11748
     Sum       21073   12049   3205              7154885  3090769  422587
 
     Using Slab Decomposition
 


     bravais-lattice index     =            0
     lattice parameter (alat)  =      23.8199  a.u.
     unit-cell volume          =   33861.0370 (a.u.)^3
     number of atoms/cell      =          194
     number of atomic types    =            4
     number of electrons       =      1714.00
     number of Kohn-Sham states=         1028
     kinetic-energy cutoff     =      77.0000  Ry
     charge density cutoff     =     539.0000  Ry
     scf convergence threshold =      1.0E-06
     mixing beta               =       0.2000
     number of iterations used =            8  plain     mixing
     energy convergence thresh.=      1.0E-04
     force convergence thresh. =      1.0E-03
     Exchange-correlation= SLA  PW   PBX  PBC
                           (   1   4   3   4   0   0   0)
     nstep                     =         1000


     Effective Screening Medium Method
     =================================
     Boundary Conditions: Vacuum-Slab-Vacuum
     total charge in unit cell        =   0.0000
     grid points for fit at edges     =        4 
 

     celldm(1)=  23.819920  celldm(2)=   0.000000  celldm(3)=   0.000000
     celldm(4)=   0.000000  celldm(5)=   0.000000  celldm(6)=   0.000000

     crystal axes: (cart. coord. in units of alat)
               a(1) = (   1.000000   0.000000   0.000000 )  
               a(2) = (  -0.499999   0.866026   0.000000 )  
               a(3) = (   0.000000   0.000000   2.893000 )  

     reciprocal axes: (cart. coord. in units 2 pi/alat)
               b(1) = (  1.000000  0.577349  0.000000 )  
               b(2) = (  0.000000  1.154700  0.000000 )  
               b(3) = (  0.000000  0.000000  0.345662 )  


     PseudoPot. # 1 for Mo read from file:
     ./pseudo/Mo.pbe-spn-kjpaw_psl.1.0.0.UPF
     MD5 check sum: 317bf72632116215fd98f72de1686f13
     Pseudo is Projector augmented-wave + core cor, Zval = 14.0
     Generated using 'atomic' code by A. Dal Corso  v.7.2
     Shape of augmentation charge: PSQ
     Using radial grid of 1229 points,  6 beta functions with: 
                l(1) =   0
                l(2) =   0
                l(3) =   1
                l(4) =   1
                l(5) =   2
                l(6) =   2
     Q(r) pseudized with 0 coefficients 


     PseudoPot. # 2 for S  read from file:
     ./pseudo/S.pbe-n-kjpaw_psl.1.0.0.UPF
     MD5 check sum: 8b7b5302570d38d5e87fed6a1065abda
     Pseudo is Projector augmented-wave + core cor, Zval =  6.0
     Generated using 'atomic' code by A. Dal Corso  v.7.2
     Shape of augmentation charge: PSQ
     Using radial grid of 1151 points,  6 beta functions with: 
                l(1) =   0
                l(2) =   0
                l(3) =   1
                l(4) =   1
                l(5) =   2
                l(6) =   2
     Q(r) pseudized with 0 coefficients 


     PseudoPot. # 3 for Pt read from file:
     ./pseudo/Pt.pbe-spfn-kjpaw_psl.1.0.0.UPF
     MD5 check sum: 620096ebf4e6ebacc94de60fd67efcb5
     Pseudo is Projector augmented-wave + core cor, Zval = 32.0
     Generated using 'atomic' code by A. Dal Corso  v.7.2
     Shape of augmentation charge: PSQ
     Using radial grid of 1277 points,  8 beta functions with: 
                l(1) =   0
                l(2) =   0
                l(3) =   1
                l(4) =   1
                l(5) =   2
                l(6) =   2
                l(7) =   3
                l(8) =   3
     Q(r) pseudized with 0 coefficients 


     PseudoPot. # 4 for Pd read from file:
     ./pseudo/Pd.pbe-spn-kjpaw_psl.1.0.0.UPF
     MD5 check sum: a60571a671f2502b8a6a4569d20a6edb
     Pseudo is Projector augmented-wave + core cor, Zval = 18.0
     Generated using 'atomic' code by A. Dal Corso  v.7.2
     Shape of augmentation charge: PSQ
     Using radial grid of 1235 points,  6 beta functions with: 
                l(1) =   0
                l(2) =   0
                l(3) =   1
                l(4) =   1
                l(5) =   2
                l(6) =   2
     Q(r) pseudized with 0 coefficients 


     atomic species   valence    mass     pseudopotential
     Mo               14.00    95.95000     Mo( 1.00)
     S                 6.00    32.06000     S ( 1.00)
     Pt               32.00   195.08400     Pt( 1.00)
     Pd               18.00   106.42000     Pd( 1.00)

     No symmetry found



   Cartesian axes

     site n.     atom                  positions (alat units)
         1        Mo     tau(   1) = (   0.0000010   0.1443372  -0.7272732  )
         2        Mo     tau(   2) = (   0.1249995   0.0721706  -0.2424038  )
         3        S      tau(   3) = (   0.0000015   0.1443386  -0.3667807  )
         4        S      tau(   4) = (   0.1250010   0.0721682  -0.6030489  )
         5        S      tau(   5) = (   0.1250010   0.0721683  -0.8514963  )
         6        S      tau(   6) = (   0.0000015   0.1443389  -0.1180260  )
         7        Mo     tau(   7) = (   0.0000014   0.1443616   0.2424356  )
         8        Mo     tau(   8) = (   0.1250042   0.0720311   0.7263989  )
         9        S      tau(   9) = (   0.0000639   0.1447004   0.6020022  )
        10        S      tau(  10) = (   0.1250030   0.0721650   0.3667578  )
        11        S      tau(  11) = (   0.1250031   0.0721991   0.1180453  )
        12        S      tau(  12) = (  -0.0005532   0.1426765   0.8513101  )
        13        Mo     tau(  13) = (  -0.1249989   0.3608437  -0.7272732  )
        14        Mo     tau(  14) = (   0.0000030   0.2886752  -0.2424042  )
        15        S      tau(  15) = (  -0.1249977   0.3608450  -0.3667802  )
        16        S      tau(  16) = (   0.0000012   0.2886747  -0.6030489  )
        17        S      tau(  17) = (   0.0000012   0.2886748  -0.8514963  )
        18        S      tau(  18) = (  -0.1249977   0.3608454  -0.1180274  )
        19        Mo     tau(  19) = (  -0.1249758   0.3608563   0.2424461  )
        20        Mo     tau(  20) = (  -0.0009250   0.2875651   0.7279418  )
        21        S      tau(  21) = (  -0.1248723   0.3609173   0.6030853  )
        22        S      tau(  22) = (   0.0000474   0.2887247   0.3668317  )
        23        S      tau(  23) = (   0.0000000   0.2886879   0.1180554  )
        24        S      tau(  24) = (  -0.1255989   0.3604976   0.8519229  )
        25        Mo     tau(  25) = (  -0.2499987   0.5773502  -0.7272732  )
        26        Mo     tau(  26) = (  -0.1249977   0.5051839  -0.2424055  )
        27        S      tau(  27) = (  -0.2499981   0.5773518  -0.3667809  )
        28        S      tau(  28) = (  -0.1249986   0.5051812  -0.6030489  )
        29        S      tau(  29) = (  -0.1249986   0.5051813  -0.8514963  )
        30        S      tau(  30) = (  -0.2499979   0.5773512  -0.1180266  )
        31        Mo     tau(  31) = (  -0.2499765   0.5773372   0.2424355  )
        32        Mo     tau(  32) = (  -0.1264232   0.5049348   0.7279418  )
        33        S      tau(  33) = (  -0.2496528   0.5772237   0.6020023  )
        34        S      tau(  34) = (  -0.1249318   0.5051954   0.3668318  )
        35        S      tau(  35) = (  -0.1249873   0.5051727   0.1180553  )
        36        S      tau(  36) = (  -0.2517142   0.5777014   0.8513102  )
        37        Mo     tau(  37) = (  -0.3749985   0.7938567  -0.7272732  )
        38        Mo     tau(  38) = (  -0.2500001   0.7216874  -0.2424031  )
        39        S      tau(  39) = (  -0.3749980   0.7938584  -0.3667800  )
        40        S      tau(  40) = (  -0.2499984   0.7216877  -0.6030489  )
        41        S      tau(  41) = (  -0.2499984   0.7216878  -0.8514963  )
        42        S      tau(  42) = (  -0.3749982   0.7938585  -0.1180264  )
        43        Mo     tau(  43) = (  -0.3749961   0.7938572   0.2423820  )
        44        Mo     tau(  44) = (  -0.2501160   0.7217599   0.7263989  )
        45        S      tau(  45) = (  -0.3749948   0.7938592   0.6019084  )
        46        S      tau(  46) = (  -0.2499995   0.7216903   0.3667578  )
        47        S      tau(  47) = (  -0.2499699   0.7216732   0.1180452  )
        48        S      tau(  48) = (  -0.3749951   0.7938590   0.8508262  )
        49        Mo     tau(  49) = (   0.2500010   0.1443372  -0.7272732  )
        50        Mo     tau(  50) = (   0.3750034   0.0721723  -0.2424032  )
        51        S      tau(  51) = (   0.2500017   0.1443391  -0.3667788  )
        52        S      tau(  52) = (   0.3750010   0.0721682  -0.6030489  )
        53        S      tau(  53) = (   0.3750010   0.0721683  -0.8514963  )
        54        S      tau(  54) = (   0.2500016   0.1443391  -0.1180271  )
        55        Mo     tau(  55) = (   0.2500050   0.1443618   0.2424356  )
        56        Mo     tau(  56) = (   0.3749291   0.0721273   0.7261578  )
        57        S      tau(  57) = (   0.2499446   0.1447002   0.6020022  )
        58        S      tau(  58) = (   0.3750312   0.0721852   0.3667808  )
        59        S      tau(  59) = (   0.3749943   0.0721639   0.1180502  )
        60        S      tau(  60) = (   0.2505615   0.1426764   0.8513103  )
        61        Mo     tau(  61) = (   0.1250012   0.3608437  -0.7272732  )
        62        Mo     tau(  62) = (   0.2500029   0.2886782  -0.2424031  )
        63        S      tau(  63) = (   0.1250024   0.3608455  -0.3667794  )
        64        S      tau(  64) = (   0.2500012   0.2886747  -0.6030489  )
        65        S      tau(  65) = (   0.2500012   0.2886748  -0.8514963  )
        66        S      tau(  66) = (   0.1250021   0.3608455  -0.1180270  )
        67        Mo     tau(  67) = (   0.1250036   0.3608788   0.2424134  )
        68        Mo     tau(  68) = (   0.2509342   0.2875650   0.7279417  )
        69        S      tau(  69) = (   0.1250047   0.3631022   0.6070003  )
        70        S      tau(  70) = (   0.2499595   0.2887248   0.3668321  )
        71        S      tau(  71) = (   0.2500069   0.2886879   0.1180551  )
        72        S      tau(  72) = (   0.1250048   0.3485809   0.8580653  )
        73        Mo     tau(  73) = (   0.0000014   0.5773502  -0.7272732  )
        74        Mo     tau(  74) = (   0.1250045   0.5051840  -0.2424036  )
        75        S      tau(  75) = (   0.0000030   0.5773520  -0.3667799  )
        76        S      tau(  76) = (   0.1250014   0.5051812  -0.6030489  )
        77        S      tau(  77) = (   0.1250014   0.5051813  -0.8514963  )
        78        S      tau(  78) = (   0.0000026   0.5773517  -0.1180274  )
        79        Mo     tau(  79) = (   0.0000336   0.5773337   0.2424134  )
        80        Mo     tau(  80) = (   0.1250049   0.5051837   0.7323431  )
        81        S      tau(  81) = (   0.0019589   0.5762246   0.6070004  )
        82        S      tau(  82) = (   0.1250038   0.5051820   0.3668453  )
        83        S      tau(  83) = (   0.1250038   0.5051819   0.1180162  )
        84        S      tau(  84) = (  -0.0106172   0.5834855   0.8580649  )
        85        Mo     tau(  85) = (  -0.1249984   0.7938567  -0.7272732  )
        86        Mo     tau(  86) = (   0.0000069   0.7216896  -0.2424039  )
        87        S      tau(  87) = (  -0.1249975   0.7938582  -0.3667782  )
        88        S      tau(  88) = (   0.0000016   0.7216877  -0.6030489  )
        89        S      tau(  89) = (   0.0000016   0.7216878  -0.8514963  )
        90        S      tau(  90) = (  -0.1249973   0.7938582  -0.1180279  )
        91        Mo     tau(  91) = (  -0.1249742   0.7938470   0.2424356  )
        92        Mo     tau(  92) = (  -0.0004933   0.7230516   0.7279416  )
        93        S      tau(  93) = (  -0.1247124   0.7936270   0.6020023  )
        94        S      tau(  94) = (   0.0000246   0.7216257   0.3668322  )
        95        S      tau(  95) = (   0.0000165   0.7216852   0.1180552  )
        96        S      tau(  96) = (  -0.1261568   0.7951731   0.8513104  )
        97        Mo     tau(  97) = (   0.5000010   0.1443372  -0.7272732  )
        98        Mo     tau(  98) = (   0.6250001   0.0721662  -0.2424040  )
        99        S      tau(  99) = (   0.5000017   0.1443386  -0.3667801  )
       100        S      tau( 100) = (   0.6250010   0.0721682  -0.6030489  )
       101        S      tau( 101) = (   0.6250010   0.0721683  -0.8514963  )
       102        S      tau( 102) = (   0.5000020   0.1443388  -0.1180261  )
       103        Mo     tau( 103) = (   0.5000076   0.1443402   0.2423934  )
       104        Mo     tau( 104) = (   0.6250040   0.0723531   0.7270557  )
       105        S      tau( 105) = (   0.5002419   0.1444767   0.6022126  )
       106        S      tau( 106) = (   0.6250031   0.0721699   0.3667634  )
       107        S      tau( 107) = (   0.6250031   0.0721381   0.1180360  )
       108        S      tau( 108) = (   0.4998195   0.1442328   0.8511552  )
       109        Mo     tau( 109) = (   0.3750012   0.3608437  -0.7272732  )
       110        Mo     tau( 110) = (   0.4999991   0.2886761  -0.2424038  )
       111        S      tau( 111) = (   0.3750012   0.3608452  -0.3667804  )
       112        S      tau( 112) = (   0.5000012   0.2886747  -0.6030489  )
       113        S      tau( 113) = (   0.5000012   0.2886748  -0.8514963  )
       114        S      tau( 114) = (   0.3750014   0.3608455  -0.1180261  )
       115        Mo     tau( 115) = (   0.3749823   0.3608562   0.2424462  )
       116        Mo     tau( 116) = (   0.5001624   0.2885857   0.7270558  )
       117        S      tau( 117) = (   0.3748813   0.3609171   0.6030850  )
       118        S      tau( 118) = (   0.5000041   0.2886750   0.3667632  )
       119        S      tau( 119) = (   0.4999767   0.2886908   0.1180361  )
       120        S      tau( 120) = (   0.3756080   0.3604978   0.8519227  )
       121        Mo     tau( 121) = (   0.2500014   0.5773502  -0.7272732  )
       122        Mo     tau( 122) = (   0.3749983   0.5051825  -0.2424043  )
       123        S      tau( 123) = (   0.2500017   0.5773519  -0.3667810  )
       124        S      tau( 124) = (   0.3750014   0.5051812  -0.6030489  )
       125        S      tau( 125) = (   0.3750014   0.5051813  -0.8514963  )
       126        S      tau( 126) = (   0.2500018   0.5773519  -0.1180256  )
       127        Mo     tau( 127) = (   0.2499737   0.5773335   0.2424135  )
       128        Mo     tau( 128) = (   0.3764328   0.5049349   0.7279416  )
       129        S      tau( 129) = (   0.2480514   0.5762247   0.6070002  )
       130        S      tau( 130) = (   0.3749389   0.5051953   0.3668317  )
       131        S      tau( 131) = (   0.3749944   0.5051727   0.1180554  )
       132        S      tau( 132) = (   0.2606253   0.5834843   0.8580650  )
       133        Mo     tau( 133) = (   0.1250016   0.7938567  -0.7272732  )
       134        Mo     tau( 134) = (   0.2499995   0.7216883  -0.2424036  )
       135        S      tau( 135) = (   0.1250024   0.7938578  -0.3667813  )
       136        S      tau( 136) = (   0.2500016   0.7216877  -0.6030489  )
       137        S      tau( 137) = (   0.2500016   0.7216878  -0.8514963  )
       138        S      tau( 138) = (   0.1250024   0.7938579  -0.1180253  )
       139        Mo     tau( 139) = (   0.1250038   0.7938330   0.2424463  )
       140        Mo     tau( 140) = (   0.2505035   0.7230514   0.7279415  )
       141        S      tau( 141) = (   0.1250048   0.7937168   0.6030849  )
       142        S      tau( 142) = (   0.2499835   0.7216255   0.3668318  )
       143        S      tau( 143) = (   0.2499914   0.7216850   0.1180556  )
       144        S      tau( 144) = (   0.1250053   0.7945558   0.8519227  )
       145        Mo     tau( 145) = (   0.7500010   0.1443372  -0.7272732  )
       146        Mo     tau( 146) = (   0.8750038   0.0721696  -0.2424038  )
       147        S      tau( 147) = (   0.7500016   0.1443382  -0.3667789  )
       148        S      tau( 148) = (   0.8750010   0.0721682  -0.6030489  )
       149        S      tau( 149) = (   0.8750010   0.0721683  -0.8514963  )
       150        S      tau( 150) = (   0.7500016   0.1443384  -0.1180279  )
       151        Mo     tau( 151) = (   0.7499988   0.1443404   0.2423934  )
       152        Mo     tau( 152) = (   0.8750792   0.0721276   0.7261574  )
       153        S      tau( 153) = (   0.7497661   0.1444769   0.6022124  )
       154        S      tau( 154) = (   0.8749753   0.0721851   0.3667807  )
       155        S      tau( 155) = (   0.8750121   0.0721637   0.1180502  )
       156        S      tau( 156) = (   0.7501887   0.1442327   0.8511550  )
       157        Mo     tau( 157) = (   0.6250012   0.3608437  -0.7272732  )
       158        Mo     tau( 158) = (   0.7500028   0.2886769  -0.2424041  )
       159        S      tau( 159) = (   0.6250015   0.3608451  -0.3667792  )
       160        S      tau( 160) = (   0.7500012   0.2886747  -0.6030489  )
       161        S      tau( 161) = (   0.7500012   0.2886748  -0.8514963  )
       162        S      tau( 162) = (   0.6250016   0.3608454  -0.1180280  )
       163        Mo     tau( 163) = (   0.6250035   0.3608392   0.2423934  )
       164        Mo     tau( 164) = (   0.7498463   0.2885859   0.7270559  )
       165        S      tau( 165) = (   0.6250044   0.3605709   0.6022125  )
       166        S      tau( 166) = (   0.7500026   0.2886750   0.3667635  )
       167        S      tau( 167) = (   0.7500299   0.2886908   0.1180357  )
       168        S      tau( 168) = (   0.6250043   0.3610591   0.8511551  )
       169        Mo     tau( 169) = (   0.5000014   0.5773502  -0.7272732  )
       170        Mo     tau( 170) = (   0.6250029   0.5051841  -0.2424047  )
       171        S      tau( 171) = (   0.5000014   0.5773518  -0.3667794  )
       172        S      tau( 172) = (   0.6250014   0.5051812  -0.6030489  )
       173        S      tau( 173) = (   0.6250014   0.5051813  -0.8514963  )
       174        S      tau( 174) = (   0.5000016   0.5773516  -0.1180277  )
       175        Mo     tau( 175) = (   0.4999838   0.5773372   0.2424356  )
       176        Mo     tau( 176) = (   0.6250048   0.5052701   0.7261575  )
       177        S      tau( 177) = (   0.4996630   0.5772238   0.6020019  )
       178        S      tau( 178) = (   0.6250037   0.5051496   0.3667806  )
       179        S      tau( 179) = (   0.6250036   0.5051921   0.1180503  )
       180        S      tau( 180) = (   0.5017240   0.5777016   0.8513099  )
       181        Mo     tau( 181) = (   0.3750016   0.7938567  -0.7272732  )
       182        Mo     tau( 182) = (   0.5000025   0.7216901  -0.2424039  )
       183        S      tau( 183) = (   0.3750019   0.7938578  -0.3667793  )
       184        S      tau( 184) = (   0.5000016   0.7216877  -0.6030489  )
       185        S      tau( 185) = (   0.5000016   0.7216878  -0.8514963  )
       186        S      tau( 186) = (   0.3750020   0.7938579  -0.1180272  )
       187        Mo     tau( 187) = (   0.3749825   0.7938468   0.2424356  )
       188        Mo     tau( 188) = (   0.5001261   0.7217601   0.7263985  )
       189        S      tau( 189) = (   0.3747228   0.7936274   0.6020018  )
       190        S      tau( 190) = (   0.5000073   0.7216903   0.3667579  )
       191        S      tau( 191) = (   0.4999777   0.7216732   0.1180450  )
       192        S      tau( 192) = (   0.3761670   0.7951734   0.8513099  )
       193        Pt     tau( 193) = (   0.1250041   0.5051825   0.9498857  )
       194        Pd     tau( 194) = (   0.3749318   0.0721145   0.9782658  )

     --------------------------------------------
     DFT-D3 Dispersion Correction (3-body terms):
     --------------------------------------------
       Reference C6 values for interpolation: 

         atom   Coordination number   C6
         S          0.000           268.01
         S          0.995           261.99
         S          1.990           251.62
         Mo         0.000          1691.79
         Mo         1.942          1004.01
         Mo        11.056           674.22
         Pd         0.000          1217.01
         Pd         1.863           573.90
         Pd         5.710           531.75
         Pt         0.000           782.29
         Pt         1.919           692.72
         Pt         6.667           673.75

       Values used:

         atom   Coordination number  R0_AB[au]  C6      C8
         Mo        10.208            3.547    674.22  77634.20
         Mo        10.221            3.547    674.22  77634.20
         S          3.858            3.128    251.62  12327.25
         S          3.859            3.128    251.62  12327.25
         S          3.758            3.128    251.62  12327.25
         S          3.859            3.128    251.62  12327.25
         Mo        10.220            3.547    674.22  77634.20
         Mo        10.243            3.547    674.22  77634.20
         S          3.844            3.128    251.62  12327.25
         S          3.861            3.128    251.62  12327.25
         S          3.859            3.128    251.62  12327.25
         S          3.829            3.128    251.62  12327.25
         Mo        10.208            3.547    674.22  77634.20
         Mo        10.221            3.547    674.22  77634.20
         S          3.858            3.128    251.62  12327.25
         S          3.859            3.128    251.62  12327.25
         S          3.758            3.128    251.62  12327.25
         S          3.859            3.128    251.62  12327.25
         Mo        10.221            3.547    674.22  77634.20
         Mo        10.192            3.547    674.22  77634.20
         S          3.857            3.128    251.62  12327.25
         S          3.855            3.128    251.62  12327.25
         S          3.859            3.128    251.62  12327.25
         S          3.758            3.128    251.62  12327.25
         Mo        10.208            3.547    674.22  77634.20
         Mo        10.221            3.547    674.22  77634.20
         S          3.858            3.128    251.62  12327.25
         S          3.859            3.128    251.62  12327.25
         S          3.758            3.128    251.62  12327.25
         S          3.859            3.128    251.62  12327.25
         Mo        10.220            3.547    674.22  77634.20
         Mo        10.192            3.547    674.22  77634.20
         S          3.844            3.128    251.62  12327.25
         S          3.855            3.128    251.62  12327.25
         S          3.859            3.128    251.62  12327.25
         S          3.829            3.128    251.62  12327.25
         Mo        10.208            3.547    674.22  77634.20
         Mo        10.221            3.547    674.22  77634.20
         S          3.858            3.128    251.62  12327.25
         S          3.859            3.128    251.62  12327.25
         S          3.758            3.128    251.62  12327.25
         S          3.859            3.128    251.62  12327.25
         Mo        10.219            3.547    674.22  77634.20
         Mo        10.243            3.547    674.22  77634.20
         S          3.852            3.128    251.62  12327.25
         S          3.861            3.128    251.62  12327.25
         S          3.859            3.128    251.62  12327.25
         S          3.800            3.128    251.62  12327.25
         Mo        10.208            3.547    674.22  77634.20
         Mo        10.221            3.547    674.22  77634.20
         S          3.858            3.128    251.62  12327.25
         S          3.859            3.128    251.62  12327.25
         S          3.758            3.128    251.62  12327.25
         S          3.859            3.128    251.62  12327.25
         Mo        10.220            3.547    674.22  77634.20
         Mo        10.645            3.547    674.22  77634.20
         S          3.845            3.128    251.62  12327.25
         S          3.860            3.128    251.62  12327.25
         S          3.859            3.128    251.62  12327.25
         S          4.758            3.128    251.62  12327.25
         Mo        10.208            3.547    674.22  77634.20
         Mo        10.221            3.547    674.22  77634.20
         S          3.858            3.128    251.62  12327.25
         S          3.859            3.128    251.62  12327.25
         S          3.758            3.128    251.62  12327.25
         S          3.859            3.128    251.62  12327.25
         Mo        10.222            3.547    674.22  77634.20
         Mo        10.199            3.547    674.22  77634.20
         S          3.865            3.128    251.62  12327.25
         S          3.855            3.128    251.62  12327.25
         S          3.859            3.128    251.62  12327.25
         S          4.661            3.128    251.62  12327.25
         Mo        10.208            3.547    674.22  77634.20
         Mo        10.221            3.547    674.22  77634.20
         S          3.858            3.128    251.62  12327.25
         S          3.859            3.128    251.62  12327.25
         S          3.758            3.128    251.62  12327.25
         S          3.859            3.128    251.62  12327.25
         Mo        10.222            3.547    674.22  77634.20
         Mo        10.909            3.547    674.22  77634.20
         S          3.865            3.128    251.62  12327.25
         S          3.851            3.128    251.62  12327.25
         S          3.859            3.128    251.62  12327.25
         S          4.661            3.128    251.62  12327.25
         Mo        10.208            3.547    674.22  77634.20
         Mo        10.221            3.547    674.22  77634.20
         S          3.858            3.128    251.62  12327.25
         S          3.859            3.128    251.62  12327.25
         S          3.758            3.128    251.62  12327.25
         S          3.859            3.128    251.62  12327.25
         Mo        10.220            3.547    674.22  77634.20
         Mo        10.199            3.547    674.22  77634.20
         S          3.845            3.128    251.62  12327.25
         S          3.855            3.128    251.62  12327.25
         S          3.859            3.128    251.62  12327.25
         S          4.758            3.128    251.62  12327.25
         Mo        10.208            3.547    674.22  77634.20
         Mo        10.221            3.547    674.22  77634.20
         S          3.858            3.128    251.62  12327.25
         S          3.859            3.128    251.62  12327.25
         S          3.758            3.128    251.62  12327.25
         S          3.859            3.128    251.62  12327.25
         Mo        10.220            3.547    674.22  77634.20
         Mo        10.243            3.547    674.22  77634.20
         S          3.860            3.128    251.62  12327.25
         S          3.860            3.128    251.62  12327.25
         S          3.859            3.128    251.62  12327.25
         S          4.692            3.128    251.62  12327.25
         Mo        10.208            3.547    674.22  77634.20
         Mo        10.221            3.547    674.22  77634.20
         S          3.858            3.128    251.62  12327.25
         S          3.859            3.128    251.62  12327.25
         S          3.758            3.128    251.62  12327.25
         S          3.859            3.128    251.62  12327.25
         Mo        10.221            3.547    674.22  77634.20
         Mo        10.243            3.547    674.22  77634.20
         S          3.857            3.128    251.62  12327.25
         S          3.860            3.128    251.62  12327.25
         S          3.859            3.128    251.62  12327.25
         S          3.767            3.128    251.62  12327.25
         Mo        10.208            3.547    674.22  77634.20
         Mo        10.221            3.547    674.22  77634.20
         S          3.858            3.128    251.62  12327.25
         S          3.859            3.128    251.62  12327.25
         S          3.758            3.128    251.62  12327.25
         S          3.859            3.128    251.62  12327.25
         Mo        10.222            3.547    674.22  77634.20
         Mo        10.192            3.547    674.22  77634.20
         S          3.865            3.128    251.62  12327.25
         S          3.855            3.128    251.62  12327.25
         S          3.859            3.128    251.62  12327.25
         S          4.660            3.128    251.62  12327.25
         Mo        10.208            3.547    674.21  77634.20
         Mo        10.221            3.547    674.22  77634.20
         S          3.858            3.128    251.62  12327.25
         S          3.859            3.128    251.62  12327.25
         S          3.758            3.128    251.62  12327.25
         S          3.859            3.128    251.62  12327.25
         Mo        10.221            3.547    674.22  77634.20
         Mo        10.192            3.547    674.22  77634.20
         S          3.857            3.128    251.62  12327.25
         S          3.855            3.128    251.62  12327.25
         S          3.859            3.128    251.62  12327.25
         S          3.767            3.128    251.62  12327.25
         Mo        10.208            3.547    674.22  77634.20
         Mo        10.221            3.547    674.22  77634.20
         S          3.858            3.128    251.62  12327.25
         S          3.859            3.128    251.62  12327.25
         S          3.758            3.128    251.62  12327.25
         S          3.859            3.128    251.62  12327.25
         Mo        10.220            3.547    674.22  77634.20
         Mo        10.250            3.547    674.22  77634.20
         S          3.860            3.128    251.62  12327.25
         S          3.860            3.128    251.62  12327.25
         S          3.859            3.128    251.62  12327.25
         S          3.769            3.128    251.62  12327.25
         Mo        10.208            3.547    674.21  77634.20
         Mo        10.220            3.547    674.22  77634.20
         S          3.858            3.128    251.62  12327.25
         S          3.859            3.128    251.62  12327.25
         S          3.758            3.128    251.62  12327.25
         S          3.859            3.128    251.62  12327.25
         Mo        10.220            3.547    674.22  77634.20
         Mo        10.236            3.547    674.22  77634.20
         S          3.860            3.128    251.62  12327.25
         S          3.860            3.128    251.62  12327.25
         S          3.859            3.128    251.62  12327.25
         S          3.769            3.128    251.62  12327.25
         Mo        10.208            3.547    674.22  77634.20
         Mo        10.221            3.547    674.22  77634.20
         S          3.858            3.128    251.62  12327.25
         S          3.859            3.128    251.62  12327.25
         S          3.758            3.128    251.62  12327.25
         S          3.859            3.128    251.62  12327.25
         Mo        10.220            3.547    674.22  77634.20
         Mo        10.250            3.547    674.22  77634.20
         S          3.844            3.128    251.62  12327.25
         S          3.860            3.128    251.62  12327.25
         S          3.859            3.128    251.62  12327.25
         S          3.828            3.128    251.62  12327.25
         Mo        10.208            3.547    674.22  77634.20
         Mo        10.221            3.547    674.22  77634.20
         S          3.858            3.128    251.62  12327.25
         S          3.859            3.128    251.62  12327.25
         S          3.758            3.128    251.62  12327.25
         S          3.859            3.128    251.62  12327.25
         Mo        10.220            3.547    674.22  77634.20
         Mo        10.236            3.547    674.22  77634.20
         S          3.844            3.128    251.62  12327.25
         S          3.861            3.128    251.62  12327.25
         S          3.859            3.128    251.62  12327.25
         S          3.828            3.128    251.62  12327.25
         Pt         4.026            3.168    692.72  72035.17
         Pd         3.266            3.168    573.90  52583.08

         Molecular C6 ( Ry / a.u.^6 ) =  13986061.06


     number of k points=     4  Gaussian smearing, width (Ry)=  0.0100
                       cart. coord. in units 2pi/alat
        k(    1) = (   0.0000000   0.0000000   0.0000000), wk =   0.5000000
        k(    2) = (   0.0000000  -0.5773499   0.0000000), wk =   0.5000000
        k(    3) = (  -0.5000000  -0.2886744   0.0000000), wk =   0.5000000
        k(    4) = (  -0.5000000  -0.8660242   0.0000000), wk =   0.5000000

     Dense  grid:  7154885 G-vectors     FFT dimensions: ( 180, 180, 512)

     Smooth grid:  3090769 G-vectors     FFT dimensions: ( 135, 135, 400)

     Estimated max dynamical RAM per process >       4.31 GB

     Estimated total dynamical RAM >     155.10 GB

     Initial potential from superposition of free atoms

     starting charge    1713.9389, renormalised to    1714.0000

     negative rho (up, down):  8.833E-04 0.000E+00
     Starting wfcs are 1179 randomized atomic wfcs
     Checking if some PAW data can be deallocated... 

     total cpu time spent up to now is      177.7 secs

     Self-consistent Calculation

     iteration #  1     ecut=    77.00 Ry     beta= 0.20
     Davidson diagonalization with overlap
     ethr =  1.00E-02,  avg # of iterations =  2.0

     Threshold (ethr) on eigenvalues was too large:
     Diagonalizing with lowered threshold

     Davidson diagonalization with overlap
     c_bands:  2 eigenvalues not converged
     ethr =  1.64E-04,  avg # of iterations = 17.2

     negative rho (up, down):  2.417E-04 0.000E+00

     total cpu time spent up to now is     2208.0 secs

     total energy              =  -33980.24239741 Ry
     estimated scf accuracy    <       6.59316684 Ry

     iteration #  2     ecut=    77.00 Ry     beta= 0.20
     Davidson diagonalization with overlap
     ethr =  3.85E-04,  avg # of iterations =  6.0

     negative rho (up, down):  2.744E-05 0.000E+00

     total cpu time spent up to now is     2625.0 secs

     total energy              =  -33978.93629868 Ry
     estimated scf accuracy    <       3.40605359 Ry

     iteration #  3     ecut=    77.00 Ry     beta= 0.20
     Davidson diagonalization with overlap
     ethr =  1.99E-04,  avg # of iterations = 14.0

     negative rho (up, down):  1.878E-05 0.000E+00

     total cpu time spent up to now is     3130.3 secs

     total energy              =  -33979.18618781 Ry
     estimated scf accuracy    <       1.28091119 Ry

     iteration #  4     ecut=    77.00 Ry     beta= 0.20
     Davidson diagonalization with overlap
     c_bands:  2 eigenvalues not converged
     c_bands:  2 eigenvalues not converged
     c_bands:  3 eigenvalues not converged
     c_bands:  1 eigenvalues not converged
     ethr =  7.47E-05,  avg # of iterations = 20.0

     negative rho (up, down):  1.795E-05 0.000E+00

     total cpu time spent up to now is     4072.5 secs

     total energy              =  -33979.96428836 Ry
     estimated scf accuracy    <       0.51610163 Ry

     iteration #  5     ecut=    77.00 Ry     beta= 0.20
     Davidson diagonalization with overlap
     ethr =  3.01E-05,  avg # of iterations = 13.0

     negative rho (up, down):  3.258E-05 0.000E+00

     total cpu time spent up to now is     4808.3 secs

     total energy              =  -33980.17843180 Ry
     estimated scf accuracy    <       0.24954575 Ry

     iteration #  6     ecut=    77.00 Ry     beta= 0.20
     Davidson diagonalization with overlap
     ethr =  1.46E-05,  avg # of iterations = 12.5

     negative rho (up, down):  1.049E-04 0.000E+00

     total cpu time spent up to now is     5433.5 secs

     total energy              =  -33980.19570766 Ry
     estimated scf accuracy    <       0.19028570 Ry

     iteration #  7     ecut=    77.00 Ry     beta= 0.20
     Davidson diagonalization with overlap
     ethr =  1.11E-05,  avg # of iterations = 13.5

     negative rho (up, down):  4.006E-04 0.000E+00

     total cpu time spent up to now is     5890.8 secs

     total energy              =  -33980.19697427 Ry
     estimated scf accuracy    <       0.08322491 Ry

     iteration #  8     ecut=    77.00 Ry     beta= 0.20
     Davidson diagonalization with overlap
     c_bands:  1 eigenvalues not converged
     c_bands:  5 eigenvalues not converged
     c_bands:  1 eigenvalues not converged
     ethr =  4.86E-06,  avg # of iterations = 44.5

     negative rho (up, down):  5.309E-04 0.000E+00

     total cpu time spent up to now is     7385.3 secs

     total energy              =  -33980.24871080 Ry
     estimated scf accuracy    <       0.10488255 Ry

     iteration #  9     ecut=    77.00 Ry     beta= 0.20
     Davidson diagonalization with overlap
     c_bands:  5 eigenvalues not converged
     c_bands:  5 eigenvalues not converged
     ethr =  4.86E-06,  avg # of iterations = 11.0

     negative rho (up, down):  4.031E-04 0.000E+00

     total cpu time spent up to now is     7824.4 secs

     total energy              =  -33980.23846914 Ry
     estimated scf accuracy    <       0.02612533 Ry

     iteration # 10     ecut=    77.00 Ry     beta= 0.20
     Davidson diagonalization with overlap
     c_bands:  4 eigenvalues not converged
     c_bands:  4 eigenvalues not converged
     c_bands:  4 eigenvalues not converged
     ethr =  1.52E-06,  avg # of iterations = 54.8

     negative rho (up, down):  4.660E-04 0.000E+00

     total cpu time spent up to now is     9652.2 secs

     total energy              =  -33980.26544504 Ry
     estimated scf accuracy    <       0.01207146 Ry

     iteration # 11     ecut=    77.00 Ry     beta= 0.20
     Davidson diagonalization with overlap
     c_bands:  3 eigenvalues not converged
     c_bands:  5 eigenvalues not converged
     c_bands:  3 eigenvalues not converged
     ethr =  7.04E-07,  avg # of iterations = 16.0

     negative rho (up, down):  6.367E-04 0.000E+00

     total cpu time spent up to now is    10153.4 secs

     total energy              =  -33980.26235625 Ry
     estimated scf accuracy    <       0.00722147 Ry

     iteration # 12     ecut=    77.00 Ry     beta= 0.20
     Davidson diagonalization with overlap
     c_bands:  2 eigenvalues not converged
     c_bands:  4 eigenvalues not converged
     c_bands:  3 eigenvalues not converged
     ethr =  4.21E-07,  avg # of iterations = 17.8

     negative rho (up, down):  8.081E-04 0.000E+00

     total cpu time spent up to now is    10815.3 secs

     total energy              =  -33980.26480089 Ry
     estimated scf accuracy    <       0.00077394 Ry

     iteration # 13     ecut=    77.00 Ry     beta= 0.20
     Davidson diagonalization with overlap
     c_bands:  5 eigenvalues not converged
     c_bands:  2 eigenvalues not converged
     ethr =  4.52E-08,  avg # of iterations = 24.8

     negative rho (up, down):  7.163E-04 0.000E+00

     total cpu time spent up to now is    13144.2 secs

     total energy              =  -33980.26692562 Ry
     estimated scf accuracy    <       0.00409420 Ry

     iteration # 14     ecut=    77.00 Ry     beta= 0.20
     Davidson diagonalization with overlap
     c_bands:  1 eigenvalues not converged
     ethr =  4.52E-08,  avg # of iterations = 13.5

     negative rho (up, down):  7.469E-04 0.000E+00

     total cpu time spent up to now is    13908.7 secs

     total energy              =  -33980.26730790 Ry
     estimated scf accuracy    <       0.00049774 Ry

     iteration # 15     ecut=    77.00 Ry     beta= 0.20
     Davidson diagonalization with overlap
     ethr =  2.90E-08,  avg # of iterations =  7.8

     negative rho (up, down):  8.422E-04 0.000E+00

     total cpu time spent up to now is    14505.9 secs

     total energy              =  -33980.26742956 Ry
     estimated scf accuracy    <       0.00010264 Ry

     iteration # 16     ecut=    77.00 Ry     beta= 0.20
     Davidson diagonalization with overlap
     ethr =  5.99E-09,  avg # of iterations = 18.8

     negative rho (up, down):  8.693E-04 0.000E+00

     total cpu time spent up to now is    15933.8 secs

     total energy              =  -33980.26756098 Ry
     estimated scf accuracy    <       0.00033277 Ry

     iteration # 17     ecut=    77.00 Ry     beta= 0.20
     Davidson diagonalization with overlap
     ethr =  5.99E-09,  avg # of iterations =  6.0

     negative rho (up, down):  8.787E-04 0.000E+00

     total cpu time spent up to now is    16595.1 secs

     total energy              =  -33980.26760663 Ry
     estimated scf accuracy    <       0.00002019 Ry

     iteration # 18     ecut=    77.00 Ry     beta= 0.20
     Davidson diagonalization with overlap
     ethr =  1.18E-09,  avg # of iterations = 16.0

     negative rho (up, down):  8.808E-04 0.000E+00

     total cpu time spent up to now is    17936.7 secs

     total energy              =  -33980.26763427 Ry
     estimated scf accuracy    <       0.00002649 Ry

     iteration # 19     ecut=    77.00 Ry     beta= 0.20
     Davidson diagonalization with overlap
     ethr =  1.18E-09,  avg # of iterations =  5.8

     negative rho (up, down):  8.820E-04 0.000E+00

     total cpu time spent up to now is    18402.8 secs

     total energy              =  -33980.26763365 Ry
     estimated scf accuracy    <       0.00000468 Ry

     iteration # 20     ecut=    77.00 Ry     beta= 0.20
     Davidson diagonalization with overlap
     ethr =  2.73E-10,  avg # of iterations = 15.0

     negative rho (up, down):  8.833E-04 0.000E+00

     total cpu time spent up to now is    19729.2 secs

     total energy              =  -33980.26764083 Ry
     estimated scf accuracy    <       0.00000872 Ry

     iteration # 21     ecut=    77.00 Ry     beta= 0.20
     Davidson diagonalization with overlap
     ethr =  2.73E-10,  avg # of iterations =  1.2

     negative rho (up, down):  8.858E-04 0.000E+00

     total cpu time spent up to now is    20101.4 secs

     total energy              =  -33980.26763745 Ry
     estimated scf accuracy    <       0.00000462 Ry

     iteration # 22     ecut=    77.00 Ry     beta= 0.20
     Davidson diagonalization with overlap
     ethr =  2.70E-10,  avg # of iterations =  3.5

     negative rho (up, down):  8.866E-04 0.000E+00

     total cpu time spent up to now is    20507.7 secs

     total energy              =  -33980.26763661 Ry
     estimated scf accuracy    <       0.00000107 Ry

     iteration # 23     ecut=    77.00 Ry     beta= 0.20
     Davidson diagonalization with overlap
     c_bands:  3 eigenvalues not converged
     c_bands:  1 eigenvalues not converged
     ethr =  6.23E-11,  avg # of iterations = 20.0

     negative rho (up, down):  8.866E-04 0.000E+00

     total cpu time spent up to now is    22123.4 secs

     total energy              =  -33980.26763894 Ry
     estimated scf accuracy    <       0.00000141 Ry

     iteration # 24     ecut=    77.00 Ry     beta= 0.20
     Davidson diagonalization with overlap
     ethr =  6.23E-11,  avg # of iterations =  1.2

     negative rho (up, down):  8.869E-04 0.000E+00

     total cpu time spent up to now is    22495.2 secs

     End of self-consistent calculation

          k = 0.0000 0.0000 0.0000 (386245 PWs)   bands (ev):

  -102.9350 -88.0352 -71.2466 -71.2302 -71.2243 -71.2236 -71.2095 -71.2090
   -71.2005 -66.5593 -66.5593 -66.5580 -66.5538 -66.5397 -66.5389 -66.5381
   -66.5381 -66.5381 -66.5380 -66.5380 -66.5380 -66.5380 -66.5380 -66.5379
   -66.5379 -66.5378 -66.5377 -66.5377 -66.5367 -66.5367 -66.5367 -66.5367
   -66.5367 -66.5367 -66.5305 -66.5231 -66.5224 -66.5168 -66.5168 -66.5167
   -66.5167 -66.5166 -66.5166 -66.5166 -66.5166 -66.5166 -66.5166 -66.5166
   -66.5166 -66.5165 -66.5165 -66.5165 -66.5165 -66.5164 -66.5163 -66.5162
   -66.5153 -66.5153 -66.5153 -66.5153 -66.5153 -66.5153 -66.5153 -66.5153
   -66.5152 -66.5089 -66.5087 -66.5016 -66.4970 -66.4952 -66.4898 -66.4753
   -66.4748 -57.1883 -57.1587 -57.1580 -53.8629 -53.8370 -53.8362 -40.8868
   -40.8868 -40.8867 -40.8867 -40.8867 -40.8866 -40.8861 -40.8861 -40.8861
   -40.8753 -40.8718 -40.8702 -40.8115 -40.8115 -40.8114 -40.8114 -40.8114
   -40.8114 -40.8114 -40.8114 -40.8114 -40.8113 -40.8113 -40.8112 -40.8107
   -40.8107 -40.8107 -40.8107 -40.8107 -40.8107 -40.8040 -40.7986 -40.7930
   -40.7907 -40.7860 -40.7829 -40.7689 -40.7189 -40.7188 -40.7182 -40.7175
   -40.6915 -40.6853 -40.6852 -40.6851 -40.6851 -40.6850 -40.6850 -40.6850
   -40.6850 -40.6850 -40.6849 -40.6849 -40.6849 -40.6842 -40.6842 -40.6842
   -40.6842 -40.6842 -40.6842 -40.6819 -40.6817 -40.6802 -40.6773 -40.6773
   -40.6773 -40.6772 -40.6771 -40.6771 -40.6771 -40.6771 -40.6771 -40.6770
   -40.6770 -40.6770 -40.6765 -40.6765 -40.6765 -40.6765 -40.6765 -40.6765
   -40.6755 -40.6712 -40.6701 -40.6657 -40.6647 -40.6631 -40.6502 -40.6501
   -40.6501 -40.6500 -40.6500 -40.6500 -40.6500 -40.6500 -40.6500 -40.6499
   -40.6499 -40.6498 -40.6491 -40.6491 -40.6491 -40.6491 -40.6491 -40.6491
   -40.6486 -40.6462 -40.6446 -40.6437 -40.6431 -40.6375 -40.6354 -40.6354
   -40.6354 -40.6352 -40.6352 -40.6352 -40.6352 -40.6352 -40.6352 -40.6352
   -40.6352 -40.6351 -40.6351 -40.6351 -40.6351 -40.6351 -40.6350 -40.6349
   -40.6345 -40.6345 -40.6345 -40.6345 -40.6345 -40.6345 -40.6344 -40.6344
   -40.6344 -40.6338 -40.6329 -40.6322 -40.6308 -40.6285 -40.6234 -40.6184
   -40.6174 -40.6150 -40.6115 -40.5717 -40.5717 -40.5717 -40.5717 -40.5717
   -40.5716 -40.5707 -40.5707 -40.5707 -40.5603 -40.5543 -40.5531 -40.5247
   -40.5247 -40.5246 -40.5246 -40.5246 -40.5245 -40.5245 -40.5245 -40.5245
   -40.5245 -40.5243 -40.5243 -40.5236 -40.5236 -40.5236 -40.5236 -40.5236
   -40.5236 -40.5088 -40.5077 -40.5039 -40.5035 -40.4986 -40.4970 -40.4769
   -40.4769 -40.4769 -40.4769 -40.4759 -40.4759 -40.4544 -40.4497 -20.0831
   -20.0226 -19.9224 -19.8207 -19.3242 -19.2665 -19.2556 -19.2024 -19.1887
   -19.1831 -19.1694 -19.1672 -19.1663 -19.1535 -19.1350 -19.1215 -19.0793
   -19.0768 -19.0761 -19.0668 -19.0517 -19.0375 -18.9767 -18.9759 -18.9757
   -18.9726 -18.9669 -18.9608 -18.8506 -18.7337 -18.5753 -18.5363 -18.5335
   -18.5109 -18.4447 -18.4319 -18.4140 -18.4061 -18.3758 -18.3697 -18.3569
   -18.3372 -18.3260 -18.3151 -18.2981 -18.2516 -18.2215 -18.2193 -18.2185
   -18.2067 -18.1868 -18.1670 -18.1329 -18.1243 -18.1199 -18.1164 -18.1094
   -18.1077 -18.0959 -18.0796 -18.0592 -18.0569 -18.0556 -18.0545 -18.0538
   -18.0508 -18.0320 -18.0248 -18.0216 -18.0213 -18.0147 -18.0134 -18.0118
   -18.0106 -18.0085 -17.9969 -17.9889 -17.9862 -17.9848 -17.9799 -17.9720
   -17.9698 -17.9625 -17.9562 -17.9506 -17.9433 -17.9410 -17.9389 -17.9338
   -17.9273 -17.9234 -17.9209 -17.8892 -17.8890 -17.8811 -17.8726 -17.8643
   -17.8566 -17.8552 -17.8545 -17.8499 -17.8316 -17.8314 -17.8218 -17.8197
   -17.8126 -17.8079 -17.8053 -17.8035 -17.7987 -17.7954 -17.7932 -17.7907
   -17.7763 -17.7762 -17.7746 -17.7670 -17.7634 -17.7607 -17.7596 -17.7579
   -17.7547 -17.7327 -17.7320 -17.7310 -17.7307 -17.7302 -17.7289 -12.0506
   -11.9095 -11.7979 -11.7834 -11.7373 -11.7164 -11.7096 -11.6948 -11.6132
   -11.5984 -11.5931 -11.4956 -11.4892 -11.4862 -11.4519 -11.3885 -11.3488
   -11.2530 -11.1960 -11.1812 -11.1743 -11.1741 -11.1655 -11.1654 -11.0970
   -11.0784 -11.0728 -11.0696 -11.0683 -11.0650 -11.0623 -11.0453 -11.0270
   -11.0266 -11.0117 -11.0115 -11.0008 -10.9998 -10.9951 -10.9911 -10.9803
   -10.9797 -10.9698 -10.9404 -10.9376 -10.9325 -10.9253 -10.9054 -10.8889
   -10.8782 -10.8727 -10.8670 -10.8581 -10.8512 -10.8373 -10.8261 -10.8223
   -10.8201 -10.8053 -10.7917 -10.7902 -10.7848 -10.7822 -10.7768 -10.7712
   -10.7662 -10.7647 -10.7639 -10.7634 -10.7560 -10.7497 -10.7486 -10.7474
   -10.7431 -10.7426 -10.7347 -10.7164 -10.7158 -10.7103 -10.7098 -10.7077
   -10.7058 -10.7023 -10.6952 -10.6904 -10.6731 -10.6730 -10.6717 -10.6707
   -10.6696 -10.6682 -10.5976 -10.5968 -10.5940 -10.5524 -10.5306 -10.5269
   -10.5217 -10.5174 -10.5135 -10.4270 -10.3976 -10.1555 -10.1389 -10.1334
   -10.0051 -10.0048  -9.9524  -9.9165  -9.8363  -9.8214  -9.8174  -9.7683
    -9.7556  -9.7356  -9.7350  -9.7345  -9.7281  -9.7116  -9.7058  -9.7058
    -9.7057  -9.7021  -9.6981  -9.6906  -9.6870  -9.6850  -9.6844  -9.6726
    -9.6722  -9.6582  -9.6468  -9.6288  -9.6142  -9.5729  -9.5718  -9.5670
    -9.5659  -9.5619  -9.5570  -9.5546  -9.5533  -9.5530  -9.5517  -9.5501
    -9.5465  -9.5448  -9.5438  -9.5181  -9.5006  -9.4773  -9.4768  -9.4765
    -9.4764  -9.4760  -9.4760  -9.4668  -9.4631  -9.4625  -9.4547  -9.4516
    -9.4393  -9.4369  -9.4243  -9.3915  -9.3816  -9.3317  -9.3202  -9.2981
    -9.2974  -9.2867  -9.2797  -9.2744  -9.2700  -9.2645  -9.2584  -9.2500
    -9.2417  -9.2085  -9.1961  -9.1883  -9.1683  -9.1677  -9.1521  -9.1283
    -9.1276  -9.1231  -9.1158  -9.1155  -9.1153  -9.1124  -9.1024  -9.0952
    -9.0920  -9.0669  -9.0590  -9.0535  -9.0335  -9.0015  -8.9731  -8.9368
    -8.9260  -8.9236  -8.9172  -8.9138  -8.9117  -8.8947  -8.8856  -8.8828
    -8.8797  -8.8646  -8.8525  -8.8524  -8.8484  -8.8481  -8.8405  -8.8361
    -8.8222  -8.8177  -8.8037  -8.7564  -8.7564  -8.7564  -8.7561  -8.7557
    -8.7552  -8.6913  -8.6881  -8.6858  -8.6845  -8.6792  -8.6606  -8.6152
    -8.6043  -8.6025  -8.5999  -8.5979  -8.5892  -8.5761  -8.5307  -8.5298
    -8.5269  -8.5263  -8.5257  -8.5200  -8.4971  -8.4448  -8.3808  -8.3386
    -8.3016  -8.3015  -8.2970  -8.2963  -8.2914  -8.2899  -8.2885  -8.2617
    -8.2407  -8.2388  -8.2273  -8.2109  -8.2108  -8.2098  -8.2087  -8.2087
    -8.2075  -8.1843  -8.1843  -8.1825  -8.1814  -8.1810  -8.1806  -8.1561
    -8.1560  -8.1552  -8.1548  -8.1546  -8.1545  -8.1084  -8.0667  -7.9984
    -7.9417  -7.9380  -7.8292  -7.7917  -7.7903  -7.7776  -7.7049  -7.7027
    -7.6909  -7.6385  -7.6282  -7.5930  -7.5807  -7.5789  -7.5769  -7.5562
    -7.5520  -7.5484  -7.5440  -7.5436  -7.5380  -7.5322  -7.5067  -7.5032
    -7.4898  -7.4834  -7.4767  -7.4742  -7.4693  -7.4689  -7.4687  -7.4677
    -7.4656  -7.4567  -7.4495  -7.4463  -7.4427  -7.4414  -7.4408  -7.4398
    -7.4366  -7.4342  -7.4188  -7.4171  -7.4169  -7.4169  -7.4167  -7.4150
    -7.3999  -7.3905  -7.3807  -7.3640  -7.3607  -7.3606  -7.3499  -7.3456
    -7.3455  -7.3377  -7.3101  -7.3033  -7.2776  -7.2745  -7.2563  -7.2510
    -7.2498  -7.2358  -7.2327  -7.2302  -7.2299  -7.2257  -7.2192  -7.2161
    -7.1856  -7.1853  -7.1674  -7.1668  -7.1606  -7.1488  -7.1486  -7.0939
    -7.0788  -7.0742  -7.0544  -7.0535  -7.0190  -6.9891  -6.9438  -6.8717
    -6.8372  -6.8279  -6.8030  -6.7940  -6.7542  -6.7478  -6.7364  -6.7262
    -6.7105  -6.7094  -6.6877  -6.6778  -6.6346  -6.6334  -6.6297  -6.6290
    -6.6137  -6.5791  -6.5597  -6.5559  -6.5545  -6.5537  -6.5506  -6.5262
    -6.5217  -6.5143  -6.5073  -6.4857  -6.4838  -6.4792  -6.4676  -6.4596
    -6.4495  -6.4463  -6.4453  -6.4451  -6.4432  -6.4417  -6.4403  -6.4393
    -6.4326  -6.4322  -6.4321  -6.4318  -6.4317  -6.4313  -6.4209  -6.3910
    -6.3884  -6.3786  -6.3499  -6.3472  -6.3445  -6.3299  -6.3115  -6.3046
    -6.2880  -6.2682  -6.2675  -6.2663  -6.2661  -6.2624  -6.2601  -6.2346
    -6.2293  -6.2269  -6.2264  -6.2214  -6.2208  -6.2068  -6.1908  -6.1892
    -6.1887  -6.1866  -6.1865  -6.1850  -6.1748  -6.1421  -6.0634  -6.0397
    -5.8727  -5.7203  -5.6690  -5.6666  -5.5396  -5.3967  -5.3948  -5.2536
    -5.0865  -4.1692  -3.9200  -3.7899  -3.7898  -3.7815  -3.7791  -3.7637
    -3.7614  -3.7605  -3.7593  -3.7590  -3.7555  -3.7364  -3.7135  -3.6434
    -3.6383  -3.6266  -3.6226  -3.6165  -3.6156  -3.6113  -3.6092  -3.6037
    -3.6035  -3.5121  -3.4822  -3.4521  -3.4517  -3.4453  -3.4354  -3.4294
    -3.4194  -3.4188  -3.4074  -3.4071  -3.4062  -3.4033  -3.4023  -3.3925
    -3.3914  -3.3869  -3.3797  -3.3774  -3.3768  -3.3767  -3.3732  -3.3619
    -3.3617  -3.3615  -3.3489  -3.3475  -3.3460  -3.3447  -3.3442  -3.3410
    -3.3355  -3.3334  -3.3333  -3.3296  -3.3262  -3.2948  -3.2866  -3.2836
    -3.2816  -3.2811  -3.2786  -3.2742  -3.2735  -3.2730  -3.2649  -3.2513
    -3.2442  -3.2225  -3.2223  -3.2175  -3.2170  -3.2136  -3.2084  -3.2053
    -3.1842  -3.1596  -3.1496  -3.1413  -3.1268  -3.0243  -3.0133  -3.0121
    -2.9948  -2.9938  -2.9935  -2.9909  -2.9774  -2.9769  -2.9708  -2.9467
    -2.9378  -2.9330  -2.9095  -2.9086  -2.9070  -2.9061  -2.9052  -2.9021
    -2.8986  -2.8982  -2.8971  -2.8970  -2.8938  -2.8879  -2.8874  -2.8801
    -2.8748  -2.8734  -2.8679  -2.8678  -2.8652  -2.8637  -2.8634  -2.8623
    -2.8622  -2.8554  -2.8519  -2.8240  -2.8201  -2.8198  -2.8075  -2.8010
    -2.8006  -2.7950  -2.7863  -2.7792  -2.7421  -2.7391  -2.7387  -2.7386
    -2.7383  -2.7381  -2.7377  -2.7369  -2.7359  -2.7203  -2.7187  -2.7071
    -2.6940  -2.6829  -2.6810  -2.6641  -2.6616  -2.6532  -2.6517  -2.6055
    -2.6021  -2.5757  -2.5743  -2.5636  -2.5553  -2.5549  -2.5522  -2.5493
    -2.5483  -2.5219  -2.5063  -2.4913  -2.4878  -2.4741  -2.4701  -2.3643
    -2.3525  -2.3484  -2.3467  -2.3400

          k = 0.0000-0.5773 0.0000 (386352 PWs)   bands (ev):

  -102.9350 -88.0352 -71.2466 -71.2302 -71.2243 -71.2237 -71.2095 -71.2090
   -71.2005 -66.5531 -66.5530 -66.5530 -66.5530 -66.5518 -66.5518 -66.5491
   -66.5489 -66.5424 -66.5424 -66.5424 -66.5424 -66.5411 -66.5411 -66.5401
   -66.5320 -66.5281 -66.5274 -66.5274 -66.5273 -66.5273 -66.5273 -66.5273
   -66.5273 -66.5271 -66.5271 -66.5260 -66.5260 -66.5260 -66.5260 -66.5229
   -66.5228 -66.5228 -66.5227 -66.5215 -66.5215 -66.5204 -66.5167 -66.5166
   -66.5166 -66.5166 -66.5166 -66.5166 -66.5166 -66.5163 -66.5153 -66.5153
   -66.5153 -66.5153 -66.5152 -66.5121 -66.5121 -66.5121 -66.5121 -66.5108
   -66.5108 -66.5108 -66.5088 -66.5010 -66.4961 -66.4957 -66.4905 -66.4755
   -66.4745 -57.1883 -57.1587 -57.1580 -53.8629 -53.8370 -53.8362 -40.8552
   -40.8551 -40.8551 -40.8551 -40.8551 -40.8551 -40.8551 -40.8549 -40.8544
   -40.8544 -40.8544 -40.8544 -40.8514 -40.8421 -40.8386 -40.8285 -40.8283
   -40.8283 -40.8283 -40.8282 -40.8276 -40.8276 -40.8210 -40.8186 -40.8162
   -40.8162 -40.8162 -40.8162 -40.8155 -40.8155 -40.7995 -40.7800 -40.7690
   -40.7655 -40.7655 -40.7655 -40.7655 -40.7655 -40.7655 -40.7655 -40.7655
   -40.7648 -40.7648 -40.7648 -40.7648 -40.7516 -40.7451 -40.7427 -40.7361
   -40.7120 -40.7067 -40.7067 -40.7066 -40.7066 -40.7061 -40.7060 -40.7020
   -40.6973 -40.6972 -40.6972 -40.6972 -40.6964 -40.6964 -40.6917 -40.6858
   -40.6858 -40.6858 -40.6858 -40.6852 -40.6852 -40.6786 -40.6747 -40.6685
   -40.6591 -40.6579 -40.6566 -40.6563 -40.6563 -40.6562 -40.6562 -40.6562
   -40.6562 -40.6561 -40.6561 -40.6555 -40.6555 -40.6555 -40.6555 -40.6496
   -40.6475 -40.6475 -40.6474 -40.6474 -40.6468 -40.6468 -40.6432 -40.6380
   -40.6358 -40.6358 -40.6357 -40.6357 -40.6353 -40.6352 -40.6352 -40.6351
   -40.6351 -40.6351 -40.6351 -40.6350 -40.6349 -40.6349 -40.6345 -40.6344
   -40.6344 -40.6344 -40.6343 -40.6292 -40.6265 -40.6265 -40.6265 -40.6265
   -40.6263 -40.6258 -40.6258 -40.6212 -40.6172 -40.6164 -40.6135 -40.6050
   -40.6049 -40.6048 -40.6048 -40.6048 -40.6048 -40.6047 -40.6046 -40.6039
   -40.6039 -40.6039 -40.6039 -40.5910 -40.5892 -40.5888 -40.5861 -40.5701
   -40.5701 -40.5701 -40.5701 -40.5701 -40.5701 -40.5700 -40.5700 -40.5691
   -40.5691 -40.5691 -40.5691 -40.5580 -40.5579 -40.5579 -40.5578 -40.5570
   -40.5570 -40.5563 -40.5510 -40.5479 -40.5448 -40.5424 -40.5388 -40.5386
   -40.5386 -40.5384 -40.5376 -40.5376 -40.5280 -40.5240 -40.5216 -40.5216
   -40.5216 -40.5216 -40.5206 -40.5206 -40.5151 -40.4981 -40.4910 -40.4909
   -40.4909 -40.4908 -40.4900 -40.4899 -40.4899 -40.4738 -40.4626 -19.8536
   -19.8474 -19.7898 -19.7870 -19.6908 -19.6887 -19.5880 -19.5874 -19.4169
   -19.3984 -19.3558 -19.3472 -19.2623 -19.2568 -19.1623 -19.1605 -18.8477
   -18.8353 -18.7914 -18.7240 -18.6836 -18.6765 -18.6564 -18.6554 -18.6541
   -18.6457 -18.6247 -18.6104 -18.5877 -18.5840 -18.5665 -18.5638 -18.5329
   -18.5266 -18.4996 -18.4904 -18.4863 -18.4847 -18.4678 -18.4578 -18.4437
   -18.4305 -18.4134 -18.4110 -18.4015 -18.3893 -18.3452 -18.3421 -18.3389
   -18.3339 -18.3033 -18.2857 -18.2666 -18.2609 -18.2443 -18.2205 -18.1968
   -18.1858 -18.1830 -18.1738 -18.1308 -18.1303 -18.1191 -18.1088 -18.0744
   -18.0714 -18.0536 -18.0466 -18.0392 -18.0372 -18.0322 -18.0319 -18.0231
   -18.0231 -18.0058 -18.0045 -18.0024 -18.0003 -17.9928 -17.9917 -17.9831
   -17.9791 -17.9760 -17.9750 -17.9444 -17.9433 -17.9389 -17.9382 -17.9348
   -17.9335 -17.9303 -17.9288 -17.9191 -17.9167 -17.8835 -17.8806 -17.8711
   -17.8710 -17.8643 -17.8632 -17.8280 -17.8254 -17.8171 -17.8170 -17.7894
   -17.7859 -17.7791 -17.7775 -17.7726 -17.7646 -17.7538 -17.7533 -17.7528
   -17.7525 -17.7518 -17.7501 -17.7385 -17.7382 -17.7187 -17.7180 -17.6947
   -17.6937 -17.6756 -17.6739 -17.6611 -17.6600 -17.6536 -17.6534 -11.8490
   -11.7331 -11.6482 -11.6306 -11.5516 -11.5109 -11.4713 -11.4594 -11.4460
   -11.4331 -11.4283 -11.4234 -11.4133 -11.4092 -11.3915 -11.3725 -11.3321
   -11.3207 -11.3154 -11.3065 -11.2812 -11.2726 -11.2593 -11.2522 -11.2396
   -11.2211 -11.2075 -11.2053 -11.1974 -11.1960 -11.1887 -11.1844 -11.1642
   -11.1503 -11.1395 -11.1372 -11.1264 -11.1234 -11.1068 -11.1035 -11.1020
   -11.0997 -11.0816 -11.0799 -11.0555 -11.0528 -11.0212 -11.0153 -11.0106
   -10.9940 -10.9657 -10.9370 -10.9125 -10.8876 -10.8811 -10.8700 -10.8598
   -10.8521 -10.8404 -10.8280 -10.8260 -10.7958 -10.7870 -10.7735 -10.7685
   -10.7678 -10.7573 -10.7530 -10.7459 -10.7456 -10.7447 -10.7439 -10.7393
   -10.7337 -10.7315 -10.7282 -10.7265 -10.7257 -10.7184 -10.7176 -10.7153
   -10.7121 -10.6778 -10.6775 -10.6769 -10.6765 -10.5898 -10.5556 -10.4829
   -10.4782 -10.4718 -10.4609 -10.4309 -10.4056 -10.3399 -10.3259 -10.2287
   -10.2012 -10.1470 -10.1279 -10.1155 -10.0825 -10.0764 -10.0696 -10.0493
   -10.0469 -10.0356 -10.0320  -9.9956  -9.9934  -9.9704  -9.9686  -9.9648
    -9.9610  -9.9542  -9.9441  -9.9268  -9.9191  -9.8868  -9.8715  -9.8651
    -9.8569  -9.8491  -9.8437  -9.8263  -9.8245  -9.8015  -9.7937  -9.7763
    -9.7601  -9.7447  -9.7396  -9.7315  -9.7132  -9.7109  -9.7063  -9.6781
    -9.6747  -9.6459  -9.6261  -9.6205  -9.6117  -9.5920  -9.5848  -9.5683
    -9.5574  -9.5502  -9.5349  -9.5201  -9.5049  -9.5047  -9.4845  -9.4784
    -9.4734  -9.4703  -9.4520  -9.4271  -9.4237  -9.4220  -9.4098  -9.4075
    -9.4012  -9.3939  -9.3909  -9.3869  -9.3820  -9.3638  -9.3608  -9.3313
    -9.3037  -9.2991  -9.2814  -9.2381  -9.2054  -9.1898  -9.1701  -9.1607
    -9.1519  -9.1335  -9.1299  -9.1200  -9.1032  -9.0990  -9.0901  -9.0641
    -9.0538  -9.0450  -9.0292  -9.0230  -9.0080  -8.9921  -8.9847  -8.9769
    -8.9736  -8.9684  -8.9641  -8.9301  -8.9242  -8.9185  -8.9015  -8.8876
    -8.8869  -8.8762  -8.8659  -8.8592  -8.8500  -8.8256  -8.8241  -8.8226
    -8.8208  -8.8195  -8.8163  -8.8102  -8.8050  -8.8032  -8.7999  -8.7995
    -8.7920  -8.7904  -8.7859  -8.7743  -8.7741  -8.7725  -8.7666  -8.7645
    -8.7514  -8.7272  -8.7268  -8.7231  -8.7216  -8.7181  -8.7176  -8.6967
    -8.6962  -8.6720  -8.6680  -8.6665  -8.6622  -8.6602  -8.6438  -8.6387
    -8.5869  -8.5861  -8.5734  -8.5443  -8.5243  -8.4388  -8.4362  -8.3967
    -8.3867  -8.3782  -8.3681  -8.3085  -8.2864  -8.2624  -8.2157  -8.1962
    -8.1793  -8.1419  -8.0618  -8.0617  -8.0536  -8.0528  -8.0429  -8.0414
    -8.0365  -8.0075  -8.0007  -7.9892  -7.9596  -7.9443  -7.9040  -7.9022
    -7.8866  -7.8443  -7.8074  -7.7896  -7.7741  -7.7717  -7.7709  -7.7604
    -7.7533  -7.7510  -7.7438  -7.7376  -7.7372  -7.7348  -7.7303  -7.7256
    -7.7245  -7.7224  -7.7198  -7.7159  -7.7142  -7.7120  -7.7077  -7.7029
    -7.7021  -7.6983  -7.6983  -7.6965  -7.6934  -7.6923  -7.6918  -7.6749
    -7.6718  -7.6645  -7.6620  -7.6605  -7.6567  -7.6308  -7.6304  -7.6301
    -7.6297  -7.6024  -7.6009  -7.6000  -7.5995  -7.5922  -7.5882  -7.5862
    -7.5748  -7.5627  -7.5518  -7.5431  -7.5413  -7.5404  -7.5365  -7.5355
    -7.5258  -7.5188  -7.5181  -7.5019  -7.4978  -7.4976  -7.4953  -7.4894
    -7.4844  -7.4665  -7.4021  -7.3961  -7.3943  -7.3939  -7.3767  -7.3579
    -7.3504  -7.2727  -7.2328  -7.1498  -7.1295  -7.1102  -7.1022  -7.0998
    -7.0984  -7.0778  -7.0708  -7.0516  -7.0445  -7.0394  -7.0349  -7.0221
    -7.0011  -6.9775  -6.9648  -6.9583  -6.9547  -6.9543  -6.9251  -6.9098
    -6.8968  -6.8678  -6.8500  -6.8477  -6.8433  -6.8312  -6.8180  -6.8057
    -6.7935  -6.7924  -6.7881  -6.7621  -6.7339  -6.7285  -6.7019  -6.6877
    -6.6635  -6.6508  -6.6255  -6.6067  -6.5995  -6.5763  -6.5684  -6.5529
    -6.5521  -6.5396  -6.5386  -6.5384  -6.5379  -6.5252  -6.5215  -6.5209
    -6.5207  -6.5190  -6.5128  -6.5127  -6.5126  -6.5125  -6.4725  -6.4563
    -6.4397  -6.3950  -6.3833  -6.3488  -6.3454  -6.3088  -6.2618  -6.2583
    -6.2535  -6.2518  -6.2457  -6.2354  -6.2185  -6.2112  -6.2108  -6.2066
    -6.2063  -6.2023  -6.1959  -6.1881  -6.1847  -6.1758  -6.1682  -6.1533
    -6.1424  -6.1373  -6.1339  -6.1308  -6.1023  -5.9494  -5.9363  -5.9197
    -5.9097  -5.8741  -5.8516  -5.8333  -5.8208  -5.7835  -5.7784  -5.6958
    -5.6830  -5.6582  -5.6254  -5.5564  -5.5448  -5.5086  -5.4717  -5.3872
    -5.3484  -4.1616  -4.0604  -4.0209  -4.0206  -3.9949  -3.9377  -3.8606
    -3.8597  -3.8474  -3.8425  -3.8007  -3.7750  -3.7744  -3.7653  -3.7591
    -3.7532  -3.7430  -3.7377  -3.7310  -3.7285  -3.6851  -3.6559  -3.6260
    -3.6110  -3.5876  -3.5657  -3.5385  -3.5342  -3.5329  -3.5313  -3.4961
    -3.4873  -3.4844  -3.4810  -3.4602  -3.4581  -3.4489  -3.4457  -3.4426
    -3.4325  -3.4188  -3.4120  -3.4090  -3.4088  -3.4073  -3.3998  -3.3971
    -3.3873  -3.3794  -3.3763  -3.3600  -3.3568  -3.3487  -3.3447  -3.3252
    -3.3135  -3.2863  -3.2816  -3.2803  -3.2778  -3.2768  -3.2717  -3.2693
    -3.2612  -3.2442  -3.2346  -3.2234  -3.2204  -3.2138  -3.2126  -3.2092
    -3.2068  -3.2029  -3.2018  -3.1799  -3.1767  -3.1678  -3.1659  -3.1611
    -3.1596  -3.1445  -3.1438  -3.1410  -3.1325  -3.1260  -3.1190  -3.1119
    -3.1091  -3.1039  -3.0961  -3.0940  -3.0939  -3.0897  -3.0733  -3.0497
    -3.0313  -3.0141  -3.0087  -3.0044  -2.9983  -2.9945  -2.9908  -2.9591
    -2.9576  -2.9558  -2.9555  -2.9533  -2.9528  -2.9451  -2.9437  -2.9423
    -2.9362  -2.9355  -2.9347  -2.9228  -2.9191  -2.9165  -2.9098  -2.9082
    -2.9075  -2.9015  -2.9009  -2.8957  -2.8869  -2.8799  -2.8786  -2.8752
    -2.8714  -2.8646  -2.8625  -2.8585  -2.8441  -2.8325  -2.8296  -2.8208
    -2.8169  -2.8141  -2.8048  -2.7936  -2.7838  -2.7294  -2.7266  -2.7225
    -2.7215  -2.6782  -2.6596  -2.6483  -2.6425  -2.5541  -2.5411  -2.5213
    -2.5107  -2.5045  -2.4856  -2.4843  -2.4762  -2.4671  -2.4598  -2.4588
    -2.4573  -2.4523  -2.4267  -2.3475  -2.3376  -2.3323  -2.3295  -2.3261
    -2.3117  -2.3059  -2.2892  -2.2734

          k =-0.5000-0.2887 0.0000 (386352 PWs)   bands (ev):

  -102.9350 -88.0352 -71.2466 -71.2302 -71.2243 -71.2237 -71.2095 -71.2090
   -71.2005 -66.5531 -66.5530 -66.5530 -66.5530 -66.5522 -66.5518 -66.5518
   -66.5424 -66.5424 -66.5424 -66.5423 -66.5418 -66.5411 -66.5411 -66.5406
   -66.5379 -66.5304 -66.5275 -66.5273 -66.5273 -66.5273 -66.5273 -66.5273
   -66.5272 -66.5271 -66.5260 -66.5260 -66.5260 -66.5260 -66.5231 -66.5229
   -66.5228 -66.5228 -66.5228 -66.5215 -66.5215 -66.5184 -66.5167 -66.5166
   -66.5166 -66.5166 -66.5166 -66.5166 -66.5165 -66.5163 -66.5153 -66.5153
   -66.5153 -66.5153 -66.5151 -66.5122 -66.5121 -66.5121 -66.5121 -66.5109
   -66.5108 -66.5108 -66.5100 -66.5017 -66.4965 -66.4952 -66.4901 -66.4751
   -66.4749 -57.1883 -57.1587 -57.1580 -53.8629 -53.8370 -53.8362 -40.8596
   -40.8552 -40.8551 -40.8551 -40.8551 -40.8551 -40.8551 -40.8550 -40.8549
   -40.8544 -40.8544 -40.8544 -40.8544 -40.8438 -40.8337 -40.8284 -40.8283
   -40.8283 -40.8282 -40.8276 -40.8276 -40.8229 -40.8164 -40.8162 -40.8162
   -40.8162 -40.8162 -40.8155 -40.8155 -40.8123 -40.8010 -40.7868 -40.7690
   -40.7656 -40.7655 -40.7655 -40.7655 -40.7655 -40.7655 -40.7655 -40.7655
   -40.7648 -40.7648 -40.7648 -40.7648 -40.7488 -40.7476 -40.7474 -40.7394
   -40.7105 -40.7068 -40.7067 -40.7067 -40.7066 -40.7060 -40.7060 -40.7060
   -40.6973 -40.6972 -40.6972 -40.6972 -40.6964 -40.6964 -40.6858 -40.6858
   -40.6858 -40.6858 -40.6852 -40.6852 -40.6842 -40.6789 -40.6775 -40.6716
   -40.6613 -40.6563 -40.6563 -40.6562 -40.6562 -40.6562 -40.6562 -40.6561
   -40.6561 -40.6555 -40.6555 -40.6555 -40.6555 -40.6527 -40.6522 -40.6477
   -40.6476 -40.6475 -40.6474 -40.6474 -40.6468 -40.6468 -40.6456 -40.6432
   -40.6358 -40.6358 -40.6357 -40.6357 -40.6353 -40.6352 -40.6352 -40.6352
   -40.6351 -40.6351 -40.6351 -40.6349 -40.6349 -40.6349 -40.6344 -40.6344
   -40.6344 -40.6344 -40.6313 -40.6308 -40.6265 -40.6265 -40.6265 -40.6265
   -40.6258 -40.6258 -40.6245 -40.6222 -40.6190 -40.6142 -40.6131 -40.6050
   -40.6048 -40.6048 -40.6048 -40.6048 -40.6048 -40.6048 -40.6047 -40.6039
   -40.6039 -40.6039 -40.6039 -40.5988 -40.5883 -40.5838 -40.5772 -40.5701
   -40.5701 -40.5701 -40.5701 -40.5701 -40.5700 -40.5700 -40.5700 -40.5691
   -40.5691 -40.5691 -40.5691 -40.5580 -40.5579 -40.5579 -40.5578 -40.5570
   -40.5570 -40.5558 -40.5523 -40.5505 -40.5471 -40.5418 -40.5387 -40.5386
   -40.5386 -40.5385 -40.5376 -40.5376 -40.5251 -40.5217 -40.5216 -40.5216
   -40.5215 -40.5212 -40.5206 -40.5206 -40.5165 -40.4993 -40.4966 -40.4909
   -40.4909 -40.4909 -40.4909 -40.4899 -40.4899 -40.4790 -40.4551 -19.8918
   -19.8219 -19.7966 -19.7609 -19.6953 -19.6699 -19.5891 -19.5808 -19.4422
   -19.4035 -19.3602 -19.3507 -19.2657 -19.2593 -19.1635 -19.1615 -18.8349
   -18.8071 -18.7842 -18.7358 -18.7106 -18.6633 -18.6569 -18.6551 -18.6549
   -18.6479 -18.6180 -18.6107 -18.5849 -18.5841 -18.5772 -18.5400 -18.5264
   -18.5205 -18.5097 -18.4871 -18.4846 -18.4813 -18.4756 -18.4730 -18.4297
   -18.4233 -18.4130 -18.4118 -18.4037 -18.3715 -18.3502 -18.3466 -18.3455
   -18.3322 -18.3113 -18.2932 -18.2754 -18.2657 -18.2493 -18.2380 -18.1977
   -18.1948 -18.1722 -18.1674 -18.1560 -18.1351 -18.1076 -18.1013 -18.0952
   -18.0703 -18.0623 -18.0420 -18.0361 -18.0357 -18.0336 -18.0305 -18.0117
   -18.0079 -18.0072 -18.0057 -18.0032 -18.0006 -17.9980 -17.9907 -17.9862
   -17.9753 -17.9667 -17.9666 -17.9470 -17.9405 -17.9388 -17.9370 -17.9359
   -17.9309 -17.9253 -17.9237 -17.9223 -17.9118 -17.8904 -17.8750 -17.8695
   -17.8641 -17.8562 -17.8548 -17.8323 -17.8285 -17.8190 -17.8103 -17.8089
   -17.7830 -17.7798 -17.7781 -17.7723 -17.7720 -17.7541 -17.7533 -17.7529
   -17.7527 -17.7512 -17.7509 -17.7400 -17.7381 -17.7210 -17.7172 -17.6962
   -17.6930 -17.6771 -17.6728 -17.6618 -17.6591 -17.6537 -17.6533 -11.9298
   -11.6624 -11.6529 -11.5913 -11.5387 -11.4708 -11.4574 -11.4481 -11.4376
   -11.4371 -11.4315 -11.4168 -11.4125 -11.4066 -11.3833 -11.3698 -11.3691
   -11.3430 -11.3206 -11.3040 -11.2889 -11.2744 -11.2620 -11.2588 -11.2496
   -11.2281 -11.2081 -11.2015 -11.2011 -11.1930 -11.1914 -11.1900 -11.1831
   -11.1518 -11.1407 -11.1394 -11.1312 -11.1190 -11.1042 -11.1033 -11.1013
   -11.0922 -11.0846 -11.0811 -11.0809 -11.0505 -11.0333 -11.0050 -10.9963
   -10.9909 -10.9713 -10.9253 -10.9017 -10.8842 -10.8783 -10.8750 -10.8657
   -10.8534 -10.8474 -10.8354 -10.8257 -10.7962 -10.7877 -10.7706 -10.7668
   -10.7637 -10.7602 -10.7485 -10.7464 -10.7457 -10.7445 -10.7420 -10.7341
   -10.7328 -10.7291 -10.7282 -10.7256 -10.7253 -10.7183 -10.7174 -10.7155
   -10.7046 -10.6779 -10.6776 -10.6769 -10.6754 -10.6187 -10.5613 -10.4889
   -10.4764 -10.4620 -10.4611 -10.4319 -10.3998 -10.3494 -10.3081 -10.2296
   -10.1828 -10.1774 -10.1514 -10.1106 -10.1023 -10.0747 -10.0548 -10.0536
   -10.0487 -10.0250 -10.0047  -9.9965  -9.9939  -9.9854  -9.9829  -9.9694
    -9.9570  -9.9440  -9.9376  -9.9349  -9.9141  -9.8927  -9.8697  -9.8562
    -9.8517  -9.8499  -9.8373  -9.8277  -9.8265  -9.8165  -9.7948  -9.7922
    -9.7686  -9.7406  -9.7335  -9.7306  -9.7268  -9.7078  -9.6988  -9.6830
    -9.6680  -9.6578  -9.6503  -9.6378  -9.6000  -9.5954  -9.5866  -9.5795
    -9.5521  -9.5481  -9.5305  -9.5130  -9.5097  -9.5021  -9.4846  -9.4763
    -9.4753  -9.4594  -9.4512  -9.4239  -9.4237  -9.4198  -9.4124  -9.4096
    -9.3972  -9.3945  -9.3904  -9.3801  -9.3644  -9.3639  -9.3549  -9.3147
    -9.2895  -9.2655  -9.2454  -9.2336  -9.2068  -9.1885  -9.1556  -9.1541
    -9.1462  -9.1419  -9.1301  -9.1279  -9.1177  -9.0836  -9.0772  -9.0715
    -9.0522  -9.0403  -9.0283  -9.0242  -9.0069  -9.0030  -8.9908  -8.9823
    -8.9814  -8.9661  -8.9600  -8.9555  -8.9314  -8.9250  -8.8955  -8.8876
    -8.8859  -8.8850  -8.8651  -8.8596  -8.8544  -8.8409  -8.8377  -8.8300
    -8.8221  -8.8197  -8.8191  -8.8185  -8.8145  -8.8059  -8.8033  -8.8023
    -8.7929  -8.7864  -8.7790  -8.7760  -8.7742  -8.7736  -8.7667  -8.7624
    -8.7385  -8.7348  -8.7284  -8.7220  -8.7170  -8.7162  -8.7149  -8.6984
    -8.6916  -8.6733  -8.6676  -8.6659  -8.6650  -8.6626  -8.6560  -8.6382
    -8.5922  -8.5824  -8.5813  -8.5250  -8.5091  -8.4498  -8.4387  -8.4311
    -8.3958  -8.3763  -8.3679  -8.3064  -8.2854  -8.2808  -8.1981  -8.1822
    -8.1642  -8.1068  -8.0621  -8.0617  -8.0559  -8.0528  -8.0485  -8.0414
    -8.0401  -8.0073  -7.9977  -7.9882  -7.9660  -7.9584  -7.9053  -7.9021
    -7.8612  -7.8224  -7.8099  -7.7800  -7.7764  -7.7759  -7.7659  -7.7556
    -7.7552  -7.7518  -7.7511  -7.7373  -7.7345  -7.7309  -7.7304  -7.7290
    -7.7241  -7.7222  -7.7186  -7.7150  -7.7135  -7.7061  -7.7029  -7.7027
    -7.7000  -7.6987  -7.6979  -7.6956  -7.6922  -7.6917  -7.6832  -7.6814
    -7.6691  -7.6658  -7.6633  -7.6598  -7.6487  -7.6324  -7.6309  -7.6305
    -7.6292  -7.6049  -7.6008  -7.6001  -7.5987  -7.5986  -7.5948  -7.5904
    -7.5739  -7.5704  -7.5438  -7.5418  -7.5371  -7.5325  -7.5305  -7.5264
    -7.5252  -7.5192  -7.5166  -7.5127  -7.4979  -7.4977  -7.4882  -7.4879
    -7.4737  -7.4735  -7.4052  -7.3956  -7.3900  -7.3854  -7.3837  -7.3788
    -7.3629  -7.3321  -7.2052  -7.1468  -7.1294  -7.1276  -7.1020  -7.1013
    -7.0991  -7.0978  -7.0607  -7.0555  -7.0456  -7.0371  -7.0311  -7.0092
    -6.9802  -6.9800  -6.9663  -6.9574  -6.9496  -6.9316  -6.9189  -6.9098
    -6.8984  -6.8887  -6.8730  -6.8488  -6.8373  -6.8261  -6.8165  -6.8155
    -6.7935  -6.7899  -6.7796  -6.7776  -6.7398  -6.7100  -6.6993  -6.6934
    -6.6910  -6.6521  -6.6204  -6.5971  -6.5893  -6.5752  -6.5598  -6.5556
    -6.5438  -6.5396  -6.5385  -6.5384  -6.5364  -6.5300  -6.5219  -6.5209
    -6.5205  -6.5179  -6.5129  -6.5127  -6.5125  -6.5122  -6.5089  -6.4638
    -6.4625  -6.3912  -6.3712  -6.3467  -6.3408  -6.2745  -6.2664  -6.2636
    -6.2579  -6.2516  -6.2478  -6.2407  -6.2304  -6.2220  -6.2111  -6.2105
    -6.2066  -6.2057  -6.2010  -6.1932  -6.1872  -6.1701  -6.1576  -6.1463
    -6.1401  -6.1331  -6.1317  -6.1285  -6.1249  -5.9356  -5.9315  -5.9298
    -5.8877  -5.8874  -5.8372  -5.8317  -5.7924  -5.7824  -5.7799  -5.6962
    -5.6729  -5.6473  -5.6325  -5.5838  -5.5455  -5.5238  -5.4502  -5.3789
    -5.3684  -4.2196  -4.0278  -4.0277  -4.0148  -3.9930  -3.8727  -3.8585
    -3.8559  -3.8548  -3.8323  -3.8053  -3.7762  -3.7743  -3.7625  -3.7580
    -3.7457  -3.7429  -3.7345  -3.7320  -3.7310  -3.7193  -3.6482  -3.6232
    -3.6195  -3.6122  -3.5578  -3.5395  -3.5339  -3.5332  -3.5312  -3.5247
    -3.4862  -3.4845  -3.4664  -3.4540  -3.4528  -3.4491  -3.4436  -3.4424
    -3.4330  -3.4177  -3.4147  -3.4124  -3.4077  -3.4059  -3.4008  -3.3984
    -3.3863  -3.3805  -3.3776  -3.3603  -3.3506  -3.3477  -3.3429  -3.3390
    -3.2947  -3.2867  -3.2835  -3.2811  -3.2775  -3.2752  -3.2732  -3.2701
    -3.2638  -3.2405  -3.2351  -3.2280  -3.2181  -3.2145  -3.2130  -3.2108
    -3.2091  -3.2046  -3.1956  -3.1784  -3.1766  -3.1675  -3.1655  -3.1636
    -3.1585  -3.1512  -3.1439  -3.1406  -3.1361  -3.1224  -3.1184  -3.1120
    -3.1095  -3.1069  -3.0939  -3.0939  -3.0935  -3.0926  -3.0634  -3.0523
    -3.0266  -3.0201  -3.0051  -3.0037  -3.0011  -2.9945  -2.9861  -2.9631
    -2.9602  -2.9551  -2.9547  -2.9533  -2.9517  -2.9475  -2.9472  -2.9400
    -2.9361  -2.9350  -2.9346  -2.9221  -2.9205  -2.9182  -2.9153  -2.9087
    -2.9075  -2.9001  -2.8977  -2.8936  -2.8922  -2.8817  -2.8786  -2.8759
    -2.8732  -2.8680  -2.8624  -2.8547  -2.8431  -2.8365  -2.8314  -2.8214
    -2.8143  -2.8132  -2.8083  -2.7982  -2.7753  -2.7334  -2.7300  -2.7185
    -2.7167  -2.6793  -2.6585  -2.6457  -2.6415  -2.5516  -2.5423  -2.5228
    -2.5185  -2.5065  -2.5056  -2.4873  -2.4760  -2.4629  -2.4617  -2.4588
    -2.4576  -2.4508  -2.4472  -2.4396  -2.3428  -2.3340  -2.3293  -2.3256
    -2.3165  -2.3114  -2.2989  -2.2818

          k =-0.5000-0.8660 0.0000 (386352 PWs)   bands (ev):

  -102.9350 -88.0352 -71.2466 -71.2302 -71.2243 -71.2237 -71.2095 -71.2090
   -71.2005 -66.5531 -66.5530 -66.5530 -66.5530 -66.5518 -66.5518 -66.5491
   -66.5489 -66.5424 -66.5424 -66.5424 -66.5424 -66.5411 -66.5411 -66.5401
   -66.5320 -66.5281 -66.5274 -66.5274 -66.5273 -66.5273 -66.5273 -66.5273
   -66.5273 -66.5272 -66.5271 -66.5260 -66.5260 -66.5260 -66.5260 -66.5229
   -66.5228 -66.5228 -66.5227 -66.5215 -66.5215 -66.5204 -66.5167 -66.5166
   -66.5166 -66.5166 -66.5166 -66.5166 -66.5166 -66.5163 -66.5153 -66.5153
   -66.5153 -66.5152 -66.5152 -66.5121 -66.5121 -66.5121 -66.5121 -66.5109
   -66.5108 -66.5108 -66.5088 -66.5010 -66.4961 -66.4957 -66.4905 -66.4755
   -66.4745 -57.1883 -57.1587 -57.1580 -53.8629 -53.8370 -53.8362 -40.8552
   -40.8551 -40.8551 -40.8551 -40.8551 -40.8551 -40.8551 -40.8549 -40.8544
   -40.8544 -40.8544 -40.8544 -40.8514 -40.8421 -40.8386 -40.8285 -40.8283
   -40.8283 -40.8283 -40.8282 -40.8276 -40.8276 -40.8210 -40.8186 -40.8162
   -40.8162 -40.8162 -40.8162 -40.8155 -40.8155 -40.7995 -40.7800 -40.7690
   -40.7655 -40.7655 -40.7655 -40.7655 -40.7655 -40.7655 -40.7655 -40.7655
   -40.7648 -40.7648 -40.7648 -40.7648 -40.7516 -40.7451 -40.7427 -40.7361
   -40.7120 -40.7067 -40.7067 -40.7066 -40.7066 -40.7061 -40.7060 -40.7020
   -40.6973 -40.6972 -40.6972 -40.6972 -40.6964 -40.6964 -40.6917 -40.6858
   -40.6858 -40.6858 -40.6858 -40.6852 -40.6852 -40.6786 -40.6747 -40.6685
   -40.6591 -40.6579 -40.6566 -40.6563 -40.6563 -40.6562 -40.6562 -40.6562
   -40.6562 -40.6561 -40.6561 -40.6555 -40.6555 -40.6555 -40.6555 -40.6496
   -40.6475 -40.6475 -40.6474 -40.6474 -40.6468 -40.6468 -40.6432 -40.6380
   -40.6358 -40.6357 -40.6357 -40.6357 -40.6353 -40.6352 -40.6352 -40.6352
   -40.6351 -40.6351 -40.6351 -40.6350 -40.6349 -40.6349 -40.6345 -40.6345
   -40.6344 -40.6344 -40.6343 -40.6292 -40.6265 -40.6265 -40.6265 -40.6265
   -40.6263 -40.6258 -40.6258 -40.6212 -40.6172 -40.6164 -40.6135 -40.6050
   -40.6049 -40.6048 -40.6048 -40.6048 -40.6048 -40.6047 -40.6046 -40.6039
   -40.6039 -40.6039 -40.6039 -40.5910 -40.5892 -40.5888 -40.5861 -40.5701
   -40.5701 -40.5701 -40.5701 -40.5701 -40.5701 -40.5700 -40.5700 -40.5691
   -40.5691 -40.5691 -40.5691 -40.5580 -40.5579 -40.5579 -40.5578 -40.5570
   -40.5570 -40.5563 -40.5510 -40.5479 -40.5448 -40.5424 -40.5388 -40.5386
   -40.5386 -40.5384 -40.5376 -40.5376 -40.5280 -40.5240 -40.5216 -40.5216
   -40.5216 -40.5216 -40.5206 -40.5206 -40.5150 -40.4981 -40.4910 -40.4909
   -40.4909 -40.4908 -40.4900 -40.4899 -40.4899 -40.4738 -40.4626 -19.8536
   -19.8474 -19.7898 -19.7870 -19.6908 -19.6887 -19.5880 -19.5874 -19.4169
   -19.3984 -19.3558 -19.3472 -19.2623 -19.2569 -19.1623 -19.1605 -18.8477
   -18.8353 -18.7913 -18.7240 -18.6837 -18.6764 -18.6564 -18.6554 -18.6541
   -18.6457 -18.6247 -18.6104 -18.5877 -18.5840 -18.5665 -18.5638 -18.5329
   -18.5266 -18.4996 -18.4904 -18.4863 -18.4847 -18.4678 -18.4578 -18.4437
   -18.4304 -18.4134 -18.4110 -18.4015 -18.3893 -18.3452 -18.3421 -18.3389
   -18.3339 -18.3033 -18.2857 -18.2666 -18.2609 -18.2443 -18.2206 -18.1968
   -18.1858 -18.1830 -18.1738 -18.1308 -18.1303 -18.1191 -18.1088 -18.0744
   -18.0714 -18.0536 -18.0466 -18.0392 -18.0372 -18.0322 -18.0319 -18.0231
   -18.0231 -18.0058 -18.0045 -18.0024 -18.0003 -17.9928 -17.9917 -17.9831
   -17.9791 -17.9760 -17.9750 -17.9444 -17.9433 -17.9389 -17.9382 -17.9348
   -17.9335 -17.9303 -17.9288 -17.9191 -17.9167 -17.8835 -17.8806 -17.8711
   -17.8710 -17.8643 -17.8632 -17.8281 -17.8254 -17.8171 -17.8170 -17.7894
   -17.7859 -17.7791 -17.7775 -17.7726 -17.7646 -17.7538 -17.7533 -17.7528
   -17.7525 -17.7518 -17.7501 -17.7385 -17.7382 -17.7187 -17.7180 -17.6947
   -17.6937 -17.6756 -17.6739 -17.6611 -17.6600 -17.6536 -17.6534 -11.8490
   -11.7331 -11.6482 -11.6306 -11.5516 -11.5109 -11.4713 -11.4594 -11.4460
   -11.4331 -11.4283 -11.4234 -11.4133 -11.4092 -11.3915 -11.3725 -11.3321
   -11.3207 -11.3154 -11.3065 -11.2812 -11.2726 -11.2593 -11.2522 -11.2396
   -11.2211 -11.2076 -11.2053 -11.1974 -11.1960 -11.1887 -11.1844 -11.1642
   -11.1503 -11.1395 -11.1372 -11.1264 -11.1234 -11.1068 -11.1035 -11.1020
   -11.0997 -11.0816 -11.0799 -11.0555 -11.0528 -11.0212 -11.0153 -11.0106
   -10.9940 -10.9657 -10.9370 -10.9125 -10.8876 -10.8811 -10.8700 -10.8598
   -10.8521 -10.8404 -10.8280 -10.8260 -10.7958 -10.7870 -10.7735 -10.7685
   -10.7678 -10.7573 -10.7530 -10.7459 -10.7456 -10.7447 -10.7439 -10.7394
   -10.7337 -10.7315 -10.7282 -10.7265 -10.7257 -10.7184 -10.7176 -10.7153
   -10.7121 -10.6778 -10.6775 -10.6769 -10.6765 -10.5898 -10.5556 -10.4829
   -10.4782 -10.4718 -10.4609 -10.4309 -10.4056 -10.3399 -10.3259 -10.2287
   -10.2013 -10.1471 -10.1278 -10.1155 -10.0825 -10.0764 -10.0696 -10.0493
   -10.0469 -10.0356 -10.0320  -9.9956  -9.9934  -9.9704  -9.9686  -9.9648
    -9.9610  -9.9542  -9.9441  -9.9268  -9.9191  -9.8868  -9.8715  -9.8651
    -9.8569  -9.8491  -9.8437  -9.8263  -9.8245  -9.8015  -9.7937  -9.7763
[...]
     atom  170 type  1   force =    -0.00001466   -0.00001625    0.00000796
     atom  171 type  2   force =    -0.00000557   -0.00000088    0.00000481
     atom  172 type  2   force =    -0.00000208   -0.00000050    0.00161501
     atom  173 type  2   force =    -0.00000223   -0.00000098   -0.00235901
     atom  174 type  2   force =    -0.00000682   -0.00000136   -0.00000281
     atom  175 type  1   force =     0.00000179   -0.00000548    0.00002663
     atom  176 type  1   force =    -0.00007149    0.00003437   -0.00001361
     atom  177 type  2   force =     0.00016630   -0.00021392   -0.00027490
     atom  178 type  2   force =     0.00000708   -0.00000868    0.00003758
     atom  179 type  2   force =     0.00000022   -0.00000194    0.00002080
     atom  180 type  2   force =     0.00010056   -0.00001066   -0.00019640
     atom  181 type  1   force =    -0.00000055   -0.00000214    0.00068798
     atom  182 type  1   force =    -0.00001087   -0.00001015   -0.00000004
     atom  183 type  2   force =    -0.00000392   -0.00000208    0.00000520
     atom  184 type  2   force =    -0.00000207   -0.00000046    0.00161503
     atom  185 type  2   force =    -0.00000222   -0.00000096   -0.00235902
     atom  186 type  2   force =    -0.00000403   -0.00000481   -0.00000013
     atom  187 type  1   force =    -0.00000400    0.00000379    0.00002671
     atom  188 type  1   force =     0.00000198    0.00000075   -0.00016762
     atom  189 type  2   force =    -0.00010181    0.00025059   -0.00027533
     atom  190 type  2   force =     0.00000122    0.00000062    0.00002798
     atom  191 type  2   force =    -0.00000957   -0.00000553    0.00001696
     atom  192 type  2   force =     0.00004118    0.00009191   -0.00019628
     atom  193 type  3   force =     0.00010883    0.00006338   -0.00055761
     atom  194 type  4   force =    -0.00000050   -0.00000001    0.00018061

     Total force =     0.003254     Total SCF correction =     0.000495
     SCF correction compared to forces is large: reduce conv_thr to get better values
     Energy error            =      2.6E-05 Ry
     Gradient error          =      8.9E-04 Ry/Bohr

     bfgs converged in  16 scf cycles and  15 bfgs steps
     (criteria: energy <  1.0E-04 Ry, force <  1.0E-03 Ry/Bohr)

     End of BFGS Geometry Optimization

     Final energy             =  -33980.2823048241 Ry

     File ./outdir/pwscf.bfgs deleted, as requested
Begin final coordinates

ATOMIC_POSITIONS (angstrom)
Mo               0.0000119917        1.8193638619       -9.1672481230    0   0   0
Mo               1.5756136568        0.9097075315       -3.0554901653    0   0   0
S                0.0000188998        1.8193822938       -4.6232556019    0   0   0
S                1.5756321638        0.9096773839       -7.6014065489    0   0   0
S                1.5756326175        0.9096785128      -10.7330757790    0   0   0
S                0.0000189190        1.8193860094       -1.4877129945    0   0   0
Mo               0.0001817104        1.8195093995        3.0564453833
Mo               1.5603252451        0.9051607195        9.1586247495
S                0.0007695093        1.8243575587        7.5796835442
S                1.5762385614        0.9101156937        4.6241591732
S                1.5757014888        0.9097184679        1.4886354206
S               -0.0201655224        1.8012995138       10.7289981765
Mo              -1.5756053507        4.5484193819       -9.1672481230    0   0   0
Mo               0.0000378379        3.6387394919       -3.0554952701    0   0   0
S               -1.5755913433        4.5484363582       -4.6232494962    0   0   0
S                0.0000148214        3.6387329039       -7.6014065489    0   0   0
S                0.0000152751        3.6387340328      -10.7330757790    0   0   0
S               -1.5755906502        4.5484413613       -1.4877305502    0   0   0
Mo              -1.5753442339        4.5485626790        3.0561893311
Mo              -0.0143095913        3.6260444030        9.1696171343
S               -1.5751898314        4.5486572039        7.5938884698
S                0.0005926851        3.6393455853        4.6239646272
S                0.0001571004        3.6387666831        1.4884675348
S               -1.5839708638        4.5435917333       10.7339848862
Mo              -3.1512226931        7.2774749019       -9.1672481230    0   0   0
Mo              -1.5755910988        6.3678216792       -3.0555115988    0   0   0
S               -3.1512162438        7.2774954350       -4.6232578178    0   0   0
S               -1.5756025210        6.3677884239       -7.6014065489    0   0   0
S               -1.5756020673        6.3677895528      -10.7330757790    0   0   0
S               -3.1512127704        7.2774877076       -1.4877200710    0   0   0
Mo              -3.1510041730        7.2775401971        3.0564451266
Mo              -1.5937551028        6.3617288544        9.1696123679
S               -3.1465222387        7.2756333997        7.5796796520
S               -1.5747771517        6.3679739158        4.6239619974
S               -1.5754959627        6.3678865590        1.4884684481
S               -3.1769557749        7.2690330701       10.7289939035
Mo              -4.7268400355       10.0065304219       -9.1672481230    0   0   0
Mo              -3.1512405618        9.0968403586       -3.0554816746    0   0   0
S               -4.7268341792       10.0065523623       -4.6232463762    0   0   0
S               -3.1512198634        9.0968439439       -7.6014065489    0   0   0
S               -3.1512194097        9.0968450728      -10.7330757790    0   0   0
S               -4.7268370797       10.0065537885       -1.4877176751    0   0   0
Mo              -4.7266010884       10.0066582386        3.0564785132
Mo              -3.1627875834        9.0858471473        9.1586192506
S               -4.7311319752       10.0040542470        7.5824697643
S               -3.1505300649        9.0971415611        4.6241613137
S               -3.1511433063        9.0968744663        1.4886299769
S               -4.7324953839       10.0032636606       10.7235257516
Mo               3.1512517547        1.8193638619       -9.1672481230    0   0   0
Mo               4.7269020221        0.9097289540       -3.0554823951    0   0   0
S                3.1512612351        1.8193882564       -4.6232320683    0   0   0
S                4.7268719268        0.9096773839       -7.6014065489    0   0   0
S                4.7268723805        0.9096785128      -10.7330757790    0   0   0
S                3.1512592485        1.8193890201       -1.4877261251    0   0   0
Mo               3.1514549901        1.8195357963        3.0562204920
Mo               4.7264169445        0.9094138686        9.2141816229
S                3.1711374999        1.8109148071        7.6294362571
S                4.7271505232        0.9098320733        4.6237972056
S                4.7268078009        0.9096352144        1.4881563978
S                3.0632275097        1.8509077889       10.7798427043
Mo               1.5756344123        4.5484193819       -9.1672481230    0   0   0
Mo               3.1512756394        3.6387769522       -3.0554814834    0   0   0
S                1.5756504879        4.5484423799       -4.6232390542    0   0   0
S                3.1512545844        3.6387329039       -7.6014065489    0   0   0
S                3.1512550381        3.6387340328      -10.7330757790    0   0   0
S                1.5756466253        4.5484431864       -1.4877251801    0   0   0
Mo               1.5758647864        4.5487262279        3.0561530112
Mo               3.1548821477        3.6374737387        9.1788522285
S                1.5744137932        4.5769089482        7.6431059931
S                3.1507091950        3.6386182321        4.6250913282
S                3.1514732447        3.6388706873        1.4886762146
S                1.5643619273        4.4089325044       10.8112467329
Mo               0.0000170699        7.2774749019       -9.1672481230    0   0   0
Mo               1.5756764447        6.3678236689       -3.0554877708    0   0   0
S                0.0000381981        7.2774979204       -4.6232454413    0   0   0
S                1.5756372420        6.3677884239       -7.6014065489    0   0   0
S                1.5756376957        6.3677895528      -10.7330757790    0   0   0
S                0.0000328088        7.2774946042       -1.4877307940    0   0   0
Mo               0.0004055859        7.2775100279        3.0561522159
Mo               1.5745485579        6.3671585498        9.2246181903
S                0.0240847126        7.2621661277        7.6431030080
S                1.5759799446        6.3679800766        4.6241900522
S                1.5755922024        6.3677566327        1.4879925171
S               -0.1264168581        7.3374530466       10.8112402243
Mo              -1.5756002725       10.0065304219       -9.1672481230    0   0   0
Mo               0.0000873425        9.0968676911       -3.0554912329    0   0   0
S               -1.5755883952       10.0065504530       -4.6232240150    0   0   0
S                0.0000198996        9.0968439439       -7.6014065489    0   0   0
S                0.0000203533        9.0968450728      -10.7330757790    0   0   0
S               -1.5755859047       10.0065492576       -1.4877362381    0   0   0
Mo              -1.5753436595       10.0066089038        3.0562191353
Mo               0.0007440484        9.1006141137        9.1788445977
S               -1.5729742497       10.0279754438        7.6294318995
S               -0.0003473636        9.0964195609        4.6250899559
S                0.0002540527        9.0969554193        1.4886758648
S               -1.5922923754        9.9145143314       10.7798344706
Mo               6.3024915177        1.8193638619       -9.1672481230    0   0   0
Mo               7.8781001445        0.9096521684       -3.0554919963    0   0   0
S                6.3025008696        1.8193826232       -4.6232480596    0   0   0
S                7.8781116898        0.9096773839       -7.6014065489    0   0   0
S                7.8781121435        0.9096785128      -10.7330757790    0   0   0
S                6.3025042007        1.8193849068       -1.4877147524    0   0   0
Mo               6.3023762842        1.8192915941        3.0558471670
Mo               7.8932184702        0.9098801994        9.1687758418
S                6.2866916869        1.8102440365        7.6338521864
S                7.8774916780        0.9099159473        4.6243260778
S                7.8780749825        0.9092579449        1.4885667286
S                6.3981757700        1.8746086113       10.7812656209
Mo               4.7268741753        4.5484193819       -9.1672481230    0   0   0
Mo               6.3024679138        3.6387501714       -3.0554895197    0   0   0
S                4.7268748770        4.5484386753       -4.6232519432    0   0   0
S                6.3024943474        3.6387329039       -7.6014065489    0   0   0
S                6.3024948011        3.6387340328      -10.7330757790    0   0   0
S                4.7268770533        4.5484432419       -1.4877137856    0   0   0
Mo               4.7266199046        4.5482679735        3.0570367121
Mo               6.3102190784        3.6517197396        9.1687768001
S                4.7241771068        4.5520616016        7.5994519020
S                6.3023957491        3.6380674988        4.6243295534
S                6.3021164403        3.6389025059        1.4885613662
S                4.7321755800        4.5481017498       10.7379119250
Mo               3.1512568329        7.2774749019       -9.1672481230    0   0   0
Mo               4.7268384135        6.3678043337       -3.0554959052    0   0   0
S                3.1512606125        7.2774972547       -4.6232589675    0   0   0
S                4.7268770050        6.3677884239       -7.6014065489    0   0   0
S                4.7268774587        6.3677895528      -10.7330757790    0   0   0
S                3.1512629079        7.2774963749       -1.4877081835    0   0   0
Mo               3.1510048179        7.2773212180        3.0557126206
Mo               4.7439527113        6.3658990721        9.1757900205
S                3.1285929754        7.2643896976        7.6491810907
S                4.7260687976        6.3680617594        4.6241325383
S                4.7268203320        6.3673125059        1.4884625612
S                3.2860611959        7.3553071398       10.8156195839
Mo               1.5756394905       10.0065304219       -9.1672481230    0   0   0
Mo               3.1512330605        9.0968514907       -3.0554878870    0   0   0
S                1.5756499830       10.0065443759       -4.6232632674    0   0   0
S                3.1512596626        9.0968439439       -7.6014065489    0   0   0
S                3.1512601163        9.0968450728      -10.7330757790    0   0   0
S                1.5756503041       10.0065459699       -1.4877044377    0   0   0
Mo               1.5753879082       10.0063736376        3.0570367766
Mo               3.1581585956        9.1125818289        9.1757876982
S                1.5774452275       10.0023772060        7.5994487952
S                3.1510980734        9.0959979214        4.6241329621
S                3.1508246743        9.0970232705        1.4884629438
S                1.5780121811       10.0112818805       10.7379077880
Mo               9.4537312807        1.8193638619       -9.1672481230    0   0   0
Mo              11.0293863460        0.9096952246       -3.0554894007    0   0   0
S                9.4537395970        1.8193770750       -4.6232328036    0   0   0
S               11.0293514528        0.9096773839       -7.6014065489    0   0   0
S               11.0293519066        0.9096785128      -10.7330757790    0   0   0
S                9.4537393632        1.8193794783       -1.4877366147    0   0   0
Mo               9.4535089267        1.8192416863        3.0561360299
Mo              11.0305559294        0.9102133367        9.1455286402
S                9.4497998590        1.8212436269        7.5832882805
S               11.0291196454        0.9094598050        4.6235955678
S               11.0294146813        0.9097148009        1.4885192687
S                9.4709757325        1.8205066786       10.7269931722
Mo               7.8781139383        4.5484193819       -9.1672481230    0   0   0
Mo               9.4537539161        3.6387607911       -3.0554933032    0   0   0
S                7.8781175448        4.5484378232       -4.6232366318    0   0   0
S                9.4537341104        3.6387329039       -7.6014065489    0   0   0
S                9.4537345641        3.6387340328      -10.7330757790    0   0   0
S                7.8781194018        4.5484411585       -1.4877377057    0   0   0
Mo               7.8779020948        4.5482759564        3.0561355744
Mo               9.4528715277        3.6382384833        9.1588225982
S                7.8777709866        4.5440756815        7.5832882777
S                9.4538060318        3.6387694651        4.6233128247
S                9.4537855354        3.6387571185        1.4884078286
S                7.8877230025        4.5627864567       10.7269918924
Mo               6.3024965959        7.2774749019       -9.1672481230    0   0   0
Mo               7.8781361655        6.3678242352       -3.0555014130    0   0   0
S                6.3024973331        7.2774953556       -4.6232392528    0   0   0
S                7.8781167680        6.3677884239       -7.6014065489    0   0   0
S                7.8781172217        6.3677895528      -10.7330757790    0   0   0
S                6.3024989866        7.2774929744       -1.4877349119    0   0   0
Mo               6.3021991187        7.2773454001        3.0560532012
Mo               7.8791785618        6.3685692140        9.1455269582
S                6.2948111141        7.2765308291        7.5848112969
S                7.8778190619        6.3676881504        4.6235931010
S                7.8781859754        6.3678171027        1.4885206246
S                6.3253902688        7.2811559150       10.7278043376
Mo               4.7268792535       10.0065304219       -9.1672481230    0   0   0
Mo               6.3025111524        9.0968738021       -3.0554915260    0   0   0
S                4.7268840634       10.0065452125       -4.6232380477    0   0   0
S                6.3024994256        9.0968439439       -7.6014065489    0   0   0
S                6.3024998793        9.0968450728      -10.7330757790    0   0   0
S                4.7268847312       10.0065459141       -1.4877283294    0   0   0
Mo               4.7266256664       10.0063273562        3.0560530625
Mo               6.3015450096        9.0962970496        9.1548631865
S                4.7222176942       10.0003526641        7.5848117384
S                6.3022880900        9.0967158674        4.6233197594
S                6.3026375122        9.0969176484        1.4884497778
S                4.7415110654       10.0245204727       10.7278038789
Pt               1.5870581821        6.3743823459       11.9801470814
Pd               4.7373622538        0.9157200242       12.1061663926
End final coordinates



     Writing all to output data dir ./outdir/pwscf.save/ :
     XML data file, charge density, pseudopotentials, collected wavefunctions
 
     init_run     :    173.50s CPU    177.09s WALL (       1 calls)
     electrons    : 118507.73s CPU 119992.01s WALL (      16 calls)
     update_pot   :     25.28s CPU     26.07s WALL (      15 calls)
     forces       :   2034.89s CPU   2070.41s WALL (      16 calls)
     force_dftd3  :     10.67s CPU     11.10s WALL (      16 calls)

     Called by init_run:
     wfcinit      :    149.85s CPU    152.02s WALL (       1 calls)
     potinit      :      1.28s CPU      1.38s WALL (       1 calls)
     hinit0       :     12.74s CPU     12.82s WALL (       1 calls)

     Called by electrons:
     c_bands      : 104908.12s CPU 105904.58s WALL (     193 calls)
     sum_band     :  12151.24s CPU  12404.19s WALL (     193 calls)
     v_of_rho     :     69.53s CPU     78.14s WALL (     196 calls)
     newd         :   1228.90s CPU   1460.68s WALL (     196 calls)
     PAW_pot      :    180.62s CPU    182.59s WALL (     211 calls)
     mix_rho      :     18.20s CPU     20.86s WALL (     193 calls)
     energy_dftd3 :      6.14s CPU      6.15s WALL (      16 calls)

     Called by c_bands:
     init_us_2    :    418.01s CPU    420.07s WALL (    1672 calls)
     init_us_2:cp :    418.00s CPU    420.06s WALL (    1672 calls)
     cegterg      : 103117.42s CPU 104102.63s WALL (     790 calls)

     Called by *egterg:
     cdiaghg      :   5875.69s CPU   6088.76s WALL (    9327 calls)
     h_psi        :  52543.61s CPU  52875.60s WALL (    9446 calls)
     s_psi        :  12227.82s CPU  12302.21s WALL (    9446 calls)
     g_psi        :     95.84s CPU     96.31s WALL (    8652 calls)

     Called by h_psi:
     h_psi:calbec :  11716.44s CPU  11756.29s WALL (    9446 calls)
     vloc_psi     :  28324.05s CPU  28467.30s WALL (    9446 calls)
     add_vuspsi   :  12284.83s CPU  12362.22s WALL (    9446 calls)

     General routines
     calbec       :  16833.64s CPU  16889.75s WALL (   10534 calls)
     fft          :     50.49s CPU     58.05s WALL (    2720 calls)
     ffts         :      3.52s CPU      3.69s WALL (     389 calls)
     fftw         :  21386.65s CPU  21492.70s WALL ( 5608920 calls)
     interpolate  :      6.10s CPU      6.67s WALL (     196 calls)
 
     Parallel routines
 
     PWSCF        :   1d 9h42m CPU   1d10h 9m WALL

 
   This run was terminated on:   4:26: 3  14Mar2024            

=------------------------------------------------------------------------------=
   JOB DONE.
=------------------------------------------------------------------------------=
