
     Program PWSCF v.7.2 starts on  7Mar2024 at 22:23:54 

     This program is part of the open-source Quantum ESPRESSO suite
     for quantum simulation of materials; please cite
         "P. Giannozzi et al., J. Phys.:Condens. Matter 21 395502 (2009);
         "P. Giannozzi et al., J. Phys.:Condens. Matter 29 465901 (2017);
         "P. Giannozzi et al., J. Chem. Phys. 152 154105 (2020);
          URL http://www.quantum-espresso.org", 
     in publications or presentations arising from this work. More details at
     http://www.quantum-espresso.org/quote

     Parallel version (MPI), running on    48 processors

     MPI processes distributed on     1 nodes
     972862 MiB available memory on the printing compute node when the environment starts
 
     Waiting for input...
     Reading input from standard input
Warning: card &CELL ignored
Warning: card / ignored

     Current dimensions of program PWSCF are:
     Max number of different atomic species (ntypx) = 10
     Max number of k-points (npk) =  40000
     Max angular momentum in pseudopotentials (lmaxx) =  4
     file O.pbe-n-kjpaw_psl.1.0.0.UPF: wavefunction(s)  2S 2P renormalized
     file N.pbe-n-kjpaw_psl.1.0.0.UPF: wavefunction(s)  2S renormalized
     file C.pbe-n-kjpaw_psl.1.0.0.UPF: wavefunction(s)  2S 2P renormalized
     file H.pbe-kjpaw_psl.1.0.0.UPF: wavefunction(s)  1S renormalized
 
     R & G space division:  proc/nbgrp/npool/nimage =      48
     Subspace diagonalization in iterative solution of the eigenvalue problem:
     one sub-group per band group will be used
     ELPA distributed-memory algorithm (size of sub-group:  2*  2 procs)

 
     Parallelization info
     --------------------
     sticks:   dense  smooth     PW     G-vecs:    dense   smooth      PW
     Min         143      51     15                16584     3575     558
     Max         144      52     16                16591     3583     567
     Sum        6873    2451    723               796237   171761   27053
 
     Using Slab Decomposition
 


     bravais-lattice index     =            0
     lattice parameter (alat)  =       7.3208  a.u.
     unit-cell volume          =    5892.5686 (a.u.)^3
     number of atoms/cell      =           92
     number of atomic types    =            4
     number of electrons       =       304.00
     number of Kohn-Sham states=          182
     kinetic-energy cutoff     =      36.0000  Ry
     charge density cutoff     =     400.0000  Ry
     scf convergence threshold =      1.0E-06
     mixing beta               =       0.2000
     number of iterations used =            8  plain     mixing
     energy convergence thresh.=      1.0E-04
     force convergence thresh. =      1.0E-03
     Exchange-correlation= SLA  PW   PBX  PBC
                           (   1   4   3   4   0   0   0)
     nstep                     =         9999


     celldm(1)=   7.320799  celldm(2)=   0.000000  celldm(3)=   0.000000
     celldm(4)=   0.000000  celldm(5)=   0.000000  celldm(6)=   0.000000

     crystal axes: (cart. coord. in units of alat)
               a(1) = (   1.000000   0.000000   0.000000 )  
               a(2) = (   0.000000   4.021683   0.000000 )  
               a(3) = (  -0.501593   0.000000   3.734404 )  

     reciprocal axes: (cart. coord. in units 2 pi/alat)
               b(1) = (  1.000000  0.000000  0.134317 )  
               b(2) = (  0.000000  0.248652  0.000000 )  
               b(3) = (  0.000000  0.000000  0.267780 )  


     PseudoPot. # 1 for O  read from file:
     ./pseudo/O.pbe-n-kjpaw_psl.1.0.0.UPF
     MD5 check sum: 54880130194cacfd11baed2e72b13d2a
     Pseudo is Projector augmented-wave + core cor, Zval =  6.0
     Generated using 'atomic' code by A. Dal Corso  v.7.2
     Shape of augmentation charge: PSQ
     Using radial grid of 1095 points,  4 beta functions with: 
                l(1) =   0
                l(2) =   0
                l(3) =   1
                l(4) =   1
     Q(r) pseudized with 0 coefficients 


     PseudoPot. # 2 for N  read from file:
     ./pseudo/N.pbe-n-kjpaw_psl.1.0.0.UPF
     MD5 check sum: 6654930a71f78718b13e91073ae2a058
     Pseudo is Projector augmented-wave + core cor, Zval =  5.0
     Generated using 'atomic' code by A. Dal Corso  v.7.2
     Shape of augmentation charge: PSQ
     Using radial grid of 1085 points,  4 beta functions with: 
                l(1) =   0
                l(2) =   0
                l(3) =   1
                l(4) =   1
     Q(r) pseudized with 0 coefficients 


     PseudoPot. # 3 for C  read from file:
     ./pseudo/C.pbe-n-kjpaw_psl.1.0.0.UPF
     MD5 check sum: 6b0792899573946bb42fe395835041da
     Pseudo is Projector augmented-wave + core cor, Zval =  4.0
     Generated using 'atomic' code by A. Dal Corso  v.7.2
     Shape of augmentation charge: PSQ
     Using radial grid of 1073 points,  4 beta functions with: 
                l(1) =   0
                l(2) =   0
                l(3) =   1
                l(4) =   1
     Q(r) pseudized with 0 coefficients 


     PseudoPot. # 4 for H  read from file:
     ./pseudo/H.pbe-kjpaw_psl.1.0.0.UPF
     MD5 check sum: b3cb3c48ee3b58cc53e4d592112d0ca6
     Pseudo is Projector augmented-wave, Zval =  1.0
     Generated using 'atomic' code by A. Dal Corso  v.7.2
     Shape of augmentation charge: PSQ
     Using radial grid of  929 points,  2 beta functions with: 
                l(1) =   0
                l(2) =   0
     Q(r) pseudized with 0 coefficients 


     atomic species   valence    mass     pseudopotential
        O              6.00    15.99900     O ( 1.00)
        N              5.00    14.00700     N ( 1.00)
        C              4.00    12.01100     C ( 1.00)
        H              1.00     1.00800     H ( 1.00)

     No symmetry found



   Cartesian axes

     site n.     atom                  positions (alat units)
         1           O   tau(   1) = (   0.3825108   1.2125374   0.7950547  )
         2           O   tau(   2) = (   0.3666926   3.2233789   1.0721475  )
         3           O   tau(   3) = (   0.1158960   2.8091456   2.9393498  )
         4           O   tau(   4) = (   0.1317142   0.7983041   2.6622570  )
         5           O   tau(   5) = (   0.3962391   1.5612173   3.5413358  )
         6           O   tau(   6) = (  -0.1486290   3.5720589   2.0602710  )
         7           O   tau(   7) = (   0.1021676   2.4604657   0.1930687  )
         8           O   tau(   8) = (   0.6470358   0.4496242   1.6741335  )
         9           N   tau(   9) = (   0.6622655   1.3886871   0.3151837  )
        10           N   tau(  10) = (   0.0869379   3.3995287   1.5520185  )
        11           N   tau(  11) = (  -0.1638588   2.6329959   3.4192208  )
        12           N   tau(  12) = (   0.4114689   0.6221544   2.1823860  )
        13           C   tau(  13) = (   0.8300655   0.0836510   0.3151837  )
        14           C   tau(  14) = (  -0.0808621   2.0944925   1.5520185  )
        15           C   tau(  15) = (  -0.3316588   3.9380320   3.4192208  )
        16           C   tau(  16) = (   0.5792689   1.9271905   2.1823860  )
        17           C   tau(  17) = (   0.9151665   0.3486799   0.0784225  )
        18           C   tau(  18) = (  -0.1659632   2.3595214   1.7887798  )
        19           C   tau(  19) = (  -0.4167598   3.6730031   3.6559820  )
        20           C   tau(  20) = (   0.6643699   1.6621616   1.9456247  )
        21           C   tau(  21) = (  -0.4109916   0.2758875   3.4961495  )
        22           C   tau(  22) = (   0.6586017   2.2867290   2.1054573  )
        23           C   tau(  23) = (   0.9093984   3.7457956   0.2382550  )
        24           C   tau(  24) = (  -0.1601950   1.7349541   1.6289472  )
        25           C   tau(  25) = (  -0.3409985   0.5437315   3.2780603  )
        26           C   tau(  26) = (   0.5886087   2.5545731   2.3235465  )
        27           C   tau(  27) = (   0.8394053   3.4779515   0.4563442  )
        28           C   tau(  28) = (  -0.0902019   1.4671100   1.4108580  )
        29           C   tau(  29) = (  -0.4189314   0.8875854   3.3549890  )
        30           C   tau(  30) = (   0.6665415   2.8984269   2.2466177  )
        31           C   tau(  31) = (   0.9173381   3.1340976   0.3794155  )
        32           C   tau(  32) = (  -0.1681347   1.1232561   1.4877868  )
        33           C   tau(  33) = (   0.4156396   0.9607801   3.6574758  )
        34           C   tau(  34) = (  -0.1680294   2.9716216   1.9441310  )
        35           C   tau(  35) = (   0.0827672   3.0609029   0.0769287  )
        36           C   tau(  36) = (   0.6664362   1.0500614   1.7902735  )
        37           C   tau(  37) = (   0.8287813   0.6921316   0.1609528  )
        38           C   tau(  38) = (  -0.0795779   2.7029732   1.7062494  )
        39           C   tau(  39) = (  -0.3303746   3.3295514   3.5734517  )
        40           C   tau(  40) = (   0.5779847   1.3187099   2.0281551  )
        41           C   tau(  41) = (   0.6557996   0.7790000   0.4697881  )
        42           C   tau(  42) = (   0.0934038   2.7898415   1.3974142  )
        43           C   tau(  43) = (  -0.1573928   3.2426830   3.2646164  )
        44           C   tau(  44) = (   0.4050030   1.2318415   2.3369903  )
        45           C   tau(  45) = (   0.5714532   0.5220145   0.6957196  )
        46           C   tau(  46) = (   0.1777502   2.5328560   1.1714827  )
        47           C   tau(  47) = (  -0.0730464   3.4996686   3.0386849  )
        48           C   tau(  48) = (   0.3206566   1.4888271   2.5629218  )
        49           C   tau(  49) = (   0.6638352   0.1825844   0.6206580  )
        50           C   tau(  50) = (   0.0853682   2.1934259   1.2465442  )
        51           C   tau(  51) = (  -0.1654284   3.8390986   3.1137465  )
        52           C   tau(  52) = (   0.4130386   1.8282571   2.4878603  )
        53           C   tau(  53) = (   0.5554677   1.1365276   0.5444762  )
        54           C   tau(  54) = (   0.1937357   3.1473691   1.3227261  )
        55           C   tau(  55) = (  -0.0570609   2.8851554   3.1899283  )
        56           C   tau(  56) = (   0.3046711   0.8743139   2.4116784  )
        57           C   tau(  57) = (   0.3280569   1.3215250   3.7340311  )
        58           C   tau(  58) = (  -0.0804468   3.3323665   1.8675757  )
        59           C   tau(  59) = (   0.1703498   2.7001580   0.0003734  )
        60           C   tau(  60) = (   0.5788535   0.6893165   1.8668288  )
        61           C   tau(  61) = (   0.5780279   1.7586820   0.4033157  )
        62           C   tau(  62) = (   0.1711755   3.7695235   1.4638866  )
        63           C   tau(  63) = (  -0.0796212   2.2630010   3.3310888  )
        64           C   tau(  64) = (   0.3272313   0.2521595   2.2705179  )
        65           H   tau(  65) = (  -0.2321560   0.4938627   3.0610914  )
        66           H   tau(  66) = (   0.4797661   2.5047042   2.5405154  )
        67           H   tau(  67) = (   0.7305627   3.5278203   0.6733131  )
        68           H   tau(  68) = (   0.0186406   1.5169788   1.1938891  )
        69           H   tau(  69) = (  -0.3564146   1.0697677   3.1985174  )
        70           H   tau(  70) = (   0.6040248   3.0806092   2.4030893  )
        71           H   tau(  71) = (   0.8548214   2.9519153   0.5358870  )
        72           H   tau(  72) = (  -0.1056180   0.9410738   1.3313152  )
        73           H   tau(  73) = (   0.4494640   0.5751007   0.9048462  )
        74           H   tau(  74) = (   0.2997394   2.5859422   0.9623560  )
        75           H   tau(  75) = (   0.0489428   3.4465823   2.8295583  )
        76           H   tau(  76) = (   0.1986673   1.4357408   2.7720485  )
        77           H   tau(  77) = (   0.6117638   0.0072390   0.7879593  )
        78           H   tau(  78) = (   0.1374396   2.0180805   1.0792429  )
        79           H   tau(  79) = (  -0.1133571   4.0144440   2.9464451  )
        80           H   tau(  80) = (   0.3609672   2.0036025   2.6551616  )
        81           H   tau(  81) = (   0.3609617   1.8479633   0.3241463  )
        82           H   tau(  82) = (   0.3882417   3.8588049   1.5430559  )
        83           H   tau(  83) = (   0.1374451   2.1737197   3.4102582  )
        84           H   tau(  84) = (   0.1101651   0.1628782   2.1913486  )
        85           H   tau(  85) = (   0.7623326   1.8636479   0.2752256  )
        86           H   tau(  86) = (  -0.0131292   3.8744894   1.5919766  )
        87           H   tau(  87) = (  -0.2639258   2.1580351   3.4591789  )
        88           H   tau(  88) = (   0.5115360   0.1471936   2.1424279  )
        89           H   tau(  89) = (   0.6053752   1.8097574   0.6441848  )
        90           H   tau(  90) = (   0.1438282   3.8205989   1.2230175  )
        91           H   tau(  91) = (  -0.1069684   2.2119257   3.0902197  )
        92           H   tau(  92) = (   0.3545786   0.2010842   2.5113870  )

     --------------------------------------------
     DFT-D3 Dispersion Correction (3-body terms):
     --------------------------------------------
       Reference C6 values for interpolation: 

         atom   Coordination number   C6
         H          0.912             6.05
         H          0.000            15.18
         C          0.000            98.23
         C          0.987            86.49
         C          1.998            58.72
         C          2.999            51.56
         C          3.984            36.41
         N          0.000            50.54
         N          0.994            44.25
         N          2.014            39.35
         N          2.990            31.16
         O          0.000            31.01
         O          0.993            25.63
         O          1.989            20.74

       Values used:

         atom   Coordination number  R0_AB[au]  C6      C8
         O          1.089            2.345     25.47    514.05
         O          1.089            2.345     25.47    514.05
         O          1.089            2.345     25.47    514.05
         O          1.089            2.345     25.47    514.05
         O          1.080            2.345     25.49    514.38
         O          1.080            2.345     25.49    514.38
         O          1.080            2.345     25.49    514.38
         O          1.080            2.345     25.49    514.38
         N          3.166            2.478     31.21    688.43
         N          3.166            2.478     31.21    688.43
         N          3.166            2.478     31.21    688.43
         N          3.166            2.478     31.21    688.43
         C          3.269            2.750     49.11   1420.49
         C          3.269            2.750     49.11   1420.49
         C          3.269            2.750     49.11   1420.49
         C          3.269            2.750     49.11   1420.49
         C          3.352            2.750     47.46   1372.50
         C          3.352            2.750     47.46   1372.50
         C          3.352            2.750     47.46   1372.50
         C          3.352            2.750     47.46   1372.50
         C          3.264            2.750     49.19   1422.71
         C          3.264            2.750     49.19   1422.71
         C          3.264            2.750     49.19   1422.71
         C          3.264            2.750     49.19   1422.71
         C          3.218            2.750     49.84   1441.55
         C          3.218            2.750     49.84   1441.55
         C          3.218            2.750     49.84   1441.55
         C          3.218            2.750     49.84   1441.55
         C          3.201            2.750     50.05   1447.54
         C          3.201            2.750     50.05   1447.54
         C          3.201            2.750     50.05   1447.54
         C          3.201            2.750     50.05   1447.54
         C          3.273            2.750     49.05   1418.50
         C          3.273            2.750     49.05   1418.50
         C          3.273            2.750     49.05   1418.50
         C          3.273            2.750     49.05   1418.50
         C          3.345            2.750     47.62   1377.13
         C          3.345            2.750     47.62   1377.13
         C          3.345            2.750     47.62   1377.13
         C          3.345            2.750     47.62   1377.13
         C          3.272            2.750     49.07   1419.07
         C          3.272            2.750     49.07   1419.07
         C          3.272            2.750     49.07   1419.07
         C          3.272            2.750     49.07   1419.07
         C          3.201            2.750     50.05   1447.48
         C          3.201            2.750     50.05   1447.48
         C          3.201            2.750     50.05   1447.48
         C          3.201            2.750     50.05   1447.48
         C          3.214            2.750     49.89   1442.99
         C          3.214            2.750     49.89   1442.99
         C          3.214            2.750     49.89   1442.99
         C          3.214            2.750     49.89   1442.99
         C          3.199            2.750     50.07   1448.17
         C          3.199            2.750     50.07   1448.17
         C          3.199            2.750     50.07   1448.17
         C          3.199            2.750     50.07   1448.17
         C          3.194            2.750     50.12   1449.66
         C          3.194            2.750     50.12   1449.66
         C          3.194            2.750     50.12   1449.66
         C          3.194            2.750     50.12   1449.66
         C          4.098            2.750     36.52   1056.34
         C          4.098            2.750     36.52   1056.34
         C          4.098            2.750     36.52   1056.34
         C          4.098            2.750     36.52   1056.34
         H          1.023            2.062      6.16     74.48
         H          1.023            2.062      6.16     74.48
         H          1.023            2.062      6.16     74.48
         H          1.023            2.062      6.16     74.48
         H          1.020            2.062      6.16     74.51
         H          1.020            2.062      6.16     74.51
         H          1.020            2.062      6.16     74.51
         H          1.020            2.062      6.16     74.51
         H          1.020            2.062      6.16     74.51
         H          1.020            2.062      6.16     74.51
         H          1.020            2.062      6.16     74.51
         H          1.020            2.062      6.16     74.51
         H          1.021            2.062      6.16     74.50
         H          1.021            2.062      6.16     74.50
         H          1.021            2.062      6.16     74.50
         H          1.021            2.062      6.16     74.50
         H          1.009            2.062      6.17     74.63
         H          1.009            2.062      6.17     74.63
         H          1.009            2.062      6.17     74.63
         H          1.009            2.062      6.17     74.63
         H          1.020            2.062      6.16     74.51
         H          1.020            2.062      6.16     74.51
         H          1.020            2.062      6.16     74.51
         H          1.020            2.062      6.16     74.51
         H          1.010            2.062      6.17     74.62
         H          1.010            2.062      6.17     74.62
         H          1.010            2.062      6.17     74.62
         H          1.010            2.062      6.17     74.62

         Molecular C6 ( Ry / a.u.^6 ) =    242406.14


     number of k points=     8  Gaussian smearing, width (Ry)=  0.0100
                       cart. coord. in units 2pi/alat
        k(    1) = (   0.0000000   0.0000000   0.0000000), wk =   0.2500000
        k(    2) = (   0.0000000   0.0000000  -0.1338902), wk =   0.2500000
        k(    3) = (   0.0000000  -0.1243261   0.0000000), wk =   0.2500000
        k(    4) = (   0.0000000  -0.1243261  -0.1338902), wk =   0.2500000
        k(    5) = (  -0.5000000   0.0000000  -0.0671584), wk =   0.2500000
        k(    6) = (  -0.5000000   0.0000000  -0.2010486), wk =   0.2500000
        k(    7) = (  -0.5000000  -0.1243261  -0.0671584), wk =   0.2500000
        k(    8) = (  -0.5000000  -0.1243261  -0.2010486), wk =   0.2500000

     Dense  grid:   796237 G-vectors     FFT dimensions: (  48, 192, 180)

     Smooth grid:   171761 G-vectors     FFT dimensions: (  27, 120, 108)

     Estimated max dynamical RAM per process >      77.77 MB

     Estimated total dynamical RAM >       3.65 GB

     Check: negative core charge=   -0.000005

     Initial potential from superposition of free atoms

     starting charge     303.9975, renormalised to     304.0000
     Starting wfcs are  284 randomized atomic wfcs
     Checking if some PAW data can be deallocated... 

     total cpu time spent up to now is        4.2 secs

     Self-consistent Calculation

     iteration #  1     ecut=    36.00 Ry     beta= 0.20
     Davidson diagonalization with overlap
     ethr =  1.00E-02,  avg # of iterations =  2.0

     total cpu time spent up to now is        8.6 secs

     total energy              =   -1438.82649134 Ry
     estimated scf accuracy    <      11.19261741 Ry

     iteration #  2     ecut=    36.00 Ry     beta= 0.20
     Davidson diagonalization with overlap
     ethr =  3.68E-03,  avg # of iterations =  2.0

     total cpu time spent up to now is       11.3 secs

     total energy              =   -1436.76294722 Ry
     estimated scf accuracy    <       5.15606081 Ry

     iteration #  3     ecut=    36.00 Ry     beta= 0.20
     Davidson diagonalization with overlap
     ethr =  1.70E-03,  avg # of iterations =  5.5

     total cpu time spent up to now is       15.6 secs

     total energy              =   -1437.35474649 Ry
     estimated scf accuracy    <       0.58387628 Ry

     iteration #  4     ecut=    36.00 Ry     beta= 0.20
     Davidson diagonalization with overlap
     c_bands:  1 eigenvalues not converged
     ethr =  1.92E-04,  avg # of iterations = 15.0

     total cpu time spent up to now is       21.2 secs

     total energy              =   -1437.36313874 Ry
     estimated scf accuracy    <       0.16702246 Ry

     iteration #  5     ecut=    36.00 Ry     beta= 0.20
     Davidson diagonalization with overlap
     ethr =  5.49E-05,  avg # of iterations =  6.9

     total cpu time spent up to now is       25.6 secs

     total energy              =   -1437.38281319 Ry
     estimated scf accuracy    <       0.02233961 Ry

     iteration #  6     ecut=    36.00 Ry     beta= 0.20
     Davidson diagonalization with overlap
     ethr =  7.35E-06,  avg # of iterations =  7.6

     total cpu time spent up to now is       30.2 secs

     total energy              =   -1437.38501485 Ry
     estimated scf accuracy    <       0.00680241 Ry

     iteration #  7     ecut=    36.00 Ry     beta= 0.20
     Davidson diagonalization with overlap
     ethr =  2.24E-06,  avg # of iterations =  6.1

     total cpu time spent up to now is       34.6 secs

     total energy              =   -1437.38578249 Ry
     estimated scf accuracy    <       0.00195582 Ry

     iteration #  8     ecut=    36.00 Ry     beta= 0.20
     Davidson diagonalization with overlap
     ethr =  6.43E-07,  avg # of iterations =  2.0

     total cpu time spent up to now is       37.5 secs

     total energy              =   -1437.38604117 Ry
     estimated scf accuracy    <       0.00034673 Ry

     iteration #  9     ecut=    36.00 Ry     beta= 0.20
     Davidson diagonalization with overlap
     ethr =  1.14E-07,  avg # of iterations =  4.0

     total cpu time spent up to now is       41.3 secs

     total energy              =   -1437.38611852 Ry
     estimated scf accuracy    <       0.00013602 Ry

     iteration # 10     ecut=    36.00 Ry     beta= 0.20
     Davidson diagonalization with overlap
     ethr =  4.47E-08,  avg # of iterations =  4.0

     total cpu time spent up to now is       44.6 secs

     total energy              =   -1437.38617537 Ry
     estimated scf accuracy    <       0.00001811 Ry

     iteration # 11     ecut=    36.00 Ry     beta= 0.20
     Davidson diagonalization with overlap
     ethr =  5.96E-09,  avg # of iterations =  4.5

     total cpu time spent up to now is       48.2 secs

     total energy              =   -1437.38619431 Ry
     estimated scf accuracy    <       0.00001017 Ry

     iteration # 12     ecut=    36.00 Ry     beta= 0.20
     Davidson diagonalization with overlap
     ethr =  3.35E-09,  avg # of iterations =  4.0

     total cpu time spent up to now is       51.4 secs

     End of self-consistent calculation

          k = 0.0000 0.0000 0.0000 ( 21423 PWs)   bands (ev):

   -19.3705 -19.3675 -19.3643 -19.3613 -18.8712 -18.8673 -18.8671 -18.8632
   -16.0428 -16.0378 -16.0375 -16.0350 -15.5509 -15.5473 -14.9149 -14.9095
   -14.0873 -14.0829 -13.5676 -13.5637 -13.5420 -13.5357 -12.2599 -12.2587
   -12.0671 -12.0521 -11.8632 -11.8245 -11.4972 -11.4845 -11.1880 -11.1496
   -10.8389 -10.8071 -10.7080 -10.6923  -9.7301  -9.6467  -9.1368  -9.1244
    -9.0543  -8.9757  -8.9166  -8.8832  -8.5320  -8.4841  -8.1524  -8.0813
    -8.0353  -7.9891  -7.6281  -7.6209  -6.9829  -6.9494  -6.4108  -6.3464
    -6.3362  -6.3210  -6.0096  -5.9479  -5.6076  -5.5245  -5.4715  -5.4427
    -5.2572  -5.1414  -4.7759  -4.6698  -4.5350  -4.4024  -4.2416  -4.2114
    -4.1769  -4.1728  -4.1340  -4.0845  -4.0252  -3.9765  -3.9604  -3.9473
    -3.6565  -3.6096  -3.5529  -3.5269  -3.3217  -3.3201  -3.2771  -3.2550
    -3.0428  -3.0300  -3.0221  -2.9340  -2.9291  -2.8969  -2.8909  -2.8738
    -2.7308  -2.7277  -2.7036  -2.6639  -2.5465  -2.5264  -2.5200  -2.4109
    -2.3754  -2.3611  -2.3571  -2.3476  -2.3266  -2.2890  -2.2196  -2.1755
    -2.1742  -2.1286  -1.9332  -1.8871  -1.6920  -1.6543  -1.3930  -1.3319
    -1.3304  -1.2552  -1.0065  -1.0032  -0.7460  -0.6599  -0.6575  -0.5695
    -0.2671  -0.2479   0.4175   0.4255   0.4295   0.4729   0.5874   0.5887
     0.6646   0.7712   0.8143   0.8345   0.8498   0.8822   0.9637   0.9641
     1.0749   1.1002   1.3566   1.3588   1.3688   1.3888   2.1145   2.1458
     3.3931   3.5018   4.6370   4.7747   5.1285   5.1465   5.4248   5.4852
     5.9863   5.9883   6.0496   6.0536   6.2760   6.2808   6.9674   7.0025
     7.5101   7.8366   7.8422   7.8593   7.9297   8.1581   8.3159   8.4391
     8.4445   8.4637   8.5296   8.7662   8.9348   9.1003

          k = 0.0000 0.0000-0.1339 ( 21370 PWs)   bands (ev):

   -19.3691 -19.3689 -19.3629 -19.3627 -18.8693 -18.8690 -18.8652 -18.8649
   -16.0402 -16.0401 -16.0364 -16.0363 -15.5492 -15.5490 -14.9123 -14.9121
   -14.0852 -14.0849 -13.5656 -13.5654 -13.5389 -13.5388 -12.2600 -12.2599
   -12.0598 -12.0596 -11.8428 -11.8426 -11.4913 -11.4911 -11.1706 -11.1705
   -10.8241 -10.8239 -10.6976 -10.6975  -9.6896  -9.6895  -9.1293  -9.1292
    -9.0137  -9.0137  -8.9036  -8.9034  -8.5052  -8.5051  -8.1205  -8.1204
    -8.0103  -8.0101  -7.6239  -7.6238  -6.9651  -6.9650  -6.3967  -6.3965
    -6.3132  -6.3131  -5.9770  -5.9768  -5.5765  -5.5764  -5.4524  -5.4522
    -5.1969  -5.1967  -4.7212  -4.7212  -4.4395  -4.4395  -4.2026  -4.2026
    -4.1764  -4.1764  -4.1087  -4.1086  -4.0623  -4.0623  -3.9705  -3.9705
    -3.6412  -3.6410  -3.5271  -3.5270  -3.3571  -3.3571  -3.1886  -3.1886
    -3.0842  -3.0841  -2.9467  -2.9467  -2.9131  -2.9131  -2.8665  -2.8665
    -2.7306  -2.7305  -2.6485  -2.6484  -2.5719  -2.5719  -2.4483  -2.4483
    -2.3843  -2.3842  -2.3436  -2.3436  -2.3289  -2.3288  -2.1998  -2.1997
    -2.1615  -2.1614  -1.8995  -1.8995  -1.6734  -1.6733  -1.3616  -1.3614
    -1.2940  -1.2938  -1.0048  -1.0046  -0.7052  -0.7050  -0.6051  -0.6048
    -0.2620  -0.2619   0.4151   0.4152   0.4962   0.4962   0.5421   0.5422
     0.7436   0.7437   0.8257   0.8258   0.8476   0.8476   0.9650   0.9652
     1.0943   1.0944   1.3525   1.3528   1.3816   1.3819   2.1305   2.1306
     3.4488   3.4489   4.7069   4.7069   5.1371   5.1373   5.4509   5.4512
     6.0110   6.0111   6.0358   6.0359   6.2744   6.2744   6.9844   6.9845
     7.6874   7.6875   7.8613   7.8613   8.0040   8.0040   8.2301   8.2301
     8.4764   8.4765   8.7645   8.7646   9.1561   9.1563

          k = 0.0000-0.1243 0.0000 ( 21372 PWs)   bands (ev):

   -19.3693 -19.3691 -19.3625 -19.3623 -18.8701 -18.8699 -18.8644 -18.8642
   -16.0490 -16.0489 -16.0273 -16.0271 -15.5495 -15.5492 -14.9136 -14.9134
   -14.0854 -14.0851 -13.5663 -13.5661 -13.5313 -13.5311 -12.2877 -12.2876
   -12.0588 -12.0586 -11.8401 -11.8398 -11.4905 -11.4903 -11.0847 -11.0846
   -10.8240 -10.8238 -10.7714 -10.7713  -9.6913  -9.6911  -9.1382  -9.1380
    -9.0217  -9.0216  -8.8815  -8.8814  -8.5086  -8.5085  -8.1167  -8.1165
    -8.0177  -8.0175  -7.6000  -7.5999  -6.9725  -6.9724  -6.3903  -6.3901
    -6.2952  -6.2951  -5.9906  -5.9905  -5.6308  -5.6307  -5.4389  -5.4388
    -5.2012  -5.2010  -4.6913  -4.6912  -4.4670  -4.4670  -4.3753  -4.3753
    -4.1027  -4.1026  -4.0762  -4.0761  -3.9931  -3.9931  -3.9298  -3.9298
    -3.5854  -3.5853  -3.3814  -3.3813  -3.3161  -3.3159  -3.2946  -3.2945
    -3.1646  -3.1645  -3.0747  -3.0746  -2.8831  -2.8831  -2.8632  -2.8632
    -2.7597  -2.7597  -2.7231  -2.7230  -2.5520  -2.5520  -2.4100  -2.4100
    -2.3698  -2.3697  -2.3318  -2.3317  -2.2800  -2.2799  -2.1979  -2.1978
    -2.1773  -2.1773  -1.8636  -1.8635  -1.7157  -1.7156  -1.3491  -1.3490
    -1.2993  -1.2991  -1.0077  -1.0075  -0.7001  -0.7000  -0.6101  -0.6099
    -0.2504  -0.2503   0.4108   0.4109   0.4573   0.4574   0.6169   0.6170
     0.7305   0.7305   0.8072   0.8073   0.8182   0.8183   0.9733   0.9734
     1.1101   1.1101   1.3595   1.3598   1.3806   1.3808   2.1199   2.1200
     3.4520   3.4521   4.7130   4.7130   5.1463   5.1465   5.4510   5.4512
     6.0007   6.0007   6.0263   6.0265   6.2692   6.2692   6.9822   6.9823
     7.5960   7.5962   7.8869   7.8869   8.1507   8.1508   8.3644   8.3645
     8.4521   8.4522   8.6353   8.6353   8.9717   8.9718

          k = 0.0000-0.1243-0.1339 ( 21388 PWs)   bands (ev):

   -19.3691 -19.3688 -19.3630 -19.3627 -18.8694 -18.8691 -18.8652 -18.8649
   -16.0488 -16.0487 -16.0274 -16.0273 -15.5495 -15.5492 -14.9136 -14.9134
   -14.0853 -14.0851 -13.5665 -13.5663 -13.5311 -13.5310 -12.2875 -12.2874
   -12.0581 -12.0580 -11.8414 -11.8411 -11.4909 -11.4907 -11.0831 -11.0830
   -10.8237 -10.8236 -10.7731 -10.7730  -9.6896  -9.6895  -9.1385  -9.1384
    -9.0271  -9.0270  -8.8779  -8.8777  -8.5044  -8.5044  -8.1177  -8.1176
    -8.0213  -8.0211  -7.6000  -7.6000  -6.9735  -6.9734  -6.3820  -6.3818
    -6.3092  -6.3091  -5.9847  -5.9846  -5.6012  -5.6011  -5.4707  -5.4706
    -5.2045  -5.2044  -4.6508  -4.6507  -4.4893  -4.4892  -4.3886  -4.3886
    -4.1166  -4.1165  -4.0653  -4.0652  -3.9847  -3.9847  -3.9317  -3.9317
    -3.6090  -3.6089  -3.3796  -3.3795  -3.3603  -3.3603  -3.2388  -3.2387
    -3.1368  -3.1367  -3.1147  -3.1146  -2.8716  -2.8716  -2.8688  -2.8688
    -2.7564  -2.7563  -2.6840  -2.6839  -2.5287  -2.5287  -2.4333  -2.4333
    -2.3735  -2.3733  -2.3342  -2.3341  -2.3039  -2.3038  -2.2038  -2.2037
    -2.1776  -2.1776  -1.8646  -1.8646  -1.7183  -1.7182  -1.3401  -1.3400
    -1.2944  -1.2941  -1.0076  -1.0074  -0.7023  -0.7022  -0.6147  -0.6144
    -0.2481  -0.2480   0.4246   0.4248   0.4758   0.4759   0.5676   0.5677
     0.7462   0.7463   0.8066   0.8068   0.8282   0.8284   0.9595   0.9597
     1.1163   1.1164   1.3551   1.3554   1.3805   1.3808   2.1198   2.1199
     3.4553   3.4554   4.7096   4.7097   5.1460   5.1462   5.4576   5.4578
     5.9734   5.9734   6.0449   6.0450   6.2698   6.2698   6.9824   6.9825
     7.7347   7.7348   7.8136   7.8137   7.9369   7.9370   8.4287   8.4288
     8.4862   8.4863   8.7630   8.7630   8.9248   8.9249

          k =-0.5000 0.0000-0.0672 ( 21576 PWs)   bands (ev):

   -19.2971 -19.2961 -19.2954 -19.2943 -18.8526 -18.8504 -18.8498 -18.8476
   -16.0358 -16.0357 -16.0317 -16.0314 -15.3663 -15.3655 -14.7543 -14.7514
   -13.9992 -13.9927 -13.5197 -13.5122 -13.3840 -13.3823 -12.1882 -12.1878
   -12.0291 -12.0279 -11.8468 -11.8358 -11.5012 -11.4832 -11.0104 -11.0099
   -10.8080 -10.7951 -10.6669 -10.6630  -9.7564  -9.7332  -9.1275  -9.1243
    -9.0720  -9.0478  -8.8791  -8.8597  -8.5783  -8.5314  -8.1814  -8.1360
    -8.0219  -8.0113  -7.6153  -7.6038  -6.9825  -6.9464  -6.4249  -6.3977
    -6.3282  -6.3262  -6.0114  -5.9989  -5.6498  -5.5996  -5.5070  -5.4871
    -5.2243  -5.2241  -5.0533  -5.0482  -5.0161  -5.0061  -4.6713  -4.5778
    -4.4948  -4.4306  -4.2846  -4.2454  -4.0947  -4.0922  -4.0158  -4.0003
    -3.9585  -3.9559  -3.7786  -3.6944  -3.6562  -3.5667  -3.4176  -3.3580
    -3.3534  -3.3386  -3.2916  -3.1848  -3.1254  -3.0908  -3.0523  -3.0311
    -2.8889  -2.8855  -2.8778  -2.8106  -2.7897  -2.7419  -2.6873  -2.6764
    -2.6587  -2.6571  -2.5475  -2.5149  -2.5068  -2.4550  -2.3206  -2.3186
    -2.2963  -2.2200  -2.2122  -2.1451  -1.9583  -1.9248  -1.8819  -1.7806
    -1.4259  -1.3433  -1.1414  -1.1099  -1.0312  -1.0262  -0.9896  -0.8628
    -0.6498  -0.5887   0.2741   0.3023   0.4167   0.4515   0.5457   0.5568
     0.6733   0.6749   0.7275   0.7951   0.9052   0.9178   0.9232   0.9510
     1.0052   1.1132   1.3243   1.3518   1.3522   1.3829   1.9823   2.1092
     3.7154   3.9795   4.9630   4.9896   5.1482   5.2658   5.4259   5.5162
     5.9904   6.0786   6.2417   6.3346   6.3453   6.4486   7.3254   7.4945
     8.1046   8.1445   8.5156   8.5200   9.0534   9.0861   9.0917   9.1750
     9.4898   9.4939   9.5161   9.6574   9.7735   9.7963

          k =-0.5000 0.0000-0.2010 ( 21576 PWs)   bands (ev):

   -19.2963 -19.2961 -19.2953 -19.2951 -18.8516 -18.8513 -18.8488 -18.8485
   -16.0358 -16.0357 -16.0316 -16.0315 -15.3661 -15.3658 -14.7529 -14.7528
   -13.9961 -13.9958 -13.5160 -13.5158 -13.3833 -13.3832 -12.1881 -12.1880
   -12.0288 -12.0286 -11.8410 -11.8408 -11.4924 -11.4921 -11.0103 -11.0102
   -10.8018 -10.8017 -10.6649 -10.6648  -9.7458  -9.7457  -9.1255  -9.1254
    -9.0605  -9.0605  -8.8699  -8.8698  -8.5529  -8.5529  -8.1590  -8.1589
    -8.0164  -8.0162  -7.6095  -7.6094  -6.9647  -6.9646  -6.4135  -6.4133
    -6.3248  -6.3247  -6.0054  -6.0053  -5.6364  -5.6363  -5.4974  -5.4973
    -5.2216  -5.2214  -5.0442  -5.0441  -5.0059  -5.0058  -4.6354  -4.6353
    -4.4501  -4.4501  -4.2643  -4.2642  -4.0749  -4.0748  -4.0281  -4.0281
    -3.9606  -3.9605  -3.7279  -3.7278  -3.6389  -3.6387  -3.3898  -3.3897
    -3.3348  -3.3348  -3.1999  -3.1998  -3.1390  -3.1389  -3.0632  -3.0632
    -2.9109  -2.9109  -2.8139  -2.8139  -2.7145  -2.7144  -2.6816  -2.6816
    -2.6304  -2.6303  -2.5968  -2.5967  -2.4676  -2.4675  -2.3442  -2.3442
    -2.2638  -2.2637  -2.1776  -2.1775  -1.9304  -1.9303  -1.8291  -1.8290
    -1.3782  -1.3780  -1.1185  -1.1185  -1.0292  -1.0290  -0.9388  -0.9387
    -0.6153  -0.6150   0.2850   0.2851   0.5136   0.5137   0.5407   0.5409
     0.6030   0.6030   0.7605   0.7606   0.8737   0.8738   0.9642   0.9643
     1.0792   1.0792   1.3287   1.3289   1.3692   1.3695   2.0475   2.0476
     3.8442   3.8443   5.0041   5.0042   5.1810   5.1810   5.4648   5.4650
     6.0396   6.0398   6.3225   6.3225   6.3665   6.3666   7.4132   7.4132
     8.1166   8.1167   8.5247   8.5247   9.0335   9.0337   9.2090   9.2092
     9.4441   9.4442   9.5902   9.5903   9.7903   9.7915

          k =-0.5000-0.1243-0.0672 ( 21532 PWs)   bands (ev):

   -19.2968 -19.2967 -19.2947 -19.2946 -18.8519 -18.8516 -18.8484 -18.8481
   -16.0375 -16.0374 -16.0298 -16.0296 -15.3665 -15.3662 -14.7520 -14.7518
   -13.9962 -13.9959 -13.5164 -13.5162 -13.3855 -13.3853 -12.1759 -12.1758
   -12.0288 -12.0286 -11.8432 -11.8429 -11.4921 -11.4919 -11.0595 -11.0594
   -10.8040 -10.8038 -10.6131 -10.6130  -9.7431  -9.7430  -9.1291  -9.1289
    -9.0658  -9.0657  -8.8802  -8.8800  -8.5467  -8.5466  -8.1647  -8.1645
    -8.0128  -8.0126  -7.6080  -7.6079  -6.9708  -6.9707  -6.4096  -6.4094
    -6.3159  -6.3159  -5.9986  -5.9985  -5.6220  -5.6218  -5.4802  -5.4800
    -5.2129  -5.2127  -5.0738  -5.0738  -5.0377  -5.0376  -4.6307  -4.6306
    -4.4844  -4.4844  -4.1949  -4.1949  -4.1580  -4.1579  -4.0542  -4.0542
    -3.9804  -3.9803  -3.6539  -3.6537  -3.5024  -3.5023  -3.3692  -3.3692
    -3.3529  -3.3529  -3.2373  -3.2372  -3.1432  -3.1432  -3.1166  -3.1166
    -2.9040  -2.9039  -2.8489  -2.8488  -2.7823  -2.7822  -2.6973  -2.6972
    -2.6539  -2.6538  -2.4507  -2.4506  -2.3985  -2.3985  -2.3405  -2.3405
    -2.3151  -2.3151  -2.2451  -2.2449  -1.9018  -1.9017  -1.8370  -1.8369
    -1.3601  -1.3599  -1.1280  -1.1280  -1.0342  -1.0341  -0.9390  -0.9389
    -0.6160  -0.6157   0.2906   0.2906   0.4334   0.4334   0.5821   0.5822
     0.6265   0.6266   0.7812   0.7813   0.9060   0.9061   0.9388   0.9389
     1.0640   1.0641   1.3316   1.3319   1.3753   1.3755   2.0420   2.0421
     3.8435   3.8436   5.0023   5.0025   5.1835   5.1835   5.4626   5.4628
     6.0382   6.0384   6.3281   6.3281   6.3669   6.3669   7.4130   7.4131
     8.1189   8.1190   8.5270   8.5271   9.0073   9.0073   9.1719   9.1720
     9.4570   9.4572   9.6630   9.6631   9.8044   9.8057

          k =-0.5000-0.1243-0.2010 ( 21524 PWs)   bands (ev):

   -19.2962 -19.2960 -19.2953 -19.2951 -18.8516 -18.8513 -18.8488 -18.8485
   -16.0375 -16.0374 -16.0298 -16.0296 -15.3665 -15.3662 -14.7520 -14.7518
   -13.9962 -13.9959 -13.5165 -13.5163 -13.3855 -13.3853 -12.1758 -12.1757
   -12.0286 -12.0284 -11.8433 -11.8431 -11.4921 -11.4919 -11.0594 -11.0593
   -10.8039 -10.8038 -10.6131 -10.6130  -9.7440  -9.7439  -9.1342  -9.1341
    -9.0609  -9.0609  -8.8792  -8.8791  -8.5461  -8.5461  -8.1625  -8.1624
    -8.0143  -8.0141  -7.6087  -7.6087  -6.9701  -6.9699  -6.4100  -6.4098
    -6.3185  -6.3185  -5.9980  -5.9978  -5.6204  -5.6202  -5.4928  -5.4926
    -5.2117  -5.2115  -5.0602  -5.0601  -5.0358  -5.0357  -4.6209  -4.6208
    -4.5005  -4.5004  -4.2071  -4.2071  -4.1351  -4.1349  -4.0703  -4.0703
    -3.9644  -3.9643  -3.6368  -3.6366  -3.5487  -3.5487  -3.3744  -3.3744
    -3.3266  -3.3265  -3.2373  -3.2372  -3.1406  -3.1405  -3.1398  -3.1397
    -2.8952  -2.8951  -2.8542  -2.8542  -2.7229  -2.7228  -2.6984  -2.6984
    -2.6654  -2.6654  -2.4722  -2.4722  -2.4064  -2.4064  -2.3573  -2.3573
    -2.3177  -2.3177  -2.2444  -2.2443  -1.8831  -1.8831  -1.8417  -1.8415
    -1.3551  -1.3550  -1.1391  -1.1391  -1.0371  -1.0370  -0.9215  -0.9214
    -0.6209  -0.6206   0.2845   0.2846   0.5127   0.5129   0.5308   0.5310
     0.6560   0.6561   0.7003   0.7005   0.8988   0.8990   0.9781   0.9783
     1.0677   1.0678   1.3278   1.3281   1.3701   1.3704   2.0457   2.0458
     3.8494   3.8495   4.9787   4.9788   5.1972   5.1972   5.4711   5.4714
     6.0271   6.0273   6.3349   6.3349   6.3768   6.3769   7.3971   7.3972
     8.1307   8.1308   8.5285   8.5286   9.0045   9.0047   9.1823   9.1825
     9.4814   9.4815   9.6207   9.6208   9.8070   9.8072

     the Fermi energy is     2.7570 ev

!    total energy              =   -1437.38623018 Ry
     total all-electron energy =     -5637.089481 Ry
     estimated scf accuracy    <       0.00000076 Ry
     smearing contrib. (-TS)   =      -0.00000000 Ry
     internal energy E=F+TS    =   -1437.38623018 Ry

     The total energy is F=E-TS. E is the sum of the following terms:
     one-electron contribution =    -767.90294805 Ry
     hartree contribution      =     509.73325231 Ry
     xc contribution           =    -346.35576020 Ry
     ewald contribution        =    -402.84986207 Ry
     DFT-D3 Dispersion         =      -0.59235656 Ry
     one-center paw contrib.   =    -429.41855561 Ry

     convergence has been achieved in  12 iterations

     Forces acting on atoms (cartesian axes, Ry/au):

     atom    1 type  1   force =    -0.04005542    0.01786244    0.05817723
     atom    2 type  1   force =     0.04008342    0.01785029   -0.05823172
     atom    3 type  1   force =     0.04007218   -0.01787271   -0.05820110
     atom    4 type  1   force =    -0.04007322   -0.01784656    0.05821526
     atom    5 type  1   force =     0.01275299    0.03269746   -0.03770472
     atom    6 type  1   force =    -0.01278037    0.03275604    0.03776576
     atom    7 type  1   force =    -0.01276067   -0.03271734    0.03771757
     atom    8 type  1   force =     0.01277616   -0.03274051   -0.03775966
     atom    9 type  2   force =    -0.03130379    0.01753847    0.01402531
     atom   10 type  2   force =     0.03130301    0.01753776   -0.01401925
     atom   11 type  2   force =     0.03130345   -0.01753902   -0.01402443
     atom   12 type  2   force =    -0.03130198   -0.01753761    0.01401951
     atom   13 type  3   force =    -0.01627686    0.00790531    0.01915757
     atom   14 type  3   force =     0.01627646    0.00790323   -0.01915681
     atom   15 type  3   force =     0.01627654   -0.00790206   -0.01915795
     atom   16 type  3   force =    -0.01627683   -0.00790619    0.01915647
     atom   17 type  3   force =     0.01208173   -0.01688990   -0.00309753
     atom   18 type  3   force =    -0.01208105   -0.01688685    0.00309642
     atom   19 type  3   force =    -0.01208156    0.01688856    0.00309794
     atom   20 type  3   force =     0.01208102    0.01688776   -0.00309620
     atom   21 type  3   force =    -0.03205137   -0.02639392    0.03816891
     atom   22 type  3   force =     0.03205102   -0.02639756   -0.03816804
     atom   23 type  3   force =     0.03205008    0.02639566   -0.03816564
     atom   24 type  3   force =    -0.03205246    0.02639575    0.03817109
     atom   25 type  3   force =    -0.08225808    0.06185182    0.16249869
     atom   26 type  3   force =     0.08225655    0.06185797   -0.16249200
     atom   27 type  3   force =     0.08225752   -0.06185425   -0.16249630
     atom   28 type  3   force =    -0.08225697   -0.06185529    0.16249488
     atom   29 type  3   force =    -0.05080652   -0.18886181    0.13616429
     atom   30 type  3   force =     0.05080388   -0.18886774   -0.13616113
     atom   31 type  3   force =     0.05080573    0.18886531   -0.13616267
     atom   32 type  3   force =    -0.05080482    0.18886502    0.13616282
     atom   33 type  3   force =    -0.01689482   -0.00064067    0.03947369
     atom   34 type  3   force =     0.01689789   -0.00063180   -0.03947812
     atom   35 type  3   force =     0.01689553    0.00063836   -0.03947440
     atom   36 type  3   force =    -0.01689741    0.00063541    0.03947775
     atom   37 type  3   force =     0.00421663    0.04296466   -0.02043989
     atom   38 type  3   force =    -0.00421575    0.04296505    0.02043791
     atom   39 type  3   force =    -0.00421674   -0.04296454    0.02044026
     atom   40 type  3   force =     0.00421596   -0.04296512   -0.02043854
     atom   41 type  3   force =     0.00926705    0.01137873   -0.03101697
     atom   42 type  3   force =    -0.00926718    0.01138560    0.03101882
     atom   43 type  3   force =    -0.00926642   -0.01138205    0.03101687
     atom   44 type  3   force =     0.00926649   -0.01138183   -0.03101862
     atom   45 type  3   force =     0.11509966   -0.07641075   -0.18248335
     atom   46 type  3   force =    -0.11510101   -0.07641402    0.18248607
     atom   47 type  3   force =    -0.11510089    0.07641319    0.18248507
     atom   48 type  3   force =     0.11509949    0.07641225   -0.18248374
     atom   49 type  3   force =     0.05184890    0.14490398   -0.15604004
     atom   50 type  3   force =    -0.05184690    0.14490463    0.15603568
     atom   51 type  3   force =    -0.05184807   -0.14490457    0.15603771
     atom   52 type  3   force =     0.05184759   -0.14490401   -0.15603734
     atom   53 type  3   force =     0.02417006   -0.01631563   -0.03960115
     atom   54 type  3   force =    -0.02417880   -0.01634184    0.03960959
     atom   55 type  3   force =    -0.02417190    0.01631945    0.03960091
     atom   56 type  3   force =     0.02417588    0.01633784   -0.03960723
     atom   57 type  3   force =    -0.01242508   -0.00729578    0.03709994
     atom   58 type  3   force =     0.01242714   -0.00733638   -0.03711578
     atom   59 type  3   force =     0.01242505    0.00730502   -0.03710260
     atom   60 type  3   force =    -0.01242826    0.00733389    0.03711600
     atom   61 type  3   force =     0.06165438   -0.25258417   -0.06290597
     atom   62 type  3   force =    -0.06165218   -0.25258000    0.06290598
     atom   63 type  3   force =    -0.06165500    0.25258169    0.06290689
     atom   64 type  3   force =     0.06165227    0.25258290   -0.06290562
     atom   65 type  4   force =     0.11351966   -0.04165618   -0.21856596
     atom   66 type  4   force =    -0.11351885   -0.04165575    0.21856453
     atom   67 type  4   force =    -0.11351928    0.04165598    0.21856516
     atom   68 type  4   force =     0.11351930    0.04165610   -0.21856524
     atom   69 type  4   force =     0.06036761    0.17863344   -0.15758696
     atom   70 type  4   force =    -0.06036879    0.17863251    0.15758812
     atom   71 type  4   force =    -0.06036812   -0.17863371    0.15758779
     atom   72 type  4   force =     0.06036844   -0.17863202   -0.15758726
     atom   73 type  4   force =    -0.12110447    0.05269189    0.21350986
     atom   74 type  4   force =     0.12110434    0.05269082   -0.21350940
     atom   75 type  4   force =     0.12110438   -0.05269172   -0.21350975
     atom   76 type  4   force =    -0.12110442   -0.05269081    0.21350954
     atom   77 type  4   force =    -0.05793655   -0.17603454    0.16871563
     atom   78 type  4   force =     0.05793628   -0.17603416   -0.16871501
     atom   79 type  4   force =     0.05793591    0.17603403   -0.16871452
     atom   80 type  4   force =    -0.05793690    0.17603471    0.16871609
     atom   81 type  4   force =    -0.23019514    0.06753600   -0.09237669
     atom   82 type  4   force =     0.23019603    0.06753668    0.09237735
     atom   83 type  4   force =     0.23019495   -0.06753673    0.09237744
     atom   84 type  4   force =    -0.23019606   -0.06753572   -0.09237673
     atom   85 type  4   force =     0.17718667    0.14223176   -0.12565765
     atom   86 type  4   force =    -0.17718837    0.14223313    0.12565831
     atom   87 type  4   force =    -0.17718707   -0.14223254    0.12565800
     atom   88 type  4   force =     0.17718788   -0.14223220   -0.12565774
     atom   89 type  4   force =     0.03059380    0.02845719    0.25241055
     atom   90 type  4   force =    -0.03059456    0.02845828   -0.25241143
     atom   91 type  4   force =    -0.03059417   -0.02845765   -0.25241026
     atom   92 type  4   force =     0.03059417   -0.02845781    0.25241187
     The non-local contrib.  to forces
     atom    1 type  1   force =     1.40663373   -0.57619440   -2.04351136
     atom    2 type  1   force =    -1.40660868   -0.57619083    2.04346626
     atom    3 type  1   force =    -1.40661547    0.57619385    2.04349236
     atom    4 type  1   force =     1.40660967    0.57618442   -2.04348397
     atom    5 type  1   force =    -0.55716083   -1.93069483    1.59425394
     atom    6 type  1   force =     0.55713449   -1.93065433   -1.59423287
     atom    7 type  1   force =     0.55715001    1.93069602   -1.59424457
     atom    8 type  1   force =    -0.55715365    1.93066039    1.59422534
     atom    9 type  2   force =    -0.07326026   -0.09888304   -0.02569646
     atom   10 type  2   force =     0.07325391   -0.09886218    0.02570363
     atom   11 type  2   force =     0.07325957    0.09888757    0.02569680
     atom   12 type  2   force =    -0.07325597    0.09885556   -0.02570509
     atom   13 type  3   force =     0.00978853   -0.03990205   -0.03870683
     atom   14 type  3   force =    -0.00978721   -0.03989229    0.03870630
     atom   15 type  3   force =    -0.00978798    0.03989487    0.03870663
     atom   16 type  3   force =     0.00978833    0.03989878   -0.03870722
     atom   17 type  3   force =     0.00961664    0.00426583    0.00704138
     atom   18 type  3   force =    -0.00961434    0.00428294   -0.00704146
     atom   19 type  3   force =    -0.00961665   -0.00427184   -0.00704016
     atom   20 type  3   force =     0.00961405   -0.00427802    0.00704270
     atom   21 type  3   force =    -0.03945978   -0.12125180    0.08785385
     atom   22 type  3   force =     0.03945546   -0.12123723   -0.08785357
     atom   23 type  3   force =     0.03945822    0.12124473   -0.08785295
     atom   24 type  3   force =    -0.03945668    0.12124360    0.08785387
     atom   25 type  3   force =    -0.10184115    0.05280547    0.21295968
     atom   26 type  3   force =     0.10184154    0.05282779   -0.21295638
     atom   27 type  3   force =     0.10184115   -0.05281130   -0.21295931
     atom   28 type  3   force =    -0.10184241   -0.05282178    0.21295719
     atom   29 type  3   force =    -0.06014376   -0.21742447    0.17589019
     atom   30 type  3   force =     0.06014536   -0.21740309   -0.17588886
     atom   31 type  3   force =     0.06014422    0.21742265   -0.17589092
     atom   32 type  3   force =    -0.06014566    0.21740463    0.17588738
     atom   33 type  3   force =    -0.06693119    0.07481222    0.12692642
     atom   34 type  3   force =     0.06693708    0.07484119   -0.12692674
     atom   35 type  3   force =     0.06693123   -0.07481376   -0.12692648
     atom   36 type  3   force =    -0.06693612   -0.07484029    0.12692782
     atom   37 type  3   force =     0.00472586    0.04950668   -0.02924590
     atom   38 type  3   force =    -0.00472307    0.04952863    0.02924411
     atom   39 type  3   force =    -0.00472519   -0.04951094    0.02924505
     atom   40 type  3   force =     0.00472414   -0.04952516   -0.02924539
     atom   41 type  3   force =     0.01769279    0.10396154   -0.07558919
     atom   42 type  3   force =    -0.01768859    0.10398312    0.07558914
     atom   43 type  3   force =    -0.01769231   -0.10396483    0.07559023
     atom   44 type  3   force =     0.01768849   -0.10398125   -0.07558825
     atom   45 type  3   force =     0.13704519   -0.08005442   -0.21369323
     atom   46 type  3   force =    -0.13704245   -0.08003515    0.21369555
     atom   47 type  3   force =    -0.13704414    0.08004907    0.21369471
     atom   48 type  3   force =     0.13704259    0.08004031   -0.21369344
     atom   49 type  3   force =     0.06124467    0.13371999   -0.16021151
     atom   50 type  3   force =    -0.06123994    0.13373261    0.16020496
     atom   51 type  3   force =    -0.06124276   -0.13372701    0.16021066
     atom   52 type  3   force =     0.06124112   -0.13372638   -0.16020566
     atom   53 type  3   force =     0.03999201    0.21155043   -0.10278564
     atom   54 type  3   force =    -0.04000132    0.21154660    0.10279459
     atom   55 type  3   force =    -0.03998795   -0.21154233    0.10277383
     atom   56 type  3   force =     0.04000158   -0.21154356   -0.10279696
     atom   57 type  3   force =    -0.12810467    0.14958102    0.21860115
     atom   58 type  3   force =     0.12810917    0.14956552   -0.21861491
     atom   59 type  3   force =     0.12810304   -0.14957471   -0.21860149
     atom   60 type  3   force =    -0.12810884   -0.14956459    0.21861592
     atom   61 type  3   force =     0.10763008   -0.67366288   -0.10143581
     atom   62 type  3   force =    -0.10762787   -0.67365072    0.10143677
     atom   63 type  3   force =    -0.10763038    0.67366773    0.10143643
     atom   64 type  3   force =     0.10762886    0.67364679   -0.10143577
     atom   65 type  4   force =    -0.05071338    0.02142346    0.10100835
     atom   66 type  4   force =     0.05071387    0.02142355   -0.10100929
     atom   67 type  4   force =     0.05071297   -0.02142325   -0.10100753
     atom   68 type  4   force =    -0.05071424   -0.02142377    0.10101006
     atom   69 type  4   force =    -0.02893342   -0.08480552    0.07222691
     atom   70 type  4   force =     0.02893305   -0.08480449   -0.07222599
     atom   71 type  4   force =     0.02893312    0.08480460   -0.07222617
     atom   72 type  4   force =    -0.02893333    0.08480536    0.07222672
     atom   73 type  4   force =     0.05669229   -0.02556980   -0.09687744
     atom   74 type  4   force =    -0.05669252   -0.02557000    0.09687789
     atom   75 type  4   force =    -0.05669186    0.02556964    0.09687668
     atom   76 type  4   force =     0.05669297    0.02557016   -0.09687867
     atom   77 type  4   force =     0.02366304    0.07966891   -0.07688600
     atom   78 type  4   force =    -0.02366355    0.07967065    0.07688775
     atom   79 type  4   force =    -0.02366304   -0.07966881    0.07688595
     atom   80 type  4   force =     0.02366357   -0.07967079   -0.07688782
     atom   81 type  4   force =     0.09784280   -0.04498196    0.03565754
     atom   82 type  4   force =    -0.09784073   -0.04498096   -0.03565681
     atom   83 type  4   force =    -0.09784266    0.04498180   -0.03565747
     atom   84 type  4   force =     0.09784091    0.04498111    0.03565687
     atom   85 type  4   force =    -0.08504124   -0.04786299    0.06000488
     atom   86 type  4   force =     0.08503937   -0.04786190   -0.06000352
     atom   87 type  4   force =     0.08504112    0.04786285   -0.06000480
     atom   88 type  4   force =    -0.08503950    0.04786204    0.06000362
     atom   89 type  4   force =    -0.01174990   -0.02604995   -0.10849184
     atom   90 type  4   force =     0.01174966   -0.02604935    0.10848965
     atom   91 type  4   force =     0.01174988    0.02604982    0.10849163
     atom   92 type  4   force =    -0.01174968    0.02604947   -0.10848987
     The ionic contribution  to forces
     atom    1 type  1   force =    -5.97954768    3.30509750   10.93176760
     atom    2 type  1   force =     5.97954768    3.30509750  -10.93176760
     atom    3 type  1   force =     5.97954768   -3.30509750  -10.93176760
     atom    4 type  1   force =    -5.97954768   -3.30509750   10.93176760
     atom    5 type  1   force =     2.47703370   10.84739877  -10.39022051
     atom    6 type  1   force =    -2.47703370   10.84739877   10.39022051
     atom    7 type  1   force =    -2.47703370  -10.84739877   10.39022051
     atom    8 type  1   force =     2.47703370  -10.84739877  -10.39022051
     atom    9 type  2   force =    -0.06986266    4.85701965    0.77998311
     atom   10 type  2   force =     0.06986266    4.85701965   -0.77998311
     atom   11 type  2   force =     0.06986266   -4.85701965   -0.77998311
     atom   12 type  2   force =    -0.06986266   -4.85701965    0.77998311
     atom   13 type  3   force =    -0.05427948   -1.24152508    3.05841726
     atom   14 type  3   force =     0.05427948   -1.24152508   -3.05841726
     atom   15 type  3   force =     0.05427948    1.24152508   -3.05841726
     atom   16 type  3   force =    -0.05427948    1.24152508    3.05841726
     atom   17 type  3   force =     0.05801367   -0.39267373    0.05218914
     atom   18 type  3   force =    -0.05801367   -0.39267373   -0.05218914
     atom   19 type  3   force =    -0.05801367    0.39267373   -0.05218914
     atom   20 type  3   force =     0.05801367    0.39267373    0.05218914
     atom   21 type  3   force =     0.47284258   -0.39705021   -2.73578216
     atom   22 type  3   force =    -0.47284258   -0.39705021    2.73578216
     atom   23 type  3   force =    -0.47284258    0.39705021    2.73578216
     atom   24 type  3   force =     0.47284258    0.39705021   -2.73578216
     atom   25 type  3   force =     1.29511194    0.34694020   -5.22157994
     atom   26 type  3   force =    -1.29511194    0.34694020    5.22157994
     atom   27 type  3   force =    -1.29511194   -0.34694020    5.22157994
     atom   28 type  3   force =     1.29511194   -0.34694020   -5.22157994
     atom   29 type  3   force =     1.23750523    3.03790884   -4.83729957
     atom   30 type  3   force =    -1.23750523    3.03790884    4.83729957
     atom   31 type  3   force =    -1.23750523   -3.03790884    4.83729957
     atom   32 type  3   force =     1.23750523   -3.03790884   -4.83729957
     atom   33 type  3   force =     0.03426489    1.69242513   -2.01414783
     atom   34 type  3   force =    -0.03426489    1.69242513    2.01414783
     atom   35 type  3   force =    -0.03426489   -1.69242513    2.01414783
     atom   36 type  3   force =     0.03426489   -1.69242513   -2.01414783
     atom   37 type  3   force =     0.04315762    0.29535123    0.27959361
     atom   38 type  3   force =    -0.04315762    0.29535123   -0.27959361
     atom   39 type  3   force =    -0.04315762   -0.29535123   -0.27959361
     atom   40 type  3   force =     0.04315762   -0.29535123    0.27959361
     atom   41 type  3   force =    -0.02932556   -0.08259760    2.88612322
     atom   42 type  3   force =     0.02932556   -0.08259760   -2.88612322
     atom   43 type  3   force =     0.02932556    0.08259760   -2.88612322
     atom   44 type  3   force =    -0.02932556    0.08259760    2.88612322
     atom   45 type  3   force =    -1.45854191   -1.40604895    6.60308859
     atom   46 type  3   force =     1.45854191   -1.40604895   -6.60308859
     atom   47 type  3   force =     1.45854191    1.40604895   -6.60308859
     atom   48 type  3   force =    -1.45854191    1.40604895    6.60308859
     atom   49 type  3   force =    -0.81911136   -2.26016443    6.13001475
     atom   50 type  3   force =     0.81911136   -2.26016443   -6.13001475
     atom   51 type  3   force =     0.81911136    2.26016443   -6.13001475
     atom   52 type  3   force =    -0.81911136    2.26016443    6.13001475
     atom   53 type  3   force =     1.24941597   -0.83265367    0.52330226
     atom   54 type  3   force =    -1.24941597   -0.83265367   -0.52330226
     atom   55 type  3   force =    -1.24941597    0.83265367   -0.52330226
     atom   56 type  3   force =     1.24941597    0.83265367    0.52330226
     atom   57 type  3   force =    -0.07513374   -0.19765573   -1.29892137
     atom   58 type  3   force =     0.07513374   -0.19765573    1.29892137
     atom   59 type  3   force =     0.07513374    0.19765573    1.29892137
     atom   60 type  3   force =    -0.07513374    0.19765573   -1.29892137
     atom   61 type  3   force =    -1.03996200    5.71256499    1.84964910
     atom   62 type  3   force =     1.03996200    5.71256499   -1.84964910
     atom   63 type  3   force =     1.03996200   -5.71256499   -1.84964910
     atom   64 type  3   force =    -1.03996200   -5.71256499    1.84964910
     atom   65 type  4   force =     1.16808731   -0.57907358   -2.87406994
     atom   66 type  4   force =    -1.16808731   -0.57907358    2.87406994
     atom   67 type  4   force =    -1.16808731    0.57907358    2.87406994
     atom   68 type  4   force =     1.16808731    0.57907358   -2.87406994
     atom   69 type  4   force =     0.87948409    2.42027889   -2.24250842
     atom   70 type  4   force =    -0.87948409    2.42027889    2.24250842
     atom   71 type  4   force =    -0.87948409   -2.42027888    2.24250842
     atom   72 type  4   force =     0.87948409   -2.42027889   -2.24250842
     atom   73 type  4   force =    -1.44532781   -0.01748126    3.16615235
     atom   74 type  4   force =     1.44532781   -0.01748126   -3.16615235
     atom   75 type  4   force =     1.44532781    0.01748126   -3.16615235
     atom   76 type  4   force =    -1.44532781    0.01748126    3.16615235
     atom   77 type  4   force =    -0.66821866   -1.77813317    2.82125752
     atom   78 type  4   force =     0.66821866   -1.77813317   -2.82125752
     atom   79 type  4   force =     0.66821866    1.77813317   -2.82125752
     atom   80 type  4   force =    -0.66821866    1.77813317    2.82125752
     atom   81 type  4   force =    -2.29697614    1.72365016   -0.49801421
     atom   82 type  4   force =     2.29697614    1.72365016    0.49801421
     atom   83 type  4   force =     2.29697614   -1.72365016    0.49801421
     atom   84 type  4   force =    -2.29697614   -1.72365016   -0.49801421
     atom   85 type  4   force =     1.83804528    2.25667886   -0.84273550
     atom   86 type  4   force =    -1.83804528    2.25667886    0.84273550
     atom   87 type  4   force =    -1.83804528   -2.25667886    0.84273550
     atom   88 type  4   force =     1.83804528   -2.25667886   -0.84273550
     atom   89 type  4   force =     0.28239195    1.58956169    2.75466046
     atom   90 type  4   force =    -0.28239195    1.58956169   -2.75466046
     atom   91 type  4   force =    -0.28239195   -1.58956169   -2.75466046
     atom   92 type  4   force =     0.28239195   -1.58956169    2.75466046
     The local contribution  to forces
     atom    1 type  1   force =     4.54299332   -2.71502853   -8.84411406
     atom    2 type  1   force =    -4.54298113   -2.71494564    8.84407575
     atom    3 type  1   force =    -4.54299707    2.71505036    8.84411251
     atom    4 type  1   force =     4.54298628    2.71491318   -8.84407590
     atom    5 type  1   force =    -1.91104025   -8.89739720    8.76914038
     atom    6 type  1   force =     1.91101842   -8.89731783   -8.76906682
     atom    7 type  1   force =     1.91103968    8.89743658   -8.76912497
     atom    8 type  1   force =    -1.91100462    8.89726135    8.76907678
     atom    9 type  2   force =     0.11062779   -4.73989485   -0.74055746
     atom   10 type  2   force =    -0.11062685   -4.73986375    0.74057915
     atom   11 type  2   force =    -0.11062883    4.73994462    0.74056479
     atom   12 type  2   force =     0.11062692    4.73981140   -0.74057143
     atom   13 type  3   force =     0.02936249    1.28764609   -3.00199362
     atom   14 type  3   force =    -0.02936154    1.28771384    3.00196537
     atom   15 type  3   force =    -0.02936250   -1.28768350    3.00199081
     atom   16 type  3   force =     0.02936130   -1.28767629   -3.00196923
     atom   17 type  3   force =    -0.05526974    0.37173204   -0.06256275
     atom   18 type  3   force =     0.05527431    0.37187733    0.06254653
     atom   19 type  3   force =     0.05527204   -0.37178691    0.06256192
     atom   20 type  3   force =    -0.05527174   -0.37182612   -0.06255157
     atom   21 type  3   force =    -0.46642591    0.48778165    2.68859647
     atom   22 type  3   force =     0.46642831    0.48788710   -2.68857470
     atom   23 type  3   force =     0.46642341   -0.48782145   -2.68858722
     atom   24 type  3   force =    -0.46643084   -0.48784878    2.68858284
     atom   25 type  3   force =    -1.27887662   -0.33577066    5.17665469
     atom   26 type  3   force =     1.27887008   -0.33563093   -5.17662836
     atom   27 type  3   force =     1.27887628    0.33573121   -5.17665412
     atom   28 type  3   force =    -1.27886874    0.33566897    5.17663026
     atom   29 type  3   force =    -1.22969630   -3.01451884    4.80110818
     atom   30 type  3   force =     1.22969758   -3.01441015   -4.80112770
     atom   31 type  3   force =     1.22969872    3.01452102   -4.80111762
     atom   32 type  3   force =    -1.22969573    3.01440862    4.80112133
     atom   33 type  3   force =     0.01360548   -1.76666722    1.93017523
     atom   34 type  3   force =    -0.01360717   -1.76655050   -1.93018700
     atom   35 type  3   force =    -0.01360249    1.76666265   -1.93018116
     atom   36 type  3   force =     0.01360870    1.76655978    1.93017807
     atom   37 type  3   force =    -0.04334786   -0.30172408   -0.27115329
     atom   38 type  3   force =     0.04335111   -0.30157064    0.27113423
     atom   39 type  3   force =     0.04334994    0.30168949    0.27115248
     atom   40 type  3   force =    -0.04334799    0.30160423   -0.27114270
     atom   41 type  3   force =     0.02195004   -0.00710408   -2.84335090
     atom   42 type  3   force =    -0.02195573   -0.00697890    2.84334617
     atom   43 type  3   force =    -0.02194966    0.00708074    2.84335565
     atom   44 type  3   force =     0.02195520    0.00700458   -2.84334400
     atom   45 type  3   force =     1.44024643    1.40756648   -6.57639260
     atom   46 type  3   force =    -1.44025184    1.40769544    6.57638792
     atom   47 type  3   force =    -1.44025283   -1.40760029    6.57640417
     atom   48 type  3   force =     1.44024578   -1.40766030   -6.57637584
     atom   49 type  3   force =     0.81191303    2.27577499   -6.13024560
     atom   50 type  3   force =    -0.81190546    2.27585952    6.13019593
     atom   51 type  3   force =    -0.81191066   -2.27582245    6.13023650
     atom   52 type  3   force =     0.81190789   -2.27581115   -6.13020246
     atom   53 type  3   force =    -1.25913718    0.60578496   -0.46874332
     atom   54 type  3   force =     1.25915893    0.60581960    0.46870171
     atom   55 type  3   force =     1.25913177   -0.60575966    0.46875667
     atom   56 type  3   force =    -1.25916443   -0.60585722   -0.46869566
     atom   57 type  3   force =     0.18648560    0.03649878    1.12659421
     atom   58 type  3   force =    -0.18651681    0.03657011   -1.12652548
     atom   59 type  3   force =    -0.18648948   -0.03645914   -1.12658492
     atom   60 type  3   force =     0.18651043   -0.03660637    1.12653269
     atom   61 type  3   force =     0.99544368   -5.30828971   -1.81339789
     atom   62 type  3   force =    -0.99544085   -5.30829892    1.81341013
     atom   63 type  3   force =    -0.99544308    5.30832795    1.81340095
     atom   64 type  3   force =     0.99544138    5.30826026   -1.81340990
     atom   65 type  4   force =    -1.00401234    0.51597826    2.55450234
     atom   66 type  4   force =     1.00401346    0.51600883   -2.55450038
     atom   67 type  4   force =     1.00401464   -0.51598918   -2.55450793
     atom   68 type  4   force =    -1.00401100   -0.51599826    2.55449548
     atom   69 type  4   force =    -0.79032819   -2.15680593    2.01277126
     atom   70 type  4   force =     0.79032933   -2.15678103   -2.01277866
     atom   71 type  4   force =     0.79032908    2.15680957   -2.01277417
     atom   72 type  4   force =    -0.79032836    2.15677745    2.01277618
     atom   73 type  4   force =     1.26775797    0.09560852   -2.85566372
     atom   74 type  4   force =    -1.26775717    0.09564009    2.85566415
     atom   75 type  4   force =    -1.26775913   -0.09561625    2.85566647
     atom   76 type  4   force =     1.26775595   -0.09563227   -2.85566135
     atom   77 type  4   force =     0.58676379    1.52260092   -2.57548131
     atom   78 type  4   force =    -0.58676147    1.52261041    2.57546766
     atom   79 type  4   force =    -0.58676420   -1.52261489    2.57548162
     atom   80 type  4   force =     0.58676116   -1.52259683   -2.57546717
     atom   81 type  4   force =     1.96915151   -1.61091533    0.37014995
     atom   82 type  4   force =    -1.96915116   -1.61091905   -0.37014590
     atom   83 type  4   force =    -1.96915144    1.61092674   -0.37014867
     atom   84 type  4   force =     1.96915172    1.61090800    0.37014670
     atom   85 type  4   force =    -1.57593410   -2.06653906    0.65719495
     atom   86 type  4   force =     1.57593278   -2.06654356   -0.65718862
     atom   87 type  4   force =     1.57593394    2.06655035   -0.65719349
     atom   88 type  4   force =    -1.57593320    2.06653254    0.65718994
     atom   89 type  4   force =    -0.24010829   -1.53491523   -2.39399680
     atom   90 type  4   force =     0.24010877   -1.53491895    2.39399676
     atom   91 type  4   force =     0.24010832    1.53492625    2.39399635
     atom   92 type  4   force =    -0.24010860    1.53490761   -2.39399732
     The core correction contribution to forces
     atom    1 type  1   force =    -0.00970225    0.00385809    0.01404525
     atom    2 type  1   force =     0.00970226    0.00385819   -0.01404522
     atom    3 type  1   force =     0.00970213   -0.00385815   -0.01404519
     atom    4 type  1   force =    -0.00970214   -0.00385808    0.01404527
     atom    5 type  1   force =     0.00385027    0.01341397   -0.01109417
     atom    6 type  1   force =    -0.00385020    0.01341437    0.01109474
     atom    7 type  1   force =    -0.00385020   -0.01341422    0.01109426
     atom    8 type  1   force =     0.00385044   -0.01341429   -0.01109445
     atom    9 type  2   force =     0.00135449   -0.00051868    0.00037055
     atom   10 type  2   force =    -0.00135435   -0.00051902   -0.00037070
     atom   11 type  2   force =    -0.00135450    0.00051861   -0.00037056
     atom   12 type  2   force =     0.00135439    0.00051908    0.00037071
     atom   13 type  3   force =    -0.00068847    0.00214002    0.00123407
     atom   14 type  3   force =     0.00068843    0.00213990   -0.00123410
     atom   15 type  3   force =     0.00068846   -0.00213992   -0.00123409
     atom   16 type  3   force =    -0.00068846   -0.00213998    0.00123410
     atom   17 type  3   force =    -0.00031431    0.00010587    0.00020775
     atom   18 type  3   force =     0.00031429    0.00010576   -0.00020777
     atom   19 type  3   force =     0.00031432   -0.00010584   -0.00020777
     atom   20 type  3   force =    -0.00031427   -0.00010576    0.00020773
     atom   21 type  3   force =     0.00040182    0.00424193   -0.00220144
     atom   22 type  3   force =    -0.00040172    0.00424174    0.00220146
     atom   23 type  3   force =    -0.00040179   -0.00424184    0.00220144
     atom   24 type  3   force =     0.00040174   -0.00424182   -0.00220144
     atom   25 type  3   force =     0.00223670   -0.00224082   -0.00424695
     atom   26 type  3   force =    -0.00223669   -0.00224102    0.00424694
     atom   27 type  3   force =    -0.00223669    0.00224087    0.00424695
     atom   28 type  3   force =     0.00223673    0.00224097   -0.00424693
     atom   29 type  3   force =     0.00075173    0.00473716   -0.00270820
     atom   30 type  3   force =    -0.00075179    0.00473689    0.00270822
     atom   31 type  3   force =    -0.00075174   -0.00473712    0.00270823
     atom   32 type  3   force =     0.00075179   -0.00473693   -0.00270816
     atom   33 type  3   force =     0.00205984   -0.00229815   -0.00359041
     atom   34 type  3   force =    -0.00205992   -0.00229845    0.00359035
     atom   35 type  3   force =    -0.00205982    0.00229816    0.00359041
     atom   36 type  3   force =     0.00205990    0.00229850   -0.00359039
     atom   37 type  3   force =    -0.00021714   -0.00098988    0.00052267
     atom   38 type  3   force =     0.00021708   -0.00099017   -0.00052264
     atom   39 type  3   force =     0.00021712    0.00098993   -0.00052264
     atom   40 type  3   force =    -0.00021709    0.00099013    0.00052266
     atom   41 type  3   force =    -0.00039765   -0.00371038    0.00158090
     atom   42 type  3   force =     0.00039753   -0.00371054   -0.00158086
     atom   43 type  3   force =     0.00039764    0.00371039   -0.00158092
     atom   44 type  3   force =    -0.00039754    0.00371058    0.00158086
     atom   45 type  3   force =    -0.00263371    0.00221891    0.00382809
     atom   46 type  3   force =     0.00263365    0.00221871   -0.00382815
     atom   47 type  3   force =     0.00263368   -0.00221884   -0.00382811
     atom   48 type  3   force =    -0.00263366   -0.00221876    0.00382812
     atom   49 type  3   force =    -0.00131109   -0.00344206    0.00366296
     atom   50 type  3   force =     0.00131102   -0.00344215   -0.00366290
     atom   51 type  3   force =     0.00131106    0.00344212   -0.00366296
     atom   52 type  3   force =    -0.00131103    0.00344211    0.00366290
     atom   53 type  3   force =    -0.00523039   -0.00128403    0.00814452
     atom   54 type  3   force =     0.00523059   -0.00128397   -0.00814474
     atom   55 type  3   force =     0.00523025    0.00128390   -0.00814416
     atom   56 type  3   force =    -0.00523063    0.00128381    0.00814480
     atom   57 type  3   force =     0.00415419    0.00368808   -0.00897547
     atom   58 type  3   force =    -0.00415430    0.00368824    0.00897576
     atom   59 type  3   force =    -0.00415416   -0.00368808    0.00897549
     atom   60 type  3   force =     0.00415425   -0.00368838   -0.00897574
     atom   61 type  3   force =    -0.00121430    0.01666654    0.00226892
     atom   62 type  3   force =     0.00121428    0.01666635   -0.00226893
     atom   63 type  3   force =     0.00121429   -0.01666662   -0.00226893
     atom   64 type  3   force =    -0.00121431   -0.01666631    0.00226889
     atom   65 type  4   force =     0.00000000    0.00000000    0.00000000
     atom   66 type  4   force =     0.00000000    0.00000000    0.00000000
     atom   67 type  4   force =     0.00000000    0.00000000    0.00000000
     atom   68 type  4   force =     0.00000000    0.00000000    0.00000000
     atom   69 type  4   force =     0.00000000    0.00000000    0.00000000
     atom   70 type  4   force =     0.00000000    0.00000000    0.00000000
     atom   71 type  4   force =     0.00000000    0.00000000    0.00000000
     atom   72 type  4   force =     0.00000000    0.00000000    0.00000000
     atom   73 type  4   force =     0.00000000    0.00000000    0.00000000
     atom   74 type  4   force =     0.00000000    0.00000000    0.00000000
     atom   75 type  4   force =     0.00000000    0.00000000    0.00000000
     atom   76 type  4   force =     0.00000000    0.00000000    0.00000000
     atom   77 type  4   force =     0.00000000    0.00000000    0.00000000
     atom   78 type  4   force =     0.00000000    0.00000000    0.00000000
     atom   79 type  4   force =     0.00000000    0.00000000    0.00000000
     atom   80 type  4   force =     0.00000000    0.00000000    0.00000000
     atom   81 type  4   force =     0.00000000    0.00000000    0.00000000
     atom   82 type  4   force =     0.00000000    0.00000000    0.00000000
     atom   83 type  4   force =     0.00000000    0.00000000    0.00000000
     atom   84 type  4   force =     0.00000000    0.00000000    0.00000000
     atom   85 type  4   force =     0.00000000    0.00000000    0.00000000
     atom   86 type  4   force =     0.00000000    0.00000000    0.00000000
     atom   87 type  4   force =     0.00000000    0.00000000    0.00000000
     atom   88 type  4   force =     0.00000000    0.00000000    0.00000000
     atom   89 type  4   force =     0.00000000    0.00000000    0.00000000
     atom   90 type  4   force =     0.00000000    0.00000000    0.00000000
     atom   91 type  4   force =     0.00000000    0.00000000    0.00000000
     atom   92 type  4   force =     0.00000000    0.00000000    0.00000000
     The Hubbard contrib.    to forces
     atom    1 type  1   force =     0.00000000    0.00000000    0.00000000
     atom    2 type  1   force =     0.00000000    0.00000000    0.00000000
     atom    3 type  1   force =     0.00000000    0.00000000    0.00000000
     atom    4 type  1   force =     0.00000000    0.00000000    0.00000000
     atom    5 type  1   force =     0.00000000    0.00000000    0.00000000
     atom    6 type  1   force =     0.00000000    0.00000000    0.00000000
     atom    7 type  1   force =     0.00000000    0.00000000    0.00000000
     atom    8 type  1   force =     0.00000000    0.00000000    0.00000000
     atom    9 type  2   force =     0.00000000    0.00000000    0.00000000
     atom   10 type  2   force =     0.00000000    0.00000000    0.00000000
     atom   11 type  2   force =     0.00000000    0.00000000    0.00000000
     atom   12 type  2   force =     0.00000000    0.00000000    0.00000000
     atom   13 type  3   force =     0.00000000    0.00000000    0.00000000
     atom   14 type  3   force =     0.00000000    0.00000000    0.00000000
     atom   15 type  3   force =     0.00000000    0.00000000    0.00000000
     atom   16 type  3   force =     0.00000000    0.00000000    0.00000000
     atom   17 type  3   force =     0.00000000    0.00000000    0.00000000
     atom   18 type  3   force =     0.00000000    0.00000000    0.00000000
     atom   19 type  3   force =     0.00000000    0.00000000    0.00000000
     atom   20 type  3   force =     0.00000000    0.00000000    0.00000000
     atom   21 type  3   force =     0.00000000    0.00000000    0.00000000
     atom   22 type  3   force =     0.00000000    0.00000000    0.00000000
     atom   23 type  3   force =     0.00000000    0.00000000    0.00000000
     atom   24 type  3   force =     0.00000000    0.00000000    0.00000000
     atom   25 type  3   force =     0.00000000    0.00000000    0.00000000
     atom   26 type  3   force =     0.00000000    0.00000000    0.00000000
     atom   27 type  3   force =     0.00000000    0.00000000    0.00000000
     atom   28 type  3   force =     0.00000000    0.00000000    0.00000000
     atom   29 type  3   force =     0.00000000    0.00000000    0.00000000
     atom   30 type  3   force =     0.00000000    0.00000000    0.00000000
     atom   31 type  3   force =     0.00000000    0.00000000    0.00000000
     atom   32 type  3   force =     0.00000000    0.00000000    0.00000000
     atom   33 type  3   force =     0.00000000    0.00000000    0.00000000
     atom   34 type  3   force =     0.00000000    0.00000000    0.00000000
     atom   35 type  3   force =     0.00000000    0.00000000    0.00000000
     atom   36 type  3   force =     0.00000000    0.00000000    0.00000000
     atom   37 type  3   force =     0.00000000    0.00000000    0.00000000
     atom   38 type  3   force =     0.00000000    0.00000000    0.00000000
     atom   39 type  3   force =     0.00000000    0.00000000    0.00000000
     atom   40 type  3   force =     0.00000000    0.00000000    0.00000000
     atom   41 type  3   force =     0.00000000    0.00000000    0.00000000
     atom   42 type  3   force =     0.00000000    0.00000000    0.00000000
     atom   43 type  3   force =     0.00000000    0.00000000    0.00000000
     atom   44 type  3   force =     0.00000000    0.00000000    0.00000000
     atom   45 type  3   force =     0.00000000    0.00000000    0.00000000
     atom   46 type  3   force =     0.00000000    0.00000000    0.00000000
     atom   47 type  3   force =     0.00000000    0.00000000    0.00000000
     atom   48 type  3   force =     0.00000000    0.00000000    0.00000000
     atom   49 type  3   force =     0.00000000    0.00000000    0.00000000
     atom   50 type  3   force =     0.00000000    0.00000000    0.00000000
     atom   51 type  3   force =     0.00000000    0.00000000    0.00000000
     atom   52 type  3   force =     0.00000000    0.00000000    0.00000000
     atom   53 type  3   force =     0.00000000    0.00000000    0.00000000
     atom   54 type  3   force =     0.00000000    0.00000000    0.00000000
     atom   55 type  3   force =     0.00000000    0.00000000    0.00000000
     atom   56 type  3   force =     0.00000000    0.00000000    0.00000000
     atom   57 type  3   force =     0.00000000    0.00000000    0.00000000
     atom   58 type  3   force =     0.00000000    0.00000000    0.00000000
     atom   59 type  3   force =     0.00000000    0.00000000    0.00000000
     atom   60 type  3   force =     0.00000000    0.00000000    0.00000000
     atom   61 type  3   force =     0.00000000    0.00000000    0.00000000
     atom   62 type  3   force =     0.00000000    0.00000000    0.00000000
     atom   63 type  3   force =     0.00000000    0.00000000    0.00000000
     atom   64 type  3   force =     0.00000000    0.00000000    0.00000000
     atom   65 type  4   force =     0.00000000    0.00000000    0.00000000
[...]
     atom   45 type  3   force =     0.00000205    0.00000987   -0.00000902
     atom   46 type  3   force =    -0.00000087   -0.00000285    0.00000632
     atom   47 type  3   force =    -0.00000131    0.00000325    0.00000577
     atom   48 type  3   force =     0.00000164   -0.00001029   -0.00001010
     atom   49 type  3   force =    -0.00000035    0.00000853   -0.00000517
     atom   50 type  3   force =     0.00000023   -0.00000498    0.00000448
     atom   51 type  3   force =    -0.00000066    0.00000658    0.00000711
     atom   52 type  3   force =    -0.00000116   -0.00001055   -0.00000311
     atom   53 type  3   force =     0.00000091   -0.00000763   -0.00000039
     atom   54 type  3   force =     0.00000057    0.00000212    0.00000505
     atom   55 type  3   force =    -0.00000071    0.00000015   -0.00000100
     atom   56 type  3   force =     0.00000086    0.00000551   -0.00000776
     atom   57 type  3   force =     0.00000094   -0.00001367   -0.00000029
     atom   58 type  3   force =     0.00000247   -0.00000166   -0.00000167
     atom   59 type  3   force =    -0.00000056    0.00000110    0.00000001
     atom   60 type  3   force =    -0.00000160    0.00001284    0.00000117
     atom   61 type  3   force =    -0.00000339   -0.00000630    0.00000780
     atom   62 type  3   force =     0.00000237   -0.00000189   -0.00000496
     atom   63 type  3   force =     0.00000308   -0.00000617   -0.00000755
     atom   64 type  3   force =    -0.00000256    0.00001613    0.00000417
     atom   65 type  4   force =     0.00000166    0.00000230   -0.00000022
     atom   66 type  4   force =    -0.00000149   -0.00000063    0.00000027
     atom   67 type  4   force =    -0.00000198    0.00000055    0.00000111
     atom   68 type  4   force =     0.00000120   -0.00000219    0.00000055
     atom   69 type  4   force =     0.00000129   -0.00000064   -0.00000017
     atom   70 type  4   force =    -0.00000112    0.00000014   -0.00000056
     atom   71 type  4   force =    -0.00000146   -0.00000079    0.00000064
     atom   72 type  4   force =     0.00000099    0.00000090    0.00000120
     atom   73 type  4   force =    -0.00000056    0.00000179    0.00000049
     atom   74 type  4   force =     0.00000060   -0.00000063   -0.00000010
     atom   75 type  4   force =     0.00000065    0.00000065   -0.00000089
     atom   76 type  4   force =    -0.00000041   -0.00000188   -0.00000079
     atom   77 type  4   force =    -0.00000062    0.00000115    0.00000002
     atom   78 type  4   force =     0.00000060   -0.00000237   -0.00000009
     atom   79 type  4   force =     0.00000058    0.00000248    0.00000024
     atom   80 type  4   force =    -0.00000063   -0.00000124    0.00000010
     atom   81 type  4   force =     0.00000061   -0.00000233    0.00000140
     atom   82 type  4   force =    -0.00000059   -0.00000011   -0.00000086
     atom   83 type  4   force =    -0.00000063   -0.00000064   -0.00000124
     atom   84 type  4   force =     0.00000058    0.00000364    0.00000072
     atom   85 type  4   force =    -0.00000029   -0.00000152    0.00000178
     atom   86 type  4   force =     0.00000007    0.00000111   -0.00000113
     atom   87 type  4   force =     0.00000034   -0.00000128   -0.00000163
     atom   88 type  4   force =    -0.00000008    0.00000239    0.00000096
     atom   89 type  4   force =    -0.00000076   -0.00000138   -0.00000030
     atom   90 type  4   force =     0.00000073    0.00000082    0.00000051
     atom   91 type  4   force =     0.00000072   -0.00000180    0.00000036
     atom   92 type  4   force =    -0.00000074    0.00000264   -0.00000034

     DFT-D3 dispersion contribution to forces:
     atom    1 type  1   force =    -0.00043299    0.00007492    0.00002314
     atom    2 type  1   force =     0.00043304    0.00007497   -0.00002317
     atom    3 type  1   force =     0.00043302   -0.00007496   -0.00002316
     atom    4 type  1   force =    -0.00043302   -0.00007495    0.00002315
     atom    5 type  1   force =     0.00010258    0.00009262    0.00018968
     atom    6 type  1   force =    -0.00010257    0.00009275   -0.00018968
     atom    7 type  1   force =    -0.00010257   -0.00009276   -0.00018968
     atom    8 type  1   force =     0.00010258   -0.00009262    0.00018968
     atom    9 type  2   force =    -0.00008410   -0.00013326   -0.00000269
     atom   10 type  2   force =     0.00008416   -0.00013313    0.00000259
     atom   11 type  2   force =     0.00008417    0.00013313    0.00000258
     atom   12 type  2   force =    -0.00008408    0.00013323   -0.00000271
     atom   13 type  3   force =    -0.00038176   -0.00045182   -0.00005293
     atom   14 type  3   force =     0.00038173   -0.00045173    0.00005303
     atom   15 type  3   force =     0.00038173    0.00045174    0.00005302
     atom   16 type  3   force =    -0.00038177    0.00045179   -0.00005293
     atom   17 type  3   force =     0.00005022   -0.00025944   -0.00011294
     atom   18 type  3   force =    -0.00005023   -0.00025973    0.00011287
     atom   19 type  3   force =    -0.00005022    0.00025973    0.00011286
     atom   20 type  3   force =     0.00005024    0.00025948   -0.00011297
     atom   21 type  3   force =     0.00046780   -0.00015177   -0.00020323
     atom   22 type  3   force =    -0.00046774   -0.00015169    0.00020313
     atom   23 type  3   force =    -0.00046775    0.00015170    0.00020315
     atom   24 type  3   force =     0.00046779    0.00015175   -0.00020321
     atom   25 type  3   force =     0.00082091    0.00004012   -0.00071958
     atom   26 type  3   force =    -0.00082097    0.00004008    0.00071972
     atom   27 type  3   force =    -0.00082097   -0.00004008    0.00071971
     atom   28 type  3   force =     0.00082090   -0.00004012   -0.00071958
     atom   29 type  3   force =     0.00068194    0.00026661   -0.00064904
     atom   30 type  3   force =    -0.00068174    0.00026667    0.00064865
     atom   31 type  3   force =    -0.00068173   -0.00026668    0.00064865
     atom   32 type  3   force =     0.00068192   -0.00026661   -0.00064900
     atom   33 type  3   force =     0.00018225    0.00055372    0.00006469
     atom   34 type  3   force =    -0.00018237    0.00055368   -0.00006447
     atom   35 type  3   force =    -0.00018237   -0.00055366   -0.00006446
     atom   36 type  3   force =     0.00018225   -0.00055376    0.00006468
     atom   37 type  3   force =    -0.00017928    0.00030117    0.00001896
     atom   38 type  3   force =     0.00017936    0.00030221   -0.00001888
     atom   39 type  3   force =     0.00017932   -0.00030221   -0.00001881
     atom   40 type  3   force =    -0.00017939   -0.00030130    0.00001912
     atom   41 type  3   force =    -0.00062545    0.00053700    0.00012075
     atom   42 type  3   force =     0.00062556    0.00053698   -0.00012099
     atom   43 type  3   force =     0.00062557   -0.00053699   -0.00012099
     atom   44 type  3   force =    -0.00062544   -0.00053694    0.00012076
     atom   45 type  3   force =    -0.00082190   -0.00004590    0.00032359
     atom   46 type  3   force =     0.00082181   -0.00004569   -0.00032339
     atom   47 type  3   force =     0.00082182    0.00004571   -0.00032341
     atom   48 type  3   force =    -0.00082187    0.00004584    0.00032352
     atom   49 type  3   force =    -0.00070185   -0.00070447    0.00025002
     atom   50 type  3   force =     0.00070186   -0.00070449   -0.00025003
     atom   51 type  3   force =     0.00070185    0.00070448   -0.00025002
     atom   52 type  3   force =    -0.00070185    0.00070449    0.00025003
     atom   53 type  3   force =    -0.00075746    0.00013949    0.00035679
     atom   54 type  3   force =     0.00075695    0.00013948   -0.00035584
     atom   55 type  3   force =     0.00075698   -0.00013950   -0.00035588
     atom   56 type  3   force =    -0.00075734   -0.00013940    0.00035657
     atom   57 type  3   force =     0.00018325    0.00030443   -0.00005695
     atom   58 type  3   force =    -0.00018292    0.00030351    0.00005612
     atom   59 type  3   force =    -0.00018294   -0.00030350    0.00005614
     atom   60 type  3   force =     0.00018318   -0.00030435   -0.00005680
     atom   61 type  3   force =    -0.00017900    0.00017190    0.00002098
     atom   62 type  3   force =     0.00017895    0.00017163   -0.00002094
     atom   63 type  3   force =     0.00017896   -0.00017164   -0.00002094
     atom   64 type  3   force =    -0.00017899   -0.00017185    0.00002097
     atom   65 type  4   force =     0.00020361   -0.00003281   -0.00006385
     atom   66 type  4   force =    -0.00020365   -0.00003283    0.00006393
     atom   67 type  4   force =    -0.00020366    0.00003283    0.00006393
     atom   68 type  4   force =     0.00020361    0.00003282   -0.00006385
     atom   69 type  4   force =     0.00015085    0.00000408   -0.00013473
     atom   70 type  4   force =    -0.00015083    0.00000403    0.00013467
     atom   71 type  4   force =    -0.00015083   -0.00000402    0.00013467
     atom   72 type  4   force =     0.00015085   -0.00000408   -0.00013472
     atom   73 type  4   force =    -0.00023264    0.00015314   -0.00000515
     atom   74 type  4   force =     0.00023263    0.00015315    0.00000515
     atom   75 type  4   force =     0.00023263   -0.00015315    0.00000514
     atom   76 type  4   force =    -0.00023263   -0.00015314   -0.00000516
     atom   77 type  4   force =    -0.00015713   -0.00025902   -0.00011051
     atom   78 type  4   force =     0.00015714   -0.00025904    0.00011049
     atom   79 type  4   force =     0.00015714    0.00025904    0.00011049
     atom   80 type  4   force =    -0.00015713    0.00025903   -0.00011050
     atom   81 type  4   force =    -0.00021162   -0.00019561   -0.00015123
     atom   82 type  4   force =     0.00021160   -0.00019564    0.00015123
     atom   83 type  4   force =     0.00021160    0.00019564    0.00015123
     atom   84 type  4   force =    -0.00021162    0.00019562   -0.00015123
     atom   85 type  4   force =     0.00010790    0.00001426   -0.00013441
     atom   86 type  4   force =    -0.00010788    0.00001422    0.00013439
     atom   87 type  4   force =    -0.00010788   -0.00001422    0.00013439
     atom   88 type  4   force =     0.00010790   -0.00001426   -0.00013441
     atom   89 type  4   force =     0.00007941   -0.00010970    0.00028994
     atom   90 type  4   force =    -0.00007941   -0.00010969   -0.00028993
     atom   91 type  4   force =    -0.00007941    0.00010969   -0.00028993
     atom   92 type  4   force =     0.00007941    0.00010970    0.00028994

     Total force =     0.004511     Total SCF correction =     0.000112
     Energy error            =      2.4E-05 Ry
     Gradient error          =      8.6E-04 Ry/Bohr

     bfgs converged in  29 scf cycles and  28 bfgs steps
     (criteria: energy <  1.0E-04 Ry, force <  1.0E-03 Ry/Bohr)

     End of BFGS Geometry Optimization

     Final energy             =   -1438.2495559560 Ry

     File /scratch/calc/outdir/pwscf.bfgs deleted, as requested
Begin final coordinates

ATOMIC_POSITIONS (angstrom)
O             1.4362905888        4.7202438778        3.0642465659
O             1.4661018045       12.5102351721        4.1693506265
O             0.4945230116       10.8597564024       11.4028767866
O             0.4647296789        3.0697742006       10.2977446413
O             1.5636118113        6.0812786339       13.6825717046
O            -0.6043164707       13.8711135477        8.0179227783
O             0.3672745111        9.4988963085        0.7843720255
O             2.5352007772        1.7087154622        6.4490266142
N             2.5846874869        5.4097704142        1.2083623786
N             0.3177250958       13.1997575956        6.0251759188
N            -0.6538594672       10.1702430808       13.2587157742
N             1.6131038828        2.3802316505        8.4419006821
C             3.1922346826        0.3309438080        1.2315304433
C            -0.2898174389        8.1209507023        6.0020023322
C            -1.2614040974       15.2490484724       13.2355457182
C             2.2206485711        7.4590577690        8.4650732846
C             3.5383896609        1.3554750112        0.2995174874
C            -0.6359756397        9.1454923582        6.9340203709
C            -1.6075615803       14.2245075398       14.1675614044
C             2.5668040631        6.4345229974        7.5330573828
C            -1.6070920919        1.0555910863       13.5420786211
C             2.5663265116        8.8455992320        8.1585552728
C             3.5379121955       14.5243999599        0.9250139758
C            -0.6355056708        6.7344104044        6.3085365131
C            -1.2899056674        2.1044831517       12.6743339843
C             2.2491571000        9.8945007769        9.0262673506
C             3.2207433360       13.4754985402        1.7927261793
C            -0.3183198026        5.6855153751        5.4407924376
C            -1.6076186856        3.4283065417       12.9781172105
C             2.5668406577       11.2183118794        8.7225398380
C             3.5384266444       12.1516878361        1.4890001905
C            -0.6360312536        4.3616954466        5.7445751832
C             1.6109340210        3.7468586681       14.1590331853
C            -0.6516780821       11.5368479184        7.5415551991
C             0.3199094166       11.8331532691        0.3080118518
C             2.5825204668        4.0431389362        6.9254918721
C             3.2037940311        2.7138104957        0.5958890948
C            -0.3013884101       10.5038084467        6.6376577606
C            -1.2729750888       12.8661918207       13.8711999442
C             2.2322083407        5.0761912799        7.8294303925
C             2.5250839267        3.0279709823        1.7958873817
C             0.3773288751       10.8179913068        5.4376703061
C            -0.5942555622       12.5520065628       12.6712086165
C             1.5535013041        4.7620298794        9.0294209488
C             2.2146371986        2.0181471919        2.7004408826
C             0.6877761709        9.8081362008        4.5330898981
C            -0.2838114347       13.5618633743       11.7666338093
C             1.2430487832        5.7718562303        9.9339868114
C             2.5476223069        0.6931170686        2.4204114847
C             0.3547911985        8.4831360293        4.8131341792
C            -0.6167940923       14.8868646796       12.0466743501
C             1.5760374055        7.0968806510        9.6539504771
C             2.1359281259        4.4162542358        2.0886337340
C             0.7665293220       12.2062703566        5.1448550573
C            -0.2050686275       11.1637354796       12.3784113304
C             1.1643062330        3.3737279311        9.3222221397
C             1.2875828327        5.1549045493       14.4554323778
C            -0.3283925451       12.9451069324        7.2453471026
C             0.6431918676       10.4248837998        0.0118121879
C             2.2591695247        2.6350994871        7.2218920713
C             2.2829960038        6.8001157668        1.5569049970
C             0.6194112491       14.5901291054        5.6766399959
C            -0.3521754156        8.7798708289       12.9101829616
C             1.3114089836        0.9898844922        8.7904497698
H            -0.7621708410        1.9247418295       11.7413390618
H             1.7214081083        9.7147445235        9.9592900631
H             2.6929934972       13.6552547636        2.7257489663
H             0.2094151029        5.8652587775        4.5077968454
H            -1.3365420534        4.2224959584       12.2844422723
H             2.2957790840       12.0124969192        9.4161793705
H             3.2673659052       11.3575027900        2.1826378244
H            -0.3649554670        3.5675041254        5.0509002165
H             1.7104969234        2.2746044796        3.6318376763
H             1.1919183546       10.0646092192        3.6017032507
H             0.2203326072       13.3053912794       10.8352443609
H             0.7389113518        5.5153950505       10.8653774314
H             2.2880553695       -0.0682296639        3.1540195516
H             0.6143578218        7.7217739989        4.0795200484
H            -0.3572286070       15.6482259481       11.3130627938
H             1.3164694982        7.8582296724       10.3875613295
H             1.2789301024        7.0826125760        1.2261271188
H             1.6234834420       14.8726158020        6.0074150017
H             0.6518958529        8.4973841537       13.2409567468
H             0.3073440933        0.7073875529        8.4596684588
H             3.0015405616        7.4583452208        1.0649809562
H            -0.0991242196       15.2483446504        6.1685591406
H            -1.0707112342        8.1216556199       13.4020990743
H             2.0299553337        0.3316549147        8.2985215085
H             2.3477347174        6.9028457872        2.6445415924
H             0.5546793919       14.6928507595        4.5889954577
H            -0.4169062832        8.6771500696       11.8225363601
H             1.3761488405        0.8871540301        9.8780822386
End final coordinates



     Writing all to output data dir /scratch/calc/outdir/pwscf.save/
 
     init_run     :      2.14s CPU      2.37s WALL (       1 calls)
     electrons    :    808.97s CPU    899.32s WALL (      29 calls)
     update_pot   :     17.14s CPU     17.57s WALL (      28 calls)
     forces       :     47.19s CPU     64.27s WALL (      29 calls)
     force_dftd3  :     19.84s CPU     33.43s WALL (      29 calls)

     Called by init_run:
     wfcinit      :      1.28s CPU      1.43s WALL (       1 calls)
     potinit      :      0.23s CPU      0.25s WALL (       1 calls)
     hinit0       :      0.39s CPU      0.43s WALL (       1 calls)

     Called by electrons:
     c_bands      :    680.19s CPU    751.40s WALL (     260 calls)
     sum_band     :     91.89s CPU     98.35s WALL (     260 calls)
     v_of_rho     :      4.43s CPU      4.97s WALL (     273 calls)
     newd         :     10.77s CPU     12.08s WALL (     273 calls)
     PAW_pot      :     13.32s CPU     13.44s WALL (     301 calls)
     mix_rho      :      0.58s CPU      0.66s WALL (     260 calls)
     energy_dftd3 :     10.37s CPU     20.38s WALL (      29 calls)

     Called by c_bands:
     init_us_2    :      6.41s CPU      6.63s WALL (    4624 calls)
     init_us_2:cp :      6.39s CPU      6.62s WALL (    4624 calls)
     cegterg      :    662.80s CPU    731.94s WALL (    2080 calls)

     Called by *egterg:
     cdiaghg      :    162.97s CPU    194.48s WALL (    8208 calls)
     h_psi        :    342.86s CPU    357.45s WALL (    8568 calls)
     s_psi        :     36.19s CPU     36.42s WALL (    8568 calls)
     g_psi        :      0.74s CPU      0.79s WALL (    6480 calls)

     Called by h_psi:
     h_psi:calbec :     46.86s CPU     51.37s WALL (    8568 calls)
     vloc_psi     :    257.93s CPU    267.52s WALL (    8568 calls)
     add_vuspsi   :     36.69s CPU     36.97s WALL (    8568 calls)

     General routines
     calbec       :     75.68s CPU     83.78s WALL (   11800 calls)
     fft          :      4.64s CPU      7.05s WALL (    3854 calls)
     ffts         :      0.16s CPU      0.17s WALL (     533 calls)
     fftw         :    276.44s CPU    287.86s WALL ( 2259138 calls)
     interpolate  :      0.34s CPU      0.40s WALL (     273 calls)
 
     Parallel routines
 
     PWSCF        :  14m43.57s CPU  16m36.39s WALL

 
   This run was terminated on:  22:40:30   7Mar2024            

=------------------------------------------------------------------------------=
   JOB DONE.
=------------------------------------------------------------------------------=
