
     Program PWSCF v.7.2 starts on 29Aug2023 at  3:26:58 

     This program is part of the open-source Quantum ESPRESSO suite
     for quantum simulation of materials; please cite
         "P. Giannozzi et al., J. Phys.:Condens. Matter 21 395502 (2009);
         "P. Giannozzi et al., J. Phys.:Condens. Matter 29 465901 (2017);
         "P. Giannozzi et al., J. Chem. Phys. 152 154105 (2020);
          URL http://www.quantum-espresso.org", 
     in publications or presentations arising from this work. More details at
     http://www.quantum-espresso.org/quote

     Parallel version (MPI), running on    36 processors

     MPI processes distributed on     1 nodes
     769092 MiB available memory on the printing compute node when the environment starts
 
     Waiting for input...
     Reading input from standard input
Warning: card &CELL ignored
Warning: card / ignored

     Current dimensions of program PWSCF are:
     Max number of different atomic species (ntypx) = 10
     Max number of k-points (npk) =  40000
     Max angular momentum in pseudopotentials (lmaxx) =  4
     file Mo.pbe-spn-kjpaw_psl.1.0.0.UPF: wavefunction(s)  4S 4D renormalized
     file S.pbe-n-kjpaw_psl.1.0.0.UPF: wavefunction(s)  3S 3P renormalized
     file Pd.pbe-spn-kjpaw_psl.1.0.0.UPF: wavefunction(s)  4S 5S 4D renormalized
     file H.pbe-kjpaw_psl.1.0.0.UPF: wavefunction(s)  1S renormalized
 
     R & G space division:  proc/nbgrp/npool/nimage =      36
     Subspace diagonalization in iterative solution of the eigenvalue problem:
     one sub-group per band group will be used
     custom distributed-memory algorithm (size of sub-group:  6*  6 procs)

 
     Parallelization info
     --------------------
     sticks:   dense  smooth     PW     G-vecs:    dense   smooth      PW
     Min         586     335     89               165416    71459    9765
     Max         587     337     90               165425    71461    9778
     Sum       21109   12085   3205              5955087  2572543  351657
 
     Using Slab Decomposition
 


     bravais-lattice index     =            0
     lattice parameter (alat)  =      23.8395  a.u.
     unit-cell volume          =   28182.8498 (a.u.)^3
     number of atoms/cell      =          146
     number of atomic types    =            4
     number of electrons       =      1267.00
     number of Kohn-Sham states=          761
     kinetic-energy cutoff     =      77.0000  Ry
     charge density cutoff     =     539.0000  Ry
     scf convergence threshold =      1.0E-06
     mixing beta               =       0.2000
     number of iterations used =            8  plain     mixing
     energy convergence thresh.=      1.0E-04
     force convergence thresh. =      1.0E-03
     Exchange-correlation= SLA  PW   PBX  PBC
                           (   1   4   3   4   0   0   0)
     nstep                     =         1000


     Effective Screening Medium Method
     =================================
     Boundary Conditions: Vacuum-Slab-Vacuum
     total charge in unit cell        =   0.0000
     grid points for fit at edges     =        4 
 

     celldm(1)=  23.839504  celldm(2)=   0.000000  celldm(3)=   0.000000
     celldm(4)=   0.000000  celldm(5)=   0.000000  celldm(6)=   0.000000

     crystal axes: (cart. coord. in units of alat)
               a(1) = (   1.000000   0.000000   0.000000 )  
               a(2) = (  -0.500001   0.866026   0.000000 )  
               a(3) = (   0.000000   0.000000   2.401941 )  

     reciprocal axes: (cart. coord. in units 2 pi/alat)
               b(1) = (  1.000000  0.577351  0.000000 )  
               b(2) = (  0.000000  1.154700  0.000000 )  
               b(3) = (  0.000000  0.000000  0.416330 )  


     PseudoPot. # 1 for Mo read from file:
     ./pseudo/Mo.pbe-spn-kjpaw_psl.1.0.0.UPF
     MD5 check sum: 317bf72632116215fd98f72de1686f13
     Pseudo is Projector augmented-wave + core cor, Zval = 14.0
     Generated using 'atomic' code by A. Dal Corso  v.7.2
     Shape of augmentation charge: PSQ
     Using radial grid of 1229 points,  6 beta functions with: 
                l(1) =   0
                l(2) =   0
                l(3) =   1
                l(4) =   1
                l(5) =   2
                l(6) =   2
     Q(r) pseudized with 0 coefficients 


     PseudoPot. # 2 for S  read from file:
     ./pseudo/S.pbe-n-kjpaw_psl.1.0.0.UPF
     MD5 check sum: 8b7b5302570d38d5e87fed6a1065abda
     Pseudo is Projector augmented-wave + core cor, Zval =  6.0
     Generated using 'atomic' code by A. Dal Corso  v.7.2
     Shape of augmentation charge: PSQ
     Using radial grid of 1151 points,  6 beta functions with: 
                l(1) =   0
                l(2) =   0
                l(3) =   1
                l(4) =   1
                l(5) =   2
                l(6) =   2
     Q(r) pseudized with 0 coefficients 


     PseudoPot. # 3 for Pd read from file:
     ./pseudo/Pd.pbe-spn-kjpaw_psl.1.0.0.UPF
     MD5 check sum: a60571a671f2502b8a6a4569d20a6edb
     Pseudo is Projector augmented-wave + core cor, Zval = 18.0
     Generated using 'atomic' code by A. Dal Corso  v.7.2
     Shape of augmentation charge: PSQ
     Using radial grid of 1235 points,  6 beta functions with: 
                l(1) =   0
                l(2) =   0
                l(3) =   1
                l(4) =   1
                l(5) =   2
                l(6) =   2
     Q(r) pseudized with 0 coefficients 


     PseudoPot. # 4 for H  read from file:
     ./pseudo/H.pbe-kjpaw_psl.1.0.0.UPF
     MD5 check sum: b3cb3c48ee3b58cc53e4d592112d0ca6
     Pseudo is Projector augmented-wave, Zval =  1.0
     Generated using 'atomic' code by A. Dal Corso  v.7.2
     Shape of augmentation charge: PSQ
     Using radial grid of  929 points,  2 beta functions with: 
                l(1) =   0
                l(2) =   0
     Q(r) pseudized with 0 coefficients 


     atomic species   valence    mass     pseudopotential
        Mo            14.00    95.95000     Mo( 1.00)
        S              6.00    32.06000     S ( 1.00)
        Pd            18.00   106.42000     Pd( 1.00)
        H              1.00     1.00800     H ( 1.00)

     No symmetry found



   Cartesian axes

     site n.     atom                  positions (alat units)
         1           Mo  tau(   1) = (   0.1244805   0.2154429   0.4826124  )
         2           Mo  tau(   2) = (   0.1250004   0.0721694  -0.4825273  )
         3           Mo  tau(   3) = (   0.0000154   0.1443583  -0.0000534  )
         4           S   tau(   4) = (   0.0000004   0.0000006  -0.6064556  )
         5           S   tau(   5) = (   0.1249822   0.0722030  -0.1241916  )
         6           S   tau(   6) = (   0.0001873   0.1444894   0.3573292  )
         7           S   tau(   7) = (   0.0000004   0.0000005  -0.3584711  )
         8           S   tau(   8) = (   0.1250220   0.0721432   0.1241096  )
         9           S   tau(   9) = (  -0.0009222   0.1433430   0.6062350  )
        10           Mo  tau(  10) = (  -0.0011812   0.4330952   0.4826123  )
        11           Mo  tau(  11) = (   0.0000001   0.2886759  -0.4825273  )
        12           Mo  tau(  12) = (  -0.1249761   0.3608493  -0.0000533  )
        13           S   tau(  13) = (  -0.1249999   0.2165071  -0.6064556  )
        14           S   tau(  14) = (   0.0000232   0.2886904  -0.1241345  )
        15           S   tau(  15) = (  -0.1247753   0.3609305   0.3573291  )
        16           S   tau(  16) = (  -0.1249998   0.2165070  -0.3584711  )
        17           S   tau(  17) = (   0.0000901   0.2887289   0.1242236  )
        18           S   tau(  18) = (  -0.1263226   0.3605428   0.6062351  )
        19           Mo  tau(  19) = (  -0.1251400   0.6495983   0.4819363  )
        20           Mo  tau(  20) = (  -0.1250002   0.5051824  -0.4825273  )
        21           Mo  tau(  21) = (  -0.2500026   0.5773383  -0.0001491  )
        22           S   tau(  22) = (  -0.2500002   0.4330136  -0.6064556  )
        23           S   tau(  23) = (  -0.1249812   0.5051509  -0.1241919  )
        24           S   tau(  24) = (  -0.2500015   0.5775831   0.3575295  )
        25           S   tau(  25) = (  -0.2500001   0.4330135  -0.3584711  )
        26           S   tau(  26) = (  -0.1250129   0.5052153   0.1241101  )
        27           S   tau(  27) = (  -0.2500018   0.5771934   0.6060379  )
        28           Mo  tau(  28) = (   0.2499987  -0.0001601   0.4819365  )
        29           Mo  tau(  29) = (  -0.2500004   0.7216889  -0.4825273  )
        30           Mo  tau(  30) = (  -0.3750135   0.7938631  -0.0001491  )
        31           S   tau(  31) = (  -0.3750004   0.6495201  -0.6064556  )
        32           S   tau(  32) = (  -0.2500026   0.7216883  -0.1242347  )
        33           S   tau(  33) = (  -0.3747997   0.7937400   0.3575295  )
        34           S   tau(  34) = (  -0.3750004   0.6495200  -0.3584711  )
        35           S   tau(  35) = (  -0.2500029   0.7216883   0.1240299  )
        36           S   tau(  36) = (  -0.3751376   0.7939346   0.6060379  )
        37           Mo  tau(  37) = (   0.3755166   0.2154425   0.4826119  )
        38           Mo  tau(  38) = (   0.3750004   0.0721694  -0.4825273  )
        39           Mo  tau(  39) = (   0.2499990   0.1443474  -0.0000968  )
        40           S   tau(  40) = (   0.2500004   0.0000006  -0.6064556  )
        41           S   tau(  41) = (   0.3750152   0.0722028  -0.1241921  )
        42           S   tau(  42) = (   0.2499983   0.1443201   0.3580593  )
        43           S   tau(  43) = (   0.2500004   0.0000005  -0.3584711  )
        44           S   tau(  44) = (   0.3749754   0.0721432   0.1241106  )
        45           S   tau(  45) = (   0.2499987   0.1437775   0.6065499  )
        46           Mo  tau(  46) = (   0.2499984   0.4330123   0.4872880  )
        47           Mo  tau(  47) = (   0.2500001   0.2886759  -0.4825273  )
        48           Mo  tau(  48) = (   0.1250277   0.3608616  -0.0000572  )
        49           S   tau(  49) = (   0.1250001   0.2165071  -0.6064556  )
        50           S   tau(  50) = (   0.2499987   0.2886898  -0.1241693  )
        51           S   tau(  51) = (   0.1266397   0.3617911   0.3615924  )
        52           S   tau(  52) = (   0.1250002   0.2165070  -0.3584711  )
        53           S   tau(  53) = (   0.2499988   0.2886671   0.1241958  )
        54           S   tau(  54) = (   0.1173054   0.3564020   0.6108885  )
        55           Mo  tau(  55) = (   0.1243363   0.6504991   0.4826116  )
        56           Mo  tau(  56) = (   0.1249998   0.5051824  -0.4825273  )
        57           Mo  tau(  57) = (   0.0000060   0.5773464  -0.0000969  )
        58           S   tau(  58) = (  -0.0000002   0.4330136  -0.6064556  )
        59           S   tau(  59) = (   0.1250101   0.5051751  -0.1241696  )
        60           S   tau(  60) = (  -0.0000165   0.5773581   0.3580590  )
        61           S   tau(  61) = (  -0.0000001   0.4330135  -0.3584711  )
        62           S   tau(  62) = (   0.1249907   0.5051868   0.1241956  )
        63           S   tau(  63) = (  -0.0004863   0.5776299   0.6065497  )
        64           Mo  tau(  64) = (   0.5000682   0.0000393   0.4813064  )
        65           Mo  tau(  65) = (  -0.0000004   0.7216889  -0.4825273  )
        66           Mo  tau(  66) = (  -0.1249919   0.7938635  -0.0001489  )
        67           S   tau(  67) = (  -0.1250004   0.6495201  -0.6064556  )
        68           S   tau(  68) = (   0.0000350   0.7216859  -0.1241920  )
        69           S   tau(  69) = (  -0.1252051   0.7937392   0.3575294  )
        70           S   tau(  70) = (  -0.1250004   0.6495200  -0.3584711  )
        71           S   tau(  71) = (  -0.0000364   0.7216812   0.1241103  )
        72           S   tau(  72) = (  -0.1248667   0.7939344   0.6060378  )
        73           Mo  tau(  73) = (   0.6250985   0.2164481   0.4814760  )
        74           Mo  tau(  74) = (   0.6250004   0.0721694  -0.4825273  )
        75           Mo  tau(  75) = (   0.4999807   0.1443583  -0.0000532  )
        76           S   tau(  76) = (   0.5000004   0.0000006  -0.6064556  )
        77           S   tau(  77) = (   0.6249710   0.0721537  -0.1241599  )
        78           S   tau(  78) = (   0.4998101   0.1444887   0.3573287  )
        79           S   tau(  79) = (   0.5000004   0.0000005  -0.3584711  )
        80           S   tau(  80) = (   0.6250072   0.0721744   0.1241160  )
        81           S   tau(  81) = (   0.5009199   0.1433424   0.6062338  )
        82           Mo  tau(  82) = (   0.5011786   0.4330950   0.4826115  )
        83           Mo  tau(  83) = (   0.5000001   0.2886759  -0.4825273  )
        84           Mo  tau(  84) = (   0.3749686   0.3608615  -0.0000573  )
        85           S   tau(  85) = (   0.3750001   0.2165071  -0.6064556  )
        86           S   tau(  86) = (   0.4999725   0.2886900  -0.1241349  )
        87           S   tau(  87) = (   0.3733572   0.3617909   0.3615920  )
        88           S   tau(  88) = (   0.3750002   0.2165070  -0.3584711  )
        89           S   tau(  89) = (   0.4999057   0.2887288   0.1242238  )
        90           S   tau(  90) = (   0.3826919   0.3564018   0.6108876  )
        91           Mo  tau(  91) = (   0.3756598   0.6504996   0.4826113  )
        92           Mo  tau(  92) = (   0.3749998   0.5051824  -0.4825273  )
        93           Mo  tau(  93) = (   0.2499978   0.5773166  -0.0000576  )
        94           S   tau(  94) = (   0.2499998   0.4330136  -0.6064556  )
        95           S   tau(  95) = (   0.3749857   0.5051746  -0.1241697  )
        96           S   tau(  96) = (   0.2499981   0.5754545   0.3615919  )
        97           S   tau(  97) = (   0.2499999   0.4330135  -0.3584711  )
        98           S   tau(  98) = (   0.3750048   0.5051860   0.1241960  )
        99           S   tau(  99) = (   0.2499983   0.5862331   0.6108872  )
       100           Mo  tau( 100) = (   0.7499988   0.0001148   0.4814756  )
       101           Mo  tau( 101) = (   0.2499996   0.7216889  -0.4825273  )
       102           Mo  tau( 102) = (   0.1250062   0.7938321  -0.0000534  )
       103           S   tau( 103) = (   0.1249996   0.6495201  -0.6064556  )
       104           S   tau( 104) = (   0.2499971   0.7216593  -0.1241350  )
       105           S   tau( 105) = (   0.1250350   0.7936175   0.3573284  )
       106           S   tau( 106) = (   0.1249996   0.6495200  -0.3584711  )
       107           S   tau( 107) = (   0.2499972   0.7215818   0.1242234  )
       108           S   tau( 108) = (   0.1245975   0.7951515   0.6062336  )
       109           Mo  tau( 109) = (  -0.1251006   0.2164484   0.4814769  )
       110           Mo  tau( 110) = (   0.8750004   0.0721694  -0.4825273  )
       111           Mo  tau( 111) = (   0.7499976   0.1443379  -0.0001196  )
       112           S   tau( 112) = (   0.7500004   0.0000006  -0.6064556  )
       113           S   tau( 113) = (   0.8750246   0.0721533  -0.1241599  )
       114           S   tau( 114) = (   0.7499994   0.1443376   0.3572937  )
       115           S   tau( 115) = (   0.7500004   0.0000005  -0.3584711  )
       116           S   tau( 116) = (   0.8749884   0.0721739   0.1241157  )
       117           S   tau( 117) = (   0.7499987   0.1443370   0.6058240  )
       118           Mo  tau( 118) = (  -0.2500010   0.4329316   0.4813070  )
       119           Mo  tau( 119) = (   0.7500001   0.2886759  -0.4825273  )
       120           Mo  tau( 120) = (   0.6249710   0.3608493  -0.0000534  )
       121           S   tau( 121) = (   0.6250001   0.2165071  -0.6064556  )
       122           S   tau( 122) = (   0.7499973   0.2887067  -0.1241600  )
       123           S   tau( 123) = (   0.6247737   0.3609305   0.3573287  )
       124           S   tau( 124) = (   0.6250002   0.2165070  -0.3584711  )
       125           S   tau( 125) = (   0.7499971   0.2886649   0.1241160  )
       126           S   tau( 126) = (   0.6263203   0.3605423   0.6062340  )
       127           Mo  tau( 127) = (  -0.3748636   0.6495986   0.4819361  )
       128           Mo  tau( 128) = (   0.6249998   0.5051824  -0.4825273  )
       129           Mo  tau( 129) = (   0.4999891   0.5773453  -0.0000967  )
       130           S   tau( 130) = (   0.4999998   0.4330136  -0.6064556  )
       131           S   tau( 131) = (   0.6249761   0.5051506  -0.1241920  )
       132           S   tau( 132) = (   0.5000130   0.5773585   0.3580587  )
       133           S   tau( 133) = (   0.4999999   0.4330135  -0.3584711  )
       134           S   tau( 134) = (   0.6250081   0.5052147   0.1241104  )
       135           S   tau( 135) = (   0.5004826   0.5776298   0.6065487  )
       136           Mo  tau( 136) = (  -0.0000706   0.0000401   0.4813070  )
       137           Mo  tau( 137) = (   0.4999996   0.7216889  -0.4825273  )
       138           Mo  tau( 138) = (   0.3749881   0.7938314  -0.0000535  )
       139           S   tau( 139) = (   0.3749996   0.6495201  -0.6064556  )
       140           S   tau( 140) = (   0.4999594   0.7216844  -0.1241918  )
       141           S   tau( 141) = (   0.3749610   0.7936184   0.3573285  )
       142           S   tau( 142) = (   0.3749996   0.6495200  -0.3584711  )
       143           S   tau( 143) = (   0.5000310   0.7216802   0.1241101  )
       144           S   tau( 144) = (   0.3753979   0.7951517   0.6062337  )
       145           Pd  tau( 145) = (   0.2499985   0.4330123   0.7148096  )
       146           H   tau( 146) = (  -0.0004756   0.5776309   0.7175401  )

     --------------------------------------------
     DFT-D3 Dispersion Correction (3-body terms):
     --------------------------------------------
       Reference C6 values for interpolation: 

         atom   Coordination number   C6
         H          0.912             6.05
         H          0.000            15.18
         S          0.000           268.01
         S          0.995           261.99
         S          1.990           251.62
         Mo         0.000          1691.79
         Mo         1.942          1004.01
         Mo        11.056           674.22
         Pd         0.000          1217.01
         Pd         1.863           573.90
         Pd         5.710           531.75

       Values used:

         atom   Coordination number  R0_AB[au]  C6      C8
         Mo        10.173            3.547    674.22  77634.20
         Mo        10.189            3.547    674.22  77634.20
         Mo        10.200            3.547    674.22  77634.20
         S          3.753            3.128    251.62  12327.25
         S          3.858            3.128    251.62  12327.25
         S          3.848            3.128    251.62  12327.25
         S          3.859            3.128    251.62  12327.25
         S          3.860            3.128    251.62  12327.25
         S          3.798            3.128    251.62  12327.25
         Mo        10.174            3.547    674.22  77634.20
         Mo        10.189            3.547    674.22  77634.20
         Mo        10.201            3.547    674.22  77634.20
         S          3.753            3.128    251.62  12327.25
         S          3.859            3.128    251.62  12327.25
         S          3.848            3.128    251.62  12327.25
         S          3.858            3.128    251.62  12327.25
         S          3.855            3.128    251.62  12327.25
         S          3.799            3.128    251.62  12327.25
         Mo        10.210            3.547    674.22  77634.20
         Mo        10.189            3.547    674.22  77634.20
         Mo        10.200            3.547    674.22  77634.20
         S          3.753            3.128    251.62  12327.25
         S          3.858            3.128    251.62  12327.25
         S          3.862            3.128    251.62  12327.25
         S          3.859            3.128    251.62  12327.25
         S          3.860            3.128    251.62  12327.25
         S          3.759            3.128    251.62  12327.25
         Mo        10.208            3.547    674.22  77634.20
         Mo        10.189            3.547    674.22  77634.20
         Mo        10.200            3.547    674.22  77634.20
         S          3.753            3.128    251.62  12327.25
         S          3.858            3.128    251.62  12327.25
         S          3.862            3.128    251.62  12327.25
         S          3.859            3.128    251.62  12327.25
         S          3.862            3.128    251.62  12327.25
         S          3.759            3.128    251.62  12327.25
         Mo        10.173            3.547    674.22  77634.20
         Mo        10.189            3.547    674.22  77634.20
         Mo        10.202            3.547    674.22  77634.20
         S          3.753            3.128    251.62  12327.25
         S          3.858            3.128    251.62  12327.25
         S          3.857            3.128    251.62  12327.25
         S          3.859            3.128    251.62  12327.25
         S          3.860            3.128    251.62  12327.25
         S          3.751            3.128    251.62  12327.25
         Mo        10.810            3.547    674.22  77634.20
         Mo        10.189            3.547    674.22  77634.20
         Mo        10.202            3.547    674.22  77634.20
         S          3.753            3.128    251.62  12327.25
         S          3.859            3.128    251.62  12327.25
         S          3.866            3.128    251.62  12327.25
         S          3.859            3.128    251.62  12327.25
         S          3.853            3.128    251.62  12327.25
         S          4.646            3.128    251.62  12327.25
         Mo        10.174            3.547    674.22  77634.20
         Mo        10.189            3.547    674.22  77634.20
         Mo        10.202            3.547    674.22  77634.20
         S          3.753            3.128    251.62  12327.25
         S          3.859            3.128    251.62  12327.25
         S          3.857            3.128    251.62  12327.25
         S          3.859            3.128    251.62  12327.25
         S          3.853            3.128    251.62  12327.25
         S          4.739            3.128    251.62  12327.25
         Mo        10.223            3.547    674.22  77634.20
         Mo        10.189            3.547    674.22  77634.20
         Mo        10.200            3.547    674.22  77634.20
         S          3.753            3.128    251.62  12327.25
         S          3.858            3.128    251.62  12327.25
         S          3.862            3.128    251.62  12327.25
         S          3.859            3.128    251.62  12327.25
         S          3.860            3.128    251.62  12327.25
         S          3.759            3.128    251.62  12327.25
         Mo        10.213            3.547    674.22  77634.20
         Mo        10.189            3.547    674.22  77634.20
         Mo        10.201            3.547    674.22  77634.20
         S          3.753            3.128    251.62  12327.25
         S          3.858            3.128    251.62  12327.25
         S          3.848            3.128    251.62  12327.25
         S          3.859            3.128    251.62  12327.25
         S          3.860            3.128    251.62  12327.25
         S          3.798            3.128    251.62  12327.25
         Mo        10.173            3.547    674.22  77634.20
         Mo        10.189            3.547    674.22  77634.20
         Mo        10.202            3.547    674.22  77634.20
         S          3.753            3.128    251.62  12327.25
         S          3.859            3.128    251.62  12327.25
         S          3.866            3.128    251.62  12327.25
         S          3.859            3.128    251.62  12327.25
         S          3.855            3.128    251.62  12327.25
         S          4.645            3.128    251.62  12327.25
         Mo        10.173            3.547    674.22  77634.20
         Mo        10.189            3.547    674.22  77634.20
         Mo        10.202            3.547    674.22  77634.20
         S          3.753            3.128    251.62  12327.25
         S          3.859            3.128    251.62  12327.25
         S          3.866            3.128    251.62  12327.25
         S          3.859            3.128    251.62  12327.25
         S          3.853            3.128    251.62  12327.25
         S          4.646            3.128    251.62  12327.25
         Mo        10.213            3.547    674.22  77634.20
         Mo        10.189            3.547    674.22  77634.20
         Mo        10.201            3.547    674.22  77634.20
         S          3.753            3.128    251.62  12327.25
         S          3.859            3.128    251.62  12327.25
         S          3.848            3.128    251.62  12327.25
         S          3.859            3.128    251.62  12327.25
         S          3.855            3.128    251.62  12327.25
         S          3.799            3.128    251.62  12327.25
         Mo        10.213            3.547    674.22  77634.20
         Mo        10.189            3.547    674.22  77634.20
         Mo        10.199            3.547    674.22  77634.20
         S          3.753            3.128    251.62  12327.25
         S          3.858            3.128    251.62  12327.25
         S          3.855            3.128    251.62  12327.25
         S          3.858            3.128    251.62  12327.25
         S          3.860            3.128    251.62  12327.25
         S          3.777            3.128    251.62  12327.25
         Mo        10.223            3.547    674.22  77634.20
         Mo        10.189            3.547    674.22  77634.20
         Mo        10.201            3.547    674.22  77634.20
         S          3.753            3.128    251.62  12327.25
         S          3.858            3.128    251.62  12327.25
         S          3.848            3.128    251.62  12327.25
         S          3.858            3.128    251.62  12327.25
         S          3.860            3.128    251.62  12327.25
         S          3.798            3.128    251.62  12327.25
         Mo        10.208            3.547    674.22  77634.20
         Mo        10.189            3.547    674.22  77634.20
         Mo        10.202            3.547    674.22  77634.20
         S          3.753            3.128    251.62  12327.25
         S          3.858            3.128    251.62  12327.25
         S          3.857            3.128    251.62  12327.25
         S          3.859            3.128    251.62  12327.25
         S          3.860            3.128    251.62  12327.25
         S          3.751            3.128    251.62  12327.25
         Mo        10.222            3.547    674.22  77634.20
         Mo        10.189            3.547    674.22  77634.20
         Mo        10.201            3.547    674.22  77634.20
         S          3.753            3.128    251.62  12327.25
         S          3.858            3.128    251.62  12327.25
         S          3.848            3.128    251.62  12327.25
         S          3.859            3.128    251.62  12327.25
         S          3.860            3.128    251.62  12327.25
         S          3.798            3.128    251.62  12327.25
         Pd         3.772            3.168    556.96  51030.43
         H          0.998            2.062      6.18     74.74

         Molecular C6 ( Ry / a.u.^6 ) =   7802245.47


     number of k points=     4  Gaussian smearing, width (Ry)=  0.0100
                       cart. coord. in units 2pi/alat
        k(    1) = (   0.0000000   0.0000000   0.0000000), wk =   0.5000000
        k(    2) = (   0.0000000  -0.5773499   0.0000000), wk =   0.5000000
        k(    3) = (  -0.5000000  -0.2886755   0.0000000), wk =   0.5000000
        k(    4) = (  -0.5000000  -0.8660254   0.0000000), wk =   0.5000000

     Dense  grid:  5955087 G-vectors     FFT dimensions: ( 180, 180, 432)

     Smooth grid:  2572543 G-vectors     FFT dimensions: ( 135, 135, 320)

     Estimated max dynamical RAM per process >       2.13 GB

     Estimated total dynamical RAM >      76.81 GB

     Initial potential from superposition of free atoms

     starting charge    1266.9542, renormalised to    1267.0000

     negative rho (up, down):  9.176E-04 0.000E+00
     Starting wfcs are  875 randomized atomic wfcs
     Checking if some PAW data can be deallocated... 

     total cpu time spent up to now is      107.4 secs

     Self-consistent Calculation

     iteration #  1     ecut=    77.00 Ry     beta= 0.20
     Davidson diagonalization with overlap
     ethr =  1.00E-02,  avg # of iterations =  2.0

     Threshold (ethr) on eigenvalues was too large:
     Diagonalizing with lowered threshold

     Davidson diagonalization with overlap
     ethr =  1.78E-04,  avg # of iterations = 14.8

     negative rho (up, down):  2.781E-04 0.000E+00

     total cpu time spent up to now is     1199.9 secs

     total energy              =  -24358.10241210 Ry
     estimated scf accuracy    <       5.13137103 Ry

     iteration #  2     ecut=    77.00 Ry     beta= 0.20
     Davidson diagonalization with overlap
     ethr =  4.05E-04,  avg # of iterations =  5.5

     negative rho (up, down):  5.785E-05 0.000E+00

     total cpu time spent up to now is     1431.8 secs

     total energy              =  -24357.33140600 Ry
     estimated scf accuracy    <       2.70747686 Ry

     iteration #  3     ecut=    77.00 Ry     beta= 0.20
     Davidson diagonalization with overlap
     ethr =  2.14E-04,  avg # of iterations = 12.0

     negative rho (up, down):  2.799E-05 0.000E+00

     total cpu time spent up to now is     1689.4 secs

     total energy              =  -24357.20723684 Ry
     estimated scf accuracy    <       1.96662614 Ry

     iteration #  4     ecut=    77.00 Ry     beta= 0.20
     Davidson diagonalization with overlap
     ethr =  1.55E-04,  avg # of iterations = 23.5

     negative rho (up, down):  2.291E-05 0.000E+00

     total cpu time spent up to now is     2109.4 secs

     total energy              =  -24357.41515775 Ry
     estimated scf accuracy    <       0.56067028 Ry

     iteration #  5     ecut=    77.00 Ry     beta= 0.20
     Davidson diagonalization with overlap
     c_bands:  5 eigenvalues not converged
     c_bands:  3 eigenvalues not converged
     c_bands:  3 eigenvalues not converged
     c_bands:  1 eigenvalues not converged
     ethr =  4.43E-05,  avg # of iterations = 25.0

     negative rho (up, down):  3.159E-05 0.000E+00

     total cpu time spent up to now is     2967.7 secs

     total energy              =  -24358.13504503 Ry
     estimated scf accuracy    <       0.56010694 Ry

     iteration #  6     ecut=    77.00 Ry     beta= 0.20
     Davidson diagonalization with overlap
     c_bands:  1 eigenvalues not converged
     c_bands:  3 eigenvalues not converged
     ethr =  4.42E-05,  avg # of iterations = 14.0

     negative rho (up, down):  5.527E-05 0.000E+00

     total cpu time spent up to now is     3218.5 secs

     total energy              =  -24358.09372042 Ry
     estimated scf accuracy    <       0.27847918 Ry

     iteration #  7     ecut=    77.00 Ry     beta= 0.20
     Davidson diagonalization with overlap
     c_bands:  1 eigenvalues not converged
     c_bands:  1 eigenvalues not converged
     ethr =  2.20E-05,  avg # of iterations = 24.0

     negative rho (up, down):  1.255E-04 0.000E+00

     total cpu time spent up to now is     3609.2 secs

     total energy              =  -24358.07791350 Ry
     estimated scf accuracy    <       0.14963375 Ry

     iteration #  8     ecut=    77.00 Ry     beta= 0.20
     Davidson diagonalization with overlap
     c_bands:  4 eigenvalues not converged
     c_bands:  3 eigenvalues not converged
     c_bands:  4 eigenvalues not converged
     ethr =  1.18E-05,  avg # of iterations = 24.2

     negative rho (up, down):  2.519E-04 0.000E+00

     total cpu time spent up to now is     4119.9 secs

     total energy              =  -24358.16941894 Ry
     estimated scf accuracy    <       0.05876797 Ry

     iteration #  9     ecut=    77.00 Ry     beta= 0.20
     Davidson diagonalization with overlap
     c_bands:  3 eigenvalues not converged
     c_bands:  5 eigenvalues not converged
     c_bands:  4 eigenvalues not converged
     c_bands:  5 eigenvalues not converged
     ethr =  4.64E-06,  avg # of iterations = 35.0

     negative rho (up, down):  2.829E-04 0.000E+00

     total cpu time spent up to now is     4710.3 secs

     total energy              =  -24358.18852994 Ry
     estimated scf accuracy    <       0.02029814 Ry

     iteration # 10     ecut=    77.00 Ry     beta= 0.20
     Davidson diagonalization with overlap
     c_bands:  4 eigenvalues not converged
     c_bands:  3 eigenvalues not converged
     c_bands:  5 eigenvalues not converged
     c_bands:  5 eigenvalues not converged
     ethr =  1.60E-06,  avg # of iterations = 35.0

     negative rho (up, down):  3.325E-04 0.000E+00

     total cpu time spent up to now is     5360.7 secs

     total energy              =  -24358.20288882 Ry
     estimated scf accuracy    <       0.00495151 Ry

     iteration # 11     ecut=    77.00 Ry     beta= 0.20
     Davidson diagonalization with overlap
     c_bands:  5 eigenvalues not converged
     c_bands:  4 eigenvalues not converged
     c_bands:  5 eigenvalues not converged
     ethr =  3.91E-07,  avg # of iterations = 19.2

     negative rho (up, down):  4.140E-04 0.000E+00

     total cpu time spent up to now is     5898.8 secs

     total energy              =  -24358.20582899 Ry
     estimated scf accuracy    <       0.00527821 Ry

     iteration # 12     ecut=    77.00 Ry     beta= 0.20
     Davidson diagonalization with overlap
     c_bands:  5 eigenvalues not converged
     c_bands:  4 eigenvalues not converged
     c_bands:  3 eigenvalues not converged
     ethr =  3.91E-07,  avg # of iterations = 45.5

     negative rho (up, down):  7.523E-04 0.000E+00

     total cpu time spent up to now is     6509.7 secs

     total energy              =  -24358.20507669 Ry
     estimated scf accuracy    <       0.00216808 Ry

     iteration # 13     ecut=    77.00 Ry     beta= 0.20
     Davidson diagonalization with overlap
     c_bands:  3 eigenvalues not converged
     c_bands:  3 eigenvalues not converged
     c_bands:  4 eigenvalues not converged
     ethr =  1.71E-07,  avg # of iterations = 20.0

     negative rho (up, down):  7.480E-04 0.000E+00

     total cpu time spent up to now is     7118.5 secs

     total energy              =  -24358.20741031 Ry
     estimated scf accuracy    <       0.00370948 Ry

     iteration # 14     ecut=    77.00 Ry     beta= 0.20
     Davidson diagonalization with overlap
     c_bands:  5 eigenvalues not converged
     c_bands:  5 eigenvalues not converged
     c_bands:  2 eigenvalues not converged
     ethr =  1.71E-07,  avg # of iterations = 25.2

     negative rho (up, down):  7.140E-04 0.000E+00

     total cpu time spent up to now is     7499.7 secs

     total energy              =  -24358.20623367 Ry
     estimated scf accuracy    <       0.00199502 Ry

     iteration # 15     ecut=    77.00 Ry     beta= 0.20
     Davidson diagonalization with overlap
     c_bands:  4 eigenvalues not converged
     c_bands:  3 eigenvalues not converged
     c_bands:  3 eigenvalues not converged
     ethr =  1.57E-07,  avg # of iterations = 18.2

     negative rho (up, down):  8.257E-04 0.000E+00

     total cpu time spent up to now is     7900.7 secs

     total energy              =  -24358.20692344 Ry
     estimated scf accuracy    <       0.00023463 Ry

     iteration # 16     ecut=    77.00 Ry     beta= 0.20
     Davidson diagonalization with overlap
     c_bands:  1 eigenvalues not converged
     c_bands:  4 eigenvalues not converged
     c_bands:  5 eigenvalues not converged
     c_bands:  1 eigenvalues not converged
     ethr =  1.85E-08,  avg # of iterations = 20.0

     negative rho (up, down):  8.554E-04 0.000E+00

     total cpu time spent up to now is     8490.9 secs

     total energy              =  -24358.20714875 Ry
     estimated scf accuracy    <       0.00020742 Ry

     iteration # 17     ecut=    77.00 Ry     beta= 0.20
     Davidson diagonalization with overlap
     c_bands:  2 eigenvalues not converged
     c_bands:  4 eigenvalues not converged
     c_bands:  1 eigenvalues not converged
     c_bands:  3 eigenvalues not converged
     ethr =  1.64E-08,  avg # of iterations = 25.0

     negative rho (up, down):  8.836E-04 0.000E+00

     total cpu time spent up to now is     8823.9 secs

     total energy              =  -24358.20712063 Ry
     estimated scf accuracy    <       0.00005262 Ry

     iteration # 18     ecut=    77.00 Ry     beta= 0.20
     Davidson diagonalization with overlap
     c_bands:  1 eigenvalues not converged
     c_bands:  3 eigenvalues not converged
     c_bands:  3 eigenvalues not converged
     c_bands:  1 eigenvalues not converged
     ethr =  4.15E-09,  avg # of iterations = 20.0

     negative rho (up, down):  8.948E-04 0.000E+00

     total cpu time spent up to now is     9536.0 secs

     total energy              =  -24358.20717288 Ry
     estimated scf accuracy    <       0.00009683 Ry

     iteration # 19     ecut=    77.00 Ry     beta= 0.20
     Davidson diagonalization with overlap
     c_bands:  2 eigenvalues not converged
     ethr =  4.15E-09,  avg # of iterations =  9.8

     negative rho (up, down):  8.990E-04 0.000E+00

     total cpu time spent up to now is     9889.4 secs

     total energy              =  -24358.20718834 Ry
     estimated scf accuracy    <       0.00000387 Ry

     iteration # 20     ecut=    77.00 Ry     beta= 0.20
     Davidson diagonalization with overlap
     ethr =  3.05E-10,  avg # of iterations = 21.8

     negative rho (up, down):  9.004E-04 0.000E+00

     total cpu time spent up to now is    11321.2 secs

     total energy              =  -24358.20720239 Ry
     estimated scf accuracy    <       0.00002230 Ry

     iteration # 21     ecut=    77.00 Ry     beta= 0.20
     Davidson diagonalization with overlap
     ethr =  3.05E-10,  avg # of iterations =  5.0

     negative rho (up, down):  9.063E-04 0.000E+00

     total cpu time spent up to now is    11669.5 secs

     total energy              =  -24358.20719841 Ry
     estimated scf accuracy    <       0.00000586 Ry

     iteration # 22     ecut=    77.00 Ry     beta= 0.20
     Davidson diagonalization with overlap
     ethr =  3.05E-10,  avg # of iterations = 11.8

     negative rho (up, down):  9.131E-04 0.000E+00

     total cpu time spent up to now is    12126.2 secs

     End of self-consistent calculation

          k = 0.0000 0.0000 0.0000 (321495 PWs)   bands (ev):

   -88.7204 -66.6188 -66.5918 -66.5821 -66.5751 -66.5715 -66.5669 -66.5540
   -66.5507 -66.5416 -66.5396 -66.5361 -66.5298 -66.5269 -66.5188 -66.5153
   -66.5092 -66.5089 -66.5089 -66.5088 -66.5086 -66.5086 -66.5085 -66.5075
   -66.4929 -66.4878 -66.4878 -66.4877 -66.4876 -66.4876 -66.4875 -66.4873
   -66.4872 -66.4872 -66.4737 -66.4725 -66.4723 -66.4716 -66.4708 -66.4686
   -66.4526 -66.4524 -66.4517 -66.4515 -66.4510 -66.4501 -66.4495 -66.4489
   -66.4432 -54.5382 -54.5154 -54.5135 -40.9195 -40.9141 -40.9093 -40.8564
   -40.8562 -40.8562 -40.8424 -40.8391 -40.8341 -40.8295 -40.8220 -40.8214
   -40.8185 -40.8176 -40.8176 -40.7823 -40.7816 -40.7816 -40.7815 -40.7814
   -40.7813 -40.7813 -40.7716 -40.7571 -40.7471 -40.7445 -40.7435 -40.7433
   -40.7430 -40.7421 -40.7420 -40.7222 -40.7156 -40.7097 -40.7071 -40.7035
   -40.7018 -40.6964 -40.6946 -40.6937 -40.6901 -40.6881 -40.6811 -40.6767
   -40.6723 -40.6700 -40.6682 -40.6640 -40.6606 -40.6580 -40.6561 -40.6559
   -40.6559 -40.6559 -40.6558 -40.6558 -40.6558 -40.6541 -40.6494 -40.6489
   -40.6489 -40.6488 -40.6486 -40.6486 -40.6484 -40.6483 -40.6474 -40.6400
   -40.6395 -40.6212 -40.6212 -40.6210 -40.6210 -40.6209 -40.6209 -40.6191
   -40.6185 -40.6182 -40.6168 -40.6167 -40.6166 -40.6146 -40.6136 -40.6134
   -40.6129 -40.6124 -40.6089 -40.6073 -40.6072 -40.6071 -40.6071 -40.6071
   -40.6070 -40.6068 -40.6067 -40.6066 -40.5961 -40.5883 -40.5862 -40.5842
   -40.5840 -40.5829 -40.5826 -40.5816 -40.5816 -40.5732 -40.5729 -40.5722
   -40.5721 -40.5717 -40.5711 -40.5706 -40.5702 -40.5627 -40.5497 -40.5489
   -40.5466 -40.5433 -40.5432 -40.5432 -40.5377 -40.5340 -40.5273 -40.5051
   -40.5051 -40.5050 -40.4966 -40.4965 -40.4965 -40.4963 -40.4963 -40.4963
   -40.4904 -40.4875 -40.4594 -40.4591 -40.4586 -40.4579 -40.4574 -40.4572
   -40.4491 -40.4491 -40.4109 -40.4109 -20.2896 -19.9715 -19.8405 -19.7301
   -19.2194 -19.2033 -19.1690 -19.1495 -19.1465 -19.1074 -19.0904 -19.0892
   -19.0813 -19.0692 -19.0658 -18.9824 -18.9493 -18.9489 -18.9444 -18.9356
   -18.9338 -18.8391 -18.7336 -18.6071 -18.4628 -18.4562 -18.4383 -18.3858
   -18.3661 -18.3608 -18.3274 -18.2726 -18.2664 -18.2585 -18.2305 -18.2270
   -18.2125 -18.1582 -18.1142 -18.0874 -18.0786 -18.0770 -18.0761 -18.0751
   -18.0670 -18.0442 -18.0437 -18.0331 -18.0160 -18.0117 -18.0109 -17.9966
   -17.9960 -17.9908 -17.9884 -17.9861 -17.9850 -17.9632 -17.9606 -17.9600
   -17.9477 -17.9473 -17.9360 -17.9184 -17.9180 -17.9128 -17.9064 -17.9061
   -17.9015 -17.8670 -17.8656 -17.8579 -17.8439 -17.8407 -17.8294 -17.8245
   -17.8214 -17.8205 -17.7854 -17.7850 -17.7831 -17.7659 -17.7641 -17.7610
   -17.7589 -17.7575 -17.7558 -17.7269 -17.7269 -17.7261 -17.6920 -17.6910
   -17.6895 -17.6889 -17.6869 -17.6863 -12.9805 -11.8165 -11.7601 -11.7468
   -11.7429 -11.6139 -11.6126 -11.6123 -11.5384 -11.5370 -11.5366 -11.4726
   -11.2043 -11.1551 -11.1246 -11.1229 -11.1098 -11.1046 -11.1035 -11.1011
   -11.0746 -11.0728 -11.0582 -11.0303 -11.0145 -10.9956 -10.9883 -10.9800
   -10.9735 -10.9728 -10.9385 -10.9151 -10.9063 -10.8990 -10.8744 -10.8723
   -10.8565 -10.8539 -10.8494 -10.8370 -10.8296 -10.8134 -10.8071 -10.8050
   -10.7975 -10.7909 -10.7853 -10.7727 -10.7621 -10.7210 -10.7115 -10.6920
   -10.6851 -10.6851 -10.6850 -10.6849 -10.6847 -10.6847 -10.6763 -10.6759
   -10.6750 -10.6744 -10.6738 -10.6732 -10.6533 -10.6514 -10.6402 -10.5761
   -10.5757 -10.5698 -10.5424 -10.5252 -10.5225 -10.5172 -10.5134 -10.4464
   -10.1982 -10.1769  -9.9252  -9.9206  -9.9168  -9.8256  -9.8229  -9.8080
    -9.7528  -9.7242  -9.7188  -9.7077  -9.6950  -9.6908  -9.6901  -9.6698
    -9.6528  -9.6481  -9.6032  -9.6007  -9.5924  -9.5898  -9.5880  -9.5830
    -9.5494  -9.5479  -9.5364  -9.5335  -9.5326  -9.5242  -9.5122  -9.5072
    -9.4795  -9.4778  -9.4724  -9.4707  -9.4684  -9.4653  -9.4498  -9.4495
    -9.4479  -9.4454  -9.4453  -9.4446  -9.3624  -9.3396  -9.3206  -9.3044
    -9.3038  -9.3021  -9.2777  -9.2707  -9.2651  -9.2645  -9.2610  -9.2406
    -9.2308  -9.2253  -9.2167  -9.2102  -9.1832  -9.1711  -9.1081  -9.0989
    -9.0945  -9.0887  -9.0882  -9.0841  -9.0516  -9.0333  -8.9793  -8.9765
    -8.9437  -8.9372  -8.9343  -8.9307  -8.9131  -8.8857  -8.8744  -8.8716
    -8.8710  -8.8548  -8.8388  -8.8186  -8.8104  -8.8098  -8.8078  -8.7879
    -8.7831  -8.7460  -8.7406  -8.7382  -8.7296  -8.7276  -8.7056  -8.6672
    -8.6496  -8.6485  -8.6439  -8.6389  -8.6387  -8.6271  -8.6109  -8.6050
    -8.6030  -8.5985  -8.5979  -8.5112  -8.4167  -8.3924  -8.3300  -8.3143
    -8.2942  -8.2798  -8.2797  -8.2755  -8.2546  -8.2364  -8.2364  -8.2329
    -8.2198  -8.1710  -8.1708  -8.1704  -8.1702  -8.1699  -8.1695  -8.1195
    -8.1189  -8.1165  -8.1156  -8.1153  -8.1139  -8.0824  -8.0234  -7.9923
    -7.8318  -7.8219  -7.8143  -7.6569  -7.6436  -7.6104  -7.5758  -7.5652
    -7.5427  -7.5192  -7.4886  -7.4840  -7.4748  -7.4537  -7.4346  -7.4345
    -7.4343  -7.4342  -7.4337  -7.4327  -7.4313  -7.4239  -7.4191  -7.4143
    -7.3938  -7.3920  -7.3919  -7.3917  -7.3909  -7.3904  -7.3816  -7.3803
    -7.3802  -7.3793  -7.3786  -7.3779  -7.3764  -7.3706  -7.3531  -7.3453
    -7.3413  -7.3356  -7.3350  -7.3340  -7.3299  -7.3294  -7.3290  -7.3264
    -7.2585  -7.2477  -7.2440  -7.1881  -7.1516  -7.1516  -7.1412  -7.1298
    -7.1290  -7.1101  -7.1098  -7.1070  -6.9954  -6.9902  -6.9659  -6.8793
    -6.8414  -6.8027  -6.7933  -6.7820  -6.7631  -6.7254  -6.6957  -6.6725
    -6.6580  -6.6410  -6.6393  -6.6384  -6.5553  -6.5513  -6.5374  -6.5265
    -6.5244  -6.5139  -6.5094  -6.5079  -6.4830  -6.4499  -6.4444  -6.4423
    -6.4353  -6.4304  -6.4291  -6.4152  -6.4037  -6.3699  -6.3623  -6.3534
    -6.3502  -6.3486  -6.3473  -6.3472  -6.3455  -6.3447  -6.3056  -6.3035
    -6.2779  -6.2726  -6.2711  -6.2571  -6.2540  -6.2005  -6.2004  -6.2000
    -6.2000  -6.1998  -6.1998  -6.1774  -6.1713  -6.1479  -6.1473  -6.1467
    -6.1451  -6.1414  -6.1398  -6.1226  -5.8136  -5.7288  -5.6988  -5.4052
    -5.0561  -4.1402  -3.9168  -3.7947  -3.7764  -3.7534  -3.7406  -3.7311
    -3.7216  -3.7192  -3.7125  -3.7106  -3.7050  -3.6268  -3.6236  -3.5922
    -3.5718  -3.5344  -3.5285  -3.5237  -3.5158  -3.5151  -3.5076  -3.5046
    -3.5031  -3.4605  -3.4314  -3.3972  -3.3952  -3.3879  -3.3804  -3.3782
    -3.3546  -3.3523  -3.3405  -3.3404  -3.3404  -3.3195  -3.3184  -3.3121
    -3.3061  -3.3041  -3.2975  -3.2959  -3.2954  -3.2945  -3.2915  -3.2913
    -3.2840  -3.2837  -3.2793  -3.2777  -3.2563  -3.2394  -3.2075  -3.1984
    -3.1911  -3.1898  -3.1881  -3.1864  -3.1831  -3.1736  -3.1644  -3.1578
    -2.9928  -2.9795  -2.9554  -2.9267  -2.9181  -2.9138  -2.8972  -2.8756
    -2.8743  -2.8702  -2.8650  -2.8647  -2.8645  -2.8535  -2.8510  -2.8373
    -2.8343  -2.8223  -2.8220  -2.8174  -2.8157  -2.8153  -2.8078  -2.8070
    -2.8067  -2.8065  -2.8063  -2.8061  -2.8060  -2.8012  -2.7996  -2.7987
    -2.7894  -2.7850  -2.7841  -2.7835  -2.7816  -2.7669  -2.7660  -2.7067
    -2.7024  -2.6225  -2.6195  -2.6166  -2.6076  -2.6015  -2.5974  -2.5930
    -2.5914  -2.5909  -2.5882  -2.5806  -2.5687  -2.5655  -2.5607  -2.5456
    -2.5454  -2.5136  -2.4968  -2.3892  -2.3777  -2.3713  -2.3671  -2.3663
    -2.3643

          k = 0.0000-0.5773 0.0000 (321564 PWs)   bands (ev):

   -88.7204 -66.6187 -66.5915 -66.5835 -66.5753 -66.5693 -66.5676 -66.5554
   -66.5494 -66.5413 -66.5395 -66.5367 -66.5272 -66.5238 -66.5236 -66.5181
   -66.5153 -66.5132 -66.5131 -66.5106 -66.5066 -66.4982 -66.4982 -66.4982
   -66.4980 -66.4939 -66.4936 -66.4878 -66.4877 -66.4876 -66.4874 -66.4874
   -66.4857 -66.4832 -66.4831 -66.4762 -66.4758 -66.4618 -66.4617 -66.4608
   -66.4608 -66.4575 -66.4553 -66.4522 -66.4510 -66.4506 -66.4483 -66.4458
   -66.4425 -54.5382 -54.5154 -54.5135 -40.9000 -40.8913 -40.8769 -40.8746
   -40.8590 -40.8448 -40.8316 -40.8251 -40.8249 -40.8248 -40.8247 -40.8183
   -40.7983 -40.7981 -40.7936 -40.7894 -40.7882 -40.7873 -40.7865 -40.7863
   -40.7863 -40.7856 -40.7840 -40.7805 -40.7695 -40.7659 -40.7609 -40.7592
   -40.7511 -40.7479 -40.7476 -40.7418 -40.7359 -40.7359 -40.7359 -40.7358
   -40.7201 -40.7152 -40.7095 -40.7083 -40.6977 -40.6976 -40.6975 -40.6972
   -40.6967 -40.6847 -40.6781 -40.6779 -40.6759 -40.6706 -40.6680 -40.6679
   -40.6634 -40.6614 -40.6573 -40.6573 -40.6556 -40.6526 -40.6520 -40.6476
   -40.6454 -40.6431 -40.6424 -40.6410 -40.6365 -40.6299 -40.6295 -40.6279
   -40.6279 -40.6279 -40.6278 -40.6263 -40.6216 -40.6208 -40.6193 -40.6191
   -40.6191 -40.6130 -40.6072 -40.6070 -40.6070 -40.6069 -40.6068 -40.6068
   -40.5984 -40.5983 -40.5961 -40.5927 -40.5927 -40.5919 -40.5915 -40.5908
   -40.5867 -40.5843 -40.5826 -40.5817 -40.5763 -40.5762 -40.5761 -40.5760
   -40.5742 -40.5725 -40.5720 -40.5715 -40.5689 -40.5685 -40.5679 -40.5670
   -40.5626 -40.5601 -40.5597 -40.5466 -40.5417 -40.5417 -40.5416 -40.5415
   -40.5396 -40.5385 -40.5376 -40.5362 -40.5353 -40.5297 -40.5295 -40.5259
   -40.5131 -40.5105 -40.5103 -40.5037 -40.5036 -40.5035 -40.5031 -40.4976
   -40.4935 -40.4935 -40.4927 -40.4900 -40.4733 -40.4713 -40.4631 -40.4629
   -40.4553 -40.4549 -40.4262 -40.4235 -20.2506 -19.7910 -19.7380 -19.6991
   -19.6157 -19.5531 -19.5132 -19.3683 -19.3055 -19.2741 -19.1967 -19.1311
   -19.0936 -18.7438 -18.7174 -18.7044 -18.6468 -18.6442 -18.6017 -18.5879
   -18.5870 -18.5760 -18.5375 -18.5271 -18.5029 -18.4823 -18.4733 -18.4620
   -18.4500 -18.4493 -18.4281 -18.3868 -18.3603 -18.3413 -18.3336 -18.3275
   -18.3150 -18.3059 -18.2952 -18.2484 -18.2225 -18.2049 -18.1654 -18.1597
   -18.1406 -18.1317 -18.0885 -18.0758 -18.0678 -18.0277 -18.0230 -18.0211
   -18.0166 -18.0128 -18.0098 -18.0039 -17.9821 -17.9801 -17.9746 -17.9704
   -17.9443 -17.9394 -17.9362 -17.9251 -17.9106 -17.9022 -17.8985 -17.8980
   -17.8966 -17.8948 -17.8626 -17.8584 -17.8375 -17.8319 -17.8276 -17.8254
   -17.7858 -17.7849 -17.7754 -17.7722 -17.7702 -17.7667 -17.7287 -17.7233
   -17.7104 -17.7100 -17.7083 -17.7076 -17.7069 -17.7061 -17.6613 -17.6601
   -17.6355 -17.6351 -17.6063 -17.6060 -12.9768 -11.5904 -11.5545 -11.5460
   -11.5309 -11.4808 -11.3917 -11.3789 -11.3476 -11.3284 -11.3275 -11.3227
   -11.3129 -11.2985 -11.2759 -11.2670 -11.2530 -11.2433 -11.2341 -11.2298
   -11.2253 -11.2155 -11.2003 -11.1862 -11.1617 -11.1513 -11.1461 -11.1022
   -11.1021 -11.0860 -11.0852 -11.0709 -11.0596 -11.0552 -11.0383 -10.9577
   -10.9482 -10.9259 -10.9085 -10.8969 -10.8890 -10.8720 -10.8492 -10.8292
   -10.8183 -10.7954 -10.7821 -10.7637 -10.7601 -10.7413 -10.7266 -10.7256
   -10.7226 -10.7172 -10.7021 -10.7007 -10.6930 -10.6801 -10.6787 -10.6705
   -10.6619 -10.6289 -10.6273 -10.6218 -10.6178 -10.4803 -10.4682 -10.4468
   -10.4043 -10.3430 -10.3159 -10.2613 -10.2350 -10.1678 -10.1450 -10.0688
   -10.0541 -10.0297 -10.0008  -9.9649  -9.9562  -9.9366  -9.9294  -9.8620
    -9.8527  -9.8486  -9.8424  -9.8393  -9.8328  -9.8234  -9.8018  -9.7905
    -9.7861  -9.7697  -9.7443  -9.7217  -9.7205  -9.7077  -9.6890  -9.6830
    -9.6662  -9.6562  -9.6500  -9.6368  -9.5843  -9.5836  -9.5660  -9.5592
    -9.5569  -9.5531  -9.5443  -9.5401  -9.5398  -9.5380  -9.5271  -9.5210
    -9.4749  -9.4735  -9.4437  -9.4052  -9.4045  -9.4025  -9.3708  -9.3685
    -9.3481  -9.3464  -9.2749  -9.2512  -9.2359  -9.1991  -9.1536  -9.1422
    -9.1108  -9.1055  -9.0752  -9.0674  -9.0492  -9.0445  -9.0406  -9.0211
    -8.9899  -8.9678  -8.9627  -8.9537  -8.9410  -8.9359  -8.9264  -8.9157
    -8.9003  -8.8979  -8.8861  -8.8827  -8.8738  -8.8697  -8.8549  -8.8396
    -8.8362  -8.8325  -8.8302  -8.8250  -8.8135  -8.8045  -8.7907  -8.7660
    -8.7589  -8.7532  -8.7455  -8.7367  -8.7333  -8.7290  -8.7278  -8.7267
    -8.7220  -8.7209  -8.6857  -8.6849  -8.6636  -8.6528  -8.6480  -8.6433
    -8.6266  -8.6255  -8.5418  -8.5298  -8.4088  -8.3900  -8.3578  -8.3573
    -8.3272  -8.3092  -8.3050  -8.2675  -8.2134  -8.1030  -8.0764  -8.0368
    -8.0365  -8.0257  -7.9953  -7.9919  -7.9912  -7.9690  -7.8980  -7.8715
    -7.8097  -7.7962  -7.7756  -7.7736  -7.7610  -7.7535  -7.7516  -7.7450
    -7.7409  -7.7336  -7.7273  -7.7254  -7.7203  -7.7138  -7.6907  -7.6906
    -7.6819  -7.6744  -7.6614  -7.6506  -7.6499  -7.6475  -7.6472  -7.6453
    -7.6451  -7.6350  -7.6332  -7.6262  -7.6158  -7.6130  -7.6069  -7.5928
    -7.5899  -7.5854  -7.5809  -7.5780  -7.5706  -7.5614  -7.5586  -7.5495
    -7.5153  -7.5129  -7.5076  -7.5065  -7.5060  -7.5055  -7.4727  -7.4599
    -7.4573  -7.4136  -7.3970  -7.3802  -7.3698  -7.3562  -7.2482  -7.2389
    -7.2243  -7.1886  -7.1148  -7.1008  -7.0932  -7.0786  -7.0521  -7.0411
    -7.0333  -6.9872  -6.9560  -6.9343  -6.9061  -6.8851  -6.8796  -6.8748
    -6.8621  -6.8600  -6.8576  -6.8502  -6.8132  -6.7773  -6.7690  -6.7660
    -6.7568  -6.7492  -6.7190  -6.6647  -6.6629  -6.6438  -6.6211  -6.6051
    -6.5872  -6.5697  -6.5379  -6.5304  -6.5206  -6.5034  -6.5030  -6.5030
    -6.5028  -6.4869  -6.4659  -6.4607  -6.4590  -6.4579  -6.4539  -6.4337
    -6.3628  -6.3185  -6.3099  -6.2426  -6.2131  -6.2011  -6.1870  -6.1727
    -6.1718  -6.1695  -6.1688  -6.1647  -6.1485  -6.1171  -6.1164  -6.1111
    -6.1095  -6.1076  -6.1066  -6.0942  -5.9381  -5.9073  -5.8276  -5.8226
    -5.8222  -5.7714  -5.7700  -5.7068  -5.6891  -5.6226  -5.5756  -5.4551
    -5.4405  -4.1224  -3.9873  -3.9481  -3.9312  -3.8541  -3.8419  -3.8100
    -3.8039  -3.7590  -3.7371  -3.7370  -3.7275  -3.7253  -3.7075  -3.6996
    -3.6988  -3.6426  -3.6326  -3.5617  -3.5363  -3.5218  -3.4974  -3.4950
    -3.4920  -3.4820  -3.4749  -3.4668  -3.4551  -3.4501  -3.4392  -3.4258
    -3.4223  -3.4200  -3.4116  -3.4017  -3.3944  -3.3920  -3.3853  -3.3501
    -3.3468  -3.3400  -3.3153  -3.2903  -3.2762  -3.2725  -3.2705  -3.2618
    -3.2373  -3.2193  -3.2164  -3.2062  -3.2036  -3.2023  -3.1934  -3.1904
    -3.1880  -3.1808  -3.1736  -3.1650  -3.1586  -3.1270  -3.1255  -3.1186
    -3.1179  -3.1175  -3.1164  -3.1128  -3.1062  -3.0755  -3.0544  -3.0541
    -3.0472  -3.0454  -3.0423  -2.9997  -2.9668  -2.9530  -2.9417  -2.9273
    -2.9200  -2.9183  -2.9155  -2.9050  -2.8982  -2.8950  -2.8907  -2.8649
    -2.8626  -2.8590  -2.8551  -2.8529  -2.8503  -2.8493  -2.8477  -2.8200
    -2.8148  -2.8106  -2.8092  -2.7956  -2.7903  -2.7789  -2.7745  -2.7632
    -2.7519  -2.7405  -2.7356  -2.7330  -2.7279  -2.6441  -2.6386  -2.5789
    -2.5719  -2.5588  -2.5549  -2.5467  -2.5398  -2.5378  -2.5105  -2.4824
    -2.4791  -2.4070  -2.4057  -2.4012  -2.3997  -2.3978  -2.3928  -2.3652
    -2.2941

          k =-0.5000-0.2887 0.0000 (321564 PWs)   bands (ev):

   -88.7204 -66.6187 -66.5915 -66.5835 -66.5753 -66.5694 -66.5676 -66.5554
   -66.5494 -66.5413 -66.5395 -66.5367 -66.5272 -66.5238 -66.5236 -66.5181
   -66.5153 -66.5132 -66.5131 -66.5106 -66.5066 -66.4982 -66.4982 -66.4982
   -66.4980 -66.4939 -66.4936 -66.4878 -66.4877 -66.4876 -66.4874 -66.4874
   -66.4857 -66.4832 -66.4831 -66.4762 -66.4758 -66.4618 -66.4617 -66.4608
   -66.4608 -66.4575 -66.4553 -66.4522 -66.4511 -66.4506 -66.4483 -66.4458
   -66.4425 -54.5382 -54.5154 -54.5135 -40.9000 -40.8913 -40.8769 -40.8746
   -40.8590 -40.8448 -40.8316 -40.8251 -40.8249 -40.8248 -40.8247 -40.8182
   -40.7983 -40.7981 -40.7935 -40.7893 -40.7882 -40.7873 -40.7865 -40.7863
   -40.7863 -40.7856 -40.7840 -40.7805 -40.7695 -40.7660 -40.7609 -40.7592
   -40.7511 -40.7479 -40.7476 -40.7418 -40.7359 -40.7359 -40.7359 -40.7358
   -40.7201 -40.7152 -40.7095 -40.7083 -40.6977 -40.6976 -40.6975 -40.6972
   -40.6966 -40.6847 -40.6781 -40.6779 -40.6759 -40.6706 -40.6680 -40.6679
   -40.6634 -40.6614 -40.6573 -40.6573 -40.6556 -40.6526 -40.6519 -40.6476
   -40.6454 -40.6431 -40.6424 -40.6409 -40.6365 -40.6299 -40.6295 -40.6279
   -40.6279 -40.6279 -40.6278 -40.6263 -40.6216 -40.6208 -40.6193 -40.6191
   -40.6191 -40.6131 -40.6072 -40.6070 -40.6070 -40.6069 -40.6068 -40.6068
   -40.5984 -40.5983 -40.5961 -40.5927 -40.5927 -40.5919 -40.5915 -40.5908
   -40.5867 -40.5843 -40.5826 -40.5817 -40.5763 -40.5762 -40.5760 -40.5760
   -40.5742 -40.5725 -40.5720 -40.5715 -40.5689 -40.5685 -40.5679 -40.5670
   -40.5626 -40.5601 -40.5597 -40.5466 -40.5417 -40.5417 -40.5416 -40.5415
   -40.5397 -40.5385 -40.5376 -40.5362 -40.5353 -40.5297 -40.5295 -40.5259
   -40.5131 -40.5105 -40.5103 -40.5037 -40.5036 -40.5035 -40.5031 -40.4976
   -40.4935 -40.4935 -40.4927 -40.4900 -40.4733 -40.4713 -40.4631 -40.4629
   -40.4553 -40.4549 -40.4262 -40.4235 -20.2506 -19.7911 -19.7380 -19.6992
   -19.6157 -19.5531 -19.5131 -19.3683 -19.3055 -19.2741 -19.1967 -19.1311
   -19.0936 -18.7438 -18.7174 -18.7044 -18.6468 -18.6442 -18.6017 -18.5879
   -18.5870 -18.5761 -18.5375 -18.5271 -18.5029 -18.4823 -18.4733 -18.4620
   -18.4500 -18.4493 -18.4281 -18.3868 -18.3603 -18.3413 -18.3336 -18.3275
   -18.3150 -18.3059 -18.2953 -18.2484 -18.2225 -18.2049 -18.1654 -18.1597
   -18.1406 -18.1317 -18.0885 -18.0758 -18.0678 -18.0277 -18.0230 -18.0210
   -18.0166 -18.0128 -18.0098 -18.0039 -17.9821 -17.9801 -17.9746 -17.9704
   -17.9443 -17.9394 -17.9362 -17.9251 -17.9106 -17.9023 -17.8985 -17.8980
   -17.8966 -17.8948 -17.8626 -17.8584 -17.8374 -17.8319 -17.8276 -17.8254
   -17.7858 -17.7849 -17.7754 -17.7722 -17.7702 -17.7668 -17.7287 -17.7233
   -17.7104 -17.7100 -17.7083 -17.7076 -17.7069 -17.7061 -17.6613 -17.6601
   -17.6355 -17.6351 -17.6063 -17.6060 -12.9768 -11.5904 -11.5545 -11.5460
   -11.5309 -11.4808 -11.3916 -11.3789 -11.3476 -11.3284 -11.3275 -11.3227
   -11.3129 -11.2985 -11.2759 -11.2670 -11.2530 -11.2433 -11.2341 -11.2298
   -11.2253 -11.2155 -11.2003 -11.1862 -11.1617 -11.1513 -11.1461 -11.1022
   -11.1021 -11.0860 -11.0852 -11.0709 -11.0596 -11.0552 -11.0383 -10.9577
   -10.9482 -10.9259 -10.9085 -10.8969 -10.8891 -10.8720 -10.8492 -10.8292
   -10.8183 -10.7953 -10.7821 -10.7637 -10.7601 -10.7413 -10.7266 -10.7256
   -10.7226 -10.7172 -10.7021 -10.7007 -10.6930 -10.6801 -10.6787 -10.6705
   -10.6619 -10.6289 -10.6273 -10.6218 -10.6178 -10.4803 -10.4682 -10.4468
   -10.4043 -10.3430 -10.3159 -10.2613 -10.2350 -10.1677 -10.1450 -10.0688
   -10.0541 -10.0297 -10.0009  -9.9649  -9.9562  -9.9366  -9.9295  -9.8620
    -9.8527  -9.8486  -9.8424  -9.8393  -9.8328  -9.8234  -9.8018  -9.7905
    -9.7861  -9.7697  -9.7443  -9.7217  -9.7205  -9.7077  -9.6890  -9.6830
    -9.6662  -9.6562  -9.6500  -9.6368  -9.5843  -9.5836  -9.5660  -9.5592
    -9.5569  -9.5531  -9.5443  -9.5401  -9.5398  -9.5380  -9.5271  -9.5210
    -9.4749  -9.4735  -9.4437  -9.4052  -9.4045  -9.4025  -9.3708  -9.3685
    -9.3481  -9.3464  -9.2749  -9.2512  -9.2359  -9.1991  -9.1536  -9.1422
    -9.1109  -9.1055  -9.0752  -9.0674  -9.0492  -9.0445  -9.0406  -9.0211
    -8.9899  -8.9678  -8.9627  -8.9537  -8.9410  -8.9359  -8.9264  -8.9157
    -8.9003  -8.8979  -8.8861  -8.8827  -8.8738  -8.8697  -8.8549  -8.8395
    -8.8362  -8.8325  -8.8302  -8.8250  -8.8134  -8.8045  -8.7907  -8.7660
    -8.7589  -8.7532  -8.7455  -8.7367  -8.7333  -8.7290  -8.7278  -8.7267
    -8.7220  -8.7209  -8.6857  -8.6849  -8.6636  -8.6528  -8.6480  -8.6433
    -8.6266  -8.6255  -8.5418  -8.5298  -8.4089  -8.3900  -8.3578  -8.3573
    -8.3272  -8.3092  -8.3050  -8.2675  -8.2134  -8.1030  -8.0764  -8.0368
    -8.0365  -8.0258  -7.9953  -7.9919  -7.9912  -7.9689  -7.8980  -7.8715
    -7.8097  -7.7962  -7.7756  -7.7736  -7.7610  -7.7535  -7.7516  -7.7450
    -7.7409  -7.7336  -7.7273  -7.7254  -7.7203  -7.7138  -7.6907  -7.6906
    -7.6819  -7.6744  -7.6614  -7.6506  -7.6499  -7.6475  -7.6472  -7.6453
    -7.6451  -7.6350  -7.6332  -7.6262  -7.6158  -7.6130  -7.6069  -7.5928
    -7.5899  -7.5854  -7.5809  -7.5780  -7.5706  -7.5615  -7.5585  -7.5495
    -7.5153  -7.5129  -7.5076  -7.5065  -7.5060  -7.5055  -7.4727  -7.4600
    -7.4573  -7.4136  -7.3970  -7.3801  -7.3698  -7.3562  -7.2482  -7.2389
    -7.2243  -7.1886  -7.1148  -7.1008  -7.0932  -7.0786  -7.0521  -7.0411
    -7.0333  -6.9872  -6.9560  -6.9343  -6.9061  -6.8851  -6.8796  -6.8748
    -6.8621  -6.8600  -6.8576  -6.8502  -6.8132  -6.7773  -6.7690  -6.7660
    -6.7568  -6.7492  -6.7190  -6.6647  -6.6628  -6.6438  -6.6211  -6.6051
    -6.5872  -6.5697  -6.5379  -6.5304  -6.5206  -6.5034  -6.5030  -6.5030
    -6.5028  -6.4869  -6.4659  -6.4607  -6.4590  -6.4579  -6.4539  -6.4337
    -6.3628  -6.3185  -6.3099  -6.2425  -6.2131  -6.2012  -6.1870  -6.1727
    -6.1718  -6.1695  -6.1688  -6.1647  -6.1485  -6.1171  -6.1164  -6.1111
    -6.1095  -6.1076  -6.1066  -6.0942  -5.9381  -5.9073  -5.8276  -5.8226
    -5.8222  -5.7714  -5.7700  -5.7068  -5.6892  -5.6226  -5.5756  -5.4551
    -5.4405  -4.1224  -3.9873  -3.9481  -3.9312  -3.8542  -3.8420  -3.8100
    -3.8039  -3.7589  -3.7371  -3.7370  -3.7275  -3.7254  -3.7074  -3.6996
    -3.6988  -3.6426  -3.6326  -3.5618  -3.5363  -3.5218  -3.4974  -3.4950
    -3.4919  -3.4821  -3.4750  -3.4669  -3.4551  -3.4501  -3.4393  -3.4258
    -3.4224  -3.4200  -3.4116  -3.4017  -3.3944  -3.3920  -3.3853  -3.3501
    -3.3468  -3.3399  -3.3153  -3.2903  -3.2763  -3.2726  -3.2705  -3.2617
    -3.2373  -3.2192  -3.2164  -3.2061  -3.2037  -3.2023  -3.1934  -3.1903
    -3.1880  -3.1807  -3.1737  -3.1651  -3.1587  -3.1271  -3.1254  -3.1188
    -3.1179  -3.1176  -3.1164  -3.1129  -3.1063  -3.0756  -3.0544  -3.0542
    -3.0474  -3.0457  -3.0425  -2.9994  -2.9667  -2.9529  -2.9415  -2.9274
    -2.9200  -2.9182  -2.9154  -2.9049  -2.8984  -2.8950  -2.8906  -2.8650
    -2.8627  -2.8590  -2.8550  -2.8529  -2.8502  -2.8494  -2.8478  -2.8194
    -2.8144  -2.8106  -2.8090  -2.7955  -2.7902  -2.7788  -2.7746  -2.7625
    -2.7511  -2.7399  -2.7352  -2.7320  -2.7267  -2.6439  -2.6429  -2.5789
    -2.5724  -2.5588  -2.5548  -2.5502  -2.5464  -2.5382  -2.5309  -2.5094
    -2.4824  -2.4792  -2.4072  -2.4058  -2.4011  -2.3995  -2.3978  -2.3928
    -2.3646

          k =-0.5000-0.8660 0.0000 (321564 PWs)   bands (ev):

   -88.7204 -66.6187 -66.5917 -66.5823 -66.5767 -66.5696 -66.5667 -66.5570
   -66.5477 -66.5409 -66.5398 -66.5369 -66.5275 -66.5237 -66.5236 -66.5184
   -66.5154 -66.5132 -66.5130 -66.5094 -66.5072 -66.4982 -66.4982 -66.4982
   -66.4980 -66.4938 -66.4937 -66.4877 -66.4876 -66.4875 -66.4874 -66.4873
   -66.4862 -66.4832 -66.4831 -66.4764 -66.4753 -66.4618 -66.4618 -66.4612
   -66.4607 -66.4569 -66.4559 -66.4515 -66.4513 -66.4502 -66.4489 -66.4458
   -66.4424 -54.5382 -54.5154 -54.5135 -40.9058 -40.8941 -40.8773 -40.8590
   -40.8556 -40.8376 -40.8373 -40.8261 -40.8250 -40.8249 -40.8249 -40.8247
   -40.7983 -40.7982 -40.7938 -40.7936 -40.7876 -40.7873 -40.7868 -40.7864
   -40.7863 -40.7862 -40.7847 -40.7815 -40.7694 -40.7673 -40.7606 -40.7595
   -40.7481 -40.7481 -40.7473 -40.7470 -40.7359 -40.7359 -40.7358 -40.7358
   -40.7191 -40.7158 -40.7083 -40.7052 -40.7022 -40.6979 -40.6977 -40.6974
   -40.6970 -40.6781 -40.6780 -40.6771 -40.6750 -40.6724 -40.6680 -40.6678
   -40.6657 -40.6592 -40.6574 -40.6573 -40.6559 -40.6514 -40.6497 -40.6475
   -40.6428 -40.6413 -40.6412 -40.6404 -40.6378 -40.6349 -40.6300 -40.6293
   -40.6279 -40.6279 -40.6279 -40.6277 -40.6218 -40.6206 -40.6193 -40.6191
   -40.6138 -40.6090 -40.6071 -40.6071 -40.6070 -40.6069 -40.6068 -40.6068
   -40.5984 -40.5983 -40.5980 -40.5926 -40.5926 -40.5922 -40.5907 -40.5870
   -40.5864 -40.5852 -40.5839 -40.5822 -40.5808 -40.5762 -40.5762 -40.5761
   -40.5760 -40.5721 -40.5720 -40.5712 -40.5701 -40.5691 -40.5685 -40.5683
   -40.5627 -40.5610 -40.5595 -40.5440 -40.5417 -40.5417 -40.5416 -40.5415
   -40.5390 -40.5385 -40.5376 -40.5370 -40.5319 -40.5306 -40.5297 -40.5295
   -40.5161 -40.5104 -40.5103 -40.5039 -40.5037 -40.5033 -40.5029 -40.4935
   -40.4935 -40.4933 -40.4923 -40.4903 -40.4729 -40.4718 -40.4631 -40.4629
   -40.4555 -40.4547 -40.4258 -40.4239 -20.2499 -19.7971 -19.7379 -19.7026
   -19.6110 -19.5548 -19.4983 -19.3684 -19.3063 -19.2744 -19.2038 -19.1318
   -19.1006 -18.7390 -18.7148 -18.6921 -18.6482 -18.6330 -18.6124 -18.5881
   -18.5867 -18.5666 -18.5644 -18.5260 -18.5040 -18.4919 -18.4686 -18.4579
   -18.4547 -18.4463 -18.4350 -18.3921 -18.3555 -18.3373 -18.3319 -18.3305
   -18.3128 -18.3047 -18.2824 -18.2445 -18.2154 -18.2136 -18.1668 -18.1536
   -18.1460 -18.1200 -18.1054 -18.0689 -18.0551 -18.0268 -18.0244 -18.0204
   -18.0203 -18.0156 -18.0126 -18.0058 -17.9820 -17.9798 -17.9751 -17.9744
   -17.9468 -17.9355 -17.9323 -17.9284 -17.9137 -17.9115 -17.8976 -17.8971
   -17.8954 -17.8949 -17.8634 -17.8574 -17.8401 -17.8389 -17.8301 -17.8260
   -17.7892 -17.7773 -17.7723 -17.7721 -17.7668 -17.7635 -17.7300 -17.7207
   -17.7105 -17.7104 -17.7076 -17.7073 -17.7064 -17.7063 -17.6608 -17.6604
   -17.6353 -17.6353 -17.6064 -17.6059 -12.9768 -11.6022 -11.5531 -11.5418
   -11.5058 -11.4720 -11.4008 -11.3859 -11.3673 -11.3281 -11.3252 -11.3247
   -11.3169 -11.2950 -11.2838 -11.2676 -11.2537 -11.2433 -11.2362 -11.2314
   -11.2215 -11.2119 -11.2037 -11.1822 -11.1641 -11.1573 -11.1510 -11.1022
   -11.1021 -11.0853 -11.0852 -11.0721 -11.0653 -11.0507 -11.0309 -10.9495
   -10.9376 -10.9285 -10.9083 -10.8943 -10.8916 -10.8668 -10.8488 -10.8045
   -10.7990 -10.7917 -10.7885 -10.7623 -10.7623 -10.7529 -10.7290 -10.7289
   -10.7276 -10.7212 -10.7017 -10.7007 -10.6882 -10.6786 -10.6776 -10.6769
   -10.6578 -10.6278 -10.6257 -10.6256 -10.6172 -10.4916 -10.4741 -10.4393
   -10.3986 -10.3451 -10.3080 -10.2991 -10.2358 -10.1839 -10.1262 -10.0881
   -10.0319 -10.0256  -9.9994  -9.9585  -9.9580  -9.9311  -9.9303  -9.8630
    -9.8540  -9.8500  -9.8468  -9.8450  -9.8330  -9.8207  -9.8101  -9.7894
    -9.7835  -9.7642  -9.7499  -9.7252  -9.7240  -9.7077  -9.6919  -9.6817
    -9.6621  -9.6590  -9.6394  -9.6118  -9.5940  -9.5830  -9.5715  -9.5579
    -9.5559  -9.5442  -9.5420  -9.5416  -9.5406  -9.5372  -9.5271  -9.5223
    -9.4761  -9.4592  -9.4297  -9.4279  -9.4096  -9.3909  -9.3863  -9.3653
    -9.3500  -9.3459  -9.3061  -9.2604  -9.2183  -9.2177  -9.1785  -9.1214
    -9.1054  -9.1039  -9.0839  -9.0761  -9.0505  -9.0372  -9.0341  -9.0260
    -8.9873  -8.9606  -8.9595  -8.9541  -8.9465  -8.9332  -8.9052  -8.9012
    -8.8960  -8.8950  -8.8858  -8.8844  -8.8817  -8.8631  -8.8589  -8.8353
    -8.8325  -8.8314  -8.8307  -8.8291  -8.8184  -8.8012  -8.7871  -8.7669
    -8.7651  -8.7635  -8.7463  -8.7321  -8.7302  -8.7285  -8.7282  -8.7265
    -8.7252  -8.7221  -8.6858  -8.6850  -8.6743  -8.6569  -8.6479  -8.6418
    -8.6264  -8.6237  -8.5471  -8.4460  -8.4309  -8.4132  -8.3575  -8.3575
    -8.3137  -8.3062  -8.3026  -8.2785  -8.2299  -8.1061  -8.0786  -8.0367
    -8.0365  -8.0194  -7.9932  -7.9899  -7.9898  -7.9639  -7.9062  -7.8681
    -7.8095  -7.8052  -7.7811  -7.7758  -7.7715  -7.7533  -7.7479  -7.7455
    -7.7398  -7.7337  -7.7257  -7.7256  -7.7161  -7.7158  -7.6924  -7.6906
    -7.6903  -7.6767  -7.6647  -7.6557  -7.6494  -7.6473  -7.6465  -7.6460
    -7.6390  -7.6379  -7.6358  -7.6317  -7.6104  -7.6100  -7.6068  -7.5908
    -7.5872  -7.5863  -7.5789  -7.5754  -7.5711  -7.5631  -7.5525  -7.5513
    -7.5153  -7.5145  -7.5131  -7.5079  -7.5059  -7.5056  -7.4730  -7.4590
    -7.4582  -7.4241  -7.4009  -7.3845  -7.3750  -7.3307  -7.2689  -7.2357
    -7.1995  -7.1584  -7.1161  -7.1006  -7.0905  -7.0690  -7.0605  -7.0493
    -7.0281  -6.9958  -6.9621  -6.9313  -6.9095  -6.9094  -6.8755  -6.8700
    -6.8674  -6.8617  -6.8598  -6.8532  -6.8156  -6.7735  -6.7701  -6.7664
    -6.7513  -6.7512  -6.7356  -6.6715  -6.6477  -6.6340  -6.6253  -6.6089
    -6.6051  -6.5587  -6.5392  -6.5326  -6.5176  -6.5031  -6.5030  -6.5030
    -6.5029  -6.4773  -6.4706  -6.4608  -6.4593  -6.4572  -6.4553  -6.4335
    -6.3438  -6.3143  -6.2981  -6.2283  -6.2246  -6.2070  -6.1835  -6.1721
    -6.1712  -6.1700  -6.1692  -6.1630  -6.1381  -6.1170  -6.1165  -6.1113
    -6.1094  -6.1081  -6.1067  -6.0996  -5.9438  -5.9239  -5.8245  -5.8225
    -5.8204  -5.7709  -5.7699  -5.7135  -5.6608  -5.6423  -5.5744  -5.4570
    -5.4398  -4.1337  -3.9968  -3.9370  -3.9156  -3.8754  -3.8238  -3.8163
    -3.8007  -3.7913  -3.7371  -3.7370  -3.7316  -3.7124  -3.6996  -3.6988
    -3.6970  -3.6644  -3.6456  -3.5542  -3.5235  -3.5223  -3.5095  -3.5008
    -3.4992  -3.4688  -3.4675  -3.4567  -3.4545  -3.4506  -3.4373  -3.4300
    -3.4225  -3.4214  -3.4102  -3.3982  -3.3955  -3.3939  -3.3753  -3.3481
    -3.3468  -3.3252  -3.3043  -3.2813  -3.2804  -3.2724  -3.2644  -3.2499
    -3.2490  -3.2290  -3.2195  -3.2153  -3.2099  -3.1933  -3.1920  -3.1894
    -3.1826  -3.1811  -3.1757  -3.1743  -3.1574  -3.1280  -3.1241  -3.1204
    -3.1179  -3.1171  -3.1165  -3.1142  -3.1070  -3.0802  -3.0548  -3.0540
    -3.0445  -3.0401  -3.0369  -2.9932  -2.9642  -2.9538  -2.9419  -2.9355
    -2.9205  -2.9202  -2.9162  -2.9072  -2.8986  -2.8922  -2.8862  -2.8703
    -2.8640  -2.8576  -2.8531  -2.8520  -2.8493  -2.8430  -2.8416  -2.8260
    -2.8107  -2.8098  -2.8026  -2.8006  -2.7877  -2.7750  -2.7647  -2.7596
    -2.7524  -2.7406  -2.7368  -2.7353  -2.7320  -2.6436  -2.6391  -2.5902
    -2.5896  -2.5622  -2.5568  -2.5551  -2.5479  -2.5461  -2.5253  -2.5196
    -2.4838  -2.4760  -2.4070  -2.4056  -2.4013  -2.3998  -2.3932  -2.3920
    -2.3473

     the Fermi energy is    -4.1459 ev

!    total energy              =  -24358.20719808 Ry
     total all-electron energy =   -475458.084010 Ry
     estimated scf accuracy    <       0.00000042 Ry
     smearing contrib. (-TS)   =      -0.00767429 Ry
     internal energy E=F+TS    =  -24358.19952379 Ry

     The total energy is F=E-TS. E is the sum of the following terms:
     one-electron contribution =  459423.09811438 Ry
     hartree contribution      = -229811.31574839 Ry
     xc contribution           =   -1459.72719850 Ry
     ewald contribution        = -236908.46664777 Ry
     DFT-D3 Dispersion         =      -3.98631085 Ry
     one-center paw contrib.   =  -15597.80173267 Ry

     convergence has been achieved in  22 iterations

     negative rho (up, down):  9.131E-04 0.000E+00

     Forces acting on atoms (cartesian axes, Ry/au):

     atom    1 type  1   force =     0.00091040   -0.00608605    0.00058485
     atom    2 type  1   force =    -0.00000377   -0.00001248    0.00192353
     atom    3 type  1   force =    -0.00006081   -0.00053528    0.00014889
     atom    4 type  2   force =    -0.00000021   -0.00000163   -0.00349486
     atom    5 type  2   force =    -0.00002648   -0.00002502   -0.00048183
     atom    6 type  2   force =    -0.00008662    0.00038848   -0.00071248
     atom    7 type  2   force =     0.00000008   -0.00000283    0.00169639
     atom    8 type  2   force =    -0.00008144   -0.00006083    0.00028397
     atom    9 type  2   force =    -0.00022493   -0.00030646    0.00065228
     atom   10 type  1   force =    -0.00016578    0.00944135    0.00696230
     atom   11 type  1   force =     0.00000265    0.00001312    0.00181088
     atom   12 type  1   force =     0.00016294    0.00027194   -0.00009983
     atom   13 type  2   force =     0.00000233   -0.00000379   -0.00349098
     atom   14 type  2   force =    -0.00003156   -0.00009433   -0.00038620
     atom   15 type  2   force =     0.00202359    0.00040962   -0.00263221
     atom   16 type  2   force =    -0.00000353   -0.00000616    0.00173334
     atom   17 type  2   force =    -0.00004871    0.00005870    0.00053397
     atom   18 type  2   force =    -0.00468511   -0.00462355    0.00277958
     atom   19 type  1   force =     0.00710070   -0.00407226    0.00636322
     atom   20 type  1   force =     0.00005447    0.00003652    0.00193489
     atom   21 type  1   force =     0.00034312    0.00008515   -0.00012726
     atom   22 type  2   force =    -0.00000426   -0.00000397   -0.00349440
     atom   23 type  2   force =     0.00008605    0.00005105   -0.00083375
     atom   24 type  2   force =     0.00127976    0.00133007   -0.00276147
     atom   25 type  2   force =    -0.00000767   -0.00000565    0.00171535
     atom   26 type  2   force =     0.00029627    0.00018338    0.00090026
     atom   27 type  2   force =    -0.00635657   -0.00161531    0.00289366
     atom   28 type  1   force =    -0.00526133    0.00317035    0.00061684
     atom   29 type  1   force =     0.00001033   -0.00000098    0.00181949
     atom   30 type  1   force =    -0.00038207    0.00021206    0.00012219
     atom   31 type  2   force =     0.00000185    0.00000966   -0.00349198
     atom   32 type  2   force =    -0.00005466    0.00003131   -0.00040977
     atom   33 type  2   force =     0.00025524   -0.00015197   -0.00094248
     atom   34 type  2   force =    -0.00000505    0.00000136    0.00172636
     atom   35 type  2   force =     0.00007716   -0.00004435    0.00052570
     atom   36 type  2   force =    -0.00030576    0.00017224    0.00063751
     atom   37 type  1   force =     0.00018456    0.00055347    0.00025707
     atom   38 type  1   force =    -0.00000204   -0.00000456    0.00191270
     atom   39 type  1   force =     0.00007715    0.00011117    0.00033044
     atom   40 type  2   force =    -0.00000541   -0.00000779   -0.00348846
     atom   41 type  2   force =     0.00001951   -0.00001437   -0.00048093
     atom   42 type  2   force =    -0.00005269    0.00053771   -0.00120510
     atom   43 type  2   force =    -0.00000382    0.00000432    0.00172000
     atom   44 type  2   force =     0.00000614    0.00000540    0.00019972
     atom   45 type  2   force =     0.00036491    0.00053049    0.00116896
     atom   46 type  1   force =    -0.00238704    0.00140872   -0.00155959
     atom   47 type  1   force =    -0.00000323    0.00000672    0.00191128
     atom   48 type  1   force =    -0.00010528    0.00029311   -0.00010264
     atom   49 type  2   force =    -0.00000627   -0.00000318   -0.00349243
     atom   50 type  2   force =     0.00000765    0.00003819   -0.00053149
     atom   51 type  2   force =    -0.00131550    0.00058755   -0.00291346
     atom   52 type  2   force =    -0.00000321    0.00000326    0.00172716
     atom   53 type  2   force =     0.00002024    0.00003852    0.00026421
     atom   54 type  2   force =     0.00493606   -0.00540180    0.00378123
     atom   55 type  1   force =    -0.00824331   -0.00454394    0.00696233
     atom   56 type  1   force =    -0.00005028    0.00002572    0.00193380
     atom   57 type  1   force =    -0.00003055    0.00002565    0.00061761
     atom   58 type  2   force =    -0.00000229   -0.00000183   -0.00353148
     atom   59 type  2   force =    -0.00007677    0.00004707   -0.00086613
     atom   60 type  2   force =     0.00054340   -0.00029990   -0.00767779
     atom   61 type  2   force =     0.00000528    0.00003421    0.00177964
     atom   62 type  2   force =    -0.00024658    0.00014554    0.00107205
     atom   63 type  2   force =     0.00010846   -0.00004507   -0.02367454
     atom   64 type  1   force =    -0.00011963   -0.00305573    0.00020177
     atom   65 type  1   force =    -0.00000621   -0.00005853    0.00193535
     atom   66 type  1   force =     0.00010738   -0.00033673   -0.00012845
     atom   67 type  2   force =     0.00000010    0.00000182   -0.00352672
     atom   68 type  2   force =     0.00000093   -0.00009814   -0.00083459
     atom   69 type  2   force =    -0.00050033   -0.00177482   -0.00276095
     atom   70 type  2   force =     0.00003688   -0.00002007    0.00178115
     atom   71 type  2   force =    -0.00000755   -0.00034558    0.00090165
     atom   72 type  2   force =    -0.00177089    0.00631227    0.00289400
     atom   73 type  1   force =    -0.00043862    0.00023295    0.00069026
     atom   74 type  1   force =     0.00001241    0.00000537    0.00192010
     atom   75 type  1   force =     0.00004653   -0.00001153    0.00031381
     atom   76 type  2   force =     0.00000022    0.00000549   -0.00349065
     atom   77 type  2   force =     0.00001619    0.00001231   -0.00045029
     atom   78 type  2   force =    -0.00012531   -0.00010977   -0.00131892
     atom   79 type  2   force =     0.00000129    0.00000896    0.00171309
     atom   80 type  2   force =    -0.00003657   -0.00000828    0.00025272
     atom   81 type  2   force =     0.00023039   -0.00001334    0.00114092
     atom   82 type  1   force =    -0.00040317   -0.00042170    0.00025795
     atom   83 type  1   force =    -0.00000078   -0.00000585    0.00188922
     atom   84 type  1   force =    -0.00006248    0.00003628    0.00034327
     atom   85 type  2   force =    -0.00000106   -0.00000264   -0.00350574
     atom   86 type  2   force =     0.00003162   -0.00001958   -0.00059282
     atom   87 type  2   force =    -0.00033551    0.00019737   -0.00169704
     atom   88 type  2   force =     0.00000670    0.00000810    0.00171720
     atom   89 type  2   force =     0.00005894   -0.00003529    0.00058566
     atom   90 type  2   force =     0.00028829   -0.00016158    0.00047705
     atom   91 type  1   force =     0.00570498    0.00226601    0.00058430
     atom   92 type  1   force =    -0.00001093   -0.00000695    0.00190913
     atom   93 type  1   force =    -0.00030629   -0.00004686   -0.00010097
     atom   94 type  2   force =     0.00000495   -0.00000417   -0.00351158
     atom   95 type  2   force =    -0.00003171   -0.00002450   -0.00052944
     atom   96 type  2   force =    -0.00116408    0.00085989   -0.00291286
     atom   97 type  2   force =     0.00000957   -0.00000529    0.00174104
     atom   98 type  2   force =    -0.00002513   -0.00003362    0.00026805
     atom   99 type  2   force =     0.00714812   -0.00156308    0.00377438
     atom  100 type  1   force =     0.00545866    0.00358554    0.00077793
     atom  101 type  1   force =    -0.00001081   -0.00000194    0.00181661
     atom  102 type  1   force =    -0.00015495   -0.00027578   -0.00009571
     atom  103 type  2   force =     0.00000045    0.00000528   -0.00353484
     atom  104 type  2   force =     0.00006669    0.00007204   -0.00038521
     atom  105 type  2   force =     0.00066027   -0.00196253   -0.00262306
     atom  106 type  2   force =    -0.00002627   -0.00001977    0.00178244
     atom  107 type  2   force =    -0.00007748    0.00001268    0.00053838
     atom  108 type  2   force =     0.00166513    0.00636235    0.00277448
     atom  109 type  1   force =    -0.00040154   -0.00655588    0.00077635
     atom  110 type  1   force =    -0.00001325   -0.00000103    0.00193404
     atom  111 type  1   force =    -0.00007626    0.00003175    0.00052456
     atom  112 type  2   force =     0.00000553   -0.00000226   -0.00348779
     atom  113 type  2   force =    -0.00000860    0.00000359   -0.00044068
     atom  114 type  2   force =     0.00021274   -0.00013170   -0.00177968
     atom  115 type  2   force =     0.00000204    0.00000378    0.00172999
     atom  116 type  2   force =     0.00010811   -0.00006486    0.00033343
     atom  117 type  2   force =    -0.00047263    0.00026395    0.00091788
     atom  118 type  1   force =     0.00255595    0.00164702    0.00019883
     atom  119 type  1   force =    -0.00000169   -0.00002116    0.00191608
     atom  120 type  1   force =     0.00002485   -0.00004124    0.00031392
     atom  121 type  2   force =     0.00000320   -0.00000296   -0.00350465
     atom  122 type  2   force =    -0.00000326   -0.00002409   -0.00045279
     atom  123 type  2   force =     0.00002578    0.00016485   -0.00131456
     atom  124 type  2   force =    -0.00000136   -0.00000190    0.00173179
     atom  125 type  2   force =    -0.00001311    0.00003479    0.00025198
     atom  126 type  2   force =     0.00011920   -0.00019135    0.00114013
     atom  127 type  1   force =    -0.00539775    0.00297820    0.00061598
     atom  128 type  1   force =    -0.00000275    0.00000147    0.00191233
     atom  129 type  1   force =    -0.00006729   -0.00011635    0.00033208
     atom  130 type  2   force =     0.00000097    0.00000214   -0.00350725
     atom  131 type  2   force =     0.00002240   -0.00000787   -0.00047991
     atom  132 type  2   force =    -0.00050064   -0.00021831   -0.00119979
     atom  133 type  2   force =    -0.00000496   -0.00000861    0.00172049
     atom  134 type  2   force =    -0.00000181   -0.00000499    0.00020375
     atom  135 type  2   force =    -0.00028196   -0.00057441    0.00116301
     atom  136 type  1   force =     0.00006073   -0.00006729    0.00093264
     atom  137 type  1   force =     0.00000256    0.00001522    0.00191880
     atom  138 type  1   force =     0.00042703    0.00031380    0.00015190
     atom  139 type  2   force =     0.00000056    0.00000997   -0.00349111
     atom  140 type  2   force =     0.00000765    0.00003671   -0.00047791
     atom  141 type  2   force =    -0.00038940   -0.00013033   -0.00070428
     atom  142 type  2   force =    -0.00000728    0.00000265    0.00172741
     atom  143 type  2   force =     0.00001051    0.00010123    0.00028277
     atom  144 type  2   force =     0.00014702    0.00033817    0.00064527
     atom  145 type  3   force =    -0.00099364    0.00060512    0.00158656
     atom  146 type  4   force =     0.00041174   -0.00023672    0.00139370
     The non-local contrib.  to forces
     atom    1 type  1   force =     0.00101397   -0.00388894   -0.00275630
     atom    2 type  1   force =     0.00003586    0.00002101   -0.00213972
     atom    3 type  1   force =     0.00013393    0.00023074   -0.00187963
[...]
     atom   63 type  2   force =     0.00034993   -0.00020204   -0.00422365
     atom   64 type  1   force =     0.00001156   -0.00005705   -0.00250758
     atom   65 type  1   force =    -0.00000028   -0.00000062    0.00260547
     atom   66 type  1   force =    -0.00000096   -0.00000380   -0.00001827
     atom   67 type  2   force =    -0.00000002    0.00000002    0.00441194
     atom   68 type  2   force =    -0.00000186    0.00000022   -0.00004626
     atom   69 type  2   force =     0.00000016   -0.00000040   -0.00018677
     atom   70 type  2   force =     0.00000036   -0.00000021    0.00023581
     atom   71 type  2   force =    -0.00001692    0.00001364    0.00008297
     atom   72 type  2   force =     0.00009345   -0.00014139   -0.00432564
     atom   73 type  1   force =    -0.00007586    0.00004379   -0.00253093
     atom   74 type  1   force =    -0.00000025   -0.00000038    0.00260374
     atom   75 type  1   force =     0.00000682   -0.00000712   -0.00002648
     atom   76 type  2   force =    -0.00000001   -0.00000002    0.00441169
     atom   77 type  2   force =    -0.00000006   -0.00000139   -0.00004709
     atom   78 type  2   force =     0.00000820    0.00000222   -0.00014744
     atom   79 type  2   force =    -0.00000058   -0.00000114    0.00023529
     atom   80 type  2   force =     0.00000599   -0.00000055    0.00009459
     atom   81 type  2   force =    -0.00018097    0.00020864   -0.00430291
     atom   82 type  1   force =    -0.00023912    0.00000384   -0.00233083
     atom   83 type  1   force =    -0.00000024    0.00000014    0.00260377
     atom   84 type  1   force =     0.00001009   -0.00000582   -0.00005727
     atom   85 type  2   force =     0.00000001   -0.00000000    0.00441158
     atom   86 type  2   force =    -0.00000002    0.00000001   -0.00004952
     atom   87 type  2   force =    -0.00003391    0.00001958    0.00013051
     atom   88 type  2   force =    -0.00000052    0.00000001    0.00023493
     atom   89 type  2   force =     0.00001027   -0.00000593    0.00009404
     atom   90 type  2   force =     0.00098430   -0.00056830   -0.00529251
     atom   91 type  1   force =    -0.00012301   -0.00019879   -0.00232502
     atom   92 type  1   force =    -0.00000024    0.00000009    0.00260442
     atom   93 type  1   force =    -0.00000284    0.00001267   -0.00005792
     atom   94 type  2   force =    -0.00000001    0.00000001    0.00441156
     atom   95 type  2   force =     0.00000055    0.00000171   -0.00005353
     atom   96 type  2   force =     0.00000145   -0.00004350    0.00014149
     atom   97 type  2   force =    -0.00000069    0.00000040    0.00023553
     atom   98 type  2   force =     0.00001690    0.00001333    0.00007685
     atom   99 type  2   force =    -0.00015858    0.00103018   -0.00516338
     atom  100 type  1   force =     0.00000486   -0.00009816   -0.00252266
     atom  101 type  1   force =    -0.00000031   -0.00000043    0.00260458
     atom  102 type  1   force =    -0.00000324    0.00000662   -0.00002670
     atom  103 type  2   force =    -0.00000003   -0.00000002    0.00441176
     atom  104 type  2   force =    -0.00000075   -0.00000046   -0.00004923
     atom  105 type  2   force =     0.00000367    0.00000809   -0.00014085
     atom  106 type  2   force =    -0.00000051   -0.00000059    0.00023567
     atom  107 type  2   force =     0.00000218    0.00001331    0.00009516
     atom  108 type  2   force =     0.00001882   -0.00041685   -0.00424407
     atom  109 type  1   force =     0.00008743    0.00004485   -0.00252267
     atom  110 type  1   force =     0.00000033   -0.00000019    0.00260384
     atom  111 type  1   force =     0.00000163   -0.00000095   -0.00001217
     atom  112 type  2   force =     0.00000001   -0.00000001    0.00441159
     atom  113 type  2   force =     0.00000072   -0.00000041   -0.00004589
     atom  114 type  2   force =     0.00000568   -0.00000328   -0.00017342
     atom  115 type  2   force =    -0.00000013   -0.00000094    0.00023523
     atom  116 type  2   force =     0.00000193   -0.00000112    0.00009837
     atom  117 type  2   force =     0.00000859   -0.00000496   -0.00440515
     atom  118 type  1   force =     0.00005517    0.00001852   -0.00250759
     atom  119 type  1   force =     0.00000020    0.00000041    0.00260374
     atom  120 type  1   force =     0.00000957   -0.00000235   -0.00002649
     atom  121 type  2   force =    -0.00000002    0.00000001    0.00441156
     atom  122 type  2   force =     0.00000118    0.00000075   -0.00004709
     atom  123 type  2   force =     0.00000218   -0.00000821   -0.00014745
     atom  124 type  2   force =    -0.00000022    0.00000013    0.00023489
     atom  125 type  2   force =     0.00000347   -0.00000491    0.00009459
     atom  126 type  2   force =    -0.00027118    0.00005241   -0.00430290
     atom  127 type  1   force =    -0.00008446   -0.00004249   -0.00252739
     atom  128 type  1   force =     0.00000025    0.00000041    0.00260443
     atom  129 type  1   force =     0.00001205    0.00000856   -0.00003559
     atom  130 type  2   force =     0.00000001   -0.00000001    0.00441158
     atom  131 type  2   force =     0.00000127    0.00000273   -0.00004800
     atom  132 type  2   force =    -0.00002160   -0.00000430   -0.00010185
     atom  133 type  2   force =    -0.00000027    0.00000044    0.00023493
     atom  134 type  2   force =     0.00001837    0.00001221    0.00008613
     atom  135 type  2   force =    -0.00034564   -0.00018979   -0.00424146
     atom  136 type  1   force =    -0.00001055    0.00000608   -0.00254663
     atom  137 type  1   force =     0.00000028   -0.00000001    0.00260453
     atom  138 type  1   force =     0.00000512    0.00001102   -0.00002126
     atom  139 type  2   force =    -0.00000001    0.00000003    0.00441161
     atom  140 type  2   force =     0.00000181   -0.00000020   -0.00004687
     atom  141 type  2   force =    -0.00000309    0.00000657   -0.00014563
     atom  142 type  2   force =    -0.00000039   -0.00000022    0.00023531
     atom  143 type  2   force =     0.00001673    0.00001699    0.00009093
     atom  144 type  2   force =    -0.00010199   -0.00026639   -0.00431450
     atom  145 type  3   force =    -0.00028948    0.00016728    0.00205693
     atom  146 type  4   force =     0.00016920   -0.00009769   -0.00137551

     Total force =     0.002829     Total SCF correction =     0.000240
     Energy error            =      2.3E-05 Ry
     Gradient error          =      9.1E-04 Ry/Bohr

     bfgs converged in   9 scf cycles and   8 bfgs steps
     (criteria: energy <  1.0E-04 Ry, force <  1.0E-03 Ry/Bohr)

     End of BFGS Geometry Optimization

     Final energy             =  -24358.2097595055 Ry

     File ./outdir/pwscf.bfgs deleted, as requested
Begin final coordinates

ATOMIC_POSITIONS (angstrom)
Mo            1.5712796312        2.7075235878        6.0879877158
Mo            1.5769197498        0.9104407117       -6.0872367793    0   0   0
Mo            0.0001138947        1.8205622934       -0.0004843266
S             0.0000044503        0.0000077495       -7.6506323570    0   0   0
S             1.5767686884        0.9109762478       -1.5669480905
S             0.0024604067        1.8197833636        4.5046706654
S             0.0000053241        0.0000068460       -4.5222282367    0   0   0
S             1.5771310187        0.9099709176        1.5659128411
S            -0.0116330760        1.8030567579        7.6498019220
Mo           -0.0139523803        5.4710935176        6.0996584979
Mo            0.0000011799        3.6417399547       -6.0872367793    0   0   0
Mo           -1.5761795334        4.5530890663       -0.0008624526
S            -1.5769141197        2.7313069925       -7.6506323570    0   0   0
S             0.0002071962        3.6415660518       -1.5660141957
S            -1.5648403465        4.5537762783        4.5126919500
S            -1.5769132459        2.7313060890       -4.5222282367    0   0   0
S             0.0010604863        3.6425671450        1.5671436907
S            -1.6034933662        4.5343126980        7.6525276080
Mo           -1.5741634721        8.1922891257        6.0876388037
Mo           -1.5769173901        6.3730391977       -6.0872367793    0   0   0
Mo           -3.1528806411        7.2834439210       -0.0023653647
S            -3.1538326896        5.4626062355       -7.6506323570    0   0   0
S            -1.5756304588        6.3731734028       -1.5677583862
S            -3.1504224643        7.2930165409        4.5130355676
S            -3.1538318159        5.4626053320       -4.5222282367    0   0   0
S            -1.5766941959        6.3738087841        1.5671709684
S            -3.1717744735        7.2805533724        7.6494715546
Mo            3.1449603260        0.0039666059        6.0789630425
Mo           -3.1538359601        9.1043384407       -6.0872367793    0   0   0
Mo           -4.7312168771       10.0150180456       -0.0018833882
S            -4.7307512596        8.1939054785       -7.6506323570    0   0   0
S            -3.1541134088        9.1044758792       -1.5676603676
S            -4.7310996125       10.0149461057        4.5063038579
S            -4.7307503859        8.1939045750       -4.5222282367    0   0   0
S            -3.1536848492        9.1042288510        1.5645965970
S            -4.7369392648       10.0183152013        7.6469966328
Mo            4.7373387290        2.7187761481        6.0857350071
Mo            4.7307503218        0.9104407117       -6.0872367793    0   0   0
Mo            3.1538183529        1.8211584962       -0.0007935779
S             3.1538350223        0.0000077495       -7.6506323570    0   0   0
S             4.7311743283        0.9107635284       -1.5666447135
S             3.1546225044        1.8226767976        4.5117126223
S             3.1538358961        0.0000068460       -4.5222282367    0   0   0
S             4.7304541418        0.9092541466        1.5654995823
S             3.1565525681        1.8157472188        7.6539159760
Mo            3.1527710466        5.4631927575        6.1472064660
Mo            3.1538317519        3.6417399547       -6.0872367793    0   0   0
Mo            1.5768368949        4.5533424583       -0.0010183792
S             1.5769164523        2.7313069925       -7.6506323570    0   0   0
S             3.1537976861        3.6423338536       -1.5664041978
S             1.5903113578        4.5646236840        4.5655933604
S             1.5769173261        2.7313060890       -4.5222282367    0   0   0
S             3.1531998209        3.6422481367        1.5667684444
S             1.4893878674        4.4794726470        7.7139302066
Mo            1.5625624886        8.2017082842        6.0996514351
Mo            1.5769131819        6.3730391977       -6.0872367793    0   0   0
Mo            0.0001844141        7.2833428216        0.0000032789
S            -0.0000021176        5.4626062355       -7.6506323570    0   0   0
S             1.5760817514        6.3734978592       -1.5675481572
S             0.0013996272        7.2826382721        4.5015892617
S            -0.0000012439        5.4626053320       -4.5222282367    0   0   0
S             1.5764443347        6.3732874492        1.5685290489
S            -0.0072925301        7.2876674556        7.6168615834
Mo            6.3080742249       -0.0013087780        6.0718331789
Mo           -0.0000053881        9.1043384407       -6.0872367793    0   0   0
Mo           -1.5764388265       10.0139258323       -0.0023657218
S            -1.5769206876        8.1939054785       -7.6506323570    0   0   0
S             0.0005039816        9.1031246586       -1.5677586023
S            -1.5835058420       10.0070049811        4.5130350839
S            -1.5769198139        8.1939045750       -4.5222282367    0   0   0
S            -0.0005790812        9.1037272855        1.5671706191
S            -1.5833858859       10.0317279696        7.6494712370
Mo            7.8860041395        2.7304574523        6.0714317654
Mo            7.8845808939        0.9104407117       -6.0872367793    0   0   0
Mo            6.3074969776        1.8211321301       -0.0000339910
S             6.3076655943        0.0000077495       -7.6506323570    0   0   0
S             7.8842815915        0.9102237693       -1.5658812447
S             6.3050606126        1.8190534325        4.5051714613
S             6.3076664681        0.0000068460       -4.5222282367    0   0   0
S             7.8842516650        0.9094909825        1.5661796453
S             6.3195936801        1.8088511647        7.6464204827
Mo            6.3217854232        5.4631243567        6.0857333791
Mo            6.3076623239        3.6417399547       -6.0872367793    0   0   0
Mo            4.7303812729        4.5523613984       -0.0000993266
S             4.7307470244        2.7313069925       -7.6506323570    0   0   0
S             6.3074133803        3.6418611425       -1.5660595443
S             4.7064745479        4.5661598075        4.5575337487
S             4.7307478981        2.7313060890       -4.5222282367    0   0   0
S             6.3066261149        3.6423151389        1.5684757287
S             4.8261929499        4.4970417430        7.7039528891
Mo            4.7484958868        8.2106435281        6.0879792593
Mo            4.7307437539        6.3730391977       -6.0872367793    0   0   0
Mo            3.1527567950        7.2829233399       -0.0010172443
S             3.1538284544        5.4626062355       -7.6506323570    0   0   0
S             4.7301933923        6.3727381457       -1.5664034263
S             3.1497207047        7.2656068236        4.5655832007
S             3.1538293281        5.4626053320       -4.5222282367    0   0   0
S             4.7299681517        6.3732974112        1.5667686375
S             3.1730017999        7.3955970736        7.7139274650
Mo            9.4705914990        0.0069678149        6.0739403340
Mo            3.1538251839        9.1043384407       -6.0872367793    0   0   0
Mo            1.5764644626       10.0136439769       -0.0008620802
S             1.5769098844        8.1939054785       -7.6506323570    0   0   0
S             3.1540591241        9.1042142708       -1.5660140552
S             1.5815322340       10.0034772569        4.5126804644
S             1.5769107581        8.1939045750       -4.5222282367    0   0   0
S             3.1536185981        9.1029743966        1.5671455794
S             1.5790626916       10.0466781717        7.6525246434
Mo           -1.5784148661        2.7199111174        6.0739460984
Mo           11.0384114659        0.9104407117       -6.0872367793    0   0   0
Mo            9.4614449501        1.8208807120       -0.0002178664
S             9.4614961663        0.0000077495       -7.6506323570    0   0   0
S            11.0382911084        0.9104873486       -1.5662302574
S             9.4614487106        1.8208725369        4.5014104428
S             9.4614970401        0.0000068460       -4.5222282367    0   0   0
S            11.0386771065        0.9102645093        1.5665360115
S             9.4589556207        1.8223075178        7.6446835609
Mo           -3.1525089418        5.4628699834        6.0718370892
Mo            9.4614928959        3.6417399547       -6.0872367793    0   0   0
Mo            7.8842499276        4.5521564841       -0.0000343052
S             7.8845775964        2.7313069925       -7.6506323570    0   0   0
S             9.4615119210        3.6420749488       -1.5658813325
S             7.8848279922        4.5552973688        4.5051716456
S             7.8845784701        2.7313060890       -4.5222282367    0   0   0
S             9.4621310874        3.6424658421        1.5661793461
S             7.9009275629        4.5478124503        7.6464205819
Mo           -4.7386378217        8.1995710216        6.0789611718
Mo            7.8845743259        6.3730391977       -6.0872367793    0   0   0
Mo            6.3073850056        7.2833101083       -0.0007932319
S             6.3076590264        5.4626062355       -7.6506323570    0   0   0
S             7.8844868028        6.3724767401       -1.5666454602
S             6.3064677783        7.2818486338        4.5117083038
S             6.3076599001        5.4626053320       -4.5222282367    0   0   0
S             7.8854335325        6.3738544187        1.5655003142
S             6.3134276367        7.2836444207        7.6539101182
Mo           -0.0007423498        0.0004130057        6.0712916956
Mo            6.3076557559        9.1043384407       -6.0872367793    0   0   0
Mo            4.7310451557       10.0147991821       -0.0004836111
S             4.7307404564        8.1939054785       -7.6506323570    0   0   0
S             6.3070958570        9.1041672998       -1.5669483719
S             4.7328890195       10.0131524154        4.5046631833
S             4.7307413301        8.1939045750       -4.5222282367    0   0   0
S             6.3081473726        9.1043557675        1.5659134770
S             4.7403225128       10.0337150453        7.6497986949
Pd            3.1473441144        5.4663450332        9.0230232247
H             0.0020310705        7.2823669257        9.0210789249
End final coordinates



     Writing all to output data dir ./outdir/pwscf.save/
 
     init_run     :    104.47s CPU    107.01s WALL (       1 calls)
     electrons    :  45073.08s CPU  45593.24s WALL (       9 calls)
     update_pot   :     36.80s CPU     36.93s WALL (       8 calls)
     forces       :    597.33s CPU    615.37s WALL (       9 calls)
     force_dftd3  :      4.24s CPU      4.24s WALL (       9 calls)

     Called by init_run:
     wfcinit      :     84.35s CPU     85.62s WALL (       1 calls)
     potinit      :      2.04s CPU      2.13s WALL (       1 calls)
     hinit0       :     12.88s CPU     12.91s WALL (       1 calls)

     Called by electrons:
     c_bands      :  40475.50s CPU  40727.90s WALL (     119 calls)
     sum_band     :   4217.55s CPU   4367.35s WALL (     119 calls)
     v_of_rho     :     47.92s CPU     48.71s WALL (     119 calls)
     newd         :    246.32s CPU    369.47s WALL (     119 calls)
     PAW_pot      :     70.86s CPU     70.84s WALL (     127 calls)
     mix_rho      :     11.42s CPU     11.41s WALL (     119 calls)
     energy_dftd3 :      1.90s CPU      1.89s WALL (       9 calls)

     Called by c_bands:
     init_us_2    :    181.98s CPU    182.10s WALL (    1024 calls)
     init_us_2:cp :    181.97s CPU    182.09s WALL (    1024 calls)
     cegterg      :  39848.66s CPU  40099.57s WALL (     502 calls)

     Called by *egterg:
     cdiaghg      :   2637.11s CPU   2645.03s WALL (    7009 calls)
     h_psi        :  21252.73s CPU  21329.53s WALL (    7081 calls)
     s_psi        :   4346.26s CPU   4346.69s WALL (    7081 calls)
     g_psi        :     46.36s CPU     46.30s WALL (    6575 calls)

     Called by h_psi:
     h_psi:calbec :   4283.85s CPU   4284.82s WALL (    7081 calls)
     vloc_psi     :  12539.40s CPU  12572.66s WALL (    7081 calls)
     add_vuspsi   :   4374.90s CPU   4375.61s WALL (    7081 calls)

     General routines
     calbec       :   5909.47s CPU   5910.75s WALL (    7733 calls)
     fft          :     51.16s CPU     52.32s WALL (    1645 calls)
     ffts         :      2.16s CPU      2.15s WALL (     238 calls)
     fftw         :  10006.87s CPU  10030.86s WALL ( 2742054 calls)
     interpolate  :      4.80s CPU      4.84s WALL (     119 calls)
 
     Parallel routines
 
     PWSCF        :     12h46m CPU     12h56m WALL

 
   This run was terminated on:  16:23: 4  29Aug2023            

=------------------------------------------------------------------------------=
   JOB DONE.
=------------------------------------------------------------------------------=
Application 11110839 resources: utime ~1656413s, stime ~19881s, Rss ~2361376, inblocks ~0, outblocks ~33983552
