
     Program PWSCF v.7.2 starts on 14Aug2023 at 14:57:29 

     This program is part of the open-source Quantum ESPRESSO suite
     for quantum simulation of materials; please cite
         "P. Giannozzi et al., J. Phys.:Condens. Matter 21 395502 (2009);
         "P. Giannozzi et al., J. Phys.:Condens. Matter 29 465901 (2017);
         "P. Giannozzi et al., J. Chem. Phys. 152 154105 (2020);
          URL http://www.quantum-espresso.org", 
     in publications or presentations arising from this work. More details at
     http://www.quantum-espresso.org/quote

     Parallel version (MPI), running on    36 processors

     MPI processes distributed on     1 nodes
     770049 MiB available memory on the printing compute node when the environment starts
 
     Waiting for input...
     Reading input from standard input
Warning: card &CELL ignored
Warning: card / ignored

     Current dimensions of program PWSCF are:
     Max number of different atomic species (ntypx) = 10
     Max number of k-points (npk) =  40000
     Max angular momentum in pseudopotentials (lmaxx) =  4
     file Mo.pbe-spn-kjpaw_psl.1.0.0.UPF: wavefunction(s)  4S 4D renormalized
     file S.pbe-n-kjpaw_psl.1.0.0.UPF: wavefunction(s)  3S 3P renormalized
     file Pd.pbe-spn-kjpaw_psl.1.0.0.UPF: wavefunction(s)  4S 5S 4D renormalized
 
     R & G space division:  proc/nbgrp/npool/nimage =      36
     Subspace diagonalization in iterative solution of the eigenvalue problem:
     one sub-group per band group will be used
     custom distributed-memory algorithm (size of sub-group:  6*  6 procs)

 
     Parallelization info
     --------------------
     sticks:   dense  smooth     PW     G-vecs:    dense   smooth      PW
     Min         585     334     89               198743    85850   11735
     Max         586     335     90               198750    85861   11748
     Sum       21073   12049   3205              7154885  3090769  422587
 
     Using Slab Decomposition
 


     bravais-lattice index     =            0
     lattice parameter (alat)  =      23.8199  a.u.
     unit-cell volume          =   33861.0370 (a.u.)^3
     number of atoms/cell      =          193
     number of atomic types    =            3
     number of electrons       =      1682.00
     number of Kohn-Sham states=         1009
     kinetic-energy cutoff     =      77.0000  Ry
     charge density cutoff     =     539.0000  Ry
     scf convergence threshold =      1.0E-06
     mixing beta               =       0.2000
     number of iterations used =            8  plain     mixing
     energy convergence thresh.=      1.0E-04
     force convergence thresh. =      1.0E-03
     Exchange-correlation= SLA  PW   PBX  PBC
                           (   1   4   3   4   0   0   0)
     nstep                     =         1000


     Effective Screening Medium Method
     =================================
     Boundary Conditions: Vacuum-Slab-Vacuum
     total charge in unit cell        =   0.0000
     grid points for fit at edges     =        4 
 

     celldm(1)=  23.819920  celldm(2)=   0.000000  celldm(3)=   0.000000
     celldm(4)=   0.000000  celldm(5)=   0.000000  celldm(6)=   0.000000

     crystal axes: (cart. coord. in units of alat)
               a(1) = (   1.000000   0.000000   0.000000 )  
               a(2) = (  -0.499999   0.866026   0.000000 )  
               a(3) = (   0.000000   0.000000   2.893000 )  

     reciprocal axes: (cart. coord. in units 2 pi/alat)
               b(1) = (  1.000000  0.577349  0.000000 )  
               b(2) = (  0.000000  1.154700  0.000000 )  
               b(3) = (  0.000000  0.000000  0.345662 )  


     PseudoPot. # 1 for Mo read from file:
     ./pseudo/Mo.pbe-spn-kjpaw_psl.1.0.0.UPF
     MD5 check sum: 317bf72632116215fd98f72de1686f13
     Pseudo is Projector augmented-wave + core cor, Zval = 14.0
     Generated using 'atomic' code by A. Dal Corso  v.7.2
     Shape of augmentation charge: PSQ
     Using radial grid of 1229 points,  6 beta functions with: 
                l(1) =   0
                l(2) =   0
                l(3) =   1
                l(4) =   1
                l(5) =   2
                l(6) =   2
     Q(r) pseudized with 0 coefficients 


     PseudoPot. # 2 for S  read from file:
     ./pseudo/S.pbe-n-kjpaw_psl.1.0.0.UPF
     MD5 check sum: 8b7b5302570d38d5e87fed6a1065abda
     Pseudo is Projector augmented-wave + core cor, Zval =  6.0
     Generated using 'atomic' code by A. Dal Corso  v.7.2
     Shape of augmentation charge: PSQ
     Using radial grid of 1151 points,  6 beta functions with: 
                l(1) =   0
                l(2) =   0
                l(3) =   1
                l(4) =   1
                l(5) =   2
                l(6) =   2
     Q(r) pseudized with 0 coefficients 


     PseudoPot. # 3 for Pd read from file:
     ./pseudo/Pd.pbe-spn-kjpaw_psl.1.0.0.UPF
     MD5 check sum: a60571a671f2502b8a6a4569d20a6edb
     Pseudo is Projector augmented-wave + core cor, Zval = 18.0
     Generated using 'atomic' code by A. Dal Corso  v.7.2
     Shape of augmentation charge: PSQ
     Using radial grid of 1235 points,  6 beta functions with: 
                l(1) =   0
                l(2) =   0
                l(3) =   1
                l(4) =   1
                l(5) =   2
                l(6) =   2
     Q(r) pseudized with 0 coefficients 


     atomic species   valence    mass     pseudopotential
        Mo            14.00    95.95000     Mo( 1.00)
        S              6.00    32.06000     S ( 1.00)
        Pd            18.00   106.42000     Pd( 1.00)

     No symmetry found



   Cartesian axes

     site n.     atom                  positions (alat units)
         1           Mo  tau(   1) = (   0.0000010   0.1443372  -0.7272732  )
         2           Mo  tau(   2) = (   0.1249995   0.0721706  -0.2424038  )
         3           S   tau(   3) = (   0.0000015   0.1443386  -0.3667807  )
         4           S   tau(   4) = (   0.1250010   0.0721682  -0.6030489  )
         5           S   tau(   5) = (   0.1250010   0.0721683  -0.8514963  )
         6           S   tau(   6) = (   0.0000015   0.1443389  -0.1180260  )
         7           Mo  tau(   7) = (   0.0000041   0.1443345   0.2424023  )
         8           Mo  tau(   8) = (   0.1250030   0.0721700   0.7272501  )
         9           S   tau(   9) = (   0.0000038   0.1443392   0.6028599  )
        10           S   tau(  10) = (   0.1250037   0.0721683   0.3667755  )
        11           S   tau(  11) = (   0.1250033   0.0721688   0.1180247  )
        12           S   tau(  12) = (   0.0000038   0.1443391   0.8517304  )
        13           Mo  tau(  13) = (  -0.1249989   0.3608437  -0.7272732  )
        14           Mo  tau(  14) = (   0.0000030   0.2886752  -0.2424042  )
        15           S   tau(  15) = (  -0.1249977   0.3608450  -0.3667802  )
        16           S   tau(  16) = (   0.0000012   0.2886747  -0.6030489  )
        17           S   tau(  17) = (   0.0000012   0.2886748  -0.8514963  )
        18           S   tau(  18) = (  -0.1249977   0.3608454  -0.1180274  )
        19           Mo  tau(  19) = (  -0.1249981   0.3608444   0.2424011  )
        20           Mo  tau(  20) = (   0.0000038   0.2886765   0.7272499  )
        21           S   tau(  21) = (  -0.1249961   0.3608457   0.6028596  )
        22           S   tau(  22) = (   0.0000037   0.2886752   0.3667739  )
        23           S   tau(  23) = (   0.0000035   0.2886747   0.1180263  )
        24           S   tau(  24) = (  -0.1249962   0.3608459   0.8517305  )
        25           Mo  tau(  25) = (  -0.2499987   0.5773502  -0.7272732  )
        26           Mo  tau(  26) = (  -0.1249977   0.5051839  -0.2424055  )
        27           S   tau(  27) = (  -0.2499981   0.5773518  -0.3667809  )
        28           S   tau(  28) = (  -0.1249986   0.5051812  -0.6030489  )
        29           S   tau(  29) = (  -0.1249986   0.5051813  -0.8514963  )
        30           S   tau(  30) = (  -0.2499979   0.5773512  -0.1180266  )
        31           Mo  tau(  31) = (  -0.2499983   0.5773503   0.2424020  )
        32           Mo  tau(  32) = (  -0.1249962   0.5051830   0.7272501  )
        33           S   tau(  33) = (  -0.2499958   0.5773522   0.6028593  )
        34           S   tau(  34) = (  -0.1249963   0.5051821   0.3667746  )
        35           S   tau(  35) = (  -0.1249968   0.5051820   0.1180254  )
        36           S   tau(  36) = (  -0.2499959   0.5773522   0.8517307  )
        37           Mo  tau(  37) = (  -0.3749985   0.7938567  -0.7272732  )
        38           Mo  tau(  38) = (  -0.2500001   0.7216874  -0.2424031  )
        39           S   tau(  39) = (  -0.3749980   0.7938584  -0.3667800  )
        40           S   tau(  40) = (  -0.2499984   0.7216877  -0.6030489  )
        41           S   tau(  41) = (  -0.2499984   0.7216878  -0.8514963  )
        42           S   tau(  42) = (  -0.3749982   0.7938585  -0.1180264  )
        43           Mo  tau(  43) = (  -0.3749976   0.7938584   0.2424002  )
        44           Mo  tau(  44) = (  -0.2499965   0.7216896   0.7272502  )
        45           S   tau(  45) = (  -0.3749954   0.7938586   0.6028596  )
        46           S   tau(  46) = (  -0.2499962   0.7216890   0.3667741  )
        47           S   tau(  47) = (  -0.2499961   0.7216884   0.1180258  )
        48           S   tau(  48) = (  -0.3749955   0.7938585   0.8517305  )
        49           Mo  tau(  49) = (   0.2500010   0.1443372  -0.7272732  )
        50           Mo  tau(  50) = (   0.3750034   0.0721723  -0.2424032  )
        51           S   tau(  51) = (   0.2500017   0.1443391  -0.3667788  )
        52           S   tau(  52) = (   0.3750010   0.0721682  -0.6030489  )
        53           S   tau(  53) = (   0.3750010   0.0721683  -0.8514963  )
        54           S   tau(  54) = (   0.2500016   0.1443391  -0.1180271  )
        55           Mo  tau(  55) = (   0.2500037   0.1443371   0.2424008  )
        56           Mo  tau(  56) = (   0.3750049   0.0721708   0.7272499  )
        57           S   tau(  57) = (   0.2500041   0.1443391   0.6028593  )
        58           S   tau(  58) = (   0.3750026   0.0721682   0.3667763  )
        59           S   tau(  59) = (   0.3750033   0.0721687   0.1180242  )
        60           S   tau(  60) = (   0.2500040   0.1443392   0.8517310  )
        61           Mo  tau(  61) = (   0.1250012   0.3608437  -0.7272732  )
        62           Mo  tau(  62) = (   0.2500029   0.2886782  -0.2424031  )
        63           S   tau(  63) = (   0.1250024   0.3608455  -0.3667794  )
        64           S   tau(  64) = (   0.2500012   0.2886747  -0.6030489  )
        65           S   tau(  65) = (   0.2500012   0.2886748  -0.8514963  )
        66           S   tau(  66) = (   0.1250021   0.3608455  -0.1180270  )
        67           Mo  tau(  67) = (   0.1250055   0.3608449   0.2424003  )
        68           Mo  tau(  68) = (   0.2500045   0.2886775   0.7272501  )
        69           S   tau(  69) = (   0.1250040   0.3608458   0.6028596  )
        70           S   tau(  70) = (   0.2500032   0.2886750   0.3667755  )
        71           S   tau(  71) = (   0.2500033   0.2886748   0.1180238  )
        72           S   tau(  72) = (   0.1250043   0.3608459   0.8517305  )
        73           Mo  tau(  73) = (   0.0000014   0.5773502  -0.7272732  )
        74           Mo  tau(  74) = (   0.1250045   0.5051840  -0.2424036  )
        75           S   tau(  75) = (   0.0000030   0.5773520  -0.3667799  )
        76           S   tau(  76) = (   0.1250014   0.5051812  -0.6030489  )
        77           S   tau(  77) = (   0.1250014   0.5051813  -0.8514963  )
        78           S   tau(  78) = (   0.0000026   0.5773517  -0.1180274  )
        79           Mo  tau(  79) = (   0.0000039   0.5773528   0.2424003  )
        80           Mo  tau(  80) = (   0.1250050   0.5051837   0.7272501  )
        81           S   tau(  81) = (   0.0000041   0.5773523   0.6028593  )
        82           S   tau(  82) = (   0.1250034   0.5051819   0.3667749  )
        83           S   tau(  83) = (   0.1250033   0.5051818   0.1180238  )
        84           S   tau(  84) = (   0.0000042   0.5773523   0.8517309  )
        85           Mo  tau(  85) = (  -0.1249984   0.7938567  -0.7272732  )
        86           Mo  tau(  86) = (   0.0000069   0.7216896  -0.2424039  )
        87           S   tau(  87) = (  -0.1249975   0.7938582  -0.3667782  )
        88           S   tau(  88) = (   0.0000016   0.7216877  -0.6030489  )
        89           S   tau(  89) = (   0.0000016   0.7216878  -0.8514963  )
        90           S   tau(  90) = (  -0.1249973   0.7938582  -0.1180279  )
        91           Mo  tau(  91) = (  -0.1249936   0.7938581   0.2424006  )
        92           Mo  tau(  92) = (   0.0000056   0.7216904   0.7272501  )
        93           S   tau(  93) = (  -0.1249955   0.7938586   0.6028591  )
        94           S   tau(  94) = (   0.0000039   0.7216883   0.3667759  )
        95           S   tau(  95) = (   0.0000039   0.7216885   0.1180233  )
        96           S   tau(  96) = (  -0.1249955   0.7938586   0.8517313  )
        97           Mo  tau(  97) = (   0.5000010   0.1443372  -0.7272732  )
        98           Mo  tau(  98) = (   0.6250001   0.0721662  -0.2424040  )
        99           S   tau(  99) = (   0.5000017   0.1443386  -0.3667801  )
       100           S   tau( 100) = (   0.6250010   0.0721682  -0.6030489  )
       101           S   tau( 101) = (   0.6250010   0.0721683  -0.8514963  )
       102           S   tau( 102) = (   0.5000020   0.1443388  -0.1180261  )
       103           Mo  tau( 103) = (   0.5000005   0.1443344   0.2424031  )
       104           Mo  tau( 104) = (   0.6250028   0.0721696   0.7272500  )
       105           S   tau( 105) = (   0.5000038   0.1443392   0.6028599  )
       106           S   tau( 106) = (   0.6250032   0.0721682   0.3667750  )
       107           S   tau( 107) = (   0.6250029   0.0721690   0.1180259  )
       108           S   tau( 108) = (   0.5000038   0.1443393   0.8517304  )
       109           Mo  tau( 109) = (   0.3750012   0.3608437  -0.7272732  )
       110           Mo  tau( 110) = (   0.4999991   0.2886761  -0.2424038  )
       111           S   tau( 111) = (   0.3750012   0.3608452  -0.3667804  )
       112           S   tau( 112) = (   0.5000012   0.2886747  -0.6030489  )
       113           S   tau( 113) = (   0.5000012   0.2886748  -0.8514963  )
       114           S   tau( 114) = (   0.3750014   0.3608455  -0.1180261  )
       115           Mo  tau( 115) = (   0.3750003   0.3608415   0.2424003  )
       116           Mo  tau( 116) = (   0.5000036   0.2886765   0.7272501  )
       117           S   tau( 117) = (   0.3750041   0.3608456   0.6028595  )
       118           S   tau( 118) = (   0.5000032   0.2886753   0.3667740  )
       119           S   tau( 119) = (   0.5000035   0.2886745   0.1180267  )
       120           S   tau( 120) = (   0.3750041   0.3608457   0.8517303  )
       121           Mo  tau( 121) = (   0.2500014   0.5773502  -0.7272732  )
       122           Mo  tau( 122) = (   0.3749983   0.5051825  -0.2424043  )
       123           S   tau( 123) = (   0.2500017   0.5773519  -0.3667810  )
       124           S   tau( 124) = (   0.3750014   0.5051812  -0.6030489  )
       125           S   tau( 125) = (   0.3750014   0.5051813  -0.8514963  )
       126           S   tau( 126) = (   0.2500018   0.5773519  -0.1180256  )
       127           Mo  tau( 127) = (   0.2500009   0.5773497   0.2423999  )
       128           Mo  tau( 128) = (   0.3750037   0.5051832   0.7272500  )
       129           S   tau( 129) = (   0.2500042   0.5773522   0.6028596  )
       130           S   tau( 130) = (   0.3750035   0.5051817   0.3667733  )
       131           S   tau( 131) = (   0.3750039   0.5051817   0.1180258  )
       132           S   tau( 132) = (   0.2500043   0.5773521   0.8517304  )
       133           Mo  tau( 133) = (   0.1250016   0.7938567  -0.7272732  )
       134           Mo  tau( 134) = (   0.2499995   0.7216883  -0.2424036  )
       135           S   tau( 135) = (   0.1250024   0.7938578  -0.3667813  )
       136           S   tau( 136) = (   0.2500016   0.7216877  -0.6030489  )
       137           S   tau( 137) = (   0.2500016   0.7216878  -0.8514963  )
       138           S   tau( 138) = (   0.1250024   0.7938579  -0.1180253  )
       139           Mo  tau( 139) = (   0.1250007   0.7938566   0.2424003  )
       140           Mo  tau( 140) = (   0.2500037   0.7216894   0.7272501  )
       141           S   tau( 141) = (   0.1250043   0.7938588   0.6028599  )
       142           S   tau( 142) = (   0.2500035   0.7216882   0.3667737  )
       143           S   tau( 143) = (   0.2500038   0.7216886   0.1180257  )
       144           S   tau( 144) = (   0.1250043   0.7938587   0.8517303  )
       145           Mo  tau( 145) = (   0.7500010   0.1443372  -0.7272732  )
       146           Mo  tau( 146) = (   0.8750038   0.0721696  -0.2424038  )
       147           S   tau( 147) = (   0.7500016   0.1443382  -0.3667789  )
       148           S   tau( 148) = (   0.8750010   0.0721682  -0.6030489  )
       149           S   tau( 149) = (   0.8750010   0.0721683  -0.8514963  )
       150           S   tau( 150) = (   0.7500016   0.1443384  -0.1180279  )
       151           Mo  tau( 151) = (   0.7500051   0.1443370   0.2424017  )
       152           Mo  tau( 152) = (   0.8750049   0.0721705   0.7272500  )
       153           S   tau( 153) = (   0.7500039   0.1443393   0.6028592  )
       154           S   tau( 154) = (   0.8750038   0.0721685   0.3667764  )
       155           S   tau( 155) = (   0.8750039   0.0721688   0.1180247  )
       156           S   tau( 156) = (   0.7500041   0.1443394   0.8517311  )
       157           Mo  tau( 157) = (   0.6250012   0.3608437  -0.7272732  )
       158           Mo  tau( 158) = (   0.7500028   0.2886769  -0.2424041  )
       159           S   tau( 159) = (   0.6250015   0.3608451  -0.3667792  )
       160           S   tau( 160) = (   0.7500012   0.2886747  -0.6030489  )
       161           S   tau( 161) = (   0.7500012   0.2886748  -0.8514963  )
       162           S   tau( 162) = (   0.6250016   0.3608454  -0.1180280  )
       163           Mo  tau( 163) = (   0.6250051   0.3608469   0.2424010  )
       164           Mo  tau( 164) = (   0.7500045   0.2886776   0.7272501  )
       165           S   tau( 165) = (   0.6250042   0.3608457   0.6028594  )
       166           S   tau( 166) = (   0.7500035   0.2886754   0.3667754  )
       167           S   tau( 167) = (   0.7500035   0.2886751   0.1180251  )
       168           S   tau( 168) = (   0.6250042   0.3608459   0.8517307  )
       169           Mo  tau( 169) = (   0.5000014   0.5773502  -0.7272732  )
       170           Mo  tau( 170) = (   0.6250029   0.5051841  -0.2424047  )
       171           S   tau( 171) = (   0.5000014   0.5773518  -0.3667794  )
       172           S   tau( 172) = (   0.6250014   0.5051812  -0.6030489  )
       173           S   tau( 173) = (   0.6250014   0.5051813  -0.8514963  )
       174           S   tau( 174) = (   0.5000016   0.5773516  -0.1180277  )
       175           Mo  tau( 175) = (   0.5000072   0.5773526   0.2424011  )
       176           Mo  tau( 176) = (   0.6250047   0.5051838   0.7272501  )
       177           S   tau( 177) = (   0.5000044   0.5773522   0.6028593  )
       178           S   tau( 178) = (   0.6250038   0.5051821   0.3667764  )
       179           S   tau( 179) = (   0.6250040   0.5051821   0.1180241  )
       180           S   tau( 180) = (   0.5000045   0.5773523   0.8517308  )
       181           Mo  tau( 181) = (   0.3750016   0.7938567  -0.7272732  )
       182           Mo  tau( 182) = (   0.5000025   0.7216901  -0.2424039  )
       183           S   tau( 183) = (   0.3750019   0.7938578  -0.3667793  )
       184           S   tau( 184) = (   0.5000016   0.7216877  -0.6030489  )
       185           S   tau( 185) = (   0.5000016   0.7216878  -0.8514963  )
       186           S   tau( 186) = (   0.3750020   0.7938579  -0.1180272  )
       187           Mo  tau( 187) = (   0.3750057   0.7938586   0.2424015  )
       188           Mo  tau( 188) = (   0.5000052   0.7216902   0.7272503  )
       189           S   tau( 189) = (   0.3750045   0.7938588   0.6028592  )
       190           S   tau( 190) = (   0.5000042   0.7216887   0.3667757  )
       191           S   tau( 191) = (   0.5000039   0.7216887   0.1180242  )
       192           S   tau( 192) = (   0.3750047   0.7938587   0.8517308  )
       193           Pd  tau( 193) = (   0.1250302   0.3608104   1.0262628  )

     --------------------------------------------
     DFT-D3 Dispersion Correction (3-body terms):
     --------------------------------------------
       Reference C6 values for interpolation: 

         atom   Coordination number   C6
         S          0.000           268.01
         S          0.995           261.99
         S          1.990           251.62
         Mo         0.000          1691.79
         Mo         1.942          1004.01
         Mo        11.056           674.22
         Pd         0.000          1217.01
         Pd         1.863           573.90
         Pd         5.710           531.75

       Values used:

         atom   Coordination number  R0_AB[au]  C6      C8
         Mo        10.208            3.547    674.22  77634.20
         Mo        10.221            3.547    674.22  77634.20
         S          3.858            3.128    251.62  12327.25
         S          3.859            3.128    251.62  12327.25
         S          3.758            3.128    251.62  12327.25
         S          3.859            3.128    251.62  12327.25
         Mo        10.221            3.547    674.22  77634.20
         Mo        10.207            3.547    674.22  77634.20
         S          3.856            3.128    251.62  12327.25
         S          3.859            3.128    251.62  12327.25
         S          3.859            3.128    251.62  12327.25
         S          3.767            3.128    251.62  12327.25
         Mo        10.208            3.547    674.22  77634.20
         Mo        10.221            3.547    674.22  77634.20
         S          3.858            3.128    251.62  12327.25
         S          3.859            3.128    251.62  12327.25
         S          3.758            3.128    251.62  12327.25
         S          3.859            3.128    251.62  12327.25
         Mo        10.221            3.547    674.22  77634.20
         Mo        10.221            3.547    674.22  77634.20
         S          3.856            3.128    251.62  12327.25
         S          3.859            3.128    251.62  12327.25
         S          3.859            3.128    251.62  12327.25
         S          3.767            3.128    251.62  12327.25
         Mo        10.208            3.547    674.21  77634.20
         Mo        10.221            3.547    674.22  77634.20
         S          3.858            3.128    251.62  12327.25
         S          3.859            3.128    251.62  12327.25
         S          3.758            3.128    251.62  12327.25
         S          3.859            3.128    251.62  12327.25
         Mo        10.221            3.547    674.22  77634.20
         Mo        10.207            3.547    674.22  77634.20
         S          3.856            3.128    251.62  12327.25
         S          3.859            3.128    251.62  12327.25
         S          3.859            3.128    251.62  12327.25
         S          3.755            3.128    251.62  12327.25
         Mo        10.208            3.547    674.22  77634.20
         Mo        10.221            3.547    674.22  77634.20
         S          3.858            3.128    251.62  12327.25
         S          3.859            3.128    251.62  12327.25
         S          3.758            3.128    251.62  12327.25
         S          3.859            3.128    251.62  12327.25
         Mo        10.221            3.547    674.22  77634.20
         Mo        10.206            3.547    674.22  77634.20
         S          3.856            3.128    251.62  12327.25
         S          3.859            3.128    251.62  12327.25
         S          3.859            3.128    251.62  12327.25
         S          3.755            3.128    251.62  12327.25
         Mo        10.208            3.547    674.22  77634.20
         Mo        10.221            3.547    674.22  77634.20
         S          3.858            3.128    251.62  12327.25
         S          3.859            3.128    251.62  12327.25
         S          3.758            3.128    251.62  12327.25
         S          3.859            3.128    251.62  12327.25
         Mo        10.221            3.547    674.22  77634.20
         Mo        10.206            3.547    674.22  77634.20
         S          3.856            3.128    251.62  12327.25
         S          3.859            3.128    251.62  12327.25
         S          3.859            3.128    251.62  12327.25
         S          3.767            3.128    251.62  12327.25
         Mo        10.208            3.547    674.22  77634.20
         Mo        10.221            3.547    674.22  77634.20
         S          3.858            3.128    251.62  12327.25
         S          3.859            3.128    251.62  12327.25
         S          3.758            3.128    251.62  12327.25
         S          3.859            3.128    251.62  12327.25
         Mo        10.221            3.547    674.22  77634.20
         Mo        10.221            3.547    674.22  77634.20
         S          3.857            3.128    251.62  12327.25
         S          3.859            3.128    251.62  12327.25
         S          3.859            3.128    251.62  12327.25
         S          4.742            3.128    251.62  12327.25
         Mo        10.208            3.547    674.21  77634.20
         Mo        10.221            3.547    674.22  77634.20
         S          3.858            3.128    251.62  12327.25
         S          3.859            3.128    251.62  12327.25
         S          3.758            3.128    251.62  12327.25
         S          3.859            3.128    251.62  12327.25
         Mo        10.221            3.547    674.22  77634.20
         Mo        10.221            3.547    674.22  77634.20
         S          3.856            3.128    251.62  12327.25
         S          3.859            3.128    251.62  12327.25
         S          3.859            3.128    251.62  12327.25
         S          3.767            3.128    251.62  12327.25
         Mo        10.208            3.547    674.22  77634.20
         Mo        10.221            3.547    674.22  77634.20
         S          3.858            3.128    251.62  12327.25
         S          3.859            3.128    251.62  12327.25
         S          3.758            3.128    251.62  12327.25
         S          3.859            3.128    251.62  12327.25
         Mo        10.221            3.547    674.22  77634.20
         Mo        10.206            3.547    674.22  77634.20
         S          3.856            3.128    251.62  12327.25
         S          3.859            3.128    251.62  12327.25
         S          3.859            3.128    251.62  12327.25
         S          3.755            3.128    251.62  12327.25
         Mo        10.208            3.547    674.22  77634.20
         Mo        10.221            3.547    674.22  77634.20
         S          3.858            3.128    251.62  12327.25
         S          3.859            3.128    251.62  12327.25
         S          3.758            3.128    251.62  12327.25
         S          3.859            3.128    251.62  12327.25
         Mo        10.221            3.547    674.21  77634.20
         Mo        10.206            3.547    674.22  77634.20
         S          3.856            3.128    251.62  12327.25
         S          3.859            3.128    251.62  12327.25
         S          3.859            3.128    251.62  12327.25
         S          3.755            3.128    251.62  12327.25
         Mo        10.208            3.547    674.22  77634.20
         Mo        10.221            3.547    674.22  77634.20
         S          3.858            3.128    251.62  12327.25
         S          3.859            3.128    251.62  12327.25
         S          3.758            3.128    251.62  12327.25
         S          3.859            3.128    251.62  12327.25
         Mo        10.221            3.547    674.22  77634.20
         Mo        10.206            3.547    674.22  77634.20
         S          3.856            3.128    251.62  12327.25
         S          3.859            3.128    251.62  12327.25
         S          3.859            3.128    251.62  12327.25
         S          3.767            3.128    251.62  12327.25
         Mo        10.208            3.547    674.22  77634.20
         Mo        10.221            3.547    674.22  77634.20
         S          3.858            3.128    251.62  12327.25
         S          3.859            3.128    251.62  12327.25
         S          3.758            3.128    251.62  12327.25
         S          3.859            3.128    251.62  12327.25
         Mo        10.221            3.547    674.22  77634.20
         Mo        10.207            3.547    674.22  77634.20
         S          3.856            3.128    251.62  12327.25
         S          3.859            3.128    251.62  12327.25
         S          3.859            3.128    251.62  12327.25
         S          3.767            3.128    251.62  12327.25
         Mo        10.208            3.547    674.22  77634.20
         Mo        10.221            3.547    674.22  77634.20
         S          3.858            3.128    251.62  12327.25
         S          3.859            3.128    251.62  12327.25
         S          3.758            3.128    251.62  12327.25
         S          3.859            3.128    251.62  12327.25
         Mo        10.221            3.547    674.22  77634.20
         Mo        10.206            3.547    674.22  77634.20
         S          3.856            3.128    251.62  12327.25
         S          3.859            3.128    251.62  12327.25
         S          3.859            3.128    251.62  12327.25
         S          3.755            3.128    251.62  12327.25
         Mo        10.208            3.547    674.22  77634.20
         Mo        10.221            3.547    674.22  77634.20
         S          3.858            3.128    251.62  12327.25
         S          3.859            3.128    251.62  12327.25
         S          3.758            3.128    251.62  12327.25
         S          3.859            3.128    251.62  12327.25
         Mo        10.221            3.547    674.22  77634.20
         Mo        10.206            3.547    674.22  77634.20
         S          3.856            3.128    251.62  12327.25
         S          3.859            3.128    251.62  12327.25
         S          3.859            3.128    251.62  12327.25
         S          3.755            3.128    251.62  12327.25
         Mo        10.208            3.547    674.22  77634.20
         Mo        10.220            3.547    674.22  77634.20
         S          3.858            3.128    251.62  12327.25
         S          3.859            3.128    251.62  12327.25
         S          3.758            3.128    251.62  12327.25
         S          3.859            3.128    251.62  12327.25
         Mo        10.221            3.547    674.22  77634.20
         Mo        10.206            3.547    674.22  77634.20
         S          3.856            3.128    251.62  12327.25
         S          3.859            3.128    251.62  12327.25
         S          3.859            3.128    251.62  12327.25
         S          3.755            3.128    251.62  12327.25
         Mo        10.208            3.547    674.22  77634.20
         Mo        10.221            3.547    674.22  77634.20
         S          3.858            3.128    251.62  12327.25
         S          3.859            3.128    251.62  12327.25
         S          3.758            3.128    251.62  12327.25
         S          3.859            3.128    251.62  12327.25
         Mo        10.221            3.547    674.22  77634.20
         Mo        10.206            3.547    674.22  77634.20
         S          3.856            3.128    251.62  12327.25
         S          3.859            3.128    251.62  12327.25
         S          3.859            3.128    251.62  12327.25
         S          3.755            3.128    251.62  12327.25
         Mo        10.208            3.547    674.22  77634.20
         Mo        10.221            3.547    674.22  77634.20
         S          3.858            3.128    251.62  12327.25
         S          3.859            3.128    251.62  12327.25
         S          3.758            3.128    251.62  12327.25
         S          3.859            3.128    251.62  12327.25
         Mo        10.221            3.547    674.22  77634.20
         Mo        10.206            3.547    674.22  77634.20
         S          3.856            3.128    251.62  12327.25
         S          3.859            3.128    251.62  12327.25
         S          3.859            3.128    251.62  12327.25
         S          3.755            3.128    251.62  12327.25
         Pd         1.124            3.168    600.84  55051.27

         Molecular C6 ( Ry / a.u.^6 ) =  13794116.64


     number of k points=     4  Gaussian smearing, width (Ry)=  0.0100
                       cart. coord. in units 2pi/alat
        k(    1) = (   0.0000000   0.0000000   0.0000000), wk =   0.5000000
        k(    2) = (   0.0000000  -0.5773499   0.0000000), wk =   0.5000000
        k(    3) = (  -0.5000000  -0.2886744   0.0000000), wk =   0.5000000
        k(    4) = (  -0.5000000  -0.8660242   0.0000000), wk =   0.5000000

     Dense  grid:  7154885 G-vectors     FFT dimensions: ( 180, 180, 512)

     Smooth grid:  3090769 G-vectors     FFT dimensions: ( 135, 135, 400)

     Estimated max dynamical RAM per process >       3.18 GB

     Estimated total dynamical RAM >     114.35 GB

     Initial potential from superposition of free atoms

     starting charge    1681.9391, renormalised to    1682.0000

     negative rho (up, down):  8.888E-04 0.000E+00
     Starting wfcs are 1162 randomized atomic wfcs
     Checking if some PAW data can be deallocated... 

     total cpu time spent up to now is      196.0 secs

     Self-consistent Calculation

     iteration #  1     ecut=    77.00 Ry     beta= 0.20
     Davidson diagonalization with overlap
     ethr =  1.00E-02,  avg # of iterations =  2.0

     Threshold (ethr) on eigenvalues was too large:
     Diagonalizing with lowered threshold

     Davidson diagonalization with overlap
     ethr =  1.59E-04,  avg # of iterations = 14.8

     negative rho (up, down):  2.344E-04 0.000E+00

     total cpu time spent up to now is     2450.6 secs

     total energy              =  -32305.65815275 Ry
     estimated scf accuracy    <       6.65966288 Ry

     iteration #  2     ecut=    77.00 Ry     beta= 0.20
     Davidson diagonalization with overlap
     ethr =  3.96E-04,  avg # of iterations =  5.8

     negative rho (up, down):  2.375E-05 0.000E+00

     total cpu time spent up to now is     2901.4 secs

     total energy              =  -32304.15046557 Ry
     estimated scf accuracy    <       3.50773088 Ry

     iteration #  3     ecut=    77.00 Ry     beta= 0.20
     Davidson diagonalization with overlap
     ethr =  2.09E-04,  avg # of iterations = 13.8

     negative rho (up, down):  2.371E-05 0.000E+00

     total cpu time spent up to now is     3492.3 secs

     total energy              =  -32304.84174823 Ry
     estimated scf accuracy    <      24.59034606 Ry

     iteration #  4     ecut=    77.00 Ry     beta= 0.20
     Davidson diagonalization with overlap
     ethr =  2.09E-04,  avg # of iterations = 11.5

     negative rho (up, down):  2.374E-05 0.000E+00

     total cpu time spent up to now is     3976.4 secs

     total energy              =  -32304.84902206 Ry
     estimated scf accuracy    <       2.71765531 Ry

     iteration #  5     ecut=    77.00 Ry     beta= 0.20
     Davidson diagonalization with overlap
     ethr =  1.62E-04,  avg # of iterations =  9.5

     negative rho (up, down):  3.729E-05 0.000E+00

     total cpu time spent up to now is     4451.0 secs

     total energy              =  -32303.57161510 Ry
     estimated scf accuracy    <     107.53826199 Ry

     iteration #  6     ecut=    77.00 Ry     beta= 0.20
     Davidson diagonalization with overlap
     ethr =  1.62E-04,  avg # of iterations =  7.2

     negative rho (up, down):  3.171E-05 0.000E+00

     total cpu time spent up to now is     4911.7 secs

     total energy              =  -32305.07741803 Ry
     estimated scf accuracy    <       0.51218241 Ry

     iteration #  7     ecut=    77.00 Ry     beta= 0.20
     Davidson diagonalization with overlap
     c_bands:  3 eigenvalues not converged
     ethr =  3.05E-05,  avg # of iterations = 18.0

     negative rho (up, down):  3.947E-05 0.000E+00

     total cpu time spent up to now is     6318.7 secs

     total energy              =  -32305.56809043 Ry
     estimated scf accuracy    <       0.41828170 Ry

     iteration #  8     ecut=    77.00 Ry     beta= 0.20
     Davidson diagonalization with overlap
     ethr =  2.49E-05,  avg # of iterations =  3.5

     negative rho (up, down):  8.683E-05 0.000E+00

     total cpu time spent up to now is     6762.6 secs

     total energy              =  -32305.50741076 Ry
     estimated scf accuracy    <       0.24810662 Ry

     iteration #  9     ecut=    77.00 Ry     beta= 0.20
     Davidson diagonalization with overlap
     ethr =  1.48E-05,  avg # of iterations = 10.5

     negative rho (up, down):  4.396E-04 0.000E+00

     total cpu time spent up to now is     7268.0 secs

     total energy              =  -32305.49848825 Ry
     estimated scf accuracy    <       0.10491067 Ry

     iteration # 10     ecut=    77.00 Ry     beta= 0.20
     Davidson diagonalization with overlap
     c_bands:  3 eigenvalues not converged
     c_bands:  4 eigenvalues not converged
     c_bands:  2 eigenvalues not converged
     ethr =  6.24E-06,  avg # of iterations = 80.5

     negative rho (up, down):  3.096E-04 0.000E+00

     total cpu time spent up to now is     9953.5 secs

     total energy              =  -32305.59066247 Ry
     estimated scf accuracy    <       0.15140535 Ry

     iteration # 11     ecut=    77.00 Ry     beta= 0.20
     Davidson diagonalization with overlap
     c_bands:  1 eigenvalues not converged
     c_bands:  1 eigenvalues not converged
     ethr =  6.24E-06,  avg # of iterations = 11.0

     negative rho (up, down):  2.677E-04 0.000E+00

     total cpu time spent up to now is    10432.9 secs

     total energy              =  -32305.57757101 Ry
     estimated scf accuracy    <       0.03806194 Ry

     iteration # 12     ecut=    77.00 Ry     beta= 0.20
     Davidson diagonalization with overlap
     c_bands:  2 eigenvalues not converged
     c_bands:  4 eigenvalues not converged
     ethr =  2.26E-06,  avg # of iterations = 41.0

     negative rho (up, down):  5.471E-04 0.000E+00

     total cpu time spent up to now is    12290.5 secs

     total energy              =  -32305.60480873 Ry
     estimated scf accuracy    <       0.03296085 Ry

     iteration # 13     ecut=    77.00 Ry     beta= 0.20
     Davidson diagonalization with overlap
     c_bands:  1 eigenvalues not converged
     ethr =  1.96E-06,  avg # of iterations = 11.2

     negative rho (up, down):  7.722E-04 0.000E+00

     total cpu time spent up to now is    12998.3 secs

     total energy              =  -32305.61888531 Ry
     estimated scf accuracy    <       0.01011609 Ry

     iteration # 14     ecut=    77.00 Ry     beta= 0.20
     Davidson diagonalization with overlap
     ethr =  6.01E-07,  avg # of iterations = 11.2

     negative rho (up, down):  7.664E-04 0.000E+00

     total cpu time spent up to now is    13635.9 secs

     total energy              =  -32305.61696964 Ry
     estimated scf accuracy    <       0.01323989 Ry

     iteration # 15     ecut=    77.00 Ry     beta= 0.20
     Davidson diagonalization with overlap
     c_bands:  4 eigenvalues not converged
     ethr =  6.01E-07,  avg # of iterations = 11.0

     negative rho (up, down):  7.677E-04 0.000E+00

     total cpu time spent up to now is    14183.4 secs

     total energy              =  -32305.61674656 Ry
     estimated scf accuracy    <       0.00561967 Ry

     iteration # 16     ecut=    77.00 Ry     beta= 0.20
     Davidson diagonalization with overlap
     ethr =  3.34E-07,  avg # of iterations =  6.5

     negative rho (up, down):  8.718E-04 0.000E+00

     total cpu time spent up to now is    14646.9 secs

     total energy              =  -32305.61565565 Ry
     estimated scf accuracy    <       0.00376209 Ry

     iteration # 17     ecut=    77.00 Ry     beta= 0.20
     Davidson diagonalization with overlap
     ethr =  2.24E-07,  avg # of iterations =  8.0

     negative rho (up, down):  8.872E-04 0.000E+00

     total cpu time spent up to now is    15162.3 secs

     total energy              =  -32305.61556489 Ry
     estimated scf accuracy    <       0.00137046 Ry

     iteration # 18     ecut=    77.00 Ry     beta= 0.20
     Davidson diagonalization with overlap
     c_bands:  1 eigenvalues not converged
     ethr =  8.15E-08,  avg # of iterations = 29.5

     negative rho (up, down):  8.605E-04 0.000E+00

     total cpu time spent up to now is    16617.2 secs

     total energy              =  -32305.61741476 Ry
     estimated scf accuracy    <       0.00030397 Ry

     iteration # 19     ecut=    77.00 Ry     beta= 0.20
     Davidson diagonalization with overlap
     c_bands:  1 eigenvalues not converged
     ethr =  1.81E-08,  avg # of iterations = 15.5

     negative rho (up, down):  8.542E-04 0.000E+00

     total cpu time spent up to now is    17632.2 secs

     total energy              =  -32305.61765685 Ry
     estimated scf accuracy    <       0.00033742 Ry

     iteration # 20     ecut=    77.00 Ry     beta= 0.20
     Davidson diagonalization with overlap
     c_bands:  1 eigenvalues not converged
     ethr =  1.81E-08,  avg # of iterations =  5.8

     negative rho (up, down):  8.808E-04 0.000E+00

     total cpu time spent up to now is    18056.3 secs

     total energy              =  -32305.61756218 Ry
     estimated scf accuracy    <       0.00025259 Ry

     iteration # 21     ecut=    77.00 Ry     beta= 0.20
     Davidson diagonalization with overlap
     ethr =  1.50E-08,  avg # of iterations =  2.0

     negative rho (up, down):  9.066E-04 0.000E+00

     total cpu time spent up to now is    18495.0 secs

     total energy              =  -32305.61748511 Ry
     estimated scf accuracy    <       0.00010349 Ry

     iteration # 22     ecut=    77.00 Ry     beta= 0.20
     Davidson diagonalization with overlap
     c_bands:  2 eigenvalues not converged
     ethr =  6.15E-09,  avg # of iterations = 15.8

     negative rho (up, down):  9.050E-04 0.000E+00

     total cpu time spent up to now is    19709.9 secs

     total energy              =  -32305.61761157 Ry
     estimated scf accuracy    <       0.00013400 Ry

     iteration # 23     ecut=    77.00 Ry     beta= 0.20
     Davidson diagonalization with overlap
     ethr =  6.15E-09,  avg # of iterations =  2.0

     negative rho (up, down):  9.108E-04 0.000E+00

     total cpu time spent up to now is    20148.8 secs

     total energy              =  -32305.61759601 Ry
     estimated scf accuracy    <       0.00004611 Ry

     iteration # 24     ecut=    77.00 Ry     beta= 0.20
     Davidson diagonalization with overlap
     ethr =  2.74E-09,  avg # of iterations = 11.0

     negative rho (up, down):  9.186E-04 0.000E+00

     total cpu time spent up to now is    20779.2 secs

     total energy              =  -32305.61760633 Ry
     estimated scf accuracy    <       0.00000689 Ry

     iteration # 25     ecut=    77.00 Ry     beta= 0.20
     Davidson diagonalization with overlap
     c_bands:  2 eigenvalues not converged
     ethr =  4.10E-10,  avg # of iterations = 19.2

     negative rho (up, down):  9.217E-04 0.000E+00

     total cpu time spent up to now is    22289.1 secs

     total energy              =  -32305.61762240 Ry
     estimated scf accuracy    <       0.00000271 Ry

     iteration # 26     ecut=    77.00 Ry     beta= 0.20
     Davidson diagonalization with overlap
     ethr =  1.61E-10,  avg # of iterations = 14.8

     negative rho (up, down):  9.226E-04 0.000E+00

     total cpu time spent up to now is    23021.6 secs

     total energy              =  -32305.61762214 Ry
     estimated scf accuracy    <       0.00000178 Ry

     iteration # 27     ecut=    77.00 Ry     beta= 0.20
     Davidson diagonalization with overlap
     ethr =  1.06E-10,  avg # of iterations = 12.2

     negative rho (up, down):  9.226E-04 0.000E+00

     total cpu time spent up to now is    23573.1 secs

     End of self-consistent calculation

          k = 0.0000 0.0000 0.0000 (386245 PWs)   bands (ev):

   -87.3363 -66.5643 -66.5640 -66.5634 -66.5633 -66.5451 -66.5451 -66.5446
   -66.5431 -66.5430 -66.5430 -66.5430 -66.5430 -66.5429 -66.5428 -66.5428
   -66.5428 -66.5427 -66.5427 -66.5426 -66.5421 -66.5421 -66.5421 -66.5421
   -66.5421 -66.5421 -66.5412 -66.5411 -66.5305 -66.5241 -66.5241 -66.5238
   -66.5235 -66.5235 -66.5222 -66.5217 -66.5217 -66.5216 -66.5216 -66.5216
   -66.5216 -66.5216 -66.5215 -66.5215 -66.5215 -66.5214 -66.5214 -66.5214
   -66.5214 -66.5213 -66.5213 -66.5213 -66.5211 -66.5207 -66.5207 -66.5207
   -66.5207 -66.5207 -66.5207 -66.5207 -66.5207 -66.5207 -66.4987 -66.4853
   -66.4852 -53.4616 -52.9996 -52.9996 -40.8917 -40.8917 -40.8917 -40.8915
   -40.8915 -40.8915 -40.8914 -40.8914 -40.8914 -40.8870 -40.8864 -40.8864
   -40.8164 -40.8164 -40.8164 -40.8164 -40.8164 -40.8164 -40.8162 -40.8162
   -40.8162 -40.8162 -40.8161 -40.8161 -40.8161 -40.8161 -40.8161 -40.8161
   -40.8160 -40.8160 -40.8153 -40.8153 -40.8100 -40.8090 -40.8090 -40.8042
   -40.7239 -40.7237 -40.7237 -40.7219 -40.6909 -40.6901 -40.6901 -40.6901
   -40.6901 -40.6900 -40.6900 -40.6899 -40.6899 -40.6899 -40.6898 -40.6898
   -40.6898 -40.6896 -40.6896 -40.6896 -40.6896 -40.6896 -40.6896 -40.6881
   -40.6881 -40.6849 -40.6849 -40.6839 -40.6823 -40.6823 -40.6822 -40.6822
   -40.6822 -40.6822 -40.6822 -40.6821 -40.6820 -40.6820 -40.6820 -40.6820
   -40.6819 -40.6819 -40.6819 -40.6819 -40.6819 -40.6819 -40.6818 -40.6791
   -40.6791 -40.6787 -40.6787 -40.6633 -40.6551 -40.6551 -40.6550 -40.6550
   -40.6550 -40.6550 -40.6549 -40.6548 -40.6548 -40.6548 -40.6547 -40.6547
   -40.6545 -40.6545 -40.6545 -40.6545 -40.6545 -40.6545 -40.6536 -40.6536
   -40.6522 -40.6452 -40.6439 -40.6439 -40.6434 -40.6434 -40.6433 -40.6424
   -40.6424 -40.6411 -40.6404 -40.6403 -40.6403 -40.6403 -40.6402 -40.6402
   -40.6402 -40.6402 -40.6401 -40.6401 -40.6401 -40.6401 -40.6400 -40.6400
   -40.6400 -40.6399 -40.6399 -40.6399 -40.6399 -40.6399 -40.6399 -40.6399
   -40.6399 -40.6398 -40.6398 -40.6398 -40.6398 -40.6259 -40.6068 -40.6068
   -40.5767 -40.5767 -40.5767 -40.5765 -40.5765 -40.5764 -40.5761 -40.5761
   -40.5761 -40.5721 -40.5721 -40.5674 -40.5301 -40.5296 -40.5296 -40.5296
   -40.5296 -40.5296 -40.5295 -40.5294 -40.5294 -40.5294 -40.5293 -40.5293
   -40.5293 -40.5289 -40.5289 -40.5289 -40.5289 -40.5289 -40.5289 -40.5243
   -40.5243 -40.5197 -40.5197 -40.5159 -40.4820 -40.4820 -40.4817 -40.4817
   -40.4813 -40.4813 -40.4730 -40.4729 -20.0603 -19.9904 -19.8971 -19.8148
   -19.2196 -19.1872 -19.1870 -19.1870 -19.1866 -19.1866 -19.1635 -19.1230
   -19.1225 -19.1225 -19.1213 -19.1213 -19.0743 -19.0362 -19.0358 -19.0358
   -19.0345 -19.0344 -18.9780 -18.9619 -18.9618 -18.9618 -18.9612 -18.9611
   -18.8246 -18.6919 -18.5491 -18.4683 -18.4229 -18.4059 -18.4059 -18.4059
   -18.4055 -18.4055 -18.3533 -18.2969 -18.2967 -18.2967 -18.2956 -18.2956
   -18.2269 -18.1888 -18.1883 -18.1883 -18.1871 -18.1871 -18.1299 -18.1139
   -18.1137 -18.1137 -18.1132 -18.1131 -18.0774 -18.0621 -18.0621 -18.0621
   -18.0620 -18.0616 -18.0554 -18.0302 -18.0302 -18.0300 -18.0300 -18.0285
   -18.0211 -18.0181 -18.0181 -18.0140 -17.9912 -17.9912 -17.9907 -17.9832
   -17.9832 -17.9831 -17.9831 -17.9811 -17.9659 -17.9526 -17.9525 -17.9468
   -17.9347 -17.9347 -17.9346 -17.9346 -17.9336 -17.9202 -17.9139 -17.9139
   -17.8806 -17.8549 -17.8549 -17.8537 -17.8500 -17.8500 -17.8499 -17.8499
   -17.8494 -17.8282 -17.8182 -17.8182 -17.8097 -17.7987 -17.7987 -17.7986
   -17.7986 -17.7972 -17.7945 -17.7919 -17.7919 -17.7800 -17.7783 -17.7783
   -17.7648 -17.7582 -17.7582 -17.7581 -17.7580 -17.7562 -17.7360 -17.7338
   -17.7337 -17.7337 -17.7336 -17.7326 -11.9200 -11.7572 -11.7567 -11.7567
   -11.6868 -11.6722 -11.6722 -11.6644 -11.5662 -11.5661 -11.5634 -11.4806
   -11.4806 -11.4794 -11.3567 -11.2099 -11.1759 -11.1759 -11.1758 -11.1756
   -11.1755 -11.0977 -11.0760 -11.0760 -11.0736 -11.0735 -11.0735 -11.0671
   -11.0131 -11.0107 -11.0107 -11.0005 -11.0005 -11.0004 -10.9997 -10.9915
   -10.9915 -10.9910 -10.9905 -10.9904 -10.9284 -10.9284 -10.9190 -10.9137
   -10.9132 -10.9132 -10.8595 -10.8595 -10.8522 -10.8471 -10.8467 -10.8466
   -10.8157 -10.7950 -10.7950 -10.7902 -10.7889 -10.7889 -10.7814 -10.7812
   -10.7810 -10.7810 -10.7544 -10.7544 -10.7424 -10.7415 -10.7415 -10.7390
   -10.7382 -10.7382 -10.7382 -10.7377 -10.7373 -10.7373 -10.7368 -10.7367
   -10.7051 -10.7051 -10.6997 -10.6988 -10.6988 -10.6986 -10.6745 -10.6745
   -10.6717 -10.6712 -10.6712 -10.6710 -10.6606 -10.6606 -10.6604 -10.5859
   -10.5781 -10.5781 -10.5442 -10.5143 -10.5143 -10.5123 -10.5121 -10.5121
   -10.2046 -10.1229 -10.1229 -10.0463  -9.9148  -9.9148  -9.8487  -9.7455
    -9.7455  -9.7395  -9.7387  -9.7386  -9.7386  -9.7112  -9.7112  -9.7065
    -9.7065  -9.7056  -9.7048  -9.7047  -9.7047  -9.6886  -9.6858  -9.6858
    -9.6825  -9.6822  -9.6821  -9.6704  -9.5672  -9.5672  -9.5656  -9.5635
    -9.5634  -9.5611  -9.5611  -9.5604  -9.5567  -9.5567  -9.5534  -9.5517
    -9.5517  -9.5514  -9.5481  -9.4992  -9.4992  -9.4873  -9.4860  -9.4860
    -9.4817  -9.4805  -9.4805  -9.4789  -9.4784  -9.4784  -9.4502  -9.4502
    -9.4480  -9.4461  -9.4460  -9.4455  -9.4192  -9.3828  -9.3827  -9.3824
    -9.3824  -9.3808  -9.2932  -9.2652  -9.2652  -9.2589  -9.2583  -9.2579
    -9.2579  -9.2421  -9.2421  -9.2419  -9.2419  -9.2411  -9.1612  -9.1611
    -9.1528  -9.1518  -9.1511  -9.1511  -9.1178  -9.1178  -9.1146  -9.1142
    -9.1141  -9.1140  -9.0639  -9.0422  -9.0422  -9.0337  -9.0337  -9.0335
    -8.9259  -8.9259  -8.9239  -8.9063  -8.9063  -8.8993  -8.8823  -8.8823
    -8.8705  -8.8661  -8.8647  -8.8647  -8.8553  -8.8553  -8.8549  -8.8518
    -8.8518  -8.8501  -8.7912  -8.7912  -8.7664  -8.7662  -8.7662  -8.7651
    -8.7602  -8.7601  -8.7588  -8.7582  -8.7582  -8.7577  -8.6715  -8.6665
    -8.6665  -8.6633  -8.6631  -8.6630  -8.5862  -8.5842  -8.5842  -8.5799
    -8.5794  -8.5794  -8.5261  -8.5258  -8.5258  -8.5240  -8.5238  -8.5237
    -8.4530  -8.3067  -8.3067  -8.3022  -8.3022  -8.2961  -8.2961  -8.2913
    -8.2913  -8.2213  -8.2212  -8.2186  -8.2184  -8.2184  -8.2183  -8.2049
    -8.2049  -8.1978  -8.1972  -8.1972  -8.1969  -8.1806  -8.1806  -8.1728
    -8.1719  -8.1719  -8.1713  -8.1580  -8.1580  -8.1546  -8.1539  -8.1539
    -8.1535  -8.1051  -7.9245  -7.8081  -7.8080  -7.7963  -7.7396  -7.7395
    -7.7059  -7.6518  -7.6518  -7.6143  -7.5815  -7.5814  -7.5722  -7.5653
    -7.5653  -7.5621  -7.5620  -7.5613  -7.5278  -7.4998  -7.4998  -7.4778
    -7.4777  -7.4777  -7.4776  -7.4775  -7.4775  -7.4774  -7.4774  -7.4759
    -7.4631  -7.4630  -7.4564  -7.4559  -7.4559  -7.4551  -7.4413  -7.4413
    -7.4330  -7.4323  -7.4323  -7.4310  -7.4206  -7.4205  -7.4171  -7.4165
    -7.4165  -7.4153  -7.4068  -7.3532  -7.3532  -7.3440  -7.3439  -7.3426
    -7.3415  -7.3400  -7.3400  -7.3393  -7.3392  -7.3392  -7.3220  -7.2572
    -7.2326  -7.2326  -7.2268  -7.2268  -7.2264  -7.2214  -7.2144  -7.2144
    -7.2094  -7.2094  -7.2093  -7.1929  -7.1929  -7.1790  -7.1790  -7.1629
    -7.1629  -7.1506  -7.1505  -7.0513  -7.0081  -7.0081  -7.0010  -7.0006
    -7.0006  -6.8144  -6.7835  -6.7835  -6.7747  -6.7746  -6.7746  -6.7377
    -6.7377  -6.7309  -6.6874  -6.6874  -6.6702  -6.6690  -6.6176  -6.6176
    -6.5995  -6.5754  -6.5577  -6.5576  -6.5491  -6.5430  -6.5430  -6.5413
    -6.5413  -6.5409  -6.4989  -6.4781  -6.4781  -6.4737  -6.4737  -6.4731
    -6.4594  -6.4518  -6.4518  -6.4460  -6.4451  -6.4451  -6.4434  -6.4434
    -6.4430  -6.4370  -6.4364  -6.4364  -6.4361  -6.4361  -6.4360  -6.4175
    -6.4081  -6.4081  -6.3774  -6.3684  -6.3684  -6.3482  -6.3460  -6.3460
    -6.2922  -6.2922  -6.2764  -6.2762  -6.2761  -6.2760  -6.2637  -6.2637
    -6.2460  -6.2449  -6.2446  -6.2446  -6.2243  -6.2243  -6.2130  -6.2107
    -6.2103  -6.2103  -6.1911  -6.1910  -6.1880  -6.1865  -6.1864  -6.1863
    -6.1188  -5.7833  -5.7833  -5.6190  -5.4484  -5.4484  -5.2889  -5.1993
    -5.0975  -3.8918  -3.7860  -3.7860  -3.7858  -3.7853  -3.7852  -3.7634
    -3.7608  -3.7607  -3.7607  -3.7598  -3.7598  -3.7136  -3.6199  -3.6198
    -3.6191  -3.6190  -3.6189  -3.6137  -3.6137  -3.6137  -3.6111  -3.6110
    -3.6080  -3.4856  -3.4295  -3.4292  -3.4292  -3.4271  -3.4271  -3.4123
    -3.4121  -3.4121  -3.4120  -3.4118  -3.4115  -3.4115  -3.3903  -3.3903
    -3.3877  -3.3877  -3.3862  -3.3825  -3.3824  -3.3823  -3.3692  -3.3691
    -3.3688  -3.3538  -3.3537  -3.3534  -3.3522  -3.3513  -3.3512  -3.3496
    -3.3487  -3.3487  -3.3411  -3.3411  -3.3409  -3.2826  -3.2785  -3.2777
    -3.2777  -3.2769  -3.2769  -3.2765  -3.2752  -3.2745  -3.2744  -3.2728
    -3.2728  -3.2208  -3.2205  -3.2204  -3.2201  -3.2197  -3.2197  -3.1996
    -3.1467  -3.1467  -3.1434  -3.1434  -3.1416  -2.9995  -2.9982  -2.9981
    -2.9976  -2.9973  -2.9972  -2.9800  -2.9796  -2.9796  -2.9639  -2.9100
    -2.9096  -2.9094  -2.9092  -2.9087  -2.9078  -2.9025  -2.9023  -2.9003
    -2.9003  -2.8997  -2.8951  -2.8950  -2.8875  -2.8874  -2.8833  -2.8832
    -2.8821  -2.8799  -2.8798  -2.8704  -2.8703  -2.8689  -2.8688  -2.8685
    -2.8684  -2.8683  -2.8682  -2.8097  -2.8097  -2.8096  -2.8067  -2.7589
    -2.7589  -2.7498  -2.7498  -2.7480  -2.7433  -2.7432  -2.7427  -2.7425
    -2.7422  -2.7415  -2.7411  -2.7409  -2.7409  -2.7297  -2.7297  -2.7007
    -2.6794  -2.6793  -2.6761  -2.6760  -2.6747  -2.6721  -2.6721  -2.6149
    -2.6148  -2.5766  -2.5765  -2.5506  -2.5477  -2.5462  -2.5456  -2.5453
    -2.5440  -2.5223  -2.4873  -2.4867  -2.4851  -2.4847  -2.4846  -2.3660
    -2.3475

          k = 0.0000-0.5773 0.0000 (386352 PWs)   bands (ev):

   -87.3363 -66.5592 -66.5581 -66.5581 -66.5578 -66.5578 -66.5572 -66.5572
   -66.5557 -66.5477 -66.5474 -66.5474 -66.5472 -66.5471 -66.5465 -66.5465
   -66.5432 -66.5341 -66.5328 -66.5323 -66.5323 -66.5323 -66.5323 -66.5321
   -66.5321 -66.5321 -66.5320 -66.5318 -66.5314 -66.5314 -66.5314 -66.5314
   -66.5308 -66.5279 -66.5279 -66.5276 -66.5276 -66.5274 -66.5270 -66.5269
   -66.5241 -66.5232 -66.5220 -66.5217 -66.5216 -66.5216 -66.5216 -66.5214
   -66.5214 -66.5213 -66.5213 -66.5207 -66.5207 -66.5207 -66.5207 -66.5202
   -66.5172 -66.5172 -66.5169 -66.5169 -66.5162 -66.5162 -66.4988 -66.4853
   -66.4852 -53.4616 -52.9996 -52.9996 -40.8610 -40.8601 -40.8601 -40.8601
   -40.8601 -40.8599 -40.8599 -40.8599 -40.8598 -40.8598 -40.8598 -40.8598
   -40.8598 -40.8580 -40.8520 -40.8482 -40.8333 -40.8333 -40.8331 -40.8330
   -40.8330 -40.8329 -40.8322 -40.8281 -40.8212 -40.8212 -40.8210 -40.8210
   -40.8209 -40.8209 -40.8171 -40.8092 -40.7705 -40.7705 -40.7705 -40.7705
   -40.7703 -40.7703 -40.7703 -40.7703 -40.7701 -40.7701 -40.7701 -40.7701
   -40.7679 -40.7649 -40.7625 -40.7605 -40.7129 -40.7118 -40.7117 -40.7115
   -40.7115 -40.7115 -40.7115 -40.7075 -40.7023 -40.7023 -40.7021 -40.7020
   -40.7017 -40.7017 -40.6981 -40.6943 -40.6909 -40.6909 -40.6907 -40.6907
   -40.6906 -40.6906 -40.6906 -40.6845 -40.6633 -40.6613 -40.6613 -40.6613
   -40.6613 -40.6611 -40.6611 -40.6611 -40.6610 -40.6609 -40.6609 -40.6609
   -40.6609 -40.6609 -40.6600 -40.6575 -40.6526 -40.6525 -40.6523 -40.6523
   -40.6522 -40.6522 -40.6513 -40.6435 -40.6432 -40.6415 -40.6408 -40.6408
   -40.6406 -40.6405 -40.6403 -40.6403 -40.6402 -40.6402 -40.6402 -40.6402
   -40.6401 -40.6400 -40.6400 -40.6399 -40.6399 -40.6399 -40.6399 -40.6399
   -40.6371 -40.6364 -40.6331 -40.6316 -40.6316 -40.6313 -40.6313 -40.6312
   -40.6312 -40.6270 -40.6099 -40.6099 -40.6098 -40.6098 -40.6096 -40.6096
   -40.6096 -40.6096 -40.6095 -40.6093 -40.6093 -40.6093 -40.6092 -40.6088
   -40.6076 -40.6067 -40.6026 -40.5972 -40.5751 -40.5751 -40.5751 -40.5751
   -40.5749 -40.5749 -40.5748 -40.5748 -40.5745 -40.5745 -40.5745 -40.5745
   -40.5736 -40.5720 -40.5661 -40.5648 -40.5630 -40.5629 -40.5627 -40.5627
   -40.5623 -40.5623 -40.5601 -40.5472 -40.5436 -40.5436 -40.5434 -40.5434
   -40.5430 -40.5430 -40.5419 -40.5366 -40.5266 -40.5266 -40.5264 -40.5264
   -40.5260 -40.5260 -40.5200 -40.5104 -40.4960 -40.4959 -40.4957 -40.4957
   -40.4953 -40.4953 -40.4939 -40.4821 -19.8247 -19.8211 -19.7609 -19.7492
   -19.6705 -19.6550 -19.5842 -19.5767 -19.3875 -19.3836 -19.3286 -19.3158
   -19.2433 -19.2259 -19.1590 -19.1503 -18.7528 -18.7076 -18.6864 -18.6682
   -18.6682 -18.6682 -18.6557 -18.6139 -18.6139 -18.6138 -18.5980 -18.5751
   -18.5599 -18.5392 -18.5390 -18.5389 -18.5086 -18.4984 -18.4870 -18.4733
   -18.4732 -18.4731 -18.4474 -18.4366 -18.4175 -18.4163 -18.3980 -18.3810
   -18.3731 -18.3707 -18.3432 -18.3381 -18.3181 -18.3064 -18.2778 -18.2626
   -18.2525 -18.2476 -18.1924 -18.1805 -18.1715 -18.1561 -18.1560 -18.1559
   -18.1099 -18.0689 -18.0688 -18.0686 -18.0509 -18.0435 -18.0411 -18.0411
   -18.0407 -18.0406 -18.0244 -18.0121 -18.0110 -18.0109 -18.0048 -17.9882
   -17.9882 -17.9880 -17.9803 -17.9723 -17.9705 -17.9693 -17.9679 -17.9678
   -17.9426 -17.9352 -17.9352 -17.9352 -17.9314 -17.9248 -17.9240 -17.9238
   -17.9129 -17.9102 -17.8747 -17.8707 -17.8628 -17.8534 -17.8529 -17.8527
   -17.8204 -17.8092 -17.8082 -17.8081 -17.7823 -17.7756 -17.7744 -17.7742
   -17.7590 -17.7585 -17.7576 -17.7558 -17.7551 -17.7550 -17.7473 -17.7460
   -17.7311 -17.7282 -17.7110 -17.7049 -17.6945 -17.6883 -17.6768 -17.6716
   -17.6644 -17.6602 -17.6585 -17.6565 -11.6664 -11.6524 -11.4738 -11.4553
   -11.4517 -11.4516 -11.4467 -11.4208 -11.4193 -11.4074 -11.3803 -11.3738
   -11.3685 -11.3681 -11.3374 -11.3279 -11.2822 -11.2819 -11.2666 -11.2666
   -11.2603 -11.2532 -11.2250 -11.2128 -11.2025 -11.2022 -11.1979 -11.1958
   -11.1916 -11.1915 -11.1669 -11.1639 -11.1502 -11.1264 -11.1189 -11.1157
   -11.1143 -11.1054 -11.1053 -11.1047 -11.1003 -11.0765 -11.0744 -11.0726
   -11.0483 -11.0376 -10.9966 -10.9901 -10.9899 -10.9864 -10.8822 -10.8758
   -10.8680 -10.8458 -10.8454 -10.8373 -10.8163 -10.8058 -10.7988 -10.7672
   -10.7593 -10.7561 -10.7521 -10.7517 -10.7514 -10.7513 -10.7476 -10.7438
   -10.7335 -10.7334 -10.7293 -10.7291 -10.7284 -10.7272 -10.7270 -10.7263
   -10.7259 -10.7253 -10.7063 -10.6980 -10.6925 -10.6924 -10.6802 -10.6786
   -10.6750 -10.6749 -10.4822 -10.4725 -10.4706 -10.4534 -10.4139 -10.4086
   -10.3256 -10.3100 -10.2324 -10.1748 -10.1424 -10.0783 -10.0760 -10.0744
   -10.0738 -10.0251 -10.0208 -10.0163 -10.0154  -9.9895  -9.9885  -9.9882
    -9.9756  -9.9483  -9.9475  -9.9395  -9.9391  -9.9378  -9.9184  -9.8587
    -9.8538  -9.8522  -9.8518  -9.8358  -9.8358  -9.8347  -9.8342  -9.8332
    -9.8039  -9.7892  -9.7731  -9.7280  -9.7232  -9.7105  -9.7084  -9.7074
    -9.6910  -9.6799  -9.6665  -9.6470  -9.6466  -9.6447  -9.6122  -9.5912
    -9.5904  -9.5893  -9.5673  -9.5669  -9.5460  -9.5325  -9.5061  -9.4753
    -9.4730  -9.4720  -9.4717  -9.4711  -9.4710  -9.4702  -9.4462  -9.4428
    -9.4231  -9.4212  -9.4044  -9.3978  -9.3967  -9.3949  -9.3832  -9.3759
    -9.3642  -9.3540  -9.3525  -9.3524  -9.2876  -9.2733  -9.1847  -9.1774
    -9.1695  -9.1641  -9.1429  -9.1148  -9.1140  -9.1130  -9.1022  -9.0948
    -9.0926  -9.0909  -9.0425  -9.0335  -9.0084  -9.0018  -8.9966  -8.9870
    -8.9735  -8.9646  -8.9642  -8.9596  -8.9569  -8.9454  -8.9448  -8.9443
    -8.8950  -8.8886  -8.8737  -8.8698  -8.8666  -8.8602  -8.8599  -8.8592
    -8.8244  -8.8234  -8.8209  -8.8206  -8.8098  -8.8092  -8.8073  -8.8000
    -8.7989  -8.7984  -8.7962  -8.7956  -8.7813  -8.7803  -8.7753  -8.7737
    -8.7662  -8.7590  -8.7488  -8.7461  -8.7370  -8.7367  -8.7195  -8.7194
    -8.7176  -8.7175  -8.7146  -8.7134  -8.6894  -8.6859  -8.6681  -8.6659
    -8.6564  -8.6557  -8.6324  -8.6184  -8.5787  -8.5780  -8.5302  -8.5094
    -8.4518  -8.4500  -8.4214  -8.4138  -8.3610  -8.3494  -8.2864  -8.2808
    -8.2116  -8.1809  -8.0961  -8.0674  -8.0670  -8.0610  -8.0594  -8.0520
    -8.0487  -8.0442  -8.0406  -7.9988  -7.9944  -7.9154  -7.9076  -7.8822
    -7.8378  -7.7982  -7.7798  -7.7791  -7.7790  -7.7594  -7.7545  -7.7512
    -7.7510  -7.7432  -7.7353  -7.7300  -7.7296  -7.7285  -7.7283  -7.7281
    -7.7235  -7.7217  -7.7191  -7.7135  -7.7111  -7.7094  -7.7072  -7.7069
    -7.7069  -7.7022  -7.6999  -7.6966  -7.6964  -7.6915  -7.6842  -7.6827
    -7.6824  -7.6643  -7.6600  -7.6504  -7.6503  -7.6407  -7.6350  -7.6306
    -7.6297  -7.6290  -7.6289  -7.6234  -7.6226  -7.6187  -7.6047  -7.6009
    -7.6001  -7.5982  -7.5800  -7.5770  -7.5510  -7.5498  -7.5362  -7.5353
    -7.5320  -7.5320  -7.5317  -7.5314  -7.5165  -7.5117  -7.5115  -7.5006
    -7.4980  -7.4869  -7.4824  -7.4759  -7.4726  -7.4722  -7.3960  -7.3895
    -7.3865  -7.3861  -7.3587  -7.3464  -7.1765  -7.1192  -7.1154  -7.1133
    -7.1049  -7.0928  -7.0844  -7.0802  -7.0484  -7.0432  -7.0393  -7.0326
    -7.0223  -7.0195  -6.9672  -6.9586  -6.9560  -6.9525  -6.9518  -6.9508
    -6.9284  -6.9239  -6.8905  -6.8774  -6.8477  -6.8436  -6.8362  -6.8259
    -6.8129  -6.7980  -6.7939  -6.7891  -6.7838  -6.7637  -6.7535  -6.7413
    -6.7070  -6.6968  -6.6481  -6.6187  -6.6148  -6.6091  -6.5709  -6.5583
    -6.5564  -6.5496  -6.5479  -6.5476  -6.5418  -6.5348  -6.5325  -6.5315
    -6.5251  -6.5227  -6.5212  -6.5203  -6.5176  -6.5172  -6.5168  -6.5163
    -6.4531  -6.4294  -6.4046  -6.3870  -6.3380  -6.3332  -6.2795  -6.2727
    -6.2694  -6.2653  -6.2399  -6.2350  -6.2295  -6.2232  -6.2207  -6.2168
    -6.2142  -6.2140  -6.2095  -6.2091  -6.1822  -6.1807  -6.1746  -6.1680
    -6.1438  -6.1399  -6.1399  -6.1356  -6.1354  -6.1285  -5.9528  -5.9444
    -5.9142  -5.9108  -5.8537  -5.8531  -5.7931  -5.7928  -5.7858  -5.7791
    -5.7267  -5.7234  -5.6114  -5.6066  -5.5288  -5.5275  -5.4490  -5.4471
    -5.2059  -4.0404  -4.0236  -4.0229  -4.0226  -3.9093  -3.8719  -3.8608
    -3.8415  -3.8396  -3.8390  -3.7793  -3.7792  -3.7632  -3.7624  -3.7527
    -3.7454  -3.7425  -3.7347  -3.7332  -3.7221  -3.6499  -3.6069  -3.6042
    -3.6041  -3.5593  -3.5381  -3.5380  -3.5374  -3.5355  -3.5319  -3.4908
    -3.4902  -3.4730  -3.4576  -3.4556  -3.4541  -3.4541  -3.4522  -3.4323
    -3.4162  -3.4141  -3.4123  -3.4103  -3.4033  -3.4022  -3.4018  -3.3842
    -3.3831  -3.3819  -3.3557  -3.3556  -3.3545  -3.3486  -3.3476  -3.3116
    -3.2850  -3.2832  -3.2823  -3.2820  -3.2818  -3.2790  -3.2782  -3.2631
    -3.2438  -3.2382  -3.2284  -3.2215  -3.2196  -3.2182  -3.2182  -3.2181
    -3.2177  -3.2075  -3.1878  -3.1771  -3.1726  -3.1723  -3.1708  -3.1659
    -3.1577  -3.1487  -3.1460  -3.1417  -3.1376  -3.1212  -3.1103  -3.1083
    -3.1044  -3.1025  -3.1024  -3.1006  -3.0994  -3.0992  -3.0990  -3.0358
    -3.0358  -3.0084  -3.0035  -3.0032  -2.9932  -2.9929  -2.9908  -2.9603
    -2.9599  -2.9591  -2.9589  -2.9583  -2.9579  -2.9482  -2.9467  -2.9446
    -2.9437  -2.9400  -2.9355  -2.9275  -2.9268  -2.9108  -2.9071  -2.9063
    -2.9039  -2.8994  -2.8911  -2.8908  -2.8880  -2.8844  -2.8844  -2.8806
    -2.8803  -2.8708  -2.8701  -2.8662  -2.8660  -2.8247  -2.8232  -2.8215
    -2.8199  -2.8113  -2.8111  -2.7918  -2.7895  -2.7323  -2.7238  -2.7231
    -2.7222  -2.6735  -2.6453  -2.6443  -2.6433  -2.5770  -2.5475  -2.5470
    -2.5094  -2.5083  -2.4864  -2.4854  -2.4783  -2.4773  -2.4622  -2.4618
    -2.4560  -2.4499  -2.4428  -2.4358  -2.3299  -2.3139  -2.3128  -2.2878
    -2.2718

          k =-0.5000-0.2887 0.0000 (386352 PWs)   bands (ev):

   -87.3363 -66.5592 -66.5581 -66.5581 -66.5579 -66.5578 -66.5572 -66.5572
   -66.5557 -66.5476 -66.5474 -66.5474 -66.5472 -66.5471 -66.5465 -66.5465
   -66.5432 -66.5341 -66.5328 -66.5323 -66.5323 -66.5323 -66.5323 -66.5321
   -66.5321 -66.5321 -66.5320 -66.5318 -66.5314 -66.5314 -66.5314 -66.5314
   -66.5308 -66.5279 -66.5279 -66.5277 -66.5276 -66.5274 -66.5270 -66.5270
   -66.5240 -66.5232 -66.5220 -66.5216 -66.5216 -66.5216 -66.5216 -66.5214
   -66.5214 -66.5213 -66.5212 -66.5207 -66.5207 -66.5207 -66.5207 -66.5202
   -66.5172 -66.5172 -66.5169 -66.5169 -66.5162 -66.5162 -66.4988 -66.4853
   -66.4852 -53.4616 -52.9996 -52.9996 -40.8609 -40.8601 -40.8601 -40.8601
   -40.8601 -40.8599 -40.8599 -40.8598 -40.8598 -40.8598 -40.8598 -40.8598
   -40.8598 -40.8580 -40.8520 -40.8482 -40.8333 -40.8333 -40.8331 -40.8330
   -40.8330 -40.8329 -40.8322 -40.8281 -40.8212 -40.8212 -40.8210 -40.8210
   -40.8209 -40.8209 -40.8171 -40.8092 -40.7706 -40.7705 -40.7705 -40.7705
   -40.7703 -40.7703 -40.7703 -40.7703 -40.7701 -40.7701 -40.7701 -40.7701
   -40.7679 -40.7649 -40.7624 -40.7606 -40.7129 -40.7118 -40.7117 -40.7115
   -40.7115 -40.7115 -40.7115 -40.7075 -40.7023 -40.7023 -40.7021 -40.7020
   -40.7017 -40.7017 -40.6981 -40.6943 -40.6909 -40.6909 -40.6907 -40.6907
   -40.6906 -40.6906 -40.6906 -40.6845 -40.6633 -40.6613 -40.6613 -40.6613
   -40.6613 -40.6611 -40.6611 -40.6611 -40.6610 -40.6609 -40.6609 -40.6609
   -40.6609 -40.6609 -40.6600 -40.6575 -40.6526 -40.6525 -40.6523 -40.6523
   -40.6522 -40.6522 -40.6513 -40.6435 -40.6432 -40.6415 -40.6408 -40.6408
   -40.6406 -40.6405 -40.6403 -40.6402 -40.6402 -40.6402 -40.6402 -40.6402
   -40.6401 -40.6400 -40.6400 -40.6399 -40.6399 -40.6399 -40.6399 -40.6399
   -40.6371 -40.6364 -40.6331 -40.6316 -40.6316 -40.6313 -40.6313 -40.6312
   -40.6312 -40.6270 -40.6099 -40.6098 -40.6098 -40.6098 -40.6097 -40.6096
   -40.6096 -40.6095 -40.6095 -40.6093 -40.6093 -40.6093 -40.6093 -40.6088
   -40.6076 -40.6067 -40.6026 -40.5973 -40.5751 -40.5751 -40.5751 -40.5751
   -40.5749 -40.5749 -40.5748 -40.5748 -40.5745 -40.5745 -40.5745 -40.5745
   -40.5736 -40.5720 -40.5661 -40.5648 -40.5630 -40.5629 -40.5627 -40.5627
   -40.5623 -40.5623 -40.5601 -40.5472 -40.5436 -40.5436 -40.5434 -40.5433
   -40.5430 -40.5430 -40.5419 -40.5366 -40.5266 -40.5266 -40.5264 -40.5264
   -40.5260 -40.5260 -40.5200 -40.5104 -40.4960 -40.4959 -40.4958 -40.4957
   -40.4953 -40.4953 -40.4939 -40.4821 -19.8247 -19.8211 -19.7609 -19.7492
   -19.6705 -19.6550 -19.5842 -19.5767 -19.3875 -19.3836 -19.3286 -19.3158
   -19.2433 -19.2259 -19.1590 -19.1504 -18.7527 -18.7076 -18.6864 -18.6682
   -18.6682 -18.6682 -18.6557 -18.6139 -18.6139 -18.6138 -18.5980 -18.5751
   -18.5599 -18.5392 -18.5390 -18.5389 -18.5086 -18.4985 -18.4870 -18.4733
   -18.4732 -18.4731 -18.4474 -18.4366 -18.4175 -18.4163 -18.3979 -18.3811
   -18.3731 -18.3707 -18.3432 -18.3381 -18.3181 -18.3064 -18.2778 -18.2626
   -18.2525 -18.2476 -18.1924 -18.1805 -18.1715 -18.1561 -18.1560 -18.1559
   -18.1099 -18.0689 -18.0688 -18.0686 -18.0509 -18.0435 -18.0411 -18.0411
   -18.0407 -18.0407 -18.0244 -18.0121 -18.0110 -18.0109 -18.0047 -17.9882
   -17.9882 -17.9881 -17.9803 -17.9723 -17.9705 -17.9693 -17.9680 -17.9679
   -17.9426 -17.9352 -17.9352 -17.9352 -17.9314 -17.9248 -17.9240 -17.9239
   -17.9129 -17.9102 -17.8747 -17.8707 -17.8627 -17.8533 -17.8529 -17.8528
   -17.8203 -17.8092 -17.8082 -17.8081 -17.7822 -17.7756 -17.7744 -17.7742
   -17.7590 -17.7585 -17.7576 -17.7557 -17.7552 -17.7551 -17.7473 -17.7460
   -17.7311 -17.7282 -17.7110 -17.7049 -17.6945 -17.6883 -17.6767 -17.6716
   -17.6644 -17.6602 -17.6584 -17.6565 -11.6664 -11.6524 -11.4738 -11.4553
   -11.4517 -11.4516 -11.4467 -11.4208 -11.4192 -11.4074 -11.3803 -11.3738
   -11.3685 -11.3681 -11.3374 -11.3279 -11.2822 -11.2819 -11.2666 -11.2666
   -11.2603 -11.2532 -11.2250 -11.2128 -11.2025 -11.2022 -11.1979 -11.1958
   -11.1916 -11.1915 -11.1669 -11.1639 -11.1502 -11.1264 -11.1189 -11.1157
   -11.1143 -11.1054 -11.1053 -11.1047 -11.1002 -11.0765 -11.0744 -11.0726
   -11.0483 -11.0376 -10.9966 -10.9901 -10.9899 -10.9864 -10.8822 -10.8759
   -10.8680 -10.8458 -10.8454 -10.8373 -10.8163 -10.8058 -10.7988 -10.7672
   -10.7593 -10.7561 -10.7521 -10.7517 -10.7514 -10.7513 -10.7476 -10.7438
   -10.7335 -10.7334 -10.7292 -10.7292 -10.7285 -10.7271 -10.7269 -10.7263
   -10.7259 -10.7253 -10.7063 -10.6980 -10.6925 -10.6924 -10.6802 -10.6787
   -10.6750 -10.6749 -10.4822 -10.4725 -10.4706 -10.4534 -10.4139 -10.4086
   -10.3256 -10.3100 -10.2324 -10.1748 -10.1424 -10.0783 -10.0759 -10.0743
   -10.0738 -10.0251 -10.0208 -10.0163 -10.0154  -9.9895  -9.9885  -9.9883
    -9.9756  -9.9483  -9.9475  -9.9395  -9.9391  -9.9378  -9.9184  -9.8587
    -9.8538  -9.8522  -9.8518  -9.8358  -9.8358  -9.8347  -9.8342  -9.8332
    -9.8039  -9.7893  -9.7730  -9.7280  -9.7232  -9.7105  -9.7085  -9.7074
    -9.6910  -9.6799  -9.6665  -9.6470  -9.6466  -9.6447  -9.6121  -9.5912
    -9.5904  -9.5893  -9.5673  -9.5669  -9.5460  -9.5325  -9.5061  -9.4753
    -9.4730  -9.4720  -9.4717  -9.4711  -9.4710  -9.4702  -9.4462  -9.4428
    -9.4232  -9.4212  -9.4043  -9.3978  -9.3967  -9.3949  -9.3832  -9.3759
    -9.3642  -9.3540  -9.3526  -9.3525  -9.2876  -9.2734  -9.1847  -9.1775
    -9.1695  -9.1641  -9.1429  -9.1149  -9.1140  -9.1130  -9.1022  -9.0948
    -9.0926  -9.0909  -9.0425  -9.0335  -9.0084  -9.0018  -8.9966  -8.9870
    -8.9735  -8.9646  -8.9642  -8.9597  -8.9569  -8.9454  -8.9448  -8.9443
    -8.8950  -8.8886  -8.8737  -8.8698  -8.8666  -8.8602  -8.8599  -8.8592
    -8.8244  -8.8234  -8.8209  -8.8206  -8.8098  -8.8093  -8.8073  -8.8000
    -8.7990  -8.7984  -8.7962  -8.7956  -8.7812  -8.7803  -8.7753  -8.7737
    -8.7662  -8.7590  -8.7488  -8.7462  -8.7370  -8.7367  -8.7196  -8.7194
    -8.7176  -8.7175  -8.7146  -8.7134  -8.6894  -8.6859  -8.6681  -8.6659
    -8.6564  -8.6557  -8.6324  -8.6184  -8.5787  -8.5780  -8.5302  -8.5094
    -8.4518  -8.4500  -8.4214  -8.4138  -8.3610  -8.3494  -8.2863  -8.2808
    -8.2116  -8.1809  -8.0961  -8.0674  -8.0670  -8.0610  -8.0594  -8.0520
    -8.0487  -8.0442  -8.0406  -7.9988  -7.9944  -7.9155  -7.9075  -7.8822
    -7.8378  -7.7982  -7.7798  -7.7792  -7.7790  -7.7594  -7.7546  -7.7511
    -7.7510  -7.7432  -7.7353  -7.7300  -7.7296  -7.7284  -7.7283  -7.7281
    -7.7235  -7.7217  -7.7191  -7.7135  -7.7111  -7.7094  -7.7072  -7.7069
    -7.7069  -7.7022  -7.6999  -7.6966  -7.6964  -7.6915  -7.6842  -7.6828
    -7.6824  -7.6643  -7.6599  -7.6504  -7.6503  -7.6407  -7.6350  -7.6305
    -7.6297  -7.6290  -7.6288  -7.6234  -7.6226  -7.6187  -7.6047  -7.6009
    -7.6001  -7.5982  -7.5800  -7.5770  -7.5510  -7.5498  -7.5362  -7.5353
    -7.5320  -7.5320  -7.5317  -7.5315  -7.5165  -7.5117  -7.5115  -7.5005
    -7.4980  -7.4869  -7.4824  -7.4759  -7.4726  -7.4722  -7.3960  -7.3896
    -7.3864  -7.3861  -7.3587  -7.3464  -7.1765  -7.1192  -7.1154  -7.1133
    -7.1049  -7.0928  -7.0844  -7.0803  -7.0484  -7.0432  -7.0393  -7.0326
    -7.0222  -7.0195  -6.9672  -6.9586  -6.9560  -6.9525  -6.9518  -6.9508
    -6.9284  -6.9239  -6.8905  -6.8774  -6.8477  -6.8437  -6.8362  -6.8259
    -6.8129  -6.7980  -6.7939  -6.7891  -6.7838  -6.7637  -6.7535  -6.7413
    -6.7070  -6.6968  -6.6481  -6.6187  -6.6148  -6.6091  -6.5708  -6.5583
    -6.5564  -6.5496  -6.5479  -6.5476  -6.5418  -6.5348  -6.5325  -6.5315
    -6.5250  -6.5227  -6.5211  -6.5203  -6.5176  -6.5172  -6.5168  -6.5163
    -6.4531  -6.4294  -6.4046  -6.3870  -6.3380  -6.3332  -6.2795  -6.2728
    -6.2694  -6.2652  -6.2398  -6.2351  -6.2296  -6.2232  -6.2207  -6.2167
    -6.2142  -6.2140  -6.2095  -6.2091  -6.1823  -6.1806  -6.1746  -6.1679
    -6.1439  -6.1400  -6.1398  -6.1355  -6.1355  -6.1285  -5.9528  -5.9444
    -5.9142  -5.9108  -5.8537  -5.8531  -5.7930  -5.7928  -5.7858  -5.7791
    -5.7267  -5.7234  -5.6114  -5.6066  -5.5288  -5.5275  -5.4490  -5.4471
    -5.2059  -4.0403  -4.0236  -4.0229  -4.0226  -3.9093  -3.8719  -3.8608
    -3.8415  -3.8395  -3.8389  -3.7793  -3.7792  -3.7632  -3.7623  -3.7527
    -3.7453  -3.7424  -3.7346  -3.7332  -3.7221  -3.6500  -3.6069  -3.6042
    -3.6042  -3.5592  -3.5382  -3.5379  -3.5374  -3.5354  -3.5318  -3.4907
    -3.4901  -3.4732  -3.4576  -3.4556  -3.4539  -3.4539  -3.4520  -3.4324
    -3.4162  -3.4140  -3.4127  -3.4106  -3.4034  -3.4023  -3.4019  -3.3840
    -3.3830  -3.3820  -3.3556  -3.3555  -3.3545  -3.3486  -3.3475  -3.3117
    -3.2851  -3.2834  -3.2824  -3.2820  -3.2819  -3.2790  -3.2782  -3.2632
    -3.2438  -3.2383  -3.2284  -3.2215  -3.2197  -3.2183  -3.2183  -3.2181
    -3.2178  -3.2075  -3.1878  -3.1770  -3.1725  -3.1723  -3.1709  -3.1660
    -3.1579  -3.1487  -3.1459  -3.1417  -3.1374  -3.1212  -3.1106  -3.1083
    -3.1046  -3.1026  -3.1026  -3.1008  -3.0995  -3.0992  -3.0991  -3.0358
    -3.0355  -3.0084  -3.0034  -3.0031  -2.9934  -2.9932  -2.9910  -2.9603
    -2.9597  -2.9590  -2.9589  -2.9584  -2.9579  -2.9482  -2.9465  -2.9444
    -2.9437  -2.9402  -2.9355  -2.9275  -2.9268  -2.9110  -2.9071  -2.9062
    -2.9031  -2.8999  -2.8914  -2.8911  -2.8885  -2.8844  -2.8843  -2.8805
    -2.8803  -2.8708  -2.8702  -2.8660  -2.8659  -2.8253  -2.8233  -2.8215
    -2.8194  -2.8113  -2.8112  -2.7944  -2.7901  -2.7324  -2.7242  -2.7231
    -2.7221  -2.6745  -2.6454  -2.6449  -2.6433  -2.5776  -2.5475  -2.5469
    -2.5095  -2.5083  -2.4829  -2.4802  -2.4783  -2.4773  -2.4622  -2.4619
    -2.4565  -2.4540  -2.4519  -2.4448  -2.3294  -2.3245  -2.3143  -2.2911
    -2.2800

          k =-0.5000-0.8660 0.0000 (386352 PWs)   bands (ev):

   -87.3363 -66.5592 -66.5581 -66.5580 -66.5578 -66.5578 -66.5572 -66.5572
   -66.5557 -66.5476 -66.5474 -66.5474 -66.5472 -66.5471 -66.5465 -66.5465
   -66.5432 -66.5341 -66.5328 -66.5323 -66.5323 -66.5323 -66.5323 -66.5321
   -66.5321 -66.5321 -66.5320 -66.5318 -66.5314 -66.5314 -66.5314 -66.5314
   -66.5308 -66.5279 -66.5278 -66.5276 -66.5276 -66.5274 -66.5270 -66.5269
   -66.5240 -66.5232 -66.5220 -66.5217 -66.5216 -66.5216 -66.5215 -66.5214
   -66.5213 -66.5213 -66.5213 -66.5207 -66.5207 -66.5207 -66.5207 -66.5202
   -66.5172 -66.5172 -66.5169 -66.5169 -66.5162 -66.5162 -66.4988 -66.4853
   -66.4852 -53.4616 -52.9996 -52.9996 -40.8609 -40.8602 -40.8601 -40.8601
   -40.8600 -40.8599 -40.8599 -40.8599 -40.8598 -40.8598 -40.8598 -40.8598
   -40.8598 -40.8580 -40.8520 -40.8482 -40.8333 -40.8333 -40.8331 -40.8330
   -40.8330 -40.8329 -40.8322 -40.8281 -40.8212 -40.8212 -40.8210 -40.8210
   -40.8209 -40.8209 -40.8171 -40.8092 -40.7705 -40.7705 -40.7705 -40.7705
   -40.7703 -40.7703 -40.7703 -40.7703 -40.7701 -40.7701 -40.7701 -40.7701
   -40.7679 -40.7649 -40.7625 -40.7605 -40.7129 -40.7118 -40.7117 -40.7115
   -40.7115 -40.7115 -40.7115 -40.7075 -40.7023 -40.7023 -40.7021 -40.7020
   -40.7017 -40.7017 -40.6981 -40.6943 -40.6909 -40.6909 -40.6907 -40.6907
   -40.6906 -40.6906 -40.6906 -40.6845 -40.6633 -40.6613 -40.6613 -40.6613
   -40.6613 -40.6611 -40.6611 -40.6611 -40.6610 -40.6609 -40.6609 -40.6609
   -40.6609 -40.6609 -40.6600 -40.6575 -40.6526 -40.6525 -40.6523 -40.6523
   -40.6522 -40.6522 -40.6513 -40.6434 -40.6432 -40.6415 -40.6408 -40.6408
   -40.6406 -40.6405 -40.6403 -40.6403 -40.6403 -40.6402 -40.6402 -40.6402
   -40.6401 -40.6400 -40.6400 -40.6399 -40.6399 -40.6399 -40.6399 -40.6398
   -40.6371 -40.6364 -40.6331 -40.6316 -40.6316 -40.6313 -40.6313 -40.6312
   -40.6312 -40.6270 -40.6099 -40.6098 -40.6098 -40.6098 -40.6097 -40.6096
   -40.6096 -40.6096 -40.6095 -40.6093 -40.6093 -40.6092 -40.6092 -40.6088
   -40.6076 -40.6067 -40.6026 -40.5973 -40.5751 -40.5751 -40.5751 -40.5751
   -40.5749 -40.5749 -40.5748 -40.5748 -40.5745 -40.5745 -40.5745 -40.5745
   -40.5736 -40.5720 -40.5661 -40.5648 -40.5630 -40.5629 -40.5627 -40.5627
   -40.5623 -40.5623 -40.5601 -40.5472 -40.5436 -40.5436 -40.5434 -40.5434
   -40.5430 -40.5430 -40.5419 -40.5366 -40.5266 -40.5266 -40.5264 -40.5264
   -40.5260 -40.5260 -40.5200 -40.5104 -40.4960 -40.4959 -40.4957 -40.4957
   -40.4953 -40.4953 -40.4939 -40.4821 -19.8247 -19.8211 -19.7609 -19.7492
   -19.6705 -19.6550 -19.5842 -19.5767 -19.3875 -19.3836 -19.3286 -19.3158
   -19.2433 -19.2259 -19.1590 -19.1504 -18.7528 -18.7076 -18.6864 -18.6682
   -18.6682 -18.6682 -18.6557 -18.6139 -18.6139 -18.6138 -18.5980 -18.5751
   -18.5599 -18.5392 -18.5390 -18.5389 -18.5086 -18.4985 -18.4870 -18.4733
   -18.4732 -18.4731 -18.4474 -18.4366 -18.4175 -18.4163 -18.3980 -18.3811
   -18.3731 -18.3707 -18.3432 -18.3381 -18.3181 -18.3064 -18.2778 -18.2626
   -18.2525 -18.2475 -18.1924 -18.1805 -18.1715 -18.1561 -18.1560 -18.1559
   -18.1099 -18.0689 -18.0687 -18.0686 -18.0509 -18.0434 -18.0411 -18.0411
   -18.0407 -18.0406 -18.0244 -18.0121 -18.0110 -18.0109 -18.0048 -17.9882
   -17.9882 -17.9881 -17.9803 -17.9723 -17.9705 -17.9693 -17.9679 -17.9678
   -17.9426 -17.9352 -17.9352 -17.9352 -17.9314 -17.9248 -17.9240 -17.9239
   -17.9129 -17.9102 -17.8747 -17.8707 -17.8628 -17.8533 -17.8529 -17.8528
   -17.8204 -17.8092 -17.8082 -17.8081 -17.7823 -17.7756 -17.7744 -17.7742
   -17.7590 -17.7585 -17.7577 -17.7558 -17.7552 -17.7550 -17.7473 -17.7460
   -17.7311 -17.7282 -17.7110 -17.7049 -17.6945 -17.6883 -17.6767 -17.6716
   -17.6644 -17.6602 -17.6584 -17.6565 -11.6664 -11.6524 -11.4738 -11.4553
   -11.4517 -11.4516 -11.4467 -11.4208 -11.4193 -11.4074 -11.3803 -11.3738
   -11.3685 -11.3681 -11.3374 -11.3278 -11.2822 -11.2819 -11.2666 -11.2666
   -11.2603 -11.2532 -11.2250 -11.2128 -11.2025 -11.2022 -11.1979 -11.1958
   -11.1916 -11.1914 -11.1669 -11.1639 -11.1502 -11.1264 -11.1189 -11.1157
   -11.1143 -11.1054 -11.1053 -11.1047 -11.1003 -11.0765 -11.0744 -11.0726
   -11.0483 -11.0376 -10.9966 -10.9901 -10.9899 -10.9864 -10.8822 -10.8759
   -10.8680 -10.8458 -10.8454 -10.8373 -10.8163 -10.8058 -10.7988 -10.7672
   -10.7593 -10.7561 -10.7521 -10.7517 -10.7514 -10.7513 -10.7476 -10.7438
   -10.7335 -10.7334 -10.7293 -10.7291 -10.7284 -10.7272 -10.7270 -10.7263
   -10.7259 -10.7253 -10.7063 -10.6980 -10.6924 -10.6924 -10.6802 -10.6786
   -10.6749 -10.6749 -10.4822 -10.4725 -10.4706 -10.4534 -10.4139 -10.4086
   -10.3256 -10.3100 -10.2324 -10.1748 -10.1424 -10.0783 -10.0759 -10.0744
   -10.0738 -10.0251 -10.0208 -10.0163 -10.0154  -9.9894  -9.9885  -9.9882
    -9.9756  -9.9483  -9.9475  -9.9395  -9.9391  -9.9378  -9.9185  -9.8587
    -9.8538  -9.8522  -9.8518  -9.8358  -9.8358  -9.8347  -9.8342  -9.8332
    -9.8039  -9.7893  -9.7731  -9.7280  -9.7232  -9.7105  -9.7084  -9.7074
    -9.6910  -9.6799  -9.6665  -9.6470  -9.6466  -9.6447  -9.6122  -9.5912
    -9.5904  -9.5893  -9.5673  -9.5669  -9.5460  -9.5325  -9.5061  -9.4753
    -9.4730  -9.4720  -9.4717  -9.4711  -9.4710  -9.4702  -9.4462  -9.4428
    -9.4231  -9.4212  -9.4044  -9.3978  -9.3967  -9.3949  -9.3832  -9.3759
    -9.3642  -9.3540  -9.3525  -9.3525  -9.2876  -9.2734  -9.1847  -9.1775
    -9.1695  -9.1641  -9.1429  -9.1148  -9.1140  -9.1130  -9.1022  -9.0948
    -9.0926  -9.0909  -9.0425  -9.0335  -9.0084  -9.0018  -8.9966  -8.9871
    -8.9735  -8.9646  -8.9642  -8.9596  -8.9569  -8.9454  -8.9448  -8.9443
    -8.8950  -8.8885  -8.8737  -8.8698  -8.8666  -8.8602  -8.8599  -8.8592
    -8.8244  -8.8234  -8.8209  -8.8205  -8.8098  -8.8092  -8.8073  -8.8000
    -8.7989  -8.7984  -8.7962  -8.7956  -8.7812  -8.7802  -8.7753  -8.7737
    -8.7662  -8.7590  -8.7488  -8.7461  -8.7370  -8.7367  -8.7195  -8.7194
    -8.7176  -8.7175  -8.7146  -8.7134  -8.6894  -8.6859  -8.6682  -8.6659
    -8.6564  -8.6557  -8.6324  -8.6184  -8.5787  -8.5780  -8.5302  -8.5094
[...]
     atom  161 type  2   force =     0.00000002   -0.00000001    0.00441497
     atom  162 type  2   force =    -0.00000004   -0.00000004    0.00009771
     atom  163 type  1   force =    -0.00000001   -0.00000067   -0.00001286
     atom  164 type  1   force =     0.00013233    0.00002949   -0.00243318
     atom  165 type  2   force =     0.00000000   -0.00000216   -0.00017567
     atom  166 type  2   force =     0.00000167    0.00000126    0.00003505
     atom  167 type  2   force =     0.00000024    0.00000029   -0.00009705
     atom  168 type  2   force =    -0.00000004   -0.00000333   -0.00439236
     atom  169 type  1   force =    -0.00000003   -0.00000002    0.00255967
     atom  170 type  1   force =    -0.00000006    0.00000000    0.00001526
     atom  171 type  2   force =    -0.00000006   -0.00000002   -0.00003297
     atom  172 type  2   force =    -0.00000000   -0.00000000    0.00017154
     atom  173 type  2   force =    -0.00000000   -0.00000004    0.00441503
     atom  174 type  2   force =    -0.00000009   -0.00000003    0.00009775
     atom  175 type  1   force =    -0.00000221   -0.00000128   -0.00001284
     atom  176 type  1   force =    -0.00000002   -0.00000648   -0.00252904
     atom  177 type  2   force =     0.00000636    0.00000366   -0.00017226
     atom  178 type  2   force =     0.00000000   -0.00000185    0.00003679
     atom  179 type  2   force =    -0.00000000   -0.00000001   -0.00009727
     atom  180 type  2   force =    -0.00010521   -0.00006075   -0.00436958
     atom  181 type  1   force =    -0.00000001    0.00000000    0.00255967
     atom  182 type  1   force =    -0.00000007   -0.00000002    0.00001528
     atom  183 type  2   force =    -0.00000004   -0.00000003   -0.00003301
     atom  184 type  2   force =    -0.00000001    0.00000000    0.00017155
     atom  185 type  2   force =    -0.00000003    0.00000002    0.00441503
     atom  186 type  2   force =    -0.00000006   -0.00000002    0.00009770
     atom  187 type  1   force =    -0.00000057    0.00000032   -0.00001288
     atom  188 type  1   force =    -0.00000561    0.00000325   -0.00252903
     atom  189 type  2   force =    -0.00000187    0.00000108   -0.00017567
     atom  190 type  2   force =    -0.00000159    0.00000095    0.00003678
     atom  191 type  2   force =    -0.00000003    0.00000002   -0.00009728
     atom  192 type  2   force =    -0.00000286    0.00000168   -0.00439236
     atom  193 type  3   force =    -0.00000047    0.00000062   -0.00530112

     Total force =     0.002516     Total SCF correction =     0.000614
     SCF correction compared to forces is large: reduce conv_thr to get better values
     Energy error            =      1.2E-05 Ry
     Gradient error          =      6.8E-04 Ry/Bohr

     bfgs converged in  10 scf cycles and   9 bfgs steps
     (criteria: energy <  1.0E-04 Ry, force <  1.0E-03 Ry/Bohr)

     End of BFGS Geometry Optimization

     Final energy             =  -32305.6187931961 Ry

     File ./outdir/pwscf.bfgs deleted, as requested
Begin final coordinates

ATOMIC_POSITIONS (angstrom)
Mo            0.0000119917        1.8193638619       -9.1672481230    0   0   0
Mo            1.5756136568        0.9097075315       -3.0554901653    0   0   0
S             0.0000188998        1.8193822938       -4.6232556019    0   0   0
S             1.5756321638        0.9096773839       -7.6014065489    0   0   0
S             1.5756326175        0.9096785128      -10.7330757790    0   0   0
S             0.0000189190        1.8193860094       -1.4877129945    0   0   0
Mo            0.0000375594        1.8194176740        3.0555828755
Mo            1.5756699999        0.9116845948        9.1718639947
S             0.0001469046        1.8137453380        7.5979223187
S             1.5756520011        0.9097022729        4.6230866499
S             1.5756458873        0.9097591413        1.4878077830
S            -0.0005919752        1.8250432131       10.7384102201
Mo           -1.5756053507        4.5484193819       -9.1672481230    0   0   0
Mo            0.0000378379        3.6387394919       -3.0554952701    0   0   0
S            -1.5755913433        4.5484363582       -4.6232494962    0   0   0
S             0.0000148214        3.6387329039       -7.6014065489    0   0   0
S             0.0000152751        3.6387340328      -10.7330757790    0   0   0
S            -1.5755906502        4.5484413613       -1.4877305502    0   0   0
Mo           -1.5755547403        4.5483996399        3.0555788514
Mo           -0.0068318219        3.6347857304        9.1597297620
S            -1.5804068632        4.5513503787        7.5979219287
S             0.0002798463        3.6388903326        4.6234610177
S            -0.0000354528        3.6387114950        1.4876948886
S            -1.5709966343        4.5450619675       10.7384072517
Mo           -3.1512226931        7.2774749019       -9.1672481230    0   0   0
Mo           -1.5755910988        6.3678216792       -3.0555115988    0   0   0
S            -3.1512162438        7.2774954350       -4.6232578178    0   0   0
S            -1.5756025210        6.3677884239       -7.6014065489    0   0   0
S            -1.5756020673        6.3677895528      -10.7330757790    0   0   0
S            -3.1512127704        7.2774877076       -1.4877200710    0   0   0
Mo           -3.1512081352        7.2774976972        3.0554769003
Mo           -1.5738526362        6.3668264457        9.1718615078
S            -3.1502513947        7.2769635610        7.6027720062
S            -1.5755702316        6.3677916266        4.6231014330
S            -1.5755218962        6.3677486713        1.4877855909
S            -3.1502581645        7.2769656937       10.7392151757
Mo           -4.7268400355       10.0065304219       -9.1672481230    0   0   0
Mo           -3.1512405618        9.0968403586       -3.0554816746    0   0   0
S            -4.7268341792       10.0065523623       -4.6232463762    0   0   0
S            -3.1512198634        9.0968439439       -7.6014065489    0   0   0
S            -3.1512194097        9.0968450728      -10.7330757790    0   0   0
S            -4.7268370797       10.0065537885       -1.4877176751    0   0   0
Mo           -4.7268078371       10.0065359301        3.0554677751
Mo           -3.1513035039        9.0967991842        9.1698317809
S            -4.7268009555       10.0076343261        7.6027733865
S            -3.1512349410        9.0968223212        4.6233101427
S            -3.1511981352        9.0968505874        1.4877171730
S            -4.7267995775       10.0076277185       10.7392186017
Mo            3.1512517547        1.8193638619       -9.1672481230    0   0   0
Mo            4.7269020221        0.9097289540       -3.0554823951    0   0   0
S             3.1512612351        1.8193882564       -4.6232320683    0   0   0
S             4.7268719268        0.9096773839       -7.6014065489    0   0   0
S             4.7268723805        0.9096785128      -10.7330757790    0   0   0
S             3.1512592485        1.8193890201       -1.4877261251    0   0   0
Mo            3.1512815834        1.8194122538        3.0555623923
Mo            4.7252522078        0.9083075255        9.1696691403
S             3.1511940005        1.8137377503        7.5979152984
S             4.7269940065        0.9096861485        4.6232076745
S             4.7268555781        0.9097151486        1.4877578178
S             3.1519340198        1.8250479627       10.7384051930
Mo            1.5756344123        4.5484193819       -9.1672481230    0   0   0
Mo            3.1512756394        3.6387769522       -3.0554814834    0   0   0
S             1.5756504879        4.5484423799       -4.6232390542    0   0   0
S             3.1512545844        3.6387329039       -7.6014065489    0   0   0
S             3.1512550381        3.6387340328      -10.7330757790    0   0   0
S             1.5756466253        4.5484431864       -1.4877251801    0   0   0
Mo            1.5756494212        4.5484209373        3.0554118581
Mo            3.1581782940        3.6347822981        9.1597144905
S             1.5756707583        4.5484476828        7.6009177067
S             3.1510375063        3.6388919017        4.6234368873
S             3.1513436914        3.6387159144        1.4877142162
S             1.5756842700        4.5484284491       10.7284035245
Mo            0.0000170699        7.2774749019       -9.1672481230    0   0   0
Mo            1.5756764447        6.3678236689       -3.0554877708    0   0   0
S             0.0000381981        7.2774979204       -4.6232454413    0   0   0
S             1.5756372420        6.3677884239       -7.6014065489    0   0   0
S             1.5756376957        6.3677895528      -10.7330757790    0   0   0
S             0.0000328088        7.2774946042       -1.4877307940    0   0   0
Mo            0.0000780509        7.2774767819        3.0555591923
Mo            1.5756740805        6.3757595501        9.1597399229
S            -0.0048755360        7.2802368088        7.5979275871
S             1.5756671399        6.3675214247        4.6234367171
S             1.5756661480        6.3678702432        1.4877052673
S             0.0052676634        7.2752330588       10.7384121827
Mo           -1.5756002725       10.0065304219       -9.1672481230    0   0   0
Mo            0.0000873425        9.0968676911       -3.0554912329    0   0   0
S            -1.5755883952       10.0065504530       -4.6232240150    0   0   0
S             0.0000198996        9.0968439439       -7.6014065489    0   0   0
S             0.0000203533        9.0968450728      -10.7330757790    0   0   0
S            -1.5755859047       10.0065492576       -1.4877362381    0   0   0
Mo           -1.5756129313       10.0065255980        3.0554955493
Mo           -0.0019774473        9.0961337984        9.1696719674
S            -1.5768144936       10.0058307918        7.6014447144
S             0.0000906270        9.0969257319        4.6232075072
S             0.0000492499        9.0967967647        1.4877625152
S            -1.5767842185       10.0058518618       10.7387379939
Mo            6.3024915177        1.8193638619       -9.1672481230    0   0   0
Mo            7.8781001445        0.9096521684       -3.0554919963    0   0   0
S             6.3025008696        1.8193826232       -4.6232480596    0   0   0
S             7.8781116898        0.9096773839       -7.6014065489    0   0   0
S             7.8781121435        0.9096785128      -10.7330757790    0   0   0
S             6.3025042007        1.8193849068       -1.4877147524    0   0   0
Mo            6.3025501954        1.8193385304        3.0554683465
Mo            7.8781514461        0.9097055039        9.1682034365
S             6.3013822918        1.8200469827        7.6018164053
S             7.8781376238        0.9096862888        4.6233509531
S             7.8781500661        0.9096901774        1.4876897358
S             6.3020289308        1.8196766742       10.7370577624
Mo            4.7268741753        4.5484193819       -9.1672481230    0   0   0
Mo            6.3024679138        3.6387501714       -3.0554895197    0   0   0
S             4.7268748770        4.5484386753       -4.6232519432    0   0   0
S             6.3024943474        3.6387329039       -7.6014065489    0   0   0
S             6.3024948011        3.6387340328      -10.7330757790    0   0   0
S             4.7268770533        4.5484432419       -1.4877137856    0   0   0
Mo            4.7268553866        4.5483791676        3.0555594730
Mo            6.3029137037        3.6408907614        9.1696675481
S             4.7317571577        4.5513527056        7.5979165431
S             6.3025623294        3.6386677165        4.6232366258
S             6.3024769935        3.6387772062        1.4877424749
S             4.7223368743        4.5450565514       10.7384026335
Mo            3.1512568329        7.2774749019       -9.1672481230    0   0   0
Mo            4.7268384135        6.3678043337       -3.0554959052    0   0   0
S             3.1512606125        7.2774972547       -4.6232589675    0   0   0
S             4.7268770050        6.3677884239       -7.6014065489    0   0   0
S             4.7268774587        6.3677895528      -10.7330757790    0   0   0
S             3.1512629079        7.2774963749       -1.4877081835    0   0   0
Mo            3.1512260109        7.2774596872        3.0555541990
Mo            4.7252034177        6.3668252263        9.1718624216
S             3.1562250392        7.2802346596        7.5979293785
S             4.7268889415        6.3677935245        4.6231137195
S             4.7268406693        6.3677596145        1.4877723181
S             3.1460813083        7.2752306055       10.7384132179
Mo            1.5756394905       10.0065304219       -9.1672481230    0   0   0
Mo            3.1512330605        9.0968514907       -3.0554878870    0   0   0
S             1.5756499830       10.0065443759       -4.6232632674    0   0   0
S             3.1512596626        9.0968439439       -7.6014065489    0   0   0
S             3.1512601163        9.0968450728      -10.7330757790    0   0   0
S             1.5756503041       10.0065459699       -1.4877044377    0   0   0
Mo            1.5756568002       10.0065879419        3.0554556076
Mo            3.1533350973        9.0961352455        9.1696724797
S             1.5756771378       10.0052326196        7.6018191874
S             3.1512487716        9.0969198878        4.6232351623
S             3.1512949421        9.0967971546        1.4877376946
S             1.5756769710       10.0059820739       10.7370589271
Mo            9.4537312807        1.8193638619       -9.1672481230    0   0   0
Mo           11.0293863460        0.9096952246       -3.0554894007    0   0   0
S             9.4537395970        1.8193770750       -4.6232328036    0   0   0
S            11.0293514528        0.9096773839       -7.6014065489    0   0   0
S            11.0293519066        0.9096785128      -10.7330757790    0   0   0
S             9.4537393632        1.8193794783       -1.4877366147    0   0   0
Mo            9.4537173467        1.8193421048        3.0554777870
Mo           11.0310400691        0.9083078526        9.1696700710
S             9.4549121313        1.8200473921        7.6018208471
S            11.0292813774        0.9096767844        4.6232214273
S            11.0294116801        0.9097102486        1.4877671386
S             9.4542648923        1.8196768252       10.7370533510
Mo            7.8781139383        4.5484193819       -9.1672481230    0   0   0
Mo            9.4537539161        3.6387607911       -3.0554933032    0   0   0
S             7.8781175448        4.5484378232       -4.6232366318    0   0   0
S             9.4537341104        3.6387329039       -7.6014065489    0   0   0
S             9.4537345641        3.6387340328      -10.7330757790    0   0   0
S             7.8781194018        4.5484411585       -1.4877377057    0   0   0
Mo            7.8781373237        4.5484529461        3.0555046909
Mo            9.4533892761        3.6408869587        9.1696685220
S             7.8781524027        4.5498938040        7.6014430816
S             9.4537091115        3.6386684656        4.6232340274
S             9.4538027371        3.6387688509        1.4877634266
S             7.8781513650        4.5498560215       10.7387316796
Mo            6.3024965959        7.2774749019       -9.1672481230    0   0   0
Mo            7.8781361655        6.3678242352       -3.0555014130    0   0   0
S             6.3024973331        7.2774953556       -4.6232392528    0   0   0
S             7.8781167680        6.3677884239       -7.6014065489    0   0   0
S             7.8781172217        6.3677895528      -10.7330757790    0   0   0
S             6.3024989866        7.2774929744       -1.4877349119    0   0   0
Mo            6.3025313692        7.2774876267        3.0554731687
Mo            7.8781531561        6.3679578080        9.1698284683
S             6.3016020325        7.2769634949        7.6027745646
S             7.8781338415        6.3678419469        4.6232888304
S             7.8781323683        6.3677818570        1.4877428631
S             6.3016094647        7.2769642457       10.7392153088
Mo            4.7268792535       10.0065304219       -9.1672481230    0   0   0
Mo            6.3025111524        9.0968738021       -3.0554915260    0   0   0
S             4.7268840634       10.0065452125       -4.6232380477    0   0   0
S             6.3024994256        9.0968439439       -7.6014065489    0   0   0
S             6.3024998793        9.0968450728      -10.7330757790    0   0   0
S             4.7268847312       10.0065459141       -1.4877283294    0   0   0
Mo            4.7269366873       10.0065263005        3.0555065972
Mo            6.3026592459        9.0967980995        9.1698325096
S             4.7281738810       10.0058303256        7.6014468796
S             6.3025613447        9.0968166130        4.6233022334
S             6.3025182350        9.0968472380        1.4877326712
S             4.7281424212       10.0058507265       10.7387350610
Pd            1.5759839904        4.5480305552       12.8832069721
End final coordinates



     Writing all to output data dir ./outdir/pwscf.save/
 
     init_run     :    192.06s CPU    195.66s WALL (       1 calls)
     electrons    :  84953.71s CPU  85840.93s WALL (      10 calls)
     update_pot   :     49.05s CPU     49.28s WALL (       9 calls)
     forces       :   1226.99s CPU   1256.94s WALL (      10 calls)
     force_dftd3  :      7.59s CPU      8.12s WALL (      10 calls)

     Called by init_run:
     wfcinit      :    167.28s CPU    169.35s WALL (       1 calls)
     potinit      :      2.23s CPU      2.30s WALL (       1 calls)
     hinit0       :     15.92s CPU     15.94s WALL (       1 calls)

     Called by electrons:
     c_bands      :  76099.99s CPU  76612.88s WALL (     126 calls)
     sum_band     :   8324.29s CPU   8537.36s WALL (     126 calls)
     v_of_rho     :     63.89s CPU     65.12s WALL (     126 calls)
     newd         :    346.82s CPU    516.75s WALL (     126 calls)
     PAW_pot      :     92.00s CPU     92.00s WALL (     135 calls)
     mix_rho      :     15.60s CPU     15.62s WALL (     126 calls)
     energy_dftd3 :      3.56s CPU      3.57s WALL (      10 calls)

     Called by c_bands:
     init_us_2    :    307.99s CPU    308.23s WALL (    1088 calls)
     init_us_2:cp :    307.98s CPU    308.23s WALL (    1088 calls)
     cegterg      :  75032.98s CPU  75528.52s WALL (     527 calls)

     Called by *egterg:
     cdiaghg      :   4691.92s CPU   4706.04s WALL (    6490 calls)
     h_psi        :  39955.04s CPU  40106.81s WALL (    6570 calls)
     s_psi        :   8590.26s CPU   8622.71s WALL (    6570 calls)
     g_psi        :     74.87s CPU     74.99s WALL (    6039 calls)

     Called by h_psi:
     h_psi:calbec :   8562.82s CPU   8564.30s WALL (    6570 calls)
     vloc_psi     :  22680.00s CPU  22729.98s WALL (    6570 calls)
     add_vuspsi   :   8627.93s CPU   8660.04s WALL (    6570 calls)

     General routines
     calbec       :  12248.88s CPU  12250.93s WALL (    7270 calls)
     fft          :     60.26s CPU     61.42s WALL (    1747 calls)
     ffts         :      3.25s CPU      3.30s WALL (     252 calls)
     fftw         :  18822.83s CPU  18869.49s WALL ( 3592480 calls)
     interpolate  :      6.67s CPU      6.76s WALL (     126 calls)
 
     Parallel routines
 
     PWSCF        :   1d 0h 6m CPU   1d 0h22m WALL

 
   This run was terminated on:  15:20:18  15Aug2023            

=------------------------------------------------------------------------------=
   JOB DONE.
=------------------------------------------------------------------------------=
Application 11039925 resources: utime ~3126080s, stime ~33389s, Rss ~3489548, inblocks ~0, outblocks ~53264440
