
     Program PWSCF v.7.2 starts on 11Oct2023 at 15:18:20 

     This program is part of the open-source Quantum ESPRESSO suite
     for quantum simulation of materials; please cite
         "P. Giannozzi et al., J. Phys.:Condens. Matter 21 395502 (2009);
         "P. Giannozzi et al., J. Phys.:Condens. Matter 29 465901 (2017);
         "P. Giannozzi et al., J. Chem. Phys. 152 154105 (2020);
          URL http://www.quantum-espresso.org", 
     in publications or presentations arising from this work. More details at
     http://www.quantum-espresso.org/quote

     Parallel version (MPI), running on    36 processors

     MPI processes distributed on     1 nodes
     769966 MiB available memory on the printing compute node when the environment starts
 
     Waiting for input...
     Reading input from standard input
Warning: card &CELL ignored
Warning: card / ignored

     Current dimensions of program PWSCF are:
     Max number of different atomic species (ntypx) = 10
     Max number of k-points (npk) =  40000
     Max angular momentum in pseudopotentials (lmaxx) =  4
     file Mo.pbe-spn-kjpaw_psl.1.0.0.UPF: wavefunction(s)  4S 4D renormalized
     file S.pbe-n-kjpaw_psl.1.0.0.UPF: wavefunction(s)  3S 3P renormalized
     file Pd.pbe-spn-kjpaw_psl.1.0.0.UPF: wavefunction(s)  4S 5S 4D renormalized
 
     R & G space division:  proc/nbgrp/npool/nimage =      36
     Subspace diagonalization in iterative solution of the eigenvalue problem:
     one sub-group per band group will be used
     custom distributed-memory algorithm (size of sub-group:  6*  6 procs)

 
     Parallelization info
     --------------------
     sticks:   dense  smooth     PW     G-vecs:    dense   smooth      PW
     Min         585     334     89               198743    85850   11735
     Max         586     335     90               198750    85861   11748
     Sum       21073   12049   3205              7154885  3090769  422587
 
     Using Slab Decomposition
 


     bravais-lattice index     =            0
     lattice parameter (alat)  =      23.8199  a.u.
     unit-cell volume          =   33861.0370 (a.u.)^3
     number of atoms/cell      =          194
     number of atomic types    =            3
     number of electrons       =      1700.00
     number of Kohn-Sham states=         1020
     kinetic-energy cutoff     =      77.0000  Ry
     charge density cutoff     =     539.0000  Ry
     scf convergence threshold =      1.0E-06
     mixing beta               =       0.2000
     number of iterations used =            8  plain     mixing
     energy convergence thresh.=      1.0E-04
     force convergence thresh. =      1.0E-03
     Exchange-correlation= SLA  PW   PBX  PBC
                           (   1   4   3   4   0   0   0)
     nstep                     =         1000


     Effective Screening Medium Method
     =================================
     Boundary Conditions: Vacuum-Slab-Vacuum
     total charge in unit cell        =   0.0000
     grid points for fit at edges     =        4 
 

     celldm(1)=  23.819920  celldm(2)=   0.000000  celldm(3)=   0.000000
     celldm(4)=   0.000000  celldm(5)=   0.000000  celldm(6)=   0.000000

     crystal axes: (cart. coord. in units of alat)
               a(1) = (   1.000000   0.000000   0.000000 )  
               a(2) = (  -0.499999   0.866026   0.000000 )  
               a(3) = (   0.000000   0.000000   2.893000 )  

     reciprocal axes: (cart. coord. in units 2 pi/alat)
               b(1) = (  1.000000  0.577349  0.000000 )  
               b(2) = (  0.000000  1.154700  0.000000 )  
               b(3) = (  0.000000  0.000000  0.345662 )  


     PseudoPot. # 1 for Mo read from file:
     ./pseudo/Mo.pbe-spn-kjpaw_psl.1.0.0.UPF
     MD5 check sum: 317bf72632116215fd98f72de1686f13
     Pseudo is Projector augmented-wave + core cor, Zval = 14.0
     Generated using 'atomic' code by A. Dal Corso  v.7.2
     Shape of augmentation charge: PSQ
     Using radial grid of 1229 points,  6 beta functions with: 
                l(1) =   0
                l(2) =   0
                l(3) =   1
                l(4) =   1
                l(5) =   2
                l(6) =   2
     Q(r) pseudized with 0 coefficients 


     PseudoPot. # 2 for S  read from file:
     ./pseudo/S.pbe-n-kjpaw_psl.1.0.0.UPF
     MD5 check sum: 8b7b5302570d38d5e87fed6a1065abda
     Pseudo is Projector augmented-wave + core cor, Zval =  6.0
     Generated using 'atomic' code by A. Dal Corso  v.7.2
     Shape of augmentation charge: PSQ
     Using radial grid of 1151 points,  6 beta functions with: 
                l(1) =   0
                l(2) =   0
                l(3) =   1
                l(4) =   1
                l(5) =   2
                l(6) =   2
     Q(r) pseudized with 0 coefficients 


     PseudoPot. # 3 for Pd read from file:
     ./pseudo/Pd.pbe-spn-kjpaw_psl.1.0.0.UPF
     MD5 check sum: a60571a671f2502b8a6a4569d20a6edb
     Pseudo is Projector augmented-wave + core cor, Zval = 18.0
     Generated using 'atomic' code by A. Dal Corso  v.7.2
     Shape of augmentation charge: PSQ
     Using radial grid of 1235 points,  6 beta functions with: 
                l(1) =   0
                l(2) =   0
                l(3) =   1
                l(4) =   1
                l(5) =   2
                l(6) =   2
     Q(r) pseudized with 0 coefficients 


     atomic species   valence    mass     pseudopotential
        Mo            14.00    95.95000     Mo( 1.00)
        S              6.00    32.06000     S ( 1.00)
        Pd            18.00   106.42000     Pd( 1.00)

     No symmetry found



   Cartesian axes

     site n.     atom                  positions (alat units)
         1           Mo  tau(   1) = (   0.0000010   0.1443372  -0.7272732  )
         2           Mo  tau(   2) = (   0.1249995   0.0721706  -0.2424038  )
         3           S   tau(   3) = (   0.0000015   0.1443386  -0.3667807  )
         4           S   tau(   4) = (   0.1250010   0.0721682  -0.6030489  )
         5           S   tau(   5) = (   0.1250010   0.0721683  -0.8514963  )
         6           S   tau(   6) = (   0.0000015   0.1443389  -0.1180260  )
         7           Mo  tau(   7) = (   0.0000007   0.1443589   0.2424205  )
         8           Mo  tau(   8) = (   0.1250041   0.0720322   0.7266168  )
         9           S   tau(   9) = (   0.0000742   0.1444871   0.6020949  )
        10           S   tau(  10) = (   0.1250024   0.0721701   0.3667478  )
        11           S   tau(  11) = (   0.1250035   0.0721876   0.1180348  )
        12           S   tau(  12) = (  -0.0004118   0.1430864   0.8514340  )
        13           Mo  tau(  13) = (  -0.1249989   0.3608437  -0.7272732  )
        14           Mo  tau(  14) = (   0.0000030   0.2886752  -0.2424042  )
        15           S   tau(  15) = (  -0.1249977   0.3608450  -0.3667802  )
        16           S   tau(  16) = (   0.0000012   0.2886747  -0.6030489  )
        17           S   tau(  17) = (   0.0000012   0.2886748  -0.8514963  )
        18           S   tau(  18) = (  -0.1249977   0.3608454  -0.1180274  )
        19           Mo  tau(  19) = (  -0.1249729   0.3608584   0.2424608  )
        20           Mo  tau(  20) = (  -0.0007193   0.2876626   0.7275440  )
        21           S   tau(  21) = (  -0.1251115   0.3607789   0.6027257  )
        22           S   tau(  22) = (   0.0000621   0.2887099   0.3668377  )
        23           S   tau(  23) = (  -0.0000096   0.2886902   0.1180527  )
        24           S   tau(  24) = (  -0.1254673   0.3605734   0.8517408  )
        25           Mo  tau(  25) = (  -0.2499987   0.5773502  -0.7272732  )
        26           Mo  tau(  26) = (  -0.1249977   0.5051839  -0.2424055  )
        27           S   tau(  27) = (  -0.2499981   0.5773518  -0.3667809  )
        28           S   tau(  28) = (  -0.1249986   0.5051812  -0.6030489  )
        29           S   tau(  29) = (  -0.1249986   0.5051813  -0.8514963  )
        30           S   tau(  30) = (  -0.2499979   0.5773512  -0.1180266  )
        31           Mo  tau(  31) = (  -0.2499795   0.5773389   0.2424205  )
        32           Mo  tau(  32) = (  -0.1262356   0.5050639   0.7275441  )
        33           S   tau(  33) = (  -0.2498323   0.5773390   0.6020948  )
        34           S   tau(  34) = (  -0.1249376   0.5052159   0.3668377  )
        35           S   tau(  35) = (  -0.1249905   0.5051638   0.1180531  )
        36           S   tau(  36) = (  -0.2512883   0.5776183   0.8514340  )
        37           Mo  tau(  37) = (  -0.3749985   0.7938567  -0.7272732  )
        38           Mo  tau(  38) = (  -0.2500001   0.7216874  -0.2424031  )
        39           S   tau(  39) = (  -0.3749980   0.7938584  -0.3667800  )
        40           S   tau(  40) = (  -0.2499984   0.7216877  -0.6030489  )
        41           S   tau(  41) = (  -0.2499984   0.7216878  -0.8514963  )
        42           S   tau(  42) = (  -0.3749982   0.7938585  -0.1180264  )
        43           Mo  tau(  43) = (  -0.3749962   0.7938568   0.2423838  )
        44           Mo  tau(  44) = (  -0.2501148   0.7217588   0.7266170  )
        45           S   tau(  45) = (  -0.3749945   0.7938590   0.6021274  )
        46           S   tau(  46) = (  -0.2499958   0.7216877   0.3667488  )
        47           S   tau(  47) = (  -0.2499810   0.7216794   0.1180323  )
        48           S   tau(  48) = (  -0.3749953   0.7938585   0.8511588  )
        49           Mo  tau(  49) = (   0.2500010   0.1443372  -0.7272732  )
        50           Mo  tau(  50) = (   0.3750034   0.0721723  -0.2424032  )
        51           S   tau(  51) = (   0.2500017   0.1443391  -0.3667788  )
        52           S   tau(  52) = (   0.3750010   0.0721682  -0.6030489  )
        53           S   tau(  53) = (   0.3750010   0.0721683  -0.8514963  )
        54           S   tau(  54) = (   0.2500016   0.1443391  -0.1180271  )
        55           Mo  tau(  55) = (   0.2500054   0.1443594   0.2424211  )
        56           Mo  tau(  56) = (   0.3749279   0.0721263   0.7263991  )
        57           S   tau(  57) = (   0.2499344   0.1444864   0.6020948  )
        58           S   tau(  58) = (   0.3750316   0.0721860   0.3667597  )
        59           S   tau(  59) = (   0.3749924   0.0721644   0.1180346  )
        60           S   tau(  60) = (   0.2504199   0.1430865   0.8514340  )
        61           Mo  tau(  61) = (   0.1250012   0.3608437  -0.7272732  )
        62           Mo  tau(  62) = (   0.2500029   0.2886782  -0.2424031  )
        63           S   tau(  63) = (   0.1250024   0.3608455  -0.3667794  )
        64           S   tau(  64) = (   0.2500012   0.2886747  -0.6030489  )
        65           S   tau(  65) = (   0.2500012   0.2886748  -0.8514963  )
        66           S   tau(  66) = (   0.1250021   0.3608455  -0.1180270  )
        67           Mo  tau(  67) = (   0.1250038   0.3608653   0.2423963  )
        68           Mo  tau(  68) = (   0.2507284   0.2876625   0.7275438  )
        69           S   tau(  69) = (   0.1250046   0.3627170   0.6061948  )
        70           S   tau(  70) = (   0.2499461   0.2887116   0.3668373  )
        71           S   tau(  71) = (   0.2500171   0.2886900   0.1180543  )
        72           S   tau(  72) = (   0.1250046   0.3519103   0.8557806  )
        73           Mo  tau(  73) = (   0.0000014   0.5773502  -0.7272732  )
        74           Mo  tau(  74) = (   0.1250045   0.5051840  -0.2424036  )
        75           S   tau(  75) = (   0.0000030   0.5773520  -0.3667799  )
        76           S   tau(  76) = (   0.1250014   0.5051812  -0.6030489  )
        77           S   tau(  77) = (   0.1250014   0.5051813  -0.8514963  )
        78           S   tau(  78) = (   0.0000026   0.5773517  -0.1180274  )
        79           Mo  tau(  79) = (   0.0000222   0.5773400   0.2423964  )
        80           Mo  tau(  80) = (   0.1250047   0.5051836   0.7321380  )
        81           S   tau(  81) = (   0.0016251   0.5764170   0.6061946  )
        82           S   tau(  82) = (   0.1250047   0.5051815   0.3667777  )
        83           S   tau(  83) = (   0.1250048   0.5051819   0.1179962  )
        84           S   tau(  84) = (  -0.0077335   0.5818202   0.8557807  )
        85           Mo  tau(  85) = (  -0.1249984   0.7938567  -0.7272732  )
        86           Mo  tau(  86) = (   0.0000069   0.7216896  -0.2424039  )
        87           S   tau(  87) = (  -0.1249975   0.7938582  -0.3667782  )
        88           S   tau(  88) = (   0.0000016   0.7216877  -0.6030489  )
        89           S   tau(  89) = (   0.0000016   0.7216878  -0.8514963  )
        90           S   tau(  90) = (  -0.1249973   0.7938582  -0.1180279  )
        91           Mo  tau(  91) = (  -0.1249774   0.7938494   0.2424207  )
        92           Mo  tau(  92) = (  -0.0005116   0.7228241   0.7275438  )
        93           S   tau(  93) = (  -0.1249026   0.7937246   0.6020948  )
        94           S   tau(  94) = (   0.0000043   0.7216209   0.3668361  )
        95           S   tau(  95) = (   0.0000226   0.7216928   0.1180549  )
        96           S   tau(  96) = (  -0.1258721   0.7948451   0.8514341  )
        97           Mo  tau(  97) = (   0.5000010   0.1443372  -0.7272732  )
        98           Mo  tau(  98) = (   0.6250001   0.0721662  -0.2424040  )
        99           S   tau(  99) = (   0.5000017   0.1443386  -0.3667801  )
       100           S   tau( 100) = (   0.6250010   0.0721682  -0.6030489  )
       101           S   tau( 101) = (   0.6250010   0.0721683  -0.8514963  )
       102           S   tau( 102) = (   0.5000020   0.1443388  -0.1180261  )
       103           Mo  tau( 103) = (   0.5000075   0.1443411   0.2423793  )
       104           Mo  tau( 104) = (   0.6250042   0.0723339   0.7270464  )
       105           S   tau( 105) = (   0.5002366   0.1444733   0.6023595  )
       106           S   tau( 106) = (   0.6250029   0.0721787   0.3667562  )
       107           S   tau( 107) = (   0.6250040   0.0721260   0.1180315  )
       108           S   tau( 108) = (   0.4998752   0.1442648   0.8512770  )
       109           Mo  tau( 109) = (   0.3750012   0.3608437  -0.7272732  )
       110           Mo  tau( 110) = (   0.4999991   0.2886761  -0.2424038  )
       111           S   tau( 111) = (   0.3750012   0.3608452  -0.3667804  )
       112           S   tau( 112) = (   0.5000012   0.2886747  -0.6030489  )
       113           S   tau( 113) = (   0.5000012   0.2886748  -0.8514963  )
       114           S   tau( 114) = (   0.3750014   0.3608455  -0.1180261  )
       115           Mo  tau( 115) = (   0.3749795   0.3608597   0.2424601  )
       116           Mo  tau( 116) = (   0.5001461   0.2885951   0.7270464  )
       117           S   tau( 117) = (   0.3751205   0.3607791   0.6027254  )
       118           S   tau( 118) = (   0.5000105   0.2886721   0.3667569  )
       119           S   tau( 119) = (   0.4999655   0.2886989   0.1180297  )
       120           S   tau( 120) = (   0.3754765   0.3605739   0.8517402  )
       121           Mo  tau( 121) = (   0.2500014   0.5773502  -0.7272732  )
       122           Mo  tau( 122) = (   0.3749983   0.5051825  -0.2424043  )
       123           S   tau( 123) = (   0.2500017   0.5773519  -0.3667810  )
       124           S   tau( 124) = (   0.3750014   0.5051812  -0.6030489  )
       125           S   tau( 125) = (   0.3750014   0.5051813  -0.8514963  )
       126           S   tau( 126) = (   0.2500018   0.5773519  -0.1180256  )
       127           Mo  tau( 127) = (   0.2499863   0.5773402   0.2423965  )
       128           Mo  tau( 128) = (   0.3762454   0.5050642   0.7275433  )
       129           S   tau( 129) = (   0.2483844   0.5764169   0.6061944  )
       130           S   tau( 130) = (   0.3749442   0.5052158   0.3668400  )
       131           S   tau( 131) = (   0.3749972   0.5051650   0.1180510  )
       132           S   tau( 132) = (   0.2577438   0.5818204   0.8557797  )
       133           Mo  tau( 133) = (   0.1250016   0.7938567  -0.7272732  )
       134           Mo  tau( 134) = (   0.2499995   0.7216883  -0.2424036  )
       135           S   tau( 135) = (   0.1250024   0.7938578  -0.3667813  )
       136           S   tau( 136) = (   0.2500016   0.7216877  -0.6030489  )
       137           S   tau( 137) = (   0.2500016   0.7216878  -0.8514963  )
       138           S   tau( 138) = (   0.1250024   0.7938579  -0.1180253  )
       139           Mo  tau( 139) = (   0.1250047   0.7938294   0.2424606  )
       140           Mo  tau( 140) = (   0.2505220   0.7228241   0.7275433  )
       141           S   tau( 141) = (   0.1250053   0.7939926   0.6027252  )
       142           S   tau( 142) = (   0.2500048   0.7216200   0.3668387  )
       143           S   tau( 143) = (   0.2499864   0.7216915   0.1180524  )
       144           S   tau( 144) = (   0.1250054   0.7944033   0.8517402  )
       145           Mo  tau( 145) = (   0.7500010   0.1443372  -0.7272732  )
       146           Mo  tau( 146) = (   0.8750038   0.0721696  -0.2424038  )
       147           S   tau( 147) = (   0.7500016   0.1443382  -0.3667789  )
       148           S   tau( 148) = (   0.8750010   0.0721682  -0.6030489  )
       149           S   tau( 149) = (   0.8750010   0.0721683  -0.8514963  )
       150           S   tau( 150) = (   0.7500016   0.1443384  -0.1180279  )
       151           Mo  tau( 151) = (   0.7499986   0.1443409   0.2423802  )
       152           Mo  tau( 152) = (   0.8750804   0.0721266   0.7263988  )
       153           S   tau( 153) = (   0.7497713   0.1444738   0.6023592  )
       154           S   tau( 154) = (   0.8749758   0.0721848   0.3667595  )
       155           S   tau( 155) = (   0.8750127   0.0721632   0.1180342  )
       156           S   tau( 156) = (   0.7501331   0.1442647   0.8512770  )
       157           Mo  tau( 157) = (   0.6250012   0.3608437  -0.7272732  )
       158           Mo  tau( 158) = (   0.7500028   0.2886769  -0.2424041  )
       159           S   tau( 159) = (   0.6250015   0.3608451  -0.3667792  )
       160           S   tau( 160) = (   0.7500012   0.2886747  -0.6030489  )
       161           S   tau( 161) = (   0.7500012   0.2886748  -0.8514963  )
       162           S   tau( 162) = (   0.6250016   0.3608454  -0.1180280  )
       163           Mo  tau( 163) = (   0.6250032   0.3608391   0.2423797  )
       164           Mo  tau( 164) = (   0.7498627   0.2885951   0.7270467  )
       165           S   tau( 165) = (   0.6250046   0.3605769   0.6023590  )
       166           S   tau( 166) = (   0.7499943   0.2886711   0.3667569  )
       167           S   tau( 167) = (   0.7500399   0.2886970   0.1180318  )
       168           S   tau( 168) = (   0.6250043   0.3609947   0.8512770  )
       169           Mo  tau( 169) = (   0.5000014   0.5773502  -0.7272732  )
       170           Mo  tau( 170) = (   0.6250029   0.5051841  -0.2424047  )
       171           S   tau( 171) = (   0.5000014   0.5773518  -0.3667794  )
       172           S   tau( 172) = (   0.6250014   0.5051812  -0.6030489  )
       173           S   tau( 173) = (   0.6250014   0.5051813  -0.8514963  )
       174           S   tau( 174) = (   0.5000016   0.5773516  -0.1180277  )
       175           Mo  tau( 175) = (   0.4999855   0.5773383   0.2424207  )
       176           Mo  tau( 176) = (   0.6250049   0.5052713   0.7263986  )
       177           S   tau( 177) = (   0.4998428   0.5773389   0.6020941  )
       178           S   tau( 178) = (   0.6250030   0.5051500   0.3667588  )
       179           S   tau( 179) = (   0.6250025   0.5051935   0.1180351  )
       180           S   tau( 180) = (   0.5012979   0.5776190   0.8514332  )
       181           Mo  tau( 181) = (   0.3750016   0.7938567  -0.7272732  )
       182           Mo  tau( 182) = (   0.5000025   0.7216901  -0.2424039  )
       183           S   tau( 183) = (   0.3750019   0.7938578  -0.3667793  )
       184           S   tau( 184) = (   0.5000016   0.7216877  -0.6030489  )
       185           S   tau( 185) = (   0.5000016   0.7216878  -0.8514963  )
       186           S   tau( 186) = (   0.3750020   0.7938579  -0.1180272  )
       187           Mo  tau( 187) = (   0.3749848   0.7938487   0.2424206  )
       188           Mo  tau( 188) = (   0.5001249   0.7217591   0.7266160  )
       189           S   tau( 189) = (   0.3749125   0.7937251   0.6020942  )
       190           S   tau( 190) = (   0.5000021   0.7216868   0.3667472  )
       191           S   tau( 191) = (   0.4999874   0.7216780   0.1180346  )
       192           S   tau( 192) = (   0.3758826   0.7948451   0.8514332  )
       193           Pd  tau( 193) = (   0.1250063   0.5051842   0.9601361  )
       194           Pd  tau( 194) = (   0.1250302   0.1936804   0.9797996  )

     --------------------------------------------
     DFT-D3 Dispersion Correction (3-body terms):
     --------------------------------------------
       Reference C6 values for interpolation: 

         atom   Coordination number   C6
         S          0.000           268.01
         S          0.995           261.99
         S          1.990           251.62
         Mo         0.000          1691.79
         Mo         1.942          1004.01
         Mo        11.056           674.22
         Pd         0.000          1217.01
         Pd         1.863           573.90
         Pd         5.710           531.75

       Values used:

         atom   Coordination number  R0_AB[au]  C6      C8
         Mo        10.208            3.547    674.22  77634.20
         Mo        10.221            3.547    674.22  77634.20
         S          3.858            3.128    251.62  12327.25
         S          3.859            3.128    251.62  12327.25
         S          3.758            3.128    251.62  12327.25
         S          3.859            3.128    251.62  12327.25
         Mo        10.220            3.547    674.22  77634.20
         Mo        10.350            3.547    674.22  77634.20
         S          3.847            3.128    251.62  12327.25
         S          3.861            3.128    251.62  12327.25
         S          3.859            3.128    251.62  12327.25
         S          4.760            3.128    251.62  12327.25
         Mo        10.208            3.547    674.21  77634.20
         Mo        10.221            3.547    674.22  77634.20
         S          3.858            3.128    251.62  12327.25
         S          3.859            3.128    251.62  12327.25
         S          3.758            3.128    251.62  12327.25
         S          3.859            3.128    251.62  12327.25
         Mo        10.221            3.547    674.22  77634.20
         Mo        10.249            3.547    674.22  77634.20
         S          3.855            3.128    251.62  12327.25
         S          3.856            3.128    251.62  12327.25
         S          3.859            3.128    251.62  12327.25
         S          3.762            3.128    251.62  12327.25
         Mo        10.208            3.547    674.22  77634.20
         Mo        10.221            3.547    674.22  77634.20
         S          3.858            3.128    251.62  12327.25
         S          3.859            3.128    251.62  12327.25
         S          3.758            3.128    251.62  12327.25
         S          3.859            3.128    251.62  12327.25
         Mo        10.220            3.547    674.22  77634.20
         Mo        10.191            3.547    674.22  77634.20
         S          3.847            3.128    251.62  12327.25
         S          3.856            3.128    251.62  12327.25
         S          3.859            3.128    251.62  12327.25
         S          3.805            3.128    251.62  12327.25
         Mo        10.208            3.547    674.22  77634.20
         Mo        10.221            3.547    674.22  77634.20
         S          3.858            3.128    251.62  12327.25
         S          3.859            3.128    251.62  12327.25
         S          3.758            3.128    251.62  12327.25
         S          3.859            3.128    251.62  12327.25
         Mo        10.219            3.547    674.22  77634.20
         Mo        10.234            3.547    674.22  77634.20
         S          3.856            3.128    251.62  12327.25
         S          3.861            3.128    251.62  12327.25
         S          3.859            3.128    251.62  12327.25
         S          3.800            3.128    251.62  12327.25
         Mo        10.208            3.547    674.22  77634.20
         Mo        10.221            3.547    674.22  77634.20
         S          3.858            3.128    251.62  12327.25
         S          3.859            3.128    251.62  12327.25
         S          3.758            3.128    251.62  12327.25
         S          3.859            3.128    251.62  12327.25
         Mo        10.220            3.547    674.22  77634.20
         Mo        10.247            3.547    674.22  77634.20
         S          3.847            3.128    251.62  12327.25
         S          3.860            3.128    251.62  12327.25
         S          3.859            3.128    251.62  12327.25
         S          4.760            3.128    251.62  12327.25
         Mo        10.208            3.547    674.22  77634.20
         Mo        10.221            3.547    674.22  77634.20
         S          3.858            3.128    251.62  12327.25
         S          3.859            3.128    251.62  12327.25
         S          3.758            3.128    251.62  12327.25
         S          3.859            3.128    251.62  12327.25
         Mo        10.222            3.547    674.22  77634.20
         Mo        10.249            3.547    674.22  77634.20
         S          3.866            3.128    251.62  12327.25
         S          3.856            3.128    251.62  12327.25
         S          3.859            3.128    251.62  12327.25
         S          5.495            3.128    251.62  12327.25
         Mo        10.208            3.547    674.22  77634.20
         Mo        10.221            3.547    674.22  77634.20
         S          3.858            3.128    251.62  12327.25
         S          3.859            3.128    251.62  12327.25
         S          3.758            3.128    251.62  12327.25
         S          3.859            3.128    251.62  12327.25
         Mo        10.222            3.547    674.22  77634.20
         Mo        10.823            3.547    674.22  77634.20
         S          3.865            3.128    251.62  12327.25
         S          3.853            3.128    251.62  12327.25
         S          3.859            3.128    251.62  12327.25
         S          4.653            3.128    251.62  12327.25
         Mo        10.208            3.547    674.22  77634.20
         Mo        10.221            3.547    674.22  77634.20
         S          3.858            3.128    251.62  12327.25
         S          3.859            3.128    251.62  12327.25
         S          3.758            3.128    251.62  12327.25
         S          3.859            3.128    251.62  12327.25
         Mo        10.220            3.547    674.22  77634.20
         Mo        10.191            3.547    674.22  77634.20
         S          3.847            3.128    251.62  12327.25
         S          3.856            3.128    251.62  12327.25
         S          3.859            3.128    251.62  12327.25
         S          3.806            3.128    251.62  12327.25
         Mo        10.208            3.547    674.21  77634.20
         Mo        10.221            3.547    674.22  77634.20
         S          3.858            3.128    251.62  12327.25
         S          3.859            3.128    251.62  12327.25
         S          3.758            3.128    251.62  12327.25
         S          3.859            3.128    251.62  12327.25
         Mo        10.220            3.547    674.22  77634.20
         Mo        10.230            3.547    674.22  77634.20
         S          3.862            3.128    251.62  12327.25
         S          3.860            3.128    251.62  12327.25
         S          3.859            3.128    251.62  12327.25
         S          3.766            3.128    251.62  12327.25
         Mo        10.208            3.547    674.22  77634.20
         Mo        10.221            3.547    674.21  77634.20
         S          3.858            3.128    251.62  12327.25
         S          3.859            3.128    251.62  12327.25
         S          3.758            3.128    251.62  12327.25
         S          3.859            3.128    251.62  12327.25
         Mo        10.221            3.547    674.22  77634.20
         Mo        10.230            3.547    674.22  77634.20
         S          3.855            3.128    251.62  12327.25
         S          3.860            3.128    251.62  12327.25
         S          3.859            3.128    251.62  12327.25
         S          3.762            3.128    251.62  12327.25
         Mo        10.208            3.547    674.22  77634.20
         Mo        10.221            3.547    674.22  77634.20
         S          3.858            3.128    251.62  12327.25
         S          3.859            3.128    251.62  12327.25
         S          3.758            3.128    251.62  12327.25
         S          3.859            3.128    251.62  12327.25
         Mo        10.222            3.547    674.22  77634.20
         Mo        10.191            3.547    674.22  77634.20
         S          3.865            3.128    251.62  12327.25
         S          3.856            3.128    251.62  12327.25
         S          3.859            3.128    251.62  12327.25
         S          4.653            3.128    251.62  12327.25
         Mo        10.208            3.547    674.22  77634.20
         Mo        10.221            3.547    674.22  77634.20
         S          3.858            3.128    251.62  12327.25
         S          3.859            3.128    251.62  12327.25
         S          3.758            3.128    251.62  12327.25
         S          3.859            3.128    251.62  12327.25
         Mo        10.221            3.547    674.22  77634.20
         Mo        10.191            3.547    674.22  77634.20
         S          3.855            3.128    251.62  12327.25
         S          3.856            3.128    251.62  12327.25
         S          3.859            3.128    251.62  12327.25
         S          3.756            3.128    251.62  12327.25
         Mo        10.208            3.547    674.22  77634.20
         Mo        10.221            3.547    674.22  77634.20
         S          3.858            3.128    251.62  12327.25
         S          3.859            3.128    251.62  12327.25
         S          3.758            3.128    251.62  12327.25
         S          3.859            3.128    251.62  12327.25
         Mo        10.220            3.547    674.22  77634.20
         Mo        10.247            3.547    674.22  77634.20
         S          3.862            3.128    251.62  12327.25
         S          3.860            3.128    251.62  12327.25
         S          3.859            3.128    251.62  12327.25
         S          3.766            3.128    251.62  12327.25
         Mo        10.208            3.547    674.22  77634.20
         Mo        10.220            3.547    674.22  77634.20
         S          3.858            3.128    251.62  12327.25
         S          3.859            3.128    251.62  12327.25
         S          3.758            3.128    251.62  12327.25
         S          3.859            3.128    251.62  12327.25
         Mo        10.220            3.547    674.22  77634.20
         Mo        10.230            3.547    674.22  77634.20
         S          3.862            3.128    251.62  12327.25
         S          3.860            3.128    251.62  12327.25
         S          3.859            3.128    251.62  12327.25
         S          3.765            3.128    251.62  12327.25
         Mo        10.208            3.547    674.22  77634.20
         Mo        10.221            3.547    674.22  77634.20
         S          3.858            3.128    251.62  12327.25
         S          3.859            3.128    251.62  12327.25
         S          3.758            3.128    251.62  12327.25
         S          3.859            3.128    251.62  12327.25
         Mo        10.220            3.547    674.22  77634.20
         Mo        10.244            3.547    674.22  77634.20
         S          3.847            3.128    251.62  12327.25
         S          3.860            3.128    251.62  12327.25
         S          3.859            3.128    251.62  12327.25
         S          3.805            3.128    251.62  12327.25
         Mo        10.208            3.547    674.22  77634.20
         Mo        10.221            3.547    674.22  77634.20
         S          3.858            3.128    251.62  12327.25
         S          3.859            3.128    251.62  12327.25
         S          3.758            3.128    251.62  12327.25
         S          3.859            3.128    251.62  12327.25
         Mo        10.220            3.547    674.22  77634.20
         Mo        10.234            3.547    674.22  77634.20
         S          3.847            3.128    251.62  12327.25
         S          3.861            3.128    251.62  12327.25
         S          3.859            3.128    251.62  12327.25
         S          3.806            3.128    251.62  12327.25
         Pd         3.780            3.168    554.41  50797.21
         Pd         3.058            3.168    573.90  52583.08

         Molecular C6 ( Ry / a.u.^6 ) =  13965063.64


     number of k points=     4  Gaussian smearing, width (Ry)=  0.0100
                       cart. coord. in units 2pi/alat
        k(    1) = (   0.0000000   0.0000000   0.0000000), wk =   0.5000000
        k(    2) = (   0.0000000  -0.5773499   0.0000000), wk =   0.5000000
        k(    3) = (  -0.5000000  -0.2886744   0.0000000), wk =   0.5000000
        k(    4) = (  -0.5000000  -0.8660242   0.0000000), wk =   0.5000000

     Dense  grid:  7154885 G-vectors     FFT dimensions: ( 180, 180, 512)

     Smooth grid:  3090769 G-vectors     FFT dimensions: ( 135, 135, 400)

     Estimated max dynamical RAM per process >       3.19 GB

     Estimated total dynamical RAM >     114.77 GB

     Atomic positions and unit cell read from directory:
     ./outdir/pwscf.save/
     Atomic positions from file used, from input discarded
 

     The initial density is read from file :
     ./outdir/pwscf.save/charge-density


     negative rho (up, down):  9.715E-04 0.000E+00
     Starting wfcs from file
     Checking if some PAW data can be deallocated... 
     Calculation restarted from scf iteration #    10

     total cpu time spent up to now is       26.9 secs

     Self-consistent Calculation

     iteration # 10     ecut=    77.00 Ry     beta= 0.20
     Calculation restarted from kpoint #     4
     Davidson diagonalization with overlap
     c_bands: 74 eigenvalues not converged
     ethr =  6.30E-12,  avg # of iterations = 39.2

     negative rho (up, down):  9.690E-04 0.000E+00

     total cpu time spent up to now is     1724.9 secs

     End of self-consistent calculation

          k = 0.0000 0.0000 0.0000 (386245 PWs)   bands (ev):

   -88.5871 -87.7454 -66.5784 -66.5784 -66.5772 -66.5735 -66.5618 -66.5573
   -66.5573 -66.5571 -66.5571 -66.5571 -66.5571 -66.5571 -66.5571 -66.5571
   -66.5570 -66.5569 -66.5568 -66.5558 -66.5558 -66.5558 -66.5558 -66.5558
   -66.5558 -66.5542 -66.5519 -66.5498 -66.5454 -66.5379 -66.5363 -66.5361
   -66.5360 -66.5358 -66.5357 -66.5357 -66.5357 -66.5357 -66.5357 -66.5357
   -66.5357 -66.5357 -66.5357 -66.5357 -66.5356 -66.5356 -66.5355 -66.5354
   -66.5352 -66.5344 -66.5344 -66.5344 -66.5344 -66.5344 -66.5344 -66.5344
   -66.5344 -66.5344 -66.5326 -66.5281 -66.5251 -66.5146 -66.5114 -66.5054
   -66.5015 -66.4956 -54.5251 -54.3518 -54.2709 -53.8251 -53.4817 -53.3474
   -40.9058 -40.9058 -40.9058 -40.9058 -40.9058 -40.9057 -40.9052 -40.9052
   -40.9052 -40.8954 -40.8936 -40.8904 -40.8306 -40.8306 -40.8306 -40.8305
   -40.8305 -40.8305 -40.8305 -40.8305 -40.8305 -40.8304 -40.8303 -40.8302
   -40.8298 -40.8298 -40.8298 -40.8298 -40.8298 -40.8298 -40.8253 -40.8195
   -40.8192 -40.8146 -40.8087 -40.8027 -40.7380 -40.7379 -40.7374 -40.7345
   -40.7043 -40.7042 -40.7042 -40.7042 -40.7042 -40.7042 -40.7042 -40.7041
   -40.7041 -40.7040 -40.7040 -40.7039 -40.7034 -40.7034 -40.7034 -40.7034
   -40.7033 -40.7033 -40.7021 -40.6983 -40.6972 -40.6964 -40.6964 -40.6963
   -40.6963 -40.6963 -40.6963 -40.6963 -40.6963 -40.6963 -40.6962 -40.6961
   -40.6960 -40.6959 -40.6957 -40.6957 -40.6957 -40.6957 -40.6957 -40.6957
   -40.6948 -40.6929 -40.6928 -40.6893 -40.6858 -40.6856 -40.6809 -40.6800
   -40.6693 -40.6692 -40.6691 -40.6691 -40.6691 -40.6691 -40.6691 -40.6691
   -40.6691 -40.6690 -40.6690 -40.6689 -40.6683 -40.6683 -40.6683 -40.6683
   -40.6683 -40.6683 -40.6675 -40.6594 -40.6572 -40.6569 -40.6551 -40.6545
   -40.6545 -40.6545 -40.6544 -40.6544 -40.6544 -40.6544 -40.6543 -40.6543
   -40.6543 -40.6543 -40.6543 -40.6543 -40.6542 -40.6542 -40.6541 -40.6540
   -40.6539 -40.6538 -40.6537 -40.6537 -40.6536 -40.6536 -40.6536 -40.6536
   -40.6536 -40.6536 -40.6536 -40.6505 -40.6502 -40.6499 -40.6457 -40.6442
   -40.6405 -40.6344 -40.6301 -40.6296 -40.5908 -40.5908 -40.5908 -40.5908
   -40.5908 -40.5906 -40.5899 -40.5899 -40.5899 -40.5804 -40.5772 -40.5706
   -40.5439 -40.5437 -40.5437 -40.5437 -40.5437 -40.5437 -40.5437 -40.5437
   -40.5436 -40.5436 -40.5435 -40.5433 -40.5427 -40.5427 -40.5427 -40.5427
   -40.5427 -40.5427 -40.5340 -40.5309 -40.5279 -40.5228 -40.5224 -40.5210
   -40.4961 -40.4961 -40.4960 -40.4960 -40.4951 -40.4950 -40.4765 -40.4718
   -20.0985 -20.0405 -19.9423 -19.8409 -19.5033 -19.2156 -19.2052 -19.2023
   -19.2022 -19.2007 -19.1918 -19.1663 -19.1506 -19.1402 -19.1396 -19.1360
   -19.1051 -19.0805 -19.0685 -19.0553 -19.0534 -19.0492 -18.9999 -18.9892
   -18.9850 -18.9794 -18.9778 -18.9754 -18.8480 -18.7349 -18.6349 -18.5509
   -18.4627 -18.4431 -18.4404 -18.4269 -18.4236 -18.4197 -18.3947 -18.3548
   -18.3464 -18.3216 -18.3200 -18.3110 -18.2767 -18.2300 -18.2298 -18.2110
   -18.2092 -18.2034 -18.1866 -18.1405 -18.1363 -18.1315 -18.1303 -18.1285
   -18.1255 -18.0978 -18.0769 -18.0768 -18.0757 -18.0754 -18.0739 -18.0705
   -18.0486 -18.0472 -18.0436 -18.0422 -18.0377 -18.0361 -18.0321 -18.0311
   -18.0282 -18.0127 -18.0072 -18.0054 -18.0036 -18.0016 -17.9985 -17.9956
   -17.9840 -17.9824 -17.9719 -17.9666 -17.9617 -17.9565 -17.9555 -17.9527
   -17.9495 -17.9376 -17.9353 -17.9341 -17.9038 -17.8996 -17.8851 -17.8795
   -17.8733 -17.8673 -17.8672 -17.8659 -17.8650 -17.8464 -17.8450 -17.8373
   -17.8317 -17.8251 -17.8204 -17.8189 -17.8159 -17.8137 -17.8103 -17.8090
   -17.8068 -17.7950 -17.7945 -17.7925 -17.7823 -17.7801 -17.7767 -17.7752
   -17.7725 -17.7709 -17.7509 -17.7506 -17.7493 -17.7488 -17.7476 -17.7468
   -11.9578 -11.9232 -11.7992 -11.7864 -11.7566 -11.7503 -11.7173 -11.6998
   -11.6316 -11.6073 -11.6003 -11.5127 -11.5083 -11.5044 -11.4847 -11.2912
   -11.2763 -11.2032 -11.1982 -11.1904 -11.1897 -11.1868 -11.1552 -11.1508
   -11.1213 -11.0897 -11.0878 -11.0855 -11.0824 -11.0758 -11.0700 -11.0322
   -11.0239 -11.0213 -11.0152 -11.0141 -11.0125 -11.0094 -11.0069 -11.0053
   -10.9934 -10.9803 -10.9727 -10.9408 -10.9396 -10.9284 -10.9147 -10.8963
   -10.8934 -10.8844 -10.8718 -10.8642 -10.8641 -10.8385 -10.8319 -10.8244
   -10.8097 -10.8083 -10.8036 -10.8031 -10.8017 -10.7992 -10.7867 -10.7807
   -10.7794 -10.7745 -10.7714 -10.7651 -10.7600 -10.7577 -10.7570 -10.7553
   -10.7543 -10.7515 -10.7504 -10.7502 -10.7309 -10.7272 -10.7257 -10.7231
   -10.7191 -10.7140 -10.7000 -10.6972 -10.6950 -10.6913 -10.6903 -10.6869
   -10.6842 -10.6837 -10.6834 -10.6219 -10.6070 -10.6040 -10.5739 -10.5403
   -10.5344 -10.5294 -10.5275 -10.5272 -10.4259 -10.2177 -10.1514 -10.1091
   -10.0426  -9.9486  -9.9306  -9.8862  -9.8661  -9.7770  -9.7726  -9.7581
    -9.7545  -9.7491  -9.7457  -9.7363  -9.7282  -9.7263  -9.7246  -9.7239
    -9.7208  -9.7176  -9.7136  -9.7115  -9.7041  -9.7014  -9.6982  -9.6898
    -9.6799  -9.6790  -9.6281  -9.6237  -9.5911  -9.5861  -9.5824  -9.5806
    -9.5772  -9.5745  -9.5727  -9.5722  -9.5699  -9.5685  -9.5677  -9.5670
    -9.5570  -9.5495  -9.5402  -9.5351  -9.4966  -9.4962  -9.4955  -9.4952
    -9.4952  -9.4948  -9.4877  -9.4872  -9.4719  -9.4719  -9.4626  -9.4621
    -9.4505  -9.4484  -9.4127  -9.4115  -9.4013  -9.3993  -9.3140  -9.3121
    -9.3078  -9.2952  -9.2929  -9.2818  -9.2784  -9.2770  -9.2763  -9.2714
    -9.2615  -9.2559  -9.2214  -9.1952  -9.1800  -9.1784  -9.1737  -9.1662
    -9.1418  -9.1381  -9.1340  -9.1332  -9.1315  -9.1287  -9.1033  -9.0905
    -9.0829  -9.0718  -9.0714  -9.0549  -9.0403  -8.9785  -8.9667  -8.9368
    -8.9363  -8.9336  -8.9319  -8.9162  -8.9066  -8.9039  -8.8942  -8.8831
    -8.8811  -8.8796  -8.8760  -8.8703  -8.8703  -8.8665  -8.8420  -8.8411
    -8.8340  -8.8239  -8.7991  -8.7885  -8.7753  -8.7750  -8.7745  -8.7744
    -8.7740  -8.7739  -8.6994  -8.6932  -8.6923  -8.6907  -8.6828  -8.6777
    -8.6198  -8.6117  -8.6077  -8.6063  -8.6004  -8.5925  -8.5472  -8.5445
    -8.5431  -8.5429  -8.5406  -8.5376  -8.5171  -8.3966  -8.3527  -8.3359
    -8.3205  -8.3205  -8.3156  -8.3154  -8.3091  -8.3090  -8.2835  -8.2828
    -8.2490  -8.2351  -8.2335  -8.2329  -8.2296  -8.2294  -8.2267  -8.2183
    -8.2156  -8.2129  -8.2027  -8.2025  -8.1994  -8.1939  -8.1927  -8.1885
    -8.1748  -8.1747  -8.1735  -8.1718  -8.1717  -8.1697  -8.0464  -7.9956
    -7.8963  -7.8280  -7.8202  -7.8117  -7.7921  -7.7635  -7.7408  -7.7033
    -7.6900  -7.6759  -7.6130  -7.6121  -7.6033  -7.5943  -7.5910  -7.5804
    -7.5786  -7.5720  -7.5621  -7.5351  -7.5346  -7.5259  -7.5198  -7.5031
    -7.5024  -7.4945  -7.4920  -7.4913  -7.4910  -7.4880  -7.4854  -7.4794
    -7.4746  -7.4734  -7.4690  -7.4613  -7.4597  -7.4571  -7.4545  -7.4525
    -7.4450  -7.4366  -7.4364  -7.4353  -7.4350  -7.4335  -7.4297  -7.4124
    -7.4063  -7.4059  -7.3870  -7.3785  -7.3734  -7.3652  -7.3637  -7.3606
    -7.3566  -7.3549  -7.3499  -7.3029  -7.2916  -7.2779  -7.2653  -7.2646
    -7.2524  -7.2493  -7.2467  -7.2462  -7.2426  -7.2374  -7.2326  -7.2148
    -7.2079  -7.2029  -7.1966  -7.1848  -7.1810  -7.1675  -7.1663  -7.1629
    -7.0771  -7.0671  -7.0629  -7.0516  -7.0245  -7.0008  -6.9495  -6.9108
    -6.8571  -6.8302  -6.8181  -6.8118  -6.7971  -6.7909  -6.7571  -6.7373
    -6.7355  -6.7117  -6.7116  -6.6722  -6.6708  -6.6497  -6.6444  -6.6237
    -6.5947  -6.5883  -6.5849  -6.5739  -6.5688  -6.5682  -6.5668  -6.5574
    -6.5365  -6.5188  -6.5144  -6.5070  -6.4997  -6.4914  -6.4891  -6.4722
    -6.4699  -6.4672  -6.4652  -6.4644  -6.4599  -6.4595  -6.4582  -6.4523
    -6.4513  -6.4512  -6.4509  -6.4509  -6.4507  -6.4491  -6.4301  -6.4226
    -6.4039  -6.3909  -6.3839  -6.3827  -6.3628  -6.3617  -6.3605  -6.2992
    -6.2936  -6.2922  -6.2912  -6.2870  -6.2847  -6.2758  -6.2703  -6.2641
    -6.2641  -6.2492  -6.2446  -6.2385  -6.2376  -6.2316  -6.2299  -6.2106
    -6.2078  -6.2055  -6.2053  -6.2036  -6.2026  -6.1741  -6.1686  -6.1011
    -6.0610  -6.0286  -5.7944  -5.7332  -5.6304  -5.4437  -5.3534  -5.2942
    -5.2413  -5.1095  -3.9568  -3.8752  -3.8108  -3.8045  -3.8023  -3.7987
    -3.7803  -3.7802  -3.7783  -3.7780  -3.7767  -3.7743  -3.7399  -3.7180
    -3.6620  -3.6489  -3.6435  -3.6356  -3.6321  -3.6320  -3.6307  -3.6296
    -3.6261  -3.6196  -3.5110  -3.4935  -3.4640  -3.4566  -3.4543  -3.4489
    -3.4382  -3.4336  -3.4299  -3.4277  -3.4270  -3.4260  -3.4235  -3.4218
    -3.4116  -3.4087  -3.4083  -3.3964  -3.3961  -3.3960  -3.3954  -3.3852
    -3.3818  -3.3813  -3.3801  -3.3702  -3.3673  -3.3673  -3.3645  -3.3636
    -3.3634  -3.3554  -3.3552  -3.3544  -3.3506  -3.3415  -3.3074  -3.3014
    -3.2984  -3.2984  -3.2968  -3.2956  -3.2931  -3.2931  -3.2911  -3.2831
    -3.2773  -3.2627  -3.2396  -3.2368  -3.2365  -3.2356  -3.2295  -3.2274
    -3.2123  -3.1933  -3.1691  -3.1612  -3.1572  -3.1529  -3.0270  -3.0183
    -3.0157  -3.0152  -3.0120  -3.0120  -3.0035  -2.9942  -2.9942  -2.9866
    -2.9609  -2.9350  -2.9320  -2.9299  -2.9266  -2.9259  -2.9248  -2.9196
    -2.9172  -2.9166  -2.9155  -2.9138  -2.9105  -2.9085  -2.9084  -2.9008
    -2.9000  -2.8969  -2.8958  -2.8927  -2.8869  -2.8854  -2.8852  -2.8846
    -2.8838  -2.8837  -2.8834  -2.8820  -2.8430  -2.8291  -2.8290  -2.8207
    -2.8124  -2.8054  -2.7894  -2.7876  -2.7799  -2.7606  -2.7606  -2.7606
    -2.7606  -2.7605  -2.7605  -2.7561  -2.7555  -2.7548  -2.7441  -2.7434
    -2.7218  -2.7072  -2.7003  -2.6957  -2.6920  -2.6884  -2.6883  -2.6744
    -2.6322  -2.6245  -2.5926  -2.5904  -2.5813  -2.5782  -2.5774  -2.5736
    -2.5719  -2.5713  -2.5609  -2.5143  -2.5070  -2.5011  -2.4983  -2.4945
    -2.4291  -2.3718  -2.3638  -2.3631

          k = 0.0000-0.5773 0.0000 (386352 PWs)   bands (ev):

   -88.5871 -87.7454 -66.5722 -66.5722 -66.5722 -66.5720 -66.5709 -66.5709
   -66.5696 -66.5681 -66.5615 -66.5615 -66.5615 -66.5614 -66.5603 -66.5603
   -66.5543 -66.5529 -66.5466 -66.5465 -66.5464 -66.5464 -66.5464 -66.5464
   -66.5462 -66.5462 -66.5462 -66.5451 -66.5451 -66.5451 -66.5451 -66.5434
   -66.5420 -66.5420 -66.5420 -66.5418 -66.5407 -66.5407 -66.5397 -66.5360
   -66.5357 -66.5357 -66.5357 -66.5357 -66.5356 -66.5355 -66.5354 -66.5350
   -66.5344 -66.5344 -66.5344 -66.5344 -66.5343 -66.5313 -66.5313 -66.5312
   -66.5312 -66.5300 -66.5300 -66.5277 -66.5253 -66.5151 -66.5110 -66.5060
   -66.5009 -66.4957 -54.5251 -54.3518 -54.2709 -53.8251 -53.4817 -53.3474
   -40.8744 -40.8742 -40.8742 -40.8742 -40.8742 -40.8741 -40.8741 -40.8740
   -40.8736 -40.8735 -40.8735 -40.8735 -40.8670 -40.8626 -40.8602 -40.8548
   -40.8474 -40.8474 -40.8474 -40.8473 -40.8467 -40.8467 -40.8423 -40.8387
   -40.8353 -40.8353 -40.8353 -40.8353 -40.8347 -40.8347 -40.8217 -40.8063
   -40.7846 -40.7846 -40.7846 -40.7846 -40.7846 -40.7846 -40.7846 -40.7845
   -40.7839 -40.7839 -40.7839 -40.7839 -40.7747 -40.7664 -40.7660 -40.7605
   -40.7258 -40.7258 -40.7258 -40.7257 -40.7252 -40.7252 -40.7238 -40.7218
   -40.7164 -40.7164 -40.7164 -40.7162 -40.7155 -40.7155 -40.7050 -40.7050
   -40.7049 -40.7049 -40.7043 -40.7043 -40.7034 -40.7009 -40.6994 -40.6962
   -40.6789 -40.6755 -40.6754 -40.6754 -40.6754 -40.6753 -40.6753 -40.6751
   -40.6751 -40.6747 -40.6747 -40.6747 -40.6747 -40.6735 -40.6722 -40.6693
   -40.6666 -40.6666 -40.6666 -40.6665 -40.6659 -40.6659 -40.6642 -40.6549
   -40.6549 -40.6549 -40.6547 -40.6545 -40.6544 -40.6543 -40.6543 -40.6543
   -40.6543 -40.6543 -40.6541 -40.6540 -40.6540 -40.6540 -40.6536 -40.6536
   -40.6536 -40.6536 -40.6519 -40.6507 -40.6467 -40.6456 -40.6456 -40.6456
   -40.6456 -40.6449 -40.6449 -40.6426 -40.6393 -40.6364 -40.6360 -40.6276
   -40.6242 -40.6239 -40.6239 -40.6239 -40.6239 -40.6239 -40.6237 -40.6237
   -40.6230 -40.6230 -40.6230 -40.6230 -40.6130 -40.6119 -40.6092 -40.6091
   -40.5892 -40.5892 -40.5892 -40.5892 -40.5892 -40.5892 -40.5891 -40.5890
   -40.5883 -40.5883 -40.5883 -40.5883 -40.5796 -40.5771 -40.5770 -40.5770
   -40.5769 -40.5761 -40.5761 -40.5756 -40.5714 -40.5671 -40.5610 -40.5579
   -40.5577 -40.5577 -40.5575 -40.5568 -40.5568 -40.5520 -40.5500 -40.5407
   -40.5407 -40.5407 -40.5406 -40.5398 -40.5398 -40.5372 -40.5228 -40.5101
   -40.5101 -40.5101 -40.5099 -40.5091 -40.5091 -40.5065 -40.4954 -40.4876
   -19.9343 -19.8376 -19.8191 -19.7716 -19.7206 -19.6805 -19.6124 -19.5965
   -19.4361 -19.4003 -19.3780 -19.3390 -19.2878 -19.2528 -19.1859 -19.1711
   -18.9913 -18.7448 -18.7192 -18.6901 -18.6896 -18.6823 -18.6772 -18.6555
   -18.6493 -18.6284 -18.6216 -18.6104 -18.5893 -18.5802 -18.5683 -18.5550
   -18.5298 -18.5234 -18.5124 -18.5005 -18.4998 -18.4884 -18.4717 -18.4598
   -18.4440 -18.4307 -18.4210 -18.4149 -18.4101 -18.3885 -18.3621 -18.3591
   -18.3527 -18.3280 -18.2992 -18.2941 -18.2836 -18.2685 -18.2208 -18.2110
   -18.1984 -18.1933 -18.1844 -18.1728 -18.1468 -18.1232 -18.1083 -18.0865
   -18.0761 -18.0625 -18.0610 -18.0577 -18.0559 -18.0543 -18.0462 -18.0447
   -18.0322 -18.0241 -18.0214 -18.0187 -18.0182 -18.0031 -18.0021 -18.0015
   -17.9956 -17.9907 -17.9879 -17.9806 -17.9594 -17.9587 -17.9537 -17.9526
   -17.9491 -17.9480 -17.9437 -17.9388 -17.9362 -17.9280 -17.8922 -17.8920
   -17.8862 -17.8819 -17.8784 -17.8682 -17.8423 -17.8353 -17.8326 -17.8239
   -17.8001 -17.7967 -17.7949 -17.7905 -17.7771 -17.7729 -17.7726 -17.7717
   -17.7714 -17.7702 -17.7662 -17.7605 -17.7552 -17.7445 -17.7362 -17.7287
   -17.7126 -17.7105 -17.6928 -17.6910 -17.6790 -17.6775 -17.6725 -17.6722
   -11.7740 -11.7633 -11.6677 -11.6033 -11.5305 -11.5004 -11.4679 -11.4632
   -11.4420 -11.4411 -11.4344 -11.4259 -11.4206 -11.3902 -11.3883 -11.3493
   -11.3332 -11.3332 -11.3228 -11.3041 -11.2883 -11.2725 -11.2693 -11.2434
   -11.2299 -11.2243 -11.2209 -11.2159 -11.2132 -11.2093 -11.2047 -11.1880
   -11.1879 -11.1611 -11.1441 -11.1367 -11.1293 -11.1258 -11.1213 -11.1190
   -11.1177 -11.1005 -11.0968 -11.0948 -11.0654 -11.0613 -11.0309 -11.0163
   -11.0152 -11.0015 -10.9680 -10.9233 -10.9097 -10.8969 -10.8865 -10.8670
   -10.8526 -10.8445 -10.8378 -10.8241 -10.8098 -10.7960 -10.7868 -10.7790
   -10.7749 -10.7661 -10.7654 -10.7646 -10.7642 -10.7602 -10.7585 -10.7473
   -10.7462 -10.7442 -10.7440 -10.7427 -10.7410 -10.7402 -10.7367 -10.7318
   -10.7306 -10.7098 -10.6968 -10.6961 -10.6955 -10.6915 -10.5915 -10.4943
   -10.4880 -10.4733 -10.4687 -10.4368 -10.4261 -10.3430 -10.3385 -10.2236
   -10.2189 -10.2056 -10.1139 -10.1050 -10.0899 -10.0813 -10.0572 -10.0561
   -10.0353 -10.0304 -10.0153 -10.0135 -10.0035  -9.9973  -9.9794  -9.9791
    -9.9726  -9.9643  -9.9444  -9.9403  -9.8956  -9.8852  -9.8729  -9.8701
    -9.8688  -9.8609  -9.8501  -9.8491  -9.8345  -9.8117  -9.8086  -9.7941
    -9.7856  -9.7516  -9.7380  -9.7305  -9.7128  -9.7120  -9.7027  -9.7000
    -9.6818  -9.6714  -9.6414  -9.6305  -9.6268  -9.6130  -9.5984  -9.5892
    -9.5664  -9.5640  -9.5523  -9.5322  -9.5095  -9.5055  -9.4942  -9.4920
    -9.4869  -9.4865  -9.4710  -9.4609  -9.4408  -9.4399  -9.4237  -9.4215
    -9.4200  -9.4115  -9.4075  -9.4062  -9.3864  -9.3854  -9.3783  -9.3746
    -9.3276  -9.3097  -9.2714  -9.2334  -9.2063  -9.2035  -9.1965  -9.1666
    -9.1592  -9.1446  -9.1378  -9.1264  -9.1157  -9.1130  -9.0870  -9.0732
    -9.0706  -9.0612  -9.0421  -9.0405  -9.0149  -8.9919  -8.9890  -8.9857
    -8.9781  -8.9769  -8.9766  -8.9638  -8.9234  -8.9185  -8.9155  -8.9076
    -8.9000  -8.8920  -8.8883  -8.8770  -8.8605  -8.8439  -8.8430  -8.8372
    -8.8351  -8.8296  -8.8235  -8.8226  -8.8210  -8.8176  -8.8167  -8.8138
    -8.8023  -8.7997  -8.7960  -8.7939  -8.7922  -8.7908  -8.7818  -8.7732
    -8.7577  -8.7516  -8.7432  -8.7377  -8.7357  -8.7350  -8.7338  -8.7292
    -8.7138  -8.7043  -8.6854  -8.6831  -8.6766  -8.6756  -8.6633  -8.6486
    -8.6074  -8.5985  -8.5871  -8.5563  -8.5290  -8.4795  -8.4565  -8.4460
    -8.3984  -8.3785  -8.3375  -8.3078  -8.3003  -8.2584  -8.2529  -8.2094
    -8.1353  -8.0821  -8.0808  -8.0772  -8.0721  -8.0682  -8.0606  -8.0589
    -8.0199  -8.0194  -8.0066  -7.9682  -7.9253  -7.9185  -7.9084  -7.8502
    -7.8283  -7.8110  -7.7988  -7.7959  -7.7931  -7.7834  -7.7740  -7.7653
    -7.7645  -7.7637  -7.7593  -7.7479  -7.7467  -7.7466  -7.7431  -7.7430
    -7.7373  -7.7356  -7.7339  -7.7295  -7.7250  -7.7239  -7.7209  -7.7208
    -7.7174  -7.7150  -7.7115  -7.7111  -7.7054  -7.7025  -7.6980  -7.6894
    -7.6796  -7.6768  -7.6742  -7.6714  -7.6629  -7.6538  -7.6478  -7.6477
    -7.6465  -7.6431  -7.6195  -7.6193  -7.6181  -7.6163  -7.6023  -7.5983
    -7.5783  -7.5726  -7.5613  -7.5591  -7.5561  -7.5535  -7.5485  -7.5455
    -7.5455  -7.5366  -7.5340  -7.5318  -7.5167  -7.5165  -7.5114  -7.5018
    -7.4963  -7.4955  -7.4455  -7.4130  -7.4116  -7.4077  -7.4055  -7.3881
    -7.3719  -7.3023  -7.2255  -7.1677  -7.1572  -7.1231  -7.1221  -7.1185
    -7.1165  -7.0748  -7.0723  -7.0646  -7.0581  -7.0574  -7.0475  -7.0143
    -6.9963  -6.9870  -6.9838  -6.9770  -6.9674  -6.9493  -6.9389  -6.9297
    -6.9265  -6.9055  -6.8914  -6.8659  -6.8558  -6.8492  -6.8346  -6.8278
    -6.8188  -6.8119  -6.8075  -6.8055  -6.7726  -6.7379  -6.7234  -6.7105
    -6.6961  -6.6689  -6.6350  -6.6277  -6.6167  -6.6072  -6.5893  -6.5734
    -6.5667  -6.5606  -6.5600  -6.5567  -6.5567  -6.5450  -6.5441  -6.5400
    -6.5393  -6.5339  -6.5333  -6.5318  -6.5316  -6.5297  -6.5294  -6.4756
    -6.4536  -6.4326  -6.3990  -6.3649  -6.3516  -6.2921  -6.2903  -6.2783
    -6.2740  -6.2582  -6.2498  -6.2465  -6.2461  -6.2302  -6.2298  -6.2297
    -6.2253  -6.2252  -6.2086  -6.2055  -6.1929  -6.1908  -6.1825  -6.1654
    -6.1560  -6.1543  -6.1533  -6.1504  -6.0964  -6.0366  -6.0111  -5.9564
    -5.9536  -5.9206  -5.9158  -5.8670  -5.8611  -5.8155  -5.8037  -5.8028
    -5.7878  -5.7784  -5.7228  -5.6368  -5.6188  -5.5486  -5.5411  -5.4029
    -5.3509  -5.2607  -4.0671  -4.0517  -4.0428  -4.0385  -3.9506  -3.8971
    -3.8916  -3.8737  -3.8669  -3.8603  -3.7940  -3.7930  -3.7882  -3.7778
    -3.7751  -3.7617  -3.7582  -3.7502  -3.7500  -3.7416  -3.6812  -3.6643
    -3.6326  -3.6294  -3.5898  -3.5629  -3.5550  -3.5513  -3.5513  -3.5506
    -3.5052  -3.5035  -3.5020  -3.4795  -3.4775  -3.4726  -3.4675  -3.4652
    -3.4503  -3.4474  -3.4314  -3.4296  -3.4267  -3.4247  -3.4236  -3.4199
    -3.4075  -3.3987  -3.3966  -3.3852  -3.3754  -3.3685  -3.3669  -3.3625
    -3.3358  -3.3232  -3.3052  -3.3006  -3.2964  -3.2962  -3.2934  -3.2919
    -3.2854  -3.2647  -3.2597  -3.2543  -3.2398  -3.2365  -3.2320  -3.2318
    -3.2294  -3.2283  -3.2227  -3.2155  -3.1928  -3.1925  -3.1857  -3.1855
    -3.1776  -3.1740  -3.1628  -3.1610  -3.1601  -3.1506  -3.1439  -3.1346
    -3.1249  -3.1224  -3.1174  -3.1157  -3.1133  -3.1133  -3.1127  -3.0828
    -3.0564  -3.0553  -3.0332  -3.0239  -3.0235  -3.0209  -3.0140  -3.0114
    -2.9766  -2.9746  -2.9736  -2.9730  -2.9729  -2.9722  -2.9676  -2.9637
    -2.9590  -2.9579  -2.9559  -2.9543  -2.9423  -2.9388  -2.9290  -2.9254
    -2.9236  -2.9229  -2.9198  -2.9181  -2.9087  -2.9075  -2.8996  -2.8985
    -2.8951  -2.8936  -2.8905  -2.8832  -2.8809  -2.8730  -2.8484  -2.8424
    -2.8395  -2.8365  -2.8299  -2.8253  -2.8194  -2.8153  -2.7466  -2.7446
    -2.7413  -2.7381  -2.6864  -2.6682  -2.6678  -2.6595  -2.5671  -2.5666
    -2.5643  -2.5348  -2.5294  -2.5238  -2.5151  -2.4957  -2.4901  -2.4837
    -2.4771  -2.4759  -2.4746  -2.4692  -2.4531  -2.3693  -2.3595  -2.3479
    -2.3465  -2.3422  -2.3355  -2.3191

          k =-0.5000-0.2887 0.0000 (386352 PWs)   bands (ev):

   -88.5871 -87.7454 -66.5722 -66.5722 -66.5722 -66.5720 -66.5712 -66.5709
   -66.5709 -66.5655 -66.5615 -66.5615 -66.5615 -66.5614 -66.5603 -66.5603
   -66.5544 -66.5537 -66.5479 -66.5465 -66.5464 -66.5464 -66.5464 -66.5464
   -66.5464 -66.5463 -66.5462 -66.5451 -66.5451 -66.5451 -66.5451 -66.5432
   -66.5420 -66.5420 -66.5420 -66.5418 -66.5407 -66.5407 -66.5382 -66.5359
   -66.5357 -66.5357 -66.5357 -66.5357 -66.5357 -66.5356 -66.5354 -66.5353
   -66.5344 -66.5344 -66.5344 -66.5344 -66.5335 -66.5313 -66.5313 -66.5312
   -66.5312 -66.5300 -66.5300 -66.5275 -66.5259 -66.5152 -66.5115 -66.5054
   -66.5012 -66.4956 -54.5251 -54.3518 -54.2709 -53.8251 -53.4817 -53.3474
   -40.8743 -40.8742 -40.8742 -40.8742 -40.8742 -40.8742 -40.8741 -40.8740
   -40.8735 -40.8735 -40.8735 -40.8735 -40.8729 -40.8660 -40.8598 -40.8474
   -40.8474 -40.8474 -40.8472 -40.8467 -40.8467 -40.8441 -40.8422 -40.8353
   -40.8353 -40.8353 -40.8352 -40.8347 -40.8347 -40.8342 -40.8187 -40.8127
   -40.7847 -40.7846 -40.7846 -40.7846 -40.7846 -40.7846 -40.7846 -40.7845
   -40.7839 -40.7839 -40.7839 -40.7839 -40.7707 -40.7706 -40.7688 -40.7628
   -40.7260 -40.7258 -40.7258 -40.7258 -40.7257 -40.7252 -40.7252 -40.7188
   -40.7164 -40.7164 -40.7163 -40.7163 -40.7155 -40.7155 -40.7050 -40.7050
   -40.7050 -40.7049 -40.7049 -40.7043 -40.7043 -40.7009 -40.6986 -40.6970
   -40.6773 -40.6763 -40.6754 -40.6754 -40.6754 -40.6753 -40.6753 -40.6753
   -40.6752 -40.6751 -40.6747 -40.6747 -40.6747 -40.6747 -40.6720 -40.6666
   -40.6666 -40.6666 -40.6665 -40.6659 -40.6659 -40.6656 -40.6632 -40.6592
   -40.6549 -40.6549 -40.6548 -40.6548 -40.6544 -40.6543 -40.6543 -40.6543
   -40.6543 -40.6543 -40.6543 -40.6540 -40.6540 -40.6540 -40.6536 -40.6536
   -40.6536 -40.6536 -40.6526 -40.6498 -40.6458 -40.6456 -40.6456 -40.6456
   -40.6455 -40.6449 -40.6449 -40.6426 -40.6390 -40.6360 -40.6334 -40.6282
   -40.6241 -40.6240 -40.6239 -40.6239 -40.6239 -40.6239 -40.6238 -40.6236
   -40.6230 -40.6230 -40.6230 -40.6230 -40.6166 -40.6142 -40.6113 -40.5973
   -40.5892 -40.5892 -40.5892 -40.5892 -40.5892 -40.5892 -40.5891 -40.5891
   -40.5883 -40.5883 -40.5883 -40.5883 -40.5773 -40.5771 -40.5770 -40.5770
   -40.5769 -40.5761 -40.5761 -40.5736 -40.5720 -40.5683 -40.5657 -40.5578
   -40.5577 -40.5577 -40.5575 -40.5568 -40.5568 -40.5501 -40.5459 -40.5415
   -40.5407 -40.5407 -40.5407 -40.5406 -40.5398 -40.5398 -40.5214 -40.5131
   -40.5101 -40.5101 -40.5101 -40.5099 -40.5091 -40.5091 -40.5017 -40.4792
   -19.9381 -19.8364 -19.8192 -19.7677 -19.7205 -19.6752 -19.6122 -19.5941
   -19.4412 -19.4024 -19.3791 -19.3440 -19.2884 -19.2578 -19.1860 -19.1731
   -18.9799 -18.7329 -18.7250 -18.6910 -18.6868 -18.6831 -18.6770 -18.6521
   -18.6480 -18.6325 -18.6226 -18.6046 -18.5963 -18.5807 -18.5681 -18.5596
   -18.5285 -18.5242 -18.5097 -18.4994 -18.4959 -18.4928 -18.4740 -18.4582
   -18.4393 -18.4305 -18.4216 -18.4158 -18.4068 -18.3865 -18.3625 -18.3558
   -18.3515 -18.3251 -18.3135 -18.2946 -18.2800 -18.2664 -18.2448 -18.2034
   -18.1979 -18.1885 -18.1799 -18.1762 -18.1519 -18.1199 -18.1034 -18.0930
   -18.0838 -18.0719 -18.0611 -18.0552 -18.0550 -18.0547 -18.0516 -18.0332
   -18.0277 -18.0256 -18.0227 -18.0200 -18.0155 -18.0087 -18.0073 -17.9988
   -17.9909 -17.9888 -17.9853 -17.9818 -17.9629 -17.9558 -17.9539 -17.9520
   -17.9503 -17.9454 -17.9435 -17.9378 -17.9364 -17.9273 -17.8991 -17.8894
   -17.8868 -17.8769 -17.8765 -17.8669 -17.8433 -17.8318 -17.8306 -17.8233
   -17.8001 -17.7951 -17.7927 -17.7899 -17.7746 -17.7731 -17.7724 -17.7716
   -17.7705 -17.7699 -17.7642 -17.7625 -17.7526 -17.7517 -17.7348 -17.7330
   -17.7128 -17.7108 -17.6940 -17.6909 -17.6801 -17.6778 -17.6726 -17.6723
   -11.7971 -11.7729 -11.6688 -11.6032 -11.5147 -11.4712 -11.4672 -11.4662
   -11.4509 -11.4370 -11.4305 -11.4264 -11.3991 -11.3879 -11.3843 -11.3546
   -11.3446 -11.3336 -11.3084 -11.2865 -11.2852 -11.2785 -11.2707 -11.2544
   -11.2427 -11.2268 -11.2177 -11.2139 -11.2111 -11.2078 -11.2072 -11.1987
   -11.1873 -11.1593 -11.1539 -11.1355 -11.1330 -11.1223 -11.1198 -11.1196
   -11.1177 -11.0981 -11.0968 -11.0924 -11.0704 -11.0671 -11.0231 -11.0175
   -11.0144 -11.0065 -10.9603 -10.9242 -10.9209 -10.9117 -10.8799 -10.8717
   -10.8539 -10.8421 -10.8309 -10.8267 -10.7978 -10.7926 -10.7854 -10.7762
   -10.7713 -10.7678 -10.7656 -10.7646 -10.7631 -10.7575 -10.7522 -10.7491
   -10.7464 -10.7442 -10.7434 -10.7424 -10.7410 -10.7404 -10.7331 -10.7325
   -10.7216 -10.7158 -10.6966 -10.6960 -10.6945 -10.6933 -10.5824 -10.5045
   -10.4860 -10.4779 -10.4665 -10.4367 -10.4256 -10.3634 -10.3304 -10.2618
   -10.1972 -10.1890 -10.1213 -10.0997 -10.0933 -10.0814 -10.0707 -10.0538
   -10.0411 -10.0400 -10.0180 -10.0061 -10.0037  -9.9865  -9.9797  -9.9754
    -9.9699  -9.9640  -9.9593  -9.9307  -9.9051  -9.8908  -9.8786  -9.8696
    -9.8618  -9.8522  -9.8509  -9.8495  -9.8387  -9.8202  -9.8057  -9.7949
    -9.7861  -9.7566  -9.7456  -9.7380  -9.7179  -9.7140  -9.7056  -9.6867
    -9.6789  -9.6686  -9.6613  -9.6389  -9.6274  -9.6159  -9.5976  -9.5951
    -9.5681  -9.5601  -9.5548  -9.5412  -9.5142  -9.4994  -9.4959  -9.4916
    -9.4886  -9.4854  -9.4726  -9.4607  -9.4427  -9.4384  -9.4253  -9.4249
    -9.4176  -9.4138  -9.4091  -9.4083  -9.3835  -9.3797  -9.3740  -9.3724
    -9.3126  -9.3064  -9.2473  -9.2211  -9.2150  -9.2073  -9.1673  -9.1639
    -9.1532  -9.1477  -9.1372  -9.1350  -9.1248  -9.1103  -9.0875  -9.0738
    -9.0670  -9.0543  -9.0403  -9.0222  -9.0115  -9.0060  -8.9915  -8.9875
    -8.9779  -8.9768  -8.9716  -8.9670  -8.9301  -8.9180  -8.9147  -8.9077
    -8.9005  -8.8933  -8.8850  -8.8751  -8.8566  -8.8438  -8.8397  -8.8368
    -8.8348  -8.8328  -8.8252  -8.8232  -8.8214  -8.8188  -8.8166  -8.8126
    -8.8069  -8.8018  -8.7963  -8.7927  -8.7912  -8.7843  -8.7786  -8.7758
    -8.7624  -8.7515  -8.7452  -8.7374  -8.7361  -8.7343  -8.7325  -8.7296
    -8.7152  -8.7037  -8.6861  -8.6819  -8.6755  -8.6749  -8.6679  -8.6490
    -8.6101  -8.6006  -8.5987  -8.5393  -8.5212  -8.4792  -8.4549  -8.4475
    -8.3930  -8.3867  -8.3400  -8.3084  -8.2980  -8.2404  -8.2170  -8.2016
    -8.1591  -8.0810  -8.0807  -8.0732  -8.0718  -8.0623  -8.0604  -8.0542
    -8.0353  -8.0269  -8.0099  -7.9753  -7.9298  -7.9209  -7.9061  -7.8591
    -7.8204  -7.8100  -7.8003  -7.7941  -7.7905  -7.7812  -7.7777  -7.7671
    -7.7647  -7.7619  -7.7550  -7.7537  -7.7509  -7.7444  -7.7414  -7.7402
    -7.7379  -7.7360  -7.7341  -7.7274  -7.7247  -7.7223  -7.7208  -7.7193
    -7.7175  -7.7153  -7.7122  -7.7099  -7.7080  -7.7032  -7.6973  -7.6935
    -7.6831  -7.6797  -7.6754  -7.6669  -7.6615  -7.6518  -7.6486  -7.6478
    -7.6466  -7.6451  -7.6240  -7.6190  -7.6186  -7.6181  -7.6160  -7.6008
    -7.5943  -7.5786  -7.5637  -7.5610  -7.5580  -7.5573  -7.5493  -7.5480
    -7.5448  -7.5381  -7.5323  -7.5189  -7.5169  -7.5154  -7.5091  -7.5053
    -7.4950  -7.4900  -7.4683  -7.4135  -7.4099  -7.4062  -7.4049  -7.3775
    -7.3676  -7.2886  -7.2399  -7.1636  -7.1479  -7.1269  -7.1194  -7.1182
    -7.1143  -7.0926  -7.0729  -7.0628  -7.0597  -7.0535  -7.0521  -7.0409
    -7.0048  -6.9834  -6.9808  -6.9745  -6.9730  -6.9695  -6.9380  -6.9293
    -6.9040  -6.8877  -6.8712  -6.8658  -6.8563  -6.8394  -6.8297  -6.8248
    -6.8148  -6.8133  -6.8056  -6.7911  -6.7803  -6.7514  -6.7208  -6.7054
    -6.7041  -6.6818  -6.6425  -6.6273  -6.6069  -6.6008  -6.5748  -6.5733
    -6.5699  -6.5591  -6.5576  -6.5565  -6.5545  -6.5417  -6.5400  -6.5398
    -6.5389  -6.5348  -6.5319  -6.5317  -6.5317  -6.5313  -6.4850  -6.4715
    -6.4555  -6.4316  -6.3824  -6.3717  -6.3604  -6.3188  -6.2854  -6.2779
    -6.2771  -6.2678  -6.2568  -6.2527  -6.2391  -6.2308  -6.2303  -6.2278
    -6.2258  -6.2250  -6.2133  -6.2023  -6.1939  -6.1902  -6.1815  -6.1700
    -6.1566  -6.1555  -6.1531  -6.1499  -6.1066  -6.0803  -6.0614  -5.9562
    -5.9465  -5.9202  -5.8979  -5.8669  -5.8480  -5.8124  -5.8041  -5.7938
    -5.7843  -5.7649  -5.7230  -5.6233  -5.6185  -5.5445  -5.5415  -5.4124
    -5.3428  -5.2567  -4.0631  -4.0522  -4.0415  -4.0404  -3.9492  -3.9128
    -3.8804  -3.8734  -3.8653  -3.8628  -3.7949  -3.7931  -3.7850  -3.7768
    -3.7738  -3.7630  -3.7584  -3.7568  -3.7497  -3.7463  -3.6766  -3.6608
    -3.6347  -3.6298  -3.5803  -3.5725  -3.5539  -3.5523  -3.5519  -3.5500
    -3.5053  -3.5035  -3.4953  -3.4859  -3.4727  -3.4714  -3.4677  -3.4647
    -3.4619  -3.4464  -3.4327  -3.4294  -3.4254  -3.4242  -3.4221  -3.4183
    -3.4026  -3.3984  -3.3964  -3.3843  -3.3720  -3.3706  -3.3692  -3.3654
    -3.3376  -3.3231  -3.3006  -3.2998  -3.2970  -3.2959  -3.2949  -3.2925
    -3.2847  -3.2702  -3.2559  -3.2511  -3.2406  -3.2365  -3.2333  -3.2312
    -3.2294  -3.2278  -3.2242  -3.2097  -3.2015  -3.1909  -3.1900  -3.1823
    -3.1793  -3.1750  -3.1655  -3.1625  -3.1604  -3.1551  -3.1440  -3.1365
    -3.1303  -3.1230  -3.1202  -3.1188  -3.1133  -3.1133  -3.1107  -3.1067
    -3.0570  -3.0516  -3.0279  -3.0234  -3.0204  -3.0179  -3.0144  -3.0102
    -2.9765  -2.9759  -2.9742  -2.9732  -2.9725  -2.9715  -2.9643  -2.9630
    -2.9598  -2.9587  -2.9563  -2.9494  -2.9430  -2.9386  -2.9341  -2.9288
    -2.9214  -2.9195  -2.9174  -2.9169  -2.9129  -2.9077  -2.9006  -2.8984
    -2.8958  -2.8915  -2.8892  -2.8818  -2.8792  -2.8670  -2.8490  -2.8461
    -2.8375  -2.8327  -2.8281  -2.8222  -2.8215  -2.8060  -2.7483  -2.7477
    -2.7386  -2.7365  -2.6872  -2.6759  -2.6670  -2.6614  -2.5732  -2.5637
    -2.5623  -2.5344  -2.5262  -2.5239  -2.5227  -2.4959  -2.4928  -2.4832
    -2.4777  -2.4768  -2.4761  -2.4706  -2.4566  -2.3640  -2.3551  -2.3479
    -2.3413  -2.3382  -2.3272  -2.3181

          k =-0.5000-0.8660 0.0000 (386352 PWs)   bands (ev):

   -88.5871 -87.7454 -66.5722 -66.5722 -66.5722 -66.5720 -66.5712 -66.5709
   -66.5709 -66.5655 -66.5615 -66.5615 -66.5615 -66.5614 -66.5603 -66.5603
   -66.5544 -66.5537 -66.5479 -66.5465 -66.5464 -66.5464 -66.5464 -66.5464
   -66.5464 -66.5463 -66.5462 -66.5451 -66.5451 -66.5451 -66.5451 -66.5432
   -66.5420 -66.5420 -66.5420 -66.5418 -66.5407 -66.5407 -66.5382 -66.5359
   -66.5357 -66.5357 -66.5357 -66.5357 -66.5357 -66.5356 -66.5354 -66.5353
   -66.5344 -66.5344 -66.5344 -66.5344 -66.5335 -66.5313 -66.5313 -66.5312
   -66.5312 -66.5300 -66.5300 -66.5275 -66.5259 -66.5152 -66.5115 -66.5053
   -66.5012 -66.4956 -54.5251 -54.3518 -54.2709 -53.8251 -53.4817 -53.3474
   -40.8743 -40.8742 -40.8742 -40.8742 -40.8742 -40.8742 -40.8741 -40.8740
   -40.8735 -40.8735 -40.8735 -40.8735 -40.8730 -40.8660 -40.8598 -40.8474
   -40.8474 -40.8474 -40.8472 -40.8467 -40.8467 -40.8440 -40.8422 -40.8353
   -40.8353 -40.8353 -40.8352 -40.8347 -40.8347 -40.8342 -40.8187 -40.8127
   -40.7846 -40.7846 -40.7846 -40.7846 -40.7846 -40.7846 -40.7846 -40.7845
   -40.7839 -40.7839 -40.7839 -40.7839 -40.7707 -40.7706 -40.7688 -40.7628
   -40.7260 -40.7258 -40.7258 -40.7258 -40.7257 -40.7252 -40.7252 -40.7188
   -40.7164 -40.7164 -40.7163 -40.7163 -40.7155 -40.7155 -40.7050 -40.7050
   -40.7050 -40.7049 -40.7049 -40.7043 -40.7043 -40.7009 -40.6986 -40.6970
   -40.6773 -40.6763 -40.6754 -40.6754 -40.6754 -40.6754 -40.6753 -40.6753
   -40.6752 -40.6751 -40.6747 -40.6747 -40.6747 -40.6747 -40.6720 -40.6666
   -40.6666 -40.6666 -40.6665 -40.6659 -40.6659 -40.6656 -40.6632 -40.6591
   -40.6549 -40.6549 -40.6548 -40.6548 -40.6544 -40.6543 -40.6543 -40.6543
   -40.6543 -40.6543 -40.6543 -40.6540 -40.6540 -40.6540 -40.6536 -40.6536
   -40.6536 -40.6536 -40.6527 -40.6498 -40.6458 -40.6456 -40.6456 -40.6456
   -40.6455 -40.6449 -40.6449 -40.6426 -40.6390 -40.6360 -40.6334 -40.6282
   -40.6241 -40.6240 -40.6239 -40.6239 -40.6239 -40.6239 -40.6238 -40.6236
   -40.6230 -40.6230 -40.6230 -40.6230 -40.6166 -40.6142 -40.6113 -40.5972
   -40.5892 -40.5892 -40.5892 -40.5892 -40.5892 -40.5892 -40.5891 -40.5891
   -40.5883 -40.5883 -40.5883 -40.5883 -40.5773 -40.5771 -40.5770 -40.5770
   -40.5769 -40.5761 -40.5761 -40.5736 -40.5720 -40.5683 -40.5658 -40.5578
   -40.5577 -40.5577 -40.5575 -40.5568 -40.5568 -40.5501 -40.5459 -40.5415
   -40.5407 -40.5407 -40.5407 -40.5406 -40.5398 -40.5398 -40.5214 -40.5131
   -40.5101 -40.5101 -40.5101 -40.5099 -40.5091 -40.5091 -40.5017 -40.4792
   -19.9381 -19.8364 -19.8192 -19.7677 -19.7205 -19.6752 -19.6122 -19.5941
   -19.4412 -19.4024 -19.3791 -19.3440 -19.2884 -19.2578 -19.1860 -19.1731
   -18.9800 -18.7329 -18.7250 -18.6910 -18.6868 -18.6831 -18.6770 -18.6521
   -18.6480 -18.6325 -18.6227 -18.6046 -18.5963 -18.5807 -18.5681 -18.5596
   -18.5285 -18.5242 -18.5097 -18.4994 -18.4959 -18.4928 -18.4740 -18.4582
   -18.4392 -18.4305 -18.4216 -18.4158 -18.4068 -18.3865 -18.3625 -18.3558
   -18.3515 -18.3251 -18.3135 -18.2946 -18.2800 -18.2664 -18.2449 -18.2035
   -18.1979 -18.1885 -18.1799 -18.1762 -18.1520 -18.1199 -18.1034 -18.0930
   -18.0838 -18.0719 -18.0611 -18.0552 -18.0550 -18.0547 -18.0516 -18.0332
   -18.0277 -18.0256 -18.0227 -18.0200 -18.0155 -18.0086 -18.0073 -17.9988
   -17.9909 -17.9888 -17.9853 -17.9818 -17.9629 -17.9558 -17.9539 -17.9520
   -17.9504 -17.9454 -17.9435 -17.9378 -17.9364 -17.9273 -17.8992 -17.8894
   -17.8867 -17.8769 -17.8764 -17.8669 -17.8433 -17.8318 -17.8306 -17.8233
   -17.8001 -17.7951 -17.7927 -17.7899 -17.7746 -17.7731 -17.7724 -17.7716
   -17.7705 -17.7699 -17.7642 -17.7625 -17.7526 -17.7516 -17.7348 -17.7330
   -17.7128 -17.7108 -17.6941 -17.6909 -17.6801 -17.6778 -17.6726 -17.6723
   -11.7971 -11.7729 -11.6688 -11.6032 -11.5147 -11.4712 -11.4672 -11.4662
   -11.4510 -11.4370 -11.4305 -11.4264 -11.3991 -11.3878 -11.3843 -11.3546
   -11.3446 -11.3336 -11.3084 -11.2865 -11.2852 -11.2785 -11.2707 -11.2544
   -11.2427 -11.2268 -11.2177 -11.2139 -11.2111 -11.2078 -11.2072 -11.1987
   -11.1873 -11.1593 -11.1539 -11.1355 -11.1330 -11.1223 -11.1198 -11.1196
   -11.1177 -11.0981 -11.0968 -11.0924 -11.0704 -11.0671 -11.0231 -11.0175
   -11.0144 -11.0065 -10.9602 -10.9242 -10.9209 -10.9118 -10.8799 -10.8717
   -10.8539 -10.8421 -10.8309 -10.8267 -10.7978 -10.7926 -10.7854 -10.7762
   -10.7713 -10.7678 -10.7656 -10.7647 -10.7631 -10.7575 -10.7522 -10.7491
   -10.7464 -10.7442 -10.7434 -10.7424 -10.7410 -10.7404 -10.7331 -10.7324
   -10.7216 -10.7158 -10.6966 -10.6960 -10.6945 -10.6933 -10.5823 -10.5045
   -10.4860 -10.4779 -10.4665 -10.4367 -10.4256 -10.3634 -10.3304 -10.2618
   -10.1972 -10.1890 -10.1213 -10.0997 -10.0932 -10.0814 -10.0707 -10.0538
   -10.0411 -10.0400 -10.0180 -10.0061 -10.0038  -9.9865  -9.9797  -9.9754
    -9.9699  -9.9640  -9.9592  -9.9307  -9.9051  -9.8908  -9.8786  -9.8696
    -9.8618  -9.8522  -9.8509  -9.8495  -9.8387  -9.8203  -9.8058  -9.7949
    -9.7861  -9.7566  -9.7456  -9.7380  -9.7179  -9.7140  -9.7056  -9.6867
    -9.6790  -9.6685  -9.6613  -9.6389  -9.6274  -9.6159  -9.5976  -9.5951
    -9.5681  -9.5601  -9.5548  -9.5412  -9.5142  -9.4993  -9.4959  -9.4916
    -9.4886  -9.4854  -9.4726  -9.4607  -9.4427  -9.4384  -9.4254  -9.4249
    -9.4176  -9.4138  -9.4091  -9.4083  -9.3835  -9.3797  -9.3740  -9.3724
    -9.3126  -9.3064  -9.2473  -9.2212  -9.2150  -9.2073  -9.1673  -9.1639
    -9.1532  -9.1477  -9.1371  -9.1350  -9.1247  -9.1103  -9.0874  -9.0738
    -9.0670  -9.0543  -9.0403  -9.0222  -9.0114  -9.0060  -8.9915  -8.9875
    -8.9779  -8.9768  -8.9716  -8.9670  -8.9301  -8.9180  -8.9147  -8.9077
    -8.9005  -8.8933  -8.8850  -8.8751  -8.8565  -8.8438  -8.8397  -8.8368
    -8.8348  -8.8328  -8.8252  -8.8232  -8.8214  -8.8187  -8.8166  -8.8126
    -8.8068  -8.8017  -8.7963  -8.7927  -8.7912  -8.7843  -8.7786  -8.7758
    -8.7624  -8.7515  -8.7452  -8.7374  -8.7361  -8.7343  -8.7325  -8.7296
    -8.7153  -8.7037  -8.6861  -8.6819  -8.6755  -8.6749  -8.6679  -8.6490
    -8.6101  -8.6006  -8.5987  -8.5393  -8.5212  -8.4792  -8.4549  -8.4475
    -8.3930  -8.3867  -8.3400  -8.3084  -8.2980  -8.2404  -8.2170  -8.2016
    -8.1590  -8.0810  -8.0807  -8.0732  -8.0718  -8.0623  -8.0605  -8.0542
    -8.0354  -8.0268  -8.0099  -7.9753  -7.9298  -7.9208  -7.9061  -7.8591
    -7.8204  -7.8100  -7.8002  -7.7941  -7.7905  -7.7813  -7.7777  -7.7671
    -7.7647  -7.7618  -7.7550  -7.7537  -7.7509  -7.7444  -7.7414  -7.7402
    -7.7379  -7.7360  -7.7341  -7.7274  -7.7247  -7.7223  -7.7208  -7.7193
    -7.7175  -7.7153  -7.7122  -7.7099  -7.7080  -7.7031  -7.6973  -7.6935
    -7.6831  -7.6797  -7.6754  -7.6669  -7.6615  -7.6518  -7.6487  -7.6478
    -7.6466  -7.6451  -7.6241  -7.6190  -7.6186  -7.6181  -7.6160  -7.6008
    -7.5943  -7.5787  -7.5637  -7.5610  -7.5580  -7.5573  -7.5493  -7.5480
    -7.5448  -7.5381  -7.5323  -7.5189  -7.5169  -7.5154  -7.5091  -7.5053
    -7.4950  -7.4900  -7.4683  -7.4134  -7.4099  -7.4062  -7.4049  -7.3775
    -7.3675  -7.2888  -7.2399  -7.1636  -7.1478  -7.1269  -7.1194  -7.1182
    -7.1142  -7.0926  -7.0729  -7.0628  -7.0597  -7.0535  -7.0521  -7.0410
    -7.0048  -6.9834  -6.9808  -6.9745  -6.9730  -6.9695  -6.9380  -6.9294
    -6.9039  -6.8877  -6.8712  -6.8659  -6.8563  -6.8395  -6.8297  -6.8248
    -6.8148  -6.8133  -6.8056  -6.7912  -6.7802  -6.7513  -6.7208  -6.7054
    -6.7042  -6.6818  -6.6425  -6.6273  -6.6069  -6.6008  -6.5748  -6.5733
    -6.5699  -6.5591  -6.5576  -6.5564  -6.5545  -6.5417  -6.5400  -6.5398
    -6.5389  -6.5348  -6.5319  -6.5317  -6.5317  -6.5313  -6.4851  -6.4715
    -6.4555  -6.4316  -6.3824  -6.3717  -6.3604  -6.3187  -6.2854  -6.2779
    -6.2771  -6.2678  -6.2568  -6.2527  -6.2391  -6.2308  -6.2303  -6.2278
    -6.2258  -6.2250  -6.2133  -6.2023  -6.1939  -6.1902  -6.1815  -6.1699
    -6.1566  -6.1555  -6.1531  -6.1500  -6.1066  -6.0803  -6.0614  -5.9563
    -5.9465  -5.9203  -5.8979  -5.8669  -5.8480  -5.8124  -5.8041  -5.7938
    -5.7842  -5.7650  -5.7229  -5.6233  -5.6185  -5.5445  -5.5415  -5.4124
    -5.3428  -5.2567  -4.0631  -4.0522  -4.0415  -4.0403  -3.9492  -3.9128
    -3.8804  -3.8734  -3.8653  -3.8628  -3.7949  -3.7931  -3.7849  -3.7768
    -3.7738  -3.7630  -3.7584  -3.7568  -3.7497  -3.7463  -3.6766  -3.6608
    -3.6347  -3.6298  -3.5802  -3.5725  -3.5539  -3.5523  -3.5519  -3.5500
    -3.5053  -3.5036  -3.4953  -3.4859  -3.4727  -3.4714  -3.4677  -3.4647
    -3.4619  -3.4464  -3.4327  -3.4294  -3.4254  -3.4242  -3.4221  -3.4183
    -3.4026  -3.3984  -3.3964  -3.3843  -3.3720  -3.3706  -3.3692  -3.3654
    -3.3376  -3.3231  -3.3006  -3.2998  -3.2970  -3.2959  -3.2948  -3.2925
    -3.2847  -3.2702  -3.2559  -3.2511  -3.2406  -3.2365  -3.2333  -3.2312
    -3.2294  -3.2278  -3.2242  -3.2097  -3.2014  -3.1908  -3.1900  -3.1823
    -3.1793  -3.1750  -3.1655  -3.1625  -3.1604  -3.1551  -3.1440  -3.1365
    -3.1303  -3.1231  -3.1202  -3.1188  -3.1133  -3.1133  -3.1107  -3.1067
    -3.0570  -3.0516  -3.0279  -3.0234  -3.0204  -3.0179  -3.0144  -3.0101
    -2.9765  -2.9759  -2.9742  -2.9732  -2.9725  -2.9715  -2.9643  -2.9631
    -2.9598  -2.9587  -2.9563  -2.9494  -2.9430  -2.9386  -2.9342  -2.9289
    -2.9214  -2.9195  -2.9174  -2.9169  -2.9129  -2.9077  -2.9006  -2.8984
    -2.8958  -2.8915  -2.8892  -2.8818  -2.8792  -2.8670  -2.8490  -2.8461
    -2.8375  -2.8327  -2.8281  -2.8222  -2.8215  -2.8060  -2.7483  -2.7477
    -2.7386  -2.7365  -2.6872  -2.6759  -2.6670  -2.6614  -2.5736  -2.5637
    -2.5623  -2.5346  -2.5263  -2.5239  -2.5229  -2.4960  -2.4928  -2.4833
    -2.4778  -2.4768  -2.4762  -2.4707  -2.4573  -2.3757  -2.3573  -2.3516
    -2.3422  -2.3391  -2.3311  -2.3246

     the Fermi energy is    -4.6021 ev

!    total energy              =  -32817.59499920 Ry
     total all-electron energy =   -640670.781874 Ry
     estimated scf accuracy    <       0.00000005 Ry
     smearing contrib. (-TS)   =      -0.00000000 Ry
     internal energy E=F+TS    =  -32817.59499920 Ry

     The total energy is F=E-TS. E is the sum of the following terms:
     one-electron contribution = 1136698.37043009 Ry
     hartree contribution      = -568485.49325187 Ry
     xc contribution           =   -1966.00244814 Ry
     ewald contribution        = -578091.84207203 Ry
     DFT-D3 Dispersion         =      -5.42466031 Ry
     one-center paw contrib.   =  -20967.20299694 Ry

     convergence has been achieved in  10 iterations

     negative rho (up, down):  9.690E-04 0.000E+00

     Forces acting on atoms (cartesian axes, Ry/au):

     atom    1 type  1   force =     0.00000078   -0.00000048    0.00068844
     atom    2 type  1   force =     0.00002531   -0.00000935   -0.00000126
     atom    3 type  2   force =     0.00000150    0.00000051    0.00000141
     atom    4 type  2   force =    -0.00000036    0.00000073    0.00161579
     atom    5 type  2   force =    -0.00000069    0.00000037   -0.00235979
     atom    6 type  2   force =    -0.00000017    0.00000046    0.00000017
     atom    7 type  1   force =    -0.00002525    0.00000855   -0.00002713
     atom    8 type  1   force =    -0.00000115    0.00019026    0.00034315
     atom    9 type  2   force =     0.00032937   -0.00188092    0.00197204
     atom   10 type  2   force =    -0.00000023    0.00000340   -0.00005475
     atom   11 type  2   force =     0.00000279   -0.00007959   -0.00000656
     atom   12 type  2   force =     0.00067299    0.00004799   -0.00059380
     atom   13 type  1   force =     0.00000056   -0.00000003    0.00068808
     atom   14 type  1   force =    -0.00001035    0.00001145   -0.00000221
     atom   15 type  2   force =     0.00000313    0.00000089    0.00000316
     atom   16 type  2   force =    -0.00000029    0.00000069    0.00161578
     atom   17 type  2   force =    -0.00000053    0.00000023   -0.00236012
     atom   18 type  2   force =     0.00000596   -0.00000189   -0.00000308
     atom   19 type  1   force =    -0.00003189    0.00005313    0.00008368
     atom   20 type  1   force =    -0.00190903   -0.00154069   -0.00034006
     atom   21 type  2   force =    -0.00053807    0.00013342    0.00057730
     atom   22 type  2   force =     0.00002918    0.00007915    0.00002260
     atom   23 type  2   force =    -0.00009965    0.00004361   -0.00000356
     atom   24 type  2   force =    -0.00025126   -0.00010961    0.00050796
     atom   25 type  1   force =     0.00000047    0.00000071    0.00068874
     atom   26 type  1   force =     0.00000002   -0.00000948    0.00001155
     atom   27 type  2   force =     0.00000054    0.00000344    0.00000106
     atom   28 type  2   force =    -0.00000044    0.00000112    0.00161566
     atom   29 type  2   force =    -0.00000060    0.00000045   -0.00235996
     atom   30 type  2   force =     0.00000517   -0.00000218   -0.00000501
     atom   31 type  1   force =     0.00003735   -0.00005090    0.00001016
     atom   32 type  1   force =    -0.00012492    0.00020875    0.00068158
     atom   33 type  2   force =     0.00079352    0.00055442    0.00011467
     atom   34 type  2   force =     0.00000041    0.00010430   -0.00001007
     atom   35 type  2   force =    -0.00006228   -0.00003050   -0.00002713
     atom   36 type  2   force =    -0.00094969    0.00063962   -0.00038569
     atom   37 type  1   force =     0.00000145    0.00000026    0.00068910
     atom   38 type  1   force =     0.00002546    0.00002276   -0.00001125
     atom   39 type  2   force =    -0.00000004    0.00000214    0.00000531
     atom   40 type  2   force =    -0.00000035    0.00000125    0.00161576
     atom   41 type  2   force =    -0.00000059    0.00000059   -0.00235967
     atom   42 type  2   force =    -0.00000112   -0.00000053   -0.00000440
     atom   43 type  1   force =    -0.00000108   -0.00006465   -0.00002154
     atom   44 type  1   force =     0.00039905    0.00010938   -0.00029262
     atom   45 type  2   force =    -0.00000018   -0.00059278    0.00062203
     atom   46 type  2   force =     0.00010188   -0.00010950   -0.00012935
     atom   47 type  2   force =    -0.00002424   -0.00004845   -0.00001669
     atom   48 type  2   force =     0.00000136    0.00186947   -0.00158166
     atom   49 type  1   force =     0.00000105   -0.00000043    0.00068847
     atom   50 type  1   force =    -0.00002376   -0.00002749   -0.00000801
     atom   51 type  2   force =    -0.00000023    0.00000274    0.00000563
     atom   52 type  2   force =    -0.00000057    0.00000081    0.00161605
     atom   53 type  2   force =    -0.00000069    0.00000047   -0.00235980
     atom   54 type  2   force =     0.00000025    0.00000107   -0.00000160
     atom   55 type  1   force =     0.00002309    0.00001851   -0.00003095
     atom   56 type  1   force =    -0.00006726   -0.00054980    0.00018454
     atom   57 type  2   force =    -0.00033839   -0.00187771    0.00197669
     atom   58 type  2   force =     0.00002832   -0.00000872   -0.00002601
     atom   59 type  2   force =    -0.00005553   -0.00005716   -0.00006630
     atom   60 type  2   force =    -0.00066400    0.00004205   -0.00059830
     atom   61 type  1   force =     0.00000091    0.00000047    0.00068822
     atom   62 type  1   force =    -0.00001243   -0.00002067   -0.00001105
     atom   63 type  2   force =     0.00000273    0.00000198    0.00000235
     atom   64 type  2   force =    -0.00000024    0.00000060    0.00161584
     atom   65 type  2   force =    -0.00000050    0.00000023   -0.00236013
     atom   66 type  2   force =     0.00000080   -0.00000214    0.00000170
     atom   67 type  1   force =     0.00000524    0.00001884   -0.00010226
     atom   68 type  1   force =     0.00190954   -0.00153897   -0.00033733
[...]
     atom  163 type  1   force =     0.00000001   -0.00000371    0.00000576
     atom  164 type  1   force =     0.00027476    0.00005184   -0.00231819
     atom  165 type  2   force =    -0.00000001   -0.00000997   -0.00017578
     atom  166 type  2   force =    -0.00000474   -0.00000602    0.00004782
     atom  167 type  2   force =     0.00000033   -0.00000011   -0.00009509
     atom  168 type  2   force =     0.00000025    0.00001198   -0.00438084
     atom  169 type  1   force =    -0.00000005    0.00000000    0.00255966
     atom  170 type  1   force =    -0.00000005    0.00000006    0.00001487
     atom  171 type  2   force =    -0.00000005    0.00000000   -0.00003318
     atom  172 type  2   force =    -0.00000000    0.00000001    0.00017168
     atom  173 type  2   force =    -0.00000000   -0.00000002    0.00441456
     atom  174 type  2   force =    -0.00000016    0.00000000    0.00009826
     atom  175 type  1   force =     0.00000583   -0.00000161   -0.00000497
     atom  176 type  1   force =     0.00000005    0.00000598   -0.00246890
     atom  177 type  2   force =     0.00000383    0.00000874   -0.00013327
     atom  178 type  2   force =     0.00000002   -0.00000405    0.00005331
     atom  179 type  2   force =    -0.00000001    0.00000042   -0.00009592
     atom  180 type  2   force =    -0.00031785   -0.00008245   -0.00431174
     atom  181 type  1   force =    -0.00000002   -0.00000000    0.00255964
     atom  182 type  1   force =    -0.00000013    0.00000008    0.00001502
     atom  183 type  2   force =    -0.00000002   -0.00000000   -0.00003317
     atom  184 type  2   force =     0.00000000    0.00000001    0.00017169
     atom  185 type  2   force =     0.00000000    0.00000006    0.00441453
     atom  186 type  2   force =    -0.00000030   -0.00000008    0.00009822
     atom  187 type  1   force =     0.00000561    0.00000991   -0.00000631
     atom  188 type  1   force =    -0.00004807    0.00003142   -0.00240978
     atom  189 type  2   force =     0.00000789    0.00000246   -0.00013111
     atom  190 type  2   force =     0.00001258    0.00001288    0.00004529
     atom  191 type  2   force =     0.00000041    0.00000076   -0.00009654
     atom  192 type  2   force =    -0.00008243   -0.00008475   -0.00428349
     atom  193 type  3   force =    -0.00000012   -0.00015321   -0.00626988
     atom  194 type  3   force =     0.00000056    0.00037854   -0.00636457

     Total force =     0.003557     Total SCF correction =     0.000221
     Energy error            =      3.3E-05 Ry
     Gradient error          =      8.6E-04 Ry/Bohr

     bfgs converged in  43 scf cycles and  42 bfgs steps
     (criteria: energy <  1.0E-04 Ry, force <  1.0E-03 Ry/Bohr)

     End of BFGS Geometry Optimization

     Final energy             =  -32817.5972701410 Ry

     File ./outdir/pwscf.bfgs deleted, as requested
Begin final coordinates

ATOMIC_POSITIONS (angstrom)
Mo            0.0000119917        1.8193638619       -9.1672481230    0   0   0
Mo            1.5756136568        0.9097075315       -3.0554901653    0   0   0
S             0.0000188998        1.8193822938       -4.6232556019    0   0   0
S             1.5756321638        0.9096773839       -7.6014065489    0   0   0
S             1.5756326175        0.9096785128      -10.7330757790    0   0   0
S             0.0000189190        1.8193860094       -1.4877129945    0   0   0
Mo           -0.0001812862        1.8174321546        3.0558195617
Mo            1.5757090822        0.8913754633        9.1532972904
S            -0.0043856174        1.7875614421        7.5778974648
S             1.5756625816        0.9075586673        4.6228588640
S             1.5756578488        0.9082819298        1.4878407143
S             0.0040209316        1.8047051748       10.7274953062
Mo           -1.5756053507        4.5484193819       -9.1672481230    0   0   0
Mo            0.0000378379        3.6387394919       -3.0554952701    0   0   0
S            -1.5755913433        4.5484363582       -4.6232494962    0   0   0
S             0.0000148214        3.6387329039       -7.6014065489    0   0   0
S             0.0000152751        3.6387340328      -10.7330757790    0   0   0
S            -1.5755906502        4.5484413613       -1.4877305502    0   0   0
Mo           -1.5754960679        4.5466795901        3.0562535354
Mo           -0.0174795717        3.6026465206        9.1378658912
S            -1.5879473769        4.5437247668        7.5845525945
S             0.0001149777        3.6367527089        4.6240690464
S             0.0001945347        3.6370895902        1.4884227857
S            -1.5676297228        4.5203652861       10.7242414167
Mo           -3.1512226931        7.2774749019       -9.1672481230    0   0   0
Mo           -1.5755910988        6.3678216792       -3.0555115988    0   0   0
S            -3.1512162438        7.2774954350       -4.6232578178    0   0   0
S            -1.5756025210        6.3677884239       -7.6014065489    0   0   0
S            -1.5756020673        6.3677895528      -10.7330757790    0   0   0
S            -3.1512127704        7.2774877076       -1.4877200710    0   0   0
Mo           -3.1510305412        7.2756589656        3.0558764503
Mo           -1.5846084924        6.3522409231        9.1754412684
S            -3.1484945708        7.2646010365        7.5982449430
S            -1.5749754881        6.3664042553        4.6237750046
S            -1.5755549145        6.3658633361        1.4881717832
S            -3.1612213773        7.2641354849       10.7395356550
Mo           -4.7268400355       10.0065304219       -9.1672481230    0   0   0
Mo           -3.1512405618        9.0968403586       -3.0554816746    0   0   0
S            -4.7268341792       10.0065523623       -4.6232463762    0   0   0
S            -3.1512198634        9.0968439439       -7.6014065489    0   0   0
S            -3.1512194097        9.0968450728      -10.7330757790    0   0   0
S            -4.7268370797       10.0065537885       -1.4877176751    0   0   0
Mo           -4.7268059798       10.0046953071        3.0553504974
Mo           -3.1509294264        9.0827529042        9.1665027205
S            -4.7267706730        9.9812286670        7.5922546067
S            -3.1509986271        9.0950297952        4.6230867089
S            -3.1511065616        9.0949389155        1.4878450461
S            -4.7267550842        9.9976051222       10.7303165392
Mo            3.1512517547        1.8193638619       -9.1672481230    0   0   0
Mo            4.7269020221        0.9097289540       -3.0554823951    0   0   0
S             3.1512612351        1.8193882564       -4.6232320683    0   0   0
S             4.7268719268        0.9096773839       -7.6014065489    0   0   0
S             4.7268723805        0.9096785128      -10.7330757790    0   0   0
S             3.1512592485        1.8193890201       -1.4877261251    0   0   0
Mo            3.1515052422        1.8174272107        3.0558151464
Mo            4.7277909982        0.8911647949        9.1575516560
S             3.1557903892        1.7875839950        7.5778703494
S             4.7278446063        0.9073283894        4.6229233975
S             4.7269007525        0.9077044957        1.4878129291
S             3.1474690773        1.8046300762       10.7274058285
Mo            1.5756344123        4.5484193819       -9.1672481230    0   0   0
Mo            3.1512756394        3.6387769522       -3.0554814834    0   0   0
S             1.5756504879        4.5484423799       -4.6232390542    0   0   0
S             3.1512545844        3.6387329039       -7.6014065489    0   0   0
S             3.1512550381        3.6387340328      -10.7330757790    0   0   0
S             1.5756466253        4.5484431864       -1.4877251801    0   0   0
Mo            1.5756644836        4.5467849467        3.0562824638
Mo            3.1688974660        3.6026365065        9.1379303415
S             1.5757329928        4.5564875658        7.6177465202
S             3.1512129291        3.6367446323        4.6240647378
S             3.1511319860        3.6370871897        1.4884205969
S             1.5757146693        4.3983583937       10.7218543666
Mo            0.0000170699        7.2774749019       -9.1672481230    0   0   0
Mo            1.5756764447        6.3678236689       -3.0554877708    0   0   0
S             0.0000381981        7.2774979204       -4.6232454413    0   0   0
S             1.5756372420        6.3677884239       -7.6014065489    0   0   0
S             1.5756376957        6.3677895528      -10.7330757790    0   0   0
S             0.0000328088        7.2774946042       -1.4877307940    0   0   0
Mo            0.0002766026        7.2756108361        3.0555270253
Mo            1.5757265650        6.3563156333        9.2093894121
S             0.0148414777        7.2586151613        7.6374986472
S             1.5756634136        6.3664688366        4.6239383459
S             1.5756621850        6.3656375694        1.4879822008
S            -0.0750378921        7.3037140271       10.7916803394
Mo           -1.5756002725       10.0065304219       -9.1672481230    0   0   0
Mo            0.0000873425        9.0968676911       -3.0554912329    0   0   0
S            -1.5755883952       10.0065504530       -4.6232240150    0   0   0
S             0.0000198996        9.0968439439       -7.6014065489    0   0   0
S             0.0000203533        9.0968450728      -10.7330757790    0   0   0
S            -1.5755859047       10.0065492576       -1.4877362381    0   0   0
Mo           -1.5752492473       10.0043728197        3.0555037450
Mo           -0.0065539419        9.0919153786        9.1799305039
S            -1.5713040227        9.9853678103        7.5968938727
S             0.0003483171        9.0945152084        4.6236347387
S             0.0001200405        9.0948770811        1.4876758741
S            -1.5856044292       10.0041384420       10.7395327646
Mo            6.3024915177        1.8193638619       -9.1672481230    0   0   0
Mo            7.8781001445        0.9096521684       -3.0554919963    0   0   0
S             6.3025008696        1.8193826232       -4.6232480596    0   0   0
S             7.8781116898        0.9096773839       -7.6014065489    0   0   0
S             7.8781121435        0.9096785128      -10.7330757790    0   0   0
S             6.3025042007        1.8193849068       -1.4877147524    0   0   0
Mo            6.3028115801        1.8173938165        3.0550853626
Mo            7.8781881141        0.8967565734        9.1665418894
S             6.3072575538        1.8038362215        7.5928618497
S             7.8781444671        0.9074152034        4.6229400024
S             7.8781397616        0.9076445686        1.4872805394
S             6.3009929759        1.8086540546       10.7296934469
Mo            4.7268741753        4.5484193819       -9.1672481230    0   0   0
Mo            6.3024679138        3.6387501714       -3.0554895197    0   0   0
S             4.7268748770        4.5484386753       -4.6232519432    0   0   0
S             6.3024943474        3.6387329039       -7.6014065489    0   0   0
S             6.3024948011        3.6387340328      -10.7330757790    0   0   0
S             4.7268770533        4.5484432419       -1.4877137856    0   0   0
Mo            4.7268265022        4.5466769387        3.0562541895
Mo            6.3034333528        3.6257798230        9.1602987842
S             4.7393470310        4.5437196364        7.5845732264
S             6.3028265815        3.6364321357        4.6230993158
S             6.3023318258        3.6373461184        1.4879077056
S             4.7190597406        4.5203752351       10.7242628939
Mo            3.1512568329        7.2774749019       -9.1672481230    0   0   0
Mo            4.7268384135        6.3678043337       -3.0554959052    0   0   0
S             3.1512606125        7.2774972547       -4.6232589675    0   0   0
S             4.7268770050        6.3677884239       -7.6014065489    0   0   0
S             4.7268774587        6.3677895528      -10.7330757790    0   0   0
S             3.1512629079        7.2774963749       -1.4877081835    0   0   0
Mo            3.1510543700        7.2756081320        3.0555266027
Mo            4.7360277376        6.3522503438        9.1754533143
S             3.1365963090        7.2586384569        7.6375114997
S             4.7263132987        6.3664055209        4.6237718455
S             4.7268903366        6.3658644104        1.4881747339
S             3.2264961129        7.3037413758       10.7917240545
Mo            1.5756394905       10.0065304219       -9.1672481230    0   0   0
Mo            3.1512330605        9.0968514907       -3.0554878870    0   0   0
S             1.5756499830       10.0065443759       -4.6232632674    0   0   0
S             3.1512596626        9.0968439439       -7.6014065489    0   0   0
S             3.1512601163        9.0968450728      -10.7330757790    0   0   0
S             1.5756503041       10.0065459699       -1.4877044377    0   0   0
Mo            1.5756688746       10.0044375753        3.0555106317
Mo            3.1579879066        9.0919236575        9.1799549319
S             1.5757256259        9.9885466296        7.6069736961
S             3.1509912642        9.0945148556        4.6236295598
S             3.1512187802        9.0948772137        1.4876819668
S             1.5757079965        9.9989761704       10.7430998809
Mo            9.4537312807        1.8193638619       -9.1672481230    0   0   0
Mo           11.0293863460        0.9096952246       -3.0554894007    0   0   0
S             9.4537395970        1.8193770750       -4.6232328036    0   0   0
S            11.0293514528        0.9096773839       -7.6014065489    0   0   0
S            11.0293519066        0.9096785128      -10.7330757790    0   0   0
S             9.4537393632        1.8193794783       -1.4877366147    0   0   0
Mo            9.4534709428        1.8173974350        3.0550814244
Mo           11.0285967799        0.8911660914        9.1576052535
S             9.4491477050        1.8038238928        7.5928839613
S            11.0284365171        0.9073340670        4.6229215295
S            11.0293839940        0.9077089652        1.4878152298
S             9.4553697970        1.8086629631       10.7297115871
Mo            7.8781139383        4.5484193819       -9.1672481230    0   0   0
Mo            9.4537539161        3.6387607911       -3.0554933032    0   0   0
S             7.8781175448        4.5484378232       -4.6232366318    0   0   0
S             9.4537341104        3.6387329039       -7.6014065489    0   0   0
S             9.4537345641        3.6387340328      -10.7330757790    0   0   0
S             7.8781194018        4.5484411585       -1.4877377057    0   0   0
Mo            7.8781469280        4.5466945954        3.0556003773
Mo            9.4529414375        3.6257811001        9.1602956426
S             7.8781852236        4.5392737681        7.5939846284
S             9.4534654487        3.6364315921        4.6230971751
S             9.4539578701        3.6373497009        1.4879025019
S             7.8781892364        4.5341513565       10.7300385049
Mo            6.3024965959        7.2774749019       -9.1672481230    0   0   0
Mo            7.8781361655        6.3678242352       -3.0555014130    0   0   0
S             6.3024973331        7.2774953556       -4.6232392528    0   0   0
S             7.8781167680        6.3677884239       -7.6014065489    0   0   0
S             7.8781172217        6.3677895528      -10.7330757790    0   0   0
S             6.3024989866        7.2774929744       -1.4877349119    0   0   0
Mo            6.3023716907        7.2756624976        3.0558753898
Mo            7.8781919471        6.3561460496        9.1642092592
S             6.2999116203        7.2646105459        7.5982591884
S             7.8781498728        6.3659815137        4.6235290254
S             7.8781495495        6.3662992166        1.4881779721
S             6.3126569904        7.2641306333       10.7395447405
Mo            4.7268792535       10.0065304219       -9.1672481230    0   0   0
Mo            6.3025111524        9.0968738021       -3.0554915260    0   0   0
S             4.7268840634       10.0065452125       -4.6232380477    0   0   0
S             6.3024994256        9.0968439439       -7.6014065489    0   0   0
S             6.3024998793        9.0968450728      -10.7330757790    0   0   0
S             4.7268847312       10.0065459141       -1.4877283294    0   0   0
Mo            4.7265949150       10.0043747926        3.0555040592
Mo            6.3023578003        9.0827579643        9.1665228686
S             4.7227377304        9.9853876949        7.5969279631
S             6.3023463030        9.0950327950        4.6230875438
S             6.3024518302        9.0949433625        1.4878431012
S             4.7370396967       10.0041369725       10.7395736987
Pd            1.5757654377        6.2110110712       12.0901853007
Pd            1.5734755092        3.4848548317       12.7303090859
End final coordinates



     Writing all to output data dir ./outdir/pwscf.save/
 
     init_run     :     24.48s CPU     26.54s WALL (       1 calls)
     electrons    : 129011.28s CPU 130379.60s WALL (      16 calls)
     update_pot   :     81.13s CPU     81.53s WALL (      15 calls)
     forces       :   1990.72s CPU   2039.34s WALL (      16 calls)
     force_dftd3  :     12.08s CPU     13.00s WALL (      16 calls)

     Called by init_run:
     wfcinit      :      0.26s CPU      0.27s WALL (       1 calls)
     potinit      :      1.41s CPU      1.99s WALL (       1 calls)
     hinit0       :     16.18s CPU     16.21s WALL (       1 calls)

     Called by electrons:
     c_bands      : 115567.02s CPU 116346.98s WALL (     190 calls)
     sum_band     :  12615.40s CPU  12956.44s WALL (     190 calls)
     v_of_rho     :     96.81s CPU     98.75s WALL (     191 calls)
     newd         :    521.96s CPU    782.39s WALL (     191 calls)
     PAW_pot      :    139.78s CPU    139.77s WALL (     206 calls)
     mix_rho      :     23.36s CPU     23.38s WALL (     190 calls)
     energy_dftd3 :      5.67s CPU      5.66s WALL (      16 calls)

     Called by c_bands:
     init_us_2    :    477.23s CPU    477.53s WALL (    1641 calls)
     init_us_2:cp :    477.21s CPU    477.52s WALL (    1641 calls)
     cegterg      : 113942.14s CPU 114684.32s WALL (     763 calls)

     Called by *egterg:
     cdiaghg      :   7570.50s CPU   7594.18s WALL (    9954 calls)
     h_psi        :  59389.36s CPU  59605.37s WALL (   10074 calls)
     s_psi        :  12725.62s CPU  12773.91s WALL (   10074 calls)
     g_psi        :    111.30s CPU    111.45s WALL (    9311 calls)

     Called by h_psi:
     h_psi:calbec :  12983.01s CPU  12984.93s WALL (   10074 calls)
     vloc_psi     :  33503.72s CPU  33568.87s WALL (   10074 calls)
     add_vuspsi   :  12778.24s CPU  12826.33s WALL (   10074 calls)

     General routines
     calbec       :  18760.73s CPU  18763.61s WALL (   11150 calls)
     fft          :     92.73s CPU     94.82s WALL (    2657 calls)
     ffts         :      4.90s CPU      5.01s WALL (     381 calls)
     fftw         :  27559.17s CPU  27613.08s WALL ( 5370362 calls)
     interpolate  :     10.14s CPU     10.21s WALL (     191 calls)
     davcio       :      0.02s CPU      3.56s WALL (       4 calls)
 
     Parallel routines
 
     PWSCF        :   1d12h35m CPU   1d13h 0m WALL

 
   This run was terminated on:   4:18:31  13Oct2023            

=------------------------------------------------------------------------------=
   JOB DONE.
=------------------------------------------------------------------------------=
Application 11286127 resources: utime ~4743399s, stime ~51560s, Rss ~3566464, inblocks ~0, outblocks ~56266176
