ITEM: TIMESTEP
0
ITEM: NUMBER OF ATOMS
393
ITEM: BOX BOUNDS xy xz yz pp pp ff
-7.3724492699999997e+00 2.4574830899999998e+01 -7.3724492699999997e+00
0.0000000000000000e+00 2.0701456793999998e+01 0.0000000000000000e+00
0.0000000000000000e+00 3.6159325252999999e+01 0.0000000000000000e+00
ITEM: ATOMS id type element x y z ix iy iz
1 6 Si 0.00622726 5.39871 5.84924 0 0 0
2 6 Si 1.38346 1.27811 6.48741 0 0 0
3 6 Si 3.89733 2.51221 5 0 0 0
4 5 O 0.858352 4.68694 7.13486 0 0 0
5 5 O -1.14378 6.50859 6.46205 0 0 0
6 5 O 2.94457 1.78139 6.226 0 0 0
7 5 O -0.952567 4.11933 5.15665 0 0 0
8 5 O 0.442021 1.86105 5.21008 0 0 0
9 5 O 0.870684 1.7965 7.98348 0 0 0
10 6 Si 0.108347 1.0673 9.29214 0 0 0
11 6 Si -0.932944 3.88682 9.96119 0 0 0
12 6 Si 1.53387 5.10158 8.5903 0 0 0
13 5 O 1.25995 0.548871 10.3652 0 0 0
14 5 O 4.0475 2.23179 9.99057 0 0 0
15 5 O 0.616427 4.50304 9.86346 0 0 0
16 5 O 1.55993 6.7512 8.75528 0 0 0
17 5 O 3.0434 4.40433 8.67773 0 0 0
18 5 O 3.39493 4.54421 11.3942 0 0 0
20 6 Si -1.07443 8.17899 6.48741 0 0 0
21 6 Si 1.43985 9.41269 5 0 0 0
24 5 O 0.48677 8.68222 6.22631 0 0 0
26 5 O -2.01546 8.76153 5.21008 0 0 0
27 5 O -1.58752 8.69681 7.98347 0 0 0
28 6 Si -2.34944 7.96739 9.29251 0 0 0
31 5 O -1.19709 7.44814 10.364 0 0 0
32 5 O 1.58973 9.13228 9.98983 0 0 0
55 6 Si 4.92164 5.3998 5.84881 0 0 0
56 6 Si 6.29867 1.27862 6.48761 0 0 0
57 6 Si 8.8123 2.51221 5 0 0 0
58 5 O 5.77436 4.68857 7.13341 0 0 0
59 5 O 3.77178 6.50872 6.46115 0 0 0
60 5 O 7.85968 1.78234 6.2264 0 0 0
61 5 O 3.9624 4.11933 5.15665 0 0 0
62 5 O 5.35699 1.86105 5.21008 0 0 0
63 5 O 5.78483 1.79682 7.98346 0 0 0
64 6 Si 5.02283 1.06715 9.29213 0 0 0
65 6 Si 3.98204 3.88696 9.96118 0 0 0
66 6 Si 6.44906 5.10138 8.58986 0 0 0
67 5 O 6.17476 0.548476 10.3642 0 0 0
68 5 O 8.9627 2.23168 9.98953 0 0 0
69 5 O 5.53151 4.50162 9.86252 0 0 0
70 5 O 6.4755 6.75064 8.75727 0 0 0
71 5 O 7.95899 4.40475 8.67802 0 0 0
72 5 O 8.30915 4.54312 11.3937 0 0 0
74 6 Si 3.84116 8.17897 6.4874 0 0 0
75 6 Si 6.35482 9.41269 5 0 0 0
78 5 O 5.40192 8.68265 6.2263 0 0 0
80 5 O 2.8995 8.76153 5.21008 0 0 0
81 5 O 3.32757 8.69718 7.98326 0 0 0
82 6 Si 2.56495 7.96765 9.29157 0 0 0
85 5 O 3.71742 7.44801 10.3633 0 0 0
86 5 O 6.5055 9.13243 9.98953 0 0 0
109 6 Si 9.8366 5.39916 5.84913 0 0 0
110 6 Si 11.2129 1.27822 6.48797 0 0 0
113 5 O 8.68707 6.50833 6.46242 0 0 0
115 5 O 8.87737 4.11933 5.15665 0 0 0
116 5 O 10.272 1.86105 5.21008 0 0 0
117 5 O 10.6991 1.7961 7.98356 0 0 0
118 6 Si 9.93775 1.06695 9.29289 0 0 0
119 6 Si 8.8973 3.88685 9.96147 0 0 0
121 5 O 11.0905 0.548691 10.3647 0 0 0
123 5 O 10.4464 4.50259 9.86373 0 0 0
128 6 Si 8.75579 8.17886 6.48773 0 0 0
134 5 O 7.81447 8.76153 5.21008 0 0 0
135 5 O 8.24249 8.69677 7.98368 0 0 0
136 6 Si 7.48025 7.96744 9.29255 0 0 0
139 5 O 8.63292 7.44897 10.3645 0 0 0
234 5 O -1.52147 4.54409 11.3937 1 0 0
272 2 H 2.46779 4.31228 11.5991 0 0 0
273 2 H -1.36069 6.63353 10.8837 0 0 0
278 2 H 7.38169 4.31262 11.5974 0 0 0
279 2 H 3.55329 6.63381 10.8841 0 0 0
285 2 H 8.47008 6.63393 10.8828 0 0 0
326 1 C 10.9995 3.08969 15.8338 0 0 0
371 2 H 10.0268 3.3273 16.3266 0 0 0
372 2 H 10.8791 2.07459 15.382 0 0 0
374 2 H 10.7842 3.8371 13.7624 0 0 0
366 2 H 9.98411 6.32451 19.9693 0 0 0
19 6 Si -2.45133 12.2998 5.84837 0 0 0
22 5 O -1.59813 11.5887 7.13367 0 0 0
23 5 O -3.60089 13.4094 6.46218 0 0 0
25 5 O -3.41005 11.0198 5.15665 0 0 0
29 6 Si -3.38971 10.7876 9.96123 0 0 0
30 6 Si -0.92316 12.0018 8.59021 0 0 0
33 5 O -1.84036 11.4025 9.86277 0 0 0
34 5 O -0.897893 13.6514 8.7566 0 0 0
35 5 O 0.586401 11.3048 8.67714 0 0 0
36 5 O 0.938456 11.4444 11.3935 0 0 0
37 6 Si -4.90833 19.2005 5.84786 0 0 0
38 6 Si -3.53169 15.0798 6.48776 0 0 0
39 6 Si -1.01763 16.3132 5 0 0 0
40 5 O -4.05457 18.4899 7.13316 0 0 0
41 5 O -6.05829 20.3093 6.46125 0 0 0
42 5 O -1.97072 15.5828 6.22614 0 0 0
43 5 O -5.86753 17.9203 5.15665 0 0 0
44 5 O -4.47294 15.662 5.21008 0 0 0
45 5 O -4.04527 15.5976 7.98349 0 0 0
46 6 Si -4.80722 14.8679 9.29252 0 0 0
47 6 Si -5.84679 17.6884 9.96068 0 0 0
48 6 Si -3.38015 18.9025 8.58982 0 0 0
49 5 O -3.65443 14.349 10.364 0 0 0
50 5 O -0.867282 16.0326 9.99043 0 0 0
51 5 O -4.29754 18.3025 9.86237 0 0 0
52 5 O -3.35408 20.5521 8.75656 0 0 0
53 5 O -1.8709 18.2053 8.67713 0 0 0
54 5 O -1.51777 18.3454 11.3935 0 0 0
73 6 Si 2.46397 12.3001 5.84797 0 0 0
76 5 O 3.31828 11.5895 7.13296 0 0 0
77 5 O 1.31394 13.4094 6.46173 0 0 0
79 5 O 1.50492 11.0198 5.15665 0 0 0
83 6 Si 1.52498 10.7875 9.96049 0 0 0
84 6 Si 3.99234 12.0015 8.59018 0 0 0
87 5 O 3.07454 11.401 9.86173 0 0 0
88 5 O 4.01872 13.651 8.75862 0 0 0
89 5 O 5.50193 11.3048 8.67728 0 0 0
90 5 O 5.85433 11.4445 11.3934 0 0 0
91 6 Si 0.00694918 19.201 5.84707 0 0 0
92 6 Si 1.38342 15.0795 6.48729 0 0 0
93 6 Si 3.89733 16.3132 5 0 0 0
94 5 O 0.861677 18.4905 7.1319 0 0 0
95 5 O -1.14296 20.3094 6.46134 0 0 0
96 5 O 2.94449 15.5833 6.22677 0 0 0
97 5 O -0.952567 17.9203 5.15665 0 0 0
98 5 O 0.442021 15.662 5.21008 0 0 0
99 5 O 0.87001 15.5973 7.98323 0 0 0
100 6 Si 0.107459 14.868 9.29174 0 0 0
101 6 Si -0.932015 17.6877 9.96069 0 0 0
102 6 Si 1.53526 18.902 8.58949 0 0 0
103 5 O 1.26076 14.3485 10.3627 0 0 0
104 5 O 4.04813 16.0326 9.98984 0 0 0
105 5 O 0.61733 18.3012 9.86141 0 0 0
106 5 O 1.561 20.5513 8.75865 0 0 0
107 5 O 3.04481 18.2049 8.67733 0 0 0
108 5 O 3.39513 18.3445 11.3938 0 0 0
127 6 Si 7.37866 12.3006 5.84735 0 0 0
131 5 O 6.22896 13.4093 6.46112 0 0 0
133 5 O 6.41988 11.0198 5.15665 0 0 0
137 6 Si 6.44089 10.7875 9.96079 0 0 0
141 5 O 7.98945 11.4025 9.86156 0 0 0
145 6 Si 4.92133 19.2002 5.84878 0 0 0
146 6 Si 6.29826 15.0794 6.48799 0 0 0
149 5 O 3.77141 20.3095 6.46133 0 0 0
151 5 O 3.9624 17.9203 5.15665 0 0 0
152 5 O 5.35699 15.662 5.21008 0 0 0
153 5 O 5.78455 15.5969 7.98355 0 0 0
154 6 Si 5.02347 14.8677 9.29329 0 0 0
155 6 Si 3.9831 17.6875 9.96117 0 0 0
157 5 O 6.17591 14.35 10.3651 0 0 0
159 5 O 5.53201 18.3032 9.8634 0 0 0
252 5 O -3.97757 11.444 11.394 1 0 0
270 5 O -6.4338 18.3453 11.3933 1 0 0
271 2 H -6.27489 20.4349 10.8827 0 -1 0
274 2 H 0.0114738 11.2129 11.599 0 0 0
275 2 H -3.81741 13.5343 10.8835 0 0 0
276 2 H -2.4443 18.1136 11.5997 0 0 0
277 2 H -1.36002 20.4349 10.8831 0 -1 0
280 2 H 4.92726 11.2135 11.5985 0 0 0
281 2 H 1.09721 13.535 10.8835 0 0 0
282 2 H 2.46833 18.1128 11.5982 0 0 0
283 2 H 3.55569 20.4351 10.8827 0 -1 0
287 2 H 6.01437 13.5335 10.8827 0 0 0
301 1 C 5.48293 15.5444 27.4018 0 0 0
302 1 C 6.70771 14.5988 27.3167 0 0 0
303 1 C 6.862 13.7707 28.6149 0 0 0
305 1 C 6.2381 13.8732 24.9831 0 0 0
306 1 C 6.07608 12.8161 22.7036 0 0 0
307 1 C 4.66752 12.5853 22.0685 0 0 0
308 1 C 3.71363 13.7466 22.3901 0 0 0
309 1 C 1.88288 14.4575 23.8222 0 0 0
310 1 C 0.586588 14.2906 22.9984 0 0 0
311 1 C -0.0624736 12.8781 23.1852 0 0 0
312 1 C 0.226764 12.2565 24.5925 0 0 0
313 1 C 0.414206 13.3583 25.6688 0 0 0
314 1 C 1.64953 14.2584 25.3469 0 0 0
315 1 C 7.10819 11.8579 22.0767 0 0 0
331 2 H 4.55417 14.9612 27.6075 0 0 0
332 2 H 5.62853 16.269 28.2378 0 0 0
333 2 H 5.34826 16.1083 26.454 0 0 0
334 2 H 7.05775 14.4436 29.4821 0 0 0
336 2 H 5.93302 13.1901 28.8185 0 0 0
340 2 H 6.57857 11.8493 24.5789 0 0 0
341 2 H 6.40555 13.859 22.4575 0 0 0
342 2 H 4.79027 12.5425 20.9637 0 0 0
343 2 H 4.24469 11.6225 22.435 0 0 0
344 2 H 2.3701 15.4335 23.6014 0 0 0
345 2 H 0.799962 14.4966 21.9233 0 0 0
346 2 H -0.120812 15.0896 23.3329 0 0 0
347 2 H 0.308553 12.1859 22.3923 0 0 0
348 2 H -1.16507 12.9692 23.027 0 0 0
349 2 H 1.15921 11.643 24.5446 0 0 0
350 2 H -0.598708 11.5629 24.8818 0 0 0
351 2 H -0.51183 13.9853 25.7158 0 0 0
352 2 H 0.532741 12.9057 26.6824 0 0 0
353 2 H 2.58102 13.814 25.7732 0 0 0
354 2 H 1.52774 15.2608 25.8237 0 0 0
380 4 N 6.06913 12.6775 24.2061 0 0 0
382 5 O 6.46787 13.5225 26.2918 0 0 0
383 5 O 6.14045 15.0146 24.5238 0 0 0
384 5 O 3.73599 14.8362 21.8247 0 0 0
385 5 O 2.8473 13.4004 23.3982 0 0 0
386 5 O 7.06755 11.6084 20.8051 0 0 0
387 5 O 8.01552 11.3071 22.822 0 0 0
111 6 Si 13.7273 2.51221 5 0 0 0
112 5 O 10.6894 4.68788 7.13438 0 0 0
114 5 O 12.7743 1.78154 6.22629 0 0 0
120 6 Si 11.3641 5.10176 8.59055 0 0 0
122 5 O 13.8776 2.23195 9.99051 0 0 0
124 5 O 11.3905 6.7513 8.7556 0 0 0
125 5 O 12.8743 4.40484 8.67788 0 0 0
126 5 O 13.2237 4.54352 11.3941 0 0 0
129 6 Si 11.2698 9.41269 5 0 0 0
132 5 O 10.317 8.68229 6.2264 0 0 0
140 5 O 11.4201 9.13291 9.98979 0 0 0
163 6 Si 14.7513 5.39871 5.84878 0 0 0
164 6 Si 16.1283 1.27851 6.48752 0 0 0
165 6 Si 18.6422 2.51221 5 0 0 0
166 5 O 15.6031 4.68765 7.13501 0 0 0
167 5 O 13.601 6.5086 6.46098 0 0 0
168 5 O 17.6894 1.78187 6.22632 0 0 0
169 5 O 13.7923 4.11933 5.15665 0 0 0
170 5 O 15.1869 1.86105 5.21008 0 0 0
171 5 O 15.6147 1.79635 7.98323 0 0 0
172 6 Si 14.8525 1.06698 9.29196 0 0 0
173 6 Si 13.8123 3.88715 9.96143 0 0 0
174 6 Si 16.2787 5.10172 8.59072 0 0 0
175 5 O 16.0051 0.546953 10.363 0 0 0
176 5 O 18.7929 2.2321 9.98969 0 0 0
177 5 O 15.3614 4.50234 9.86343 0 0 0
178 5 O 16.3038 6.75143 8.75585 0 0 0
179 5 O 17.7884 4.40497 8.67838 0 0 0
180 5 O 18.1381 4.54373 11.3945 0 0 0
182 6 Si 13.6707 8.17899 6.48732 0 0 0
183 6 Si 16.1847 9.41269 5 0 0 0
186 5 O 15.232 8.68168 6.22531 0 0 0
188 5 O 12.7294 8.76153 5.21008 0 0 0
189 5 O 13.1577 8.69727 7.98351 0 0 0
190 6 Si 12.395 7.96824 9.292 0 0 0
193 5 O 13.5469 7.44804 10.3641 0 0 0
194 5 O 16.3348 9.13247 9.99042 0 0 0
217 6 Si 19.6662 5.39926 5.84946 0 0 0
218 6 Si 21.0433 1.27862 6.48757 0 0 0
219 6 Si 23.5572 2.51221 5 0 0 0
220 5 O 20.5182 4.68744 7.13522 0 0 0
221 5 O 18.5169 6.50884 6.46116 0 0 0
222 5 O 22.6045 1.78242 6.22653 0 0 0
223 5 O 18.7073 4.11933 5.15665 0 0 0
224 5 O 20.1019 1.86105 5.21008 0 0 0
225 5 O 20.5296 1.79651 7.98319 0 0 0
226 6 Si 19.7675 1.06698 9.29243 0 0 0
227 6 Si 18.7266 3.88706 9.96154 0 0 0
228 6 Si 21.1938 5.10146 8.59111 0 0 0
229 5 O 20.9204 0.547795 10.3634 0 0 0
230 5 O 23.7073 2.2319 9.98954 0 0 0
231 5 O 20.276 4.50181 9.86319 0 0 0
232 5 O 21.22 6.75119 8.7573 0 0 0
233 5 O 22.7035 4.40464 8.67757 0 0 0
236 6 Si 18.5857 8.17881 6.48717 0 0 0
237 6 Si 21.0997 9.41269 5 0 0 0
240 5 O 20.1467 8.68252 6.22655 0 0 0
242 5 O 17.6444 8.76153 5.21008 0 0 0
243 5 O 18.0724 8.69715 7.98349 0 0 0
244 6 Si 17.3099 7.96747 9.29208 0 0 0
247 5 O 18.4629 7.44684 10.3624 0 0 0
248 5 O 21.2502 9.13225 9.99037 0 0 0
284 2 H 12.2964 4.31179 11.598 0 0 0
290 2 H 17.2106 4.31282 11.5976 0 0 0
291 2 H 13.3826 6.63406 10.8841 0 0 0
296 2 H 22.1257 4.31306 11.597 0 0 0
297 2 H 18.297 6.63391 10.8851 0 0 0
316 1 C 16.0751 8.44789 16.9145 0 0 0
317 1 C 15.3647 9.78206 17.2561 0 0 0
324 1 C 12.8532 4.38057 17.0916 0 0 0
325 1 C 12.1344 3.02505 16.9104 0 0 0
327 1 C 11.2835 4.14438 14.7124 0 0 0
328 1 C 12.8071 4.33531 14.4895 0 0 0
329 1 C 13.5005 4.89248 15.7734 0 0 0
355 2 H 15.6115 7.9791 16.0144 0 0 0
356 2 H 17.1496 8.64507 16.6871 0 0 0
357 2 H 16.0105 7.73342 17.7629 0 0 0
360 2 H 14.9413 10.2856 15.1568 0 0 0
364 2 H 11.5677 9.56528 18.0357 0 0 0
368 2 H 13.5909 4.3301 17.9234 0 0 0
369 2 H 11.7373 2.68025 17.8938 0 0 0
370 2 H 12.9112 2.27848 16.6105 0 0 0
373 2 H 10.8402 5.12742 15.0043 0 0 0
375 2 H 13.2617 3.35215 14.2074 0 0 0
376 2 H 12.9987 5.02222 13.6305 0 0 0
377 2 H 13.4576 6.0082 15.7902 0 0 0
378 2 H 14.5823 4.61536 15.7754 0 0 0
388 5 O 13.8852 9.55942 17.4235 0 0 0
391 5 O 11.8386 5.39971 17.4906 0 0 0
320 1 C 13.4362 8.69588 18.3937 0 0 0
321 1 C 11.2927 8.01105 19.5232 0 0 0
322 1 C 10.6132 6.66426 19.1169 0 0 0
323 1 C 11.6592 5.57263 18.8413 0 0 0
330 1 C 10.2556 8.96549 20.1477 0 0 0
361 2 H 15.8863 9.74387 19.401 0 0 0
365 2 H 12.0565 7.79414 20.3147 0 0 0
367 2 H 9.97263 6.82363 18.2201 0 0 0
381 4 N 12.0005 8.67924 18.3703 0 0 0
389 5 O 14.1226 7.99929 19.1466 0 0 0
390 5 O 12.2563 4.95104 19.7157 0 0 0
392 5 O 9.3473 8.49803 20.946 0 0 0
393 5 O 10.2967 10.2329 19.8754 0 0 0
130 5 O 8.23309 11.5899 7.13242 0 0 0
138 6 Si 8.90744 12.0025 8.58903 0 0 0
142 5 O 8.9328 13.6522 8.75521 0 0 0
143 5 O 10.4162 11.3045 8.67659 0 0 0
144 5 O 10.7665 11.4443 11.393 0 0 0
147 6 Si 8.8123 16.3132 5 0 0 0
148 5 O 5.77541 18.4897 7.13395 0 0 0
150 5 O 7.85932 15.583 6.22657 0 0 0
156 6 Si 6.44903 18.9028 8.59048 0 0 0
158 5 O 8.96263 16.0332 9.98989 0 0 0
160 5 O 6.47435 20.5524 8.75618 0 0 0
161 5 O 7.95902 18.206 8.67795 0 0 0
162 5 O 8.31045 18.3449 11.3943 0 0 0
181 6 Si 12.2938 12.3002 5.84841 0 0 0
184 5 O 13.1463 11.5899 7.13412 0 0 0
185 5 O 11.1436 13.4094 6.46197 0 0 0
187 5 O 11.3348 11.0198 5.15665 0 0 0
191 6 Si 11.3547 10.7881 9.96091 0 0 0
192 6 Si 13.822 12.0022 8.59018 0 0 0
195 5 O 12.9038 11.4033 9.86272 0 0 0
196 5 O 13.8482 13.6516 8.75608 0 0 0
197 5 O 15.3314 11.3051 8.6782 0 0 0
198 5 O 15.6835 11.4448 11.3934 0 0 0
199 6 Si 9.83637 19.2007 5.84833 0 0 0
200 6 Si 11.2136 15.0796 6.48748 0 0 0
201 6 Si 13.7273 16.3132 5 0 0 0
202 5 O 10.6895 18.4902 7.13352 0 0 0
203 5 O 8.68599 20.3099 6.46143 0 0 0
204 5 O 12.7745 15.583 6.22641 0 0 0
205 5 O 8.87737 17.9203 5.15665 0 0 0
206 5 O 10.272 15.662 5.21008 0 0 0
207 5 O 10.7003 15.5978 7.98372 0 0 0
208 6 Si 9.93785 14.8685 9.29191 0 0 0
209 6 Si 8.89786 17.6885 9.96108 0 0 0
210 6 Si 11.3645 18.903 8.58998 0 0 0
211 5 O 11.0901 14.3487 10.3631 0 0 0
212 5 O 13.878 16.0331 9.99044 0 0 0
213 5 O 10.4472 18.3025 9.86215 0 0 0
214 5 O 11.3902 20.5523 8.75723 0 0 0
215 5 O 12.8737 18.2054 8.67801 0 0 0
216 5 O 13.2253 18.3447 11.3938 0 0 0
235 6 Si 17.2095 12.3004 5.84793 0 0 0
238 5 O 18.0625 11.5898 7.13367 0 0 0
239 5 O 16.0589 13.4092 6.46124 0 0 0
241 5 O 16.2498 11.0198 5.15665 0 0 0
245 6 Si 16.2705 10.788 9.96085 0 0 0
246 6 Si 18.7373 12.002 8.58975 0 0 0
249 5 O 17.8196 11.4025 9.86237 0 0 0
250 5 O 18.7626 13.6513 8.75785 0 0 0
251 5 O 20.2468 11.3051 8.67771 0 0 0
253 6 Si 14.7516 19.2008 5.84829 0 0 0
254 6 Si 16.1281 15.0794 6.48753 0 0 0
255 6 Si 18.6422 16.3132 5 0 0 0
256 5 O 15.605 18.4901 7.13321 0 0 0
257 5 O 13.6019 20.3097 6.46192 0 0 0
258 5 O 17.6894 15.583 6.22632 0 0 0
259 5 O 13.7923 17.9203 5.15665 0 0 0
260 5 O 15.1869 15.662 5.21008 0 0 0
261 5 O 15.6151 15.5977 7.98368 0 0 0
262 6 Si 14.8528 14.8684 9.29201 0 0 0
263 6 Si 13.813 17.6881 9.96124 0 0 0
264 6 Si 16.2796 18.9027 8.5899 0 0 0
265 5 O 16.0051 14.349 10.364 0 0 0
266 5 O 18.7928 16.0329 9.99024 0 0 0
267 5 O 15.3621 18.3026 9.86264 0 0 0
268 5 O 16.3063 20.5519 8.75693 0 0 0
269 5 O 17.7892 18.2055 8.67726 0 0 0
286 2 H 9.839 11.2135 11.5963 0 0 0
288 2 H 7.38359 18.1126 11.5994 0 0 0
289 2 H 8.46807 20.4346 10.8842 0 -1 0
292 2 H 14.7563 11.2125 11.599 0 0 0
293 2 H 10.9263 13.5347 10.8841 0 0 0
294 2 H 12.2984 18.1132 11.5988 0 0 0
295 2 H 13.3846 20.4348 10.883 0 -1 0
298 2 H 19.6702 11.2122 11.5984 0 0 0
299 2 H 15.8415 13.5348 10.8833 0 0 0
300 2 H 17.2136 18.1138 11.5978 0 0 0
318 1 C 15.404 10.7564 16.0545 0 0 0
358 2 H 16.4576 11.0274 15.8105 0 0 0
359 2 H 14.8419 11.6901 16.2864 0 0 0
304 1 C 8.01711 15.3496 26.9677 0 0 0
319 1 C 15.9266 10.4451 18.5385 0 0 0
335 2 H 7.70877 13.0521 28.525 0 0 0
337 2 H 7.90353 15.9346 26.0285 0 0 0
338 2 H 8.28669 16.0483 27.7947 0 0 0
339 2 H 8.85488 14.624 26.8404 0 0 0
362 2 H 16.987 10.7512 18.3748 0 0 0
363 2 H 15.3373 11.3585 18.7898 0 0 0
379 3 Mg 8.68842 10.4166 21.1155 0 0 0
ITEM: TIMESTEP
100000
ITEM: NUMBER OF ATOMS
393
ITEM: BOX BOUNDS xy xz yz pp pp ff
-7.3724492699999997e+00 2.4574830899999998e+01 -7.3724492699999997e+00
0.0000000000000000e+00 2.0701456793999998e+01 0.0000000000000000e+00
0.0000000000000000e+00 3.6159325252999999e+01 0.0000000000000000e+00
ITEM: ATOMS id type element x y z ix iy iz
1 6 Si 0.00622726 5.39871 5.84924 0 0 0
2 6 Si 1.38346 1.27811 6.48741 0 0 0
3 6 Si 3.89733 2.51221 5 0 0 0
4 5 O 0.858352 4.68694 7.13486 0 0 0
5 5 O -1.14378 6.50859 6.46205 0 0 0
6 5 O 2.94457 1.78139 6.226 0 0 0
7 5 O -0.952567 4.11933 5.15665 0 0 0
8 5 O 0.442021 1.86105 5.21008 0 0 0
9 5 O 0.870684 1.7965 7.98348 0 0 0
10 6 Si 0.108347 1.0673 9.29214 0 0 0
11 6 Si -0.932944 3.88682 9.96119 0 0 0
12 6 Si 1.53387 5.10158 8.5903 0 0 0
13 5 O 1.25995 0.548871 10.3652 0 0 0
14 5 O 4.0475 2.23179 9.99057 0 0 0
15 5 O 0.616427 4.50304 9.86346 0 0 0
16 5 O 1.55993 6.7512 8.75528 0 0 0
17 5 O 3.0434 4.40433 8.67773 0 0 0
18 5 O 3.39493 4.54421 11.3942 0 0 0
20 6 Si -1.07443 8.17899 6.48741 0 0 0
21 6 Si 1.43985 9.41269 5 0 0 0
24 5 O 0.48677 8.68222 6.22631 0 0 0
26 5 O -2.01546 8.76153 5.21008 0 0 0
27 5 O -1.58752 8.69681 7.98347 0 0 0
28 6 Si -2.34944 7.96739 9.29251 0 0 0
31 5 O -1.19709 7.44814 10.364 0 0 0
32 5 O 1.58973 9.13228 9.98983 0 0 0
55 6 Si 4.92164 5.3998 5.84881 0 0 0
56 6 Si 6.29867 1.27862 6.48761 0 0 0
57 6 Si 8.8123 2.51221 5 0 0 0
58 5 O 5.77436 4.68857 7.13341 0 0 0
59 5 O 3.77178 6.50872 6.46115 0 0 0
60 5 O 7.85968 1.78234 6.2264 0 0 0
61 5 O 3.9624 4.11933 5.15665 0 0 0
62 5 O 5.35699 1.86105 5.21008 0 0 0
63 5 O 5.78483 1.79682 7.98346 0 0 0
64 6 Si 5.02283 1.06715 9.29213 0 0 0
65 6 Si 3.98204 3.88696 9.96118 0 0 0
66 6 Si 6.44906 5.10138 8.58986 0 0 0
67 5 O 6.17476 0.548476 10.3642 0 0 0
68 5 O 8.9627 2.23168 9.98953 0 0 0
69 5 O 5.53151 4.50162 9.86252 0 0 0
70 5 O 6.4755 6.75064 8.75727 0 0 0
71 5 O 7.95899 4.40475 8.67802 0 0 0
72 5 O 8.30915 4.54312 11.3937 0 0 0
74 6 Si 3.84116 8.17897 6.4874 0 0 0
75 6 Si 6.35482 9.41269 5 0 0 0
78 5 O 5.40192 8.68265 6.2263 0 0 0
80 5 O 2.8995 8.76153 5.21008 0 0 0
81 5 O 3.32757 8.69718 7.98326 0 0 0
82 6 Si 2.56495 7.96765 9.29157 0 0 0
85 5 O 3.71742 7.44801 10.3633 0 0 0
86 5 O 6.5055 9.13243 9.98953 0 0 0
109 6 Si 9.8366 5.39916 5.84913 0 0 0
110 6 Si 11.2129 1.27822 6.48797 0 0 0
113 5 O 8.68707 6.50833 6.46242 0 0 0
115 5 O 8.87737 4.11933 5.15665 0 0 0
116 5 O 10.272 1.86105 5.21008 0 0 0
117 5 O 10.6991 1.7961 7.98356 0 0 0
118 6 Si 9.93775 1.06695 9.29289 0 0 0
119 6 Si 8.8973 3.88685 9.96147 0 0 0
121 5 O 11.0905 0.548691 10.3647 0 0 0
123 5 O 10.4464 4.50259 9.86373 0 0 0
128 6 Si 8.75579 8.17886 6.48773 0 0 0
134 5 O 7.81447 8.76153 5.21008 0 0 0
135 5 O 8.24249 8.69677 7.98368 0 0 0
136 6 Si 7.48025 7.96744 9.29255 0 0 0
139 5 O 8.63292 7.44897 10.3645 0 0 0
234 5 O -1.52147 4.54409 11.3937 1 0 0
272 2 H 2.46779 4.31228 11.5991 0 0 0
273 2 H -1.36069 6.63353 10.8837 0 0 0
278 2 H 7.38169 4.31262 11.5974 0 0 0
279 2 H 3.55329 6.63381 10.8841 0 0 0
285 2 H 8.47008 6.63393 10.8828 0 0 0
352 2 H 5.26111 2.91438 17.0368 0 1 0
354 2 H 6.96011 4.40304 15.5633 0 1 0
371 2 H 6.24567 8.98461 14.7536 0 0 0
344 2 H 8.18906 3.37363 13.8003 0 1 0
372 2 H 6.89766 7.32318 14.7029 0 0 0
314 1 C 6.9009 3.28897 15.6115 0 1 0
380 4 N 10.8948 0.721326 16.5001 0 1 0
346 2 H 5.77839 3.31675 13.0385 0 1 0
309 1 C 7.43709 2.70374 14.274 0 1 0
353 2 H 7.59903 2.96775 16.4217 0 1 0
351 2 H 4.71177 3.54721 15.4592 0 1 0
313 1 C 5.43954 2.84371 15.937 0 1 0
384 5 O 9.64131 1.81001 12.8919 0 1 0
345 2 H 6.74508 1.997 12.3243 0 1 0
310 1 C 6.30374 2.35999 13.2819 0 1 0
326 1 C 7.1948 8.40052 14.6935 0 0 0
308 1 C 9.24274 1.13615 13.8377 0 1 0
312 1 C 5.16422 1.40469 15.4261 0 1 0
385 5 O 8.15603 1.44249 14.62 0 1 0
311 1 C 5.29167 1.31918 13.8682 0 1 0
348 2 H 4.29384 1.48642 13.3934 0 1 0
374 2 H 7.53948 8.09806 12.529 0 0 0
327 1 C 7.92912 8.74152 13.3537 0 0 0
369 2 H 7.43568 8.91344 16.8463 0 0 0
340 2 H 11.1023 0.104173 17.3128 0 1 0
350 2 H 4.15127 1.06241 15.7468 0 1 0
306 1 C 11.1963 0.127681 15.1461 0 1 0
349 2 H 5.90173 0.711537 15.8991 0 1 0
331 2 H 9.45328 4.54127 18.0525 0 1 0
373 2 H 7.70955 9.79868 13.0669 0 0 0
325 1 C 8.07159 8.6872 15.9586 0 0 0
305 1 C 11.2283 2.10254 16.7077 0 1 0
370 2 H 8.67035 7.78203 16.2284 0 0 0
347 2 H 5.60366 0.287315 13.5792 0 1 0
382 5 O 11.1309 2.38514 18.049 0 1 0
336 2 H 10.1008 3.37485 20.2261 0 1 0
19 6 Si -2.45133 12.2998 5.84837 0 0 0
22 5 O -1.59813 11.5887 7.13367 0 0 0
23 5 O -3.60089 13.4094 6.46218 0 0 0
25 5 O -3.41005 11.0198 5.15665 0 0 0
29 6 Si -3.38971 10.7876 9.96123 0 0 0
30 6 Si -0.92316 12.0018 8.59021 0 0 0
33 5 O -1.84036 11.4025 9.86277 0 0 0
34 5 O -0.897893 13.6514 8.7566 0 0 0
35 5 O 0.586401 11.3048 8.67714 0 0 0
36 5 O 0.938456 11.4444 11.3935 0 0 0
37 6 Si -4.90833 19.2005 5.84786 0 0 0
38 6 Si -3.53169 15.0798 6.48776 0 0 0
39 6 Si -1.01763 16.3132 5 0 0 0
40 5 O -4.05457 18.4899 7.13316 0 0 0
41 5 O -6.05829 20.3093 6.46125 0 0 0
42 5 O -1.97072 15.5828 6.22614 0 0 0
43 5 O -5.86753 17.9203 5.15665 0 0 0
44 5 O -4.47294 15.662 5.21008 0 0 0
45 5 O -4.04527 15.5976 7.98349 0 0 0
46 6 Si -4.80722 14.8679 9.29252 0 0 0
47 6 Si -5.84679 17.6884 9.96068 0 0 0
48 6 Si -3.38015 18.9025 8.58982 0 0 0
49 5 O -3.65443 14.349 10.364 0 0 0
50 5 O -0.867282 16.0326 9.99043 0 0 0
51 5 O -4.29754 18.3025 9.86237 0 0 0
52 5 O -3.35408 20.5521 8.75656 0 0 0
53 5 O -1.8709 18.2053 8.67713 0 0 0
54 5 O -1.51777 18.3454 11.3935 0 0 0
73 6 Si 2.46397 12.3001 5.84797 0 0 0
76 5 O 3.31828 11.5895 7.13296 0 0 0
77 5 O 1.31394 13.4094 6.46173 0 0 0
79 5 O 1.50492 11.0198 5.15665 0 0 0
83 6 Si 1.52498 10.7875 9.96049 0 0 0
84 6 Si 3.99234 12.0015 8.59018 0 0 0
87 5 O 3.07454 11.401 9.86173 0 0 0
88 5 O 4.01872 13.651 8.75862 0 0 0
89 5 O 5.50193 11.3048 8.67728 0 0 0
90 5 O 5.85433 11.4445 11.3934 0 0 0
91 6 Si 0.00694918 19.201 5.84707 0 0 0
92 6 Si 1.38342 15.0795 6.48729 0 0 0
93 6 Si 3.89733 16.3132 5 0 0 0
94 5 O 0.861677 18.4905 7.1319 0 0 0
95 5 O -1.14296 20.3094 6.46134 0 0 0
96 5 O 2.94449 15.5833 6.22677 0 0 0
97 5 O -0.952567 17.9203 5.15665 0 0 0
98 5 O 0.442021 15.662 5.21008 0 0 0
99 5 O 0.87001 15.5973 7.98323 0 0 0
100 6 Si 0.107459 14.868 9.29174 0 0 0
101 6 Si -0.932015 17.6877 9.96069 0 0 0
102 6 Si 1.53526 18.902 8.58949 0 0 0
103 5 O 1.26076 14.3485 10.3627 0 0 0
104 5 O 4.04813 16.0326 9.98984 0 0 0
105 5 O 0.61733 18.3012 9.86141 0 0 0
106 5 O 1.561 20.5513 8.75865 0 0 0
107 5 O 3.04481 18.2049 8.67733 0 0 0
108 5 O 3.39513 18.3445 11.3938 0 0 0
127 6 Si 7.37866 12.3006 5.84735 0 0 0
131 5 O 6.22896 13.4093 6.46112 0 0 0
133 5 O 6.41988 11.0198 5.15665 0 0 0
137 6 Si 6.44089 10.7875 9.96079 0 0 0
141 5 O 7.98945 11.4025 9.86156 0 0 0
145 6 Si 4.92133 19.2002 5.84878 0 0 0
146 6 Si 6.29826 15.0794 6.48799 0 0 0
149 5 O 3.77141 20.3095 6.46133 0 0 0
151 5 O 3.9624 17.9203 5.15665 0 0 0
152 5 O 5.35699 15.662 5.21008 0 0 0
153 5 O 5.78455 15.5969 7.98355 0 0 0
154 6 Si 5.02347 14.8677 9.29329 0 0 0
155 6 Si 3.9831 17.6875 9.96117 0 0 0
157 5 O 6.17591 14.35 10.3651 0 0 0
159 5 O 5.53201 18.3032 9.8634 0 0 0
252 5 O -3.97757 11.444 11.394 1 0 0
270 5 O -6.4338 18.3453 11.3933 1 0 0
271 2 H -6.27489 20.4349 10.8827 0 -1 0
274 2 H 0.0114738 11.2129 11.599 0 0 0
275 2 H -3.81741 13.5343 10.8835 0 0 0
276 2 H -2.4443 18.1136 11.5997 0 0 0
277 2 H -1.36002 20.4349 10.8831 0 -1 0
280 2 H 4.92726 11.2135 11.5985 0 0 0
281 2 H 1.09721 13.535 10.8835 0 0 0
282 2 H 2.46833 18.1128 11.5982 0 0 0
283 2 H 3.55569 20.4351 10.8827 0 -1 0
287 2 H 6.01437 13.5335 10.8827 0 0 0
386 5 O 4.78439 18.7335 14.2907 0 0 0
366 2 H 6.34577 13.3201 16.6104 0 0 0
343 2 H 1.82229 19.9372 14.9249 0 0 0
342 2 H 2.83124 19.9566 13.4114 0 0 0
307 1 C 2.53479 20.5361 14.3136 0 0 0
367 2 H 6.7649 12.9249 14.885 0 0 0
322 1 C 7.17833 13.1172 15.9009 0 0 0
315 1 C 4.66761 19.5473 15.2931 0 0 0
392 5 O 6.12956 15.7638 16.3553 0 0 0
111 6 Si 13.7273 2.51221 5 0 0 0
112 5 O 10.6894 4.68788 7.13438 0 0 0
114 5 O 12.7743 1.78154 6.22629 0 0 0
120 6 Si 11.3641 5.10176 8.59055 0 0 0
122 5 O 13.8776 2.23195 9.99051 0 0 0
124 5 O 11.3905 6.7513 8.7556 0 0 0
125 5 O 12.8743 4.40484 8.67788 0 0 0
126 5 O 13.2237 4.54352 11.3941 0 0 0
129 6 Si 11.2698 9.41269 5 0 0 0
132 5 O 10.317 8.68229 6.2264 0 0 0
140 5 O 11.4201 9.13291 9.98979 0 0 0
163 6 Si 14.7513 5.39871 5.84878 0 0 0
164 6 Si 16.1283 1.27851 6.48752 0 0 0
165 6 Si 18.6422 2.51221 5 0 0 0
166 5 O 15.6031 4.68765 7.13501 0 0 0
167 5 O 13.601 6.5086 6.46098 0 0 0
168 5 O 17.6894 1.78187 6.22632 0 0 0
169 5 O 13.7923 4.11933 5.15665 0 0 0
170 5 O 15.1869 1.86105 5.21008 0 0 0
171 5 O 15.6147 1.79635 7.98323 0 0 0
172 6 Si 14.8525 1.06698 9.29196 0 0 0
173 6 Si 13.8123 3.88715 9.96143 0 0 0
174 6 Si 16.2787 5.10172 8.59072 0 0 0
175 5 O 16.0051 0.546953 10.363 0 0 0
176 5 O 18.7929 2.2321 9.98969 0 0 0
177 5 O 15.3614 4.50234 9.86343 0 0 0
178 5 O 16.3038 6.75143 8.75585 0 0 0
179 5 O 17.7884 4.40497 8.67838 0 0 0
180 5 O 18.1381 4.54373 11.3945 0 0 0
182 6 Si 13.6707 8.17899 6.48732 0 0 0
183 6 Si 16.1847 9.41269 5 0 0 0
186 5 O 15.232 8.68168 6.22531 0 0 0
188 5 O 12.7294 8.76153 5.21008 0 0 0
189 5 O 13.1577 8.69727 7.98351 0 0 0
190 6 Si 12.395 7.96824 9.292 0 0 0
193 5 O 13.5469 7.44804 10.3641 0 0 0
194 5 O 16.3348 9.13247 9.99042 0 0 0
217 6 Si 19.6662 5.39926 5.84946 0 0 0
218 6 Si 21.0433 1.27862 6.48757 0 0 0
219 6 Si 23.5572 2.51221 5 0 0 0
220 5 O 20.5182 4.68744 7.13522 0 0 0
221 5 O 18.5169 6.50884 6.46116 0 0 0
222 5 O 22.6045 1.78242 6.22653 0 0 0
223 5 O 18.7073 4.11933 5.15665 0 0 0
224 5 O 20.1019 1.86105 5.21008 0 0 0
225 5 O 20.5296 1.79651 7.98319 0 0 0
226 6 Si 19.7675 1.06698 9.29243 0 0 0
227 6 Si 18.7266 3.88706 9.96154 0 0 0
228 6 Si 21.1938 5.10146 8.59111 0 0 0
229 5 O 20.9204 0.547795 10.3634 0 0 0
230 5 O 23.7073 2.2319 9.98954 0 0 0
231 5 O 20.276 4.50181 9.86319 0 0 0
232 5 O 21.22 6.75119 8.7573 0 0 0
233 5 O 22.7035 4.40464 8.67757 0 0 0
236 6 Si 18.5857 8.17881 6.48717 0 0 0
237 6 Si 21.0997 9.41269 5 0 0 0
240 5 O 20.1467 8.68252 6.22655 0 0 0
242 5 O 17.6444 8.76153 5.21008 0 0 0
243 5 O 18.0724 8.69715 7.98349 0 0 0
244 6 Si 17.3099 7.96747 9.29208 0 0 0
247 5 O 18.4629 7.44684 10.3624 0 0 0
248 5 O 21.2502 9.13225 9.99037 0 0 0
284 2 H 12.2964 4.31179 11.598 0 0 0
290 2 H 17.2106 4.31282 11.5976 0 0 0
291 2 H 13.3826 6.63406 10.8841 0 0 0
296 2 H 22.1257 4.31306 11.597 0 0 0
297 2 H 18.297 6.63391 10.8851 0 0 0
301 1 C 10.5217 4.81213 17.8789 0 1 0
341 2 H 11.8198 0.867055 14.5791 0 1 0
324 1 C 9.07182 9.84292 15.7332 0 0 0
383 5 O 11.5077 2.88942 15.7988 0 1 0
333 2 H 10.702 4.87164 16.7842 0 1 0
328 1 C 9.46551 8.57577 13.4939 0 0 0
329 1 C 10.0463 9.56575 14.5533 0 0 0
378 2 H 11.0036 9.16602 14.9667 0 0 0
368 2 H 9.61682 10.0845 16.673 0 0 0
376 2 H 9.97228 8.73585 12.5121 0 0 0
337 2 H 13.1608 4.14055 17.1848 0 1 0
375 2 H 9.69415 7.52148 13.7923 0 0 0
339 2 H 13.5889 3.24766 18.7019 0 1 0
338 2 H 13.2495 5.02056 18.765 0 1 0
335 2 H 11.8047 2.85286 20.5138 0 1 0
304 1 C 12.9565 4.0618 18.2753 0 1 0
332 2 H 10.7019 5.81604 18.3316 0 1 0
302 1 C 11.4584 3.76992 18.5406 0 1 0
303 1 C 11.1684 3.6445 20.0555 0 1 0
334 2 H 11.3776 4.61089 20.5708 0 1 0
130 5 O 8.23309 11.5899 7.13242 0 0 0
138 6 Si 8.90744 12.0025 8.58903 0 0 0
142 5 O 8.9328 13.6522 8.75521 0 0 0
143 5 O 10.4162 11.3045 8.67659 0 0 0
144 5 O 10.7665 11.4443 11.393 0 0 0
147 6 Si 8.8123 16.3132 5 0 0 0
148 5 O 5.77541 18.4897 7.13395 0 0 0
150 5 O 7.85932 15.583 6.22657 0 0 0
156 6 Si 6.44903 18.9028 8.59048 0 0 0
158 5 O 8.96263 16.0332 9.98989 0 0 0
160 5 O 6.47435 20.5524 8.75618 0 0 0
161 5 O 7.95902 18.206 8.67795 0 0 0
162 5 O 8.31045 18.3449 11.3943 0 0 0
181 6 Si 12.2938 12.3002 5.84841 0 0 0
184 5 O 13.1463 11.5899 7.13412 0 0 0
185 5 O 11.1436 13.4094 6.46197 0 0 0
187 5 O 11.3348 11.0198 5.15665 0 0 0
191 6 Si 11.3547 10.7881 9.96091 0 0 0
192 6 Si 13.822 12.0022 8.59018 0 0 0
195 5 O 12.9038 11.4033 9.86272 0 0 0
196 5 O 13.8482 13.6516 8.75608 0 0 0
197 5 O 15.3314 11.3051 8.6782 0 0 0
198 5 O 15.6835 11.4448 11.3934 0 0 0
199 6 Si 9.83637 19.2007 5.84833 0 0 0
200 6 Si 11.2136 15.0796 6.48748 0 0 0
201 6 Si 13.7273 16.3132 5 0 0 0
202 5 O 10.6895 18.4902 7.13352 0 0 0
203 5 O 8.68599 20.3099 6.46143 0 0 0
204 5 O 12.7745 15.583 6.22641 0 0 0
205 5 O 8.87737 17.9203 5.15665 0 0 0
206 5 O 10.272 15.662 5.21008 0 0 0
207 5 O 10.7003 15.5978 7.98372 0 0 0
208 6 Si 9.93785 14.8685 9.29191 0 0 0
209 6 Si 8.89786 17.6885 9.96108 0 0 0
210 6 Si 11.3645 18.903 8.58998 0 0 0
211 5 O 11.0901 14.3487 10.3631 0 0 0
212 5 O 13.878 16.0331 9.99044 0 0 0
213 5 O 10.4472 18.3025 9.86215 0 0 0
214 5 O 11.3902 20.5523 8.75723 0 0 0
215 5 O 12.8737 18.2054 8.67801 0 0 0
216 5 O 13.2253 18.3447 11.3938 0 0 0
235 6 Si 17.2095 12.3004 5.84793 0 0 0
238 5 O 18.0625 11.5898 7.13367 0 0 0
239 5 O 16.0589 13.4092 6.46124 0 0 0
241 5 O 16.2498 11.0198 5.15665 0 0 0
245 6 Si 16.2705 10.788 9.96085 0 0 0
246 6 Si 18.7373 12.002 8.58975 0 0 0
249 5 O 17.8196 11.4025 9.86237 0 0 0
250 5 O 18.7626 13.6513 8.75785 0 0 0
251 5 O 20.2468 11.3051 8.67771 0 0 0
253 6 Si 14.7516 19.2008 5.84829 0 0 0
254 6 Si 16.1281 15.0794 6.48753 0 0 0
255 6 Si 18.6422 16.3132 5 0 0 0
256 5 O 15.605 18.4901 7.13321 0 0 0
257 5 O 13.6019 20.3097 6.46192 0 0 0
258 5 O 17.6894 15.583 6.22632 0 0 0
259 5 O 13.7923 17.9203 5.15665 0 0 0
260 5 O 15.1869 15.662 5.21008 0 0 0
261 5 O 15.6151 15.5977 7.98368 0 0 0
262 6 Si 14.8528 14.8684 9.29201 0 0 0
263 6 Si 13.813 17.6881 9.96124 0 0 0
264 6 Si 16.2796 18.9027 8.5899 0 0 0
265 5 O 16.0051 14.349 10.364 0 0 0
266 5 O 18.7928 16.0329 9.99024 0 0 0
267 5 O 15.3621 18.3026 9.86264 0 0 0
268 5 O 16.3063 20.5519 8.75693 0 0 0
269 5 O 17.7892 18.2055 8.67726 0 0 0
286 2 H 9.839 11.2135 11.5963 0 0 0
288 2 H 7.38359 18.1126 11.5994 0 0 0
289 2 H 8.46807 20.4346 10.8842 0 -1 0
292 2 H 14.7563 11.2125 11.599 0 0 0
293 2 H 10.9263 13.5347 10.8841 0 0 0
294 2 H 12.2984 18.1132 11.5988 0 0 0
295 2 H 13.3846 20.4348 10.883 0 -1 0
298 2 H 19.6702 11.2122 11.5984 0 0 0
299 2 H 15.8415 13.5348 10.8833 0 0 0
300 2 H 17.2136 18.1138 11.5978 0 0 0
318 1 C 13.3132 14.5054 12.8168 0 0 0
358 2 H 14.4269 14.4687 12.7769 0 0 0
359 2 H 12.9783 15.5088 12.4669 0 0 0
317 1 C 12.8183 14.2359 14.2581 0 0 0
360 2 H 12.9073 13.7394 12.1166 0 0 0
356 2 H 14.3221 12.715 14.7356 0 0 0
388 5 O 11.3253 14.3413 14.0955 0 0 0
316 1 C 13.2104 12.8109 14.724 0 0 0
355 2 H 12.8045 12.0457 14.0207 0 0 0
357 2 H 12.819 12.6031 15.7429 0 0 0
364 2 H 9.01734 14.9801 13.992 0 0 0
377 2 H 10.2891 10.5482 14.0812 0 0 0
320 1 C 10.5093 14.1188 15.1786 0 0 0
381 4 N 9.14375 14.3059 14.7756 0 0 0
319 1 C 13.3016 15.3365 15.2354 0 0 0
362 2 H 14.4167 15.3674 15.2517 0 0 0
363 2 H 12.9323 16.3356 14.9034 0 0 0
361 2 H 12.9343 15.1432 16.2673 0 0 0
389 5 O 10.8532 13.77 16.3114 0 0 0
379 3 Mg 5.96626 17.6066 15.506 0 0 0
321 1 C 8.10009 14.378 15.8629 0 0 0