ITEM: TIMESTEP
0
ITEM: NUMBER OF ATOMS
393
ITEM: BOX BOUNDS xy xz yz pp pp ff
-7.3724492699999997e+00 2.4574830899999998e+01 -7.3724492699999997e+00
0.0000000000000000e+00 2.0701456793999998e+01 0.0000000000000000e+00
0.0000000000000000e+00 3.6159325252999999e+01 0.0000000000000000e+00
ITEM: ATOMS id type element x y z ix iy iz
1 6 Si 0.00622726 5.39871 5.84924 0 0 0
2 6 Si 1.38346 1.27811 6.48741 0 0 0
3 6 Si 3.89733 2.51221 5 0 0 0
4 5 O 0.858352 4.68694 7.13486 0 0 0
5 5 O -1.14378 6.50859 6.46205 0 0 0
6 5 O 2.94457 1.78139 6.226 0 0 0
7 5 O -0.952567 4.11933 5.15665 0 0 0
8 5 O 0.442021 1.86105 5.21008 0 0 0
9 5 O 0.870684 1.7965 7.98348 0 0 0
10 6 Si 0.108347 1.0673 9.29214 0 0 0
11 6 Si -0.932944 3.88682 9.96119 0 0 0
12 6 Si 1.53387 5.10158 8.5903 0 0 0
13 5 O 1.25995 0.548871 10.3652 0 0 0
14 5 O 4.0475 2.23179 9.99057 0 0 0
15 5 O 0.616427 4.50304 9.86346 0 0 0
16 5 O 1.55993 6.7512 8.75528 0 0 0
17 5 O 3.0434 4.40433 8.67773 0 0 0
18 5 O 3.39493 4.54421 11.3942 0 0 0
20 6 Si -1.07443 8.17899 6.48741 0 0 0
21 6 Si 1.43985 9.41269 5 0 0 0
24 5 O 0.48677 8.68222 6.22631 0 0 0
26 5 O -2.01546 8.76153 5.21008 0 0 0
27 5 O -1.58752 8.69681 7.98347 0 0 0
28 6 Si -2.34944 7.96739 9.29251 0 0 0
31 5 O -1.19709 7.44814 10.364 0 0 0
32 5 O 1.58973 9.13228 9.98983 0 0 0
55 6 Si 4.92164 5.3998 5.84881 0 0 0
56 6 Si 6.29867 1.27862 6.48761 0 0 0
57 6 Si 8.8123 2.51221 5 0 0 0
58 5 O 5.77436 4.68857 7.13341 0 0 0
59 5 O 3.77178 6.50872 6.46115 0 0 0
60 5 O 7.85968 1.78234 6.2264 0 0 0
61 5 O 3.9624 4.11933 5.15665 0 0 0
62 5 O 5.35699 1.86105 5.21008 0 0 0
63 5 O 5.78483 1.79682 7.98346 0 0 0
64 6 Si 5.02283 1.06715 9.29213 0 0 0
65 6 Si 3.98204 3.88696 9.96118 0 0 0
66 6 Si 6.44906 5.10138 8.58986 0 0 0
67 5 O 6.17476 0.548476 10.3642 0 0 0
68 5 O 8.9627 2.23168 9.98953 0 0 0
69 5 O 5.53151 4.50162 9.86252 0 0 0
70 5 O 6.4755 6.75064 8.75727 0 0 0
71 5 O 7.95899 4.40475 8.67802 0 0 0
72 5 O 8.30915 4.54312 11.3937 0 0 0
74 6 Si 3.84116 8.17897 6.4874 0 0 0
75 6 Si 6.35482 9.41269 5 0 0 0
78 5 O 5.40192 8.68265 6.2263 0 0 0
80 5 O 2.8995 8.76153 5.21008 0 0 0
81 5 O 3.32757 8.69718 7.98326 0 0 0
82 6 Si 2.56495 7.96765 9.29157 0 0 0
85 5 O 3.71742 7.44801 10.3633 0 0 0
86 5 O 6.5055 9.13243 9.98953 0 0 0
109 6 Si 9.8366 5.39916 5.84913 0 0 0
110 6 Si 11.2129 1.27822 6.48797 0 0 0
113 5 O 8.68707 6.50833 6.46242 0 0 0
115 5 O 8.87737 4.11933 5.15665 0 0 0
116 5 O 10.272 1.86105 5.21008 0 0 0
117 5 O 10.6991 1.7961 7.98356 0 0 0
118 6 Si 9.93775 1.06695 9.29289 0 0 0
119 6 Si 8.8973 3.88685 9.96147 0 0 0
121 5 O 11.0905 0.548691 10.3647 0 0 0
123 5 O 10.4464 4.50259 9.86373 0 0 0
128 6 Si 8.75579 8.17886 6.48773 0 0 0
134 5 O 7.81447 8.76153 5.21008 0 0 0
135 5 O 8.24249 8.69677 7.98368 0 0 0
136 6 Si 7.48025 7.96744 9.29255 0 0 0
139 5 O 8.63292 7.44897 10.3645 0 0 0
234 5 O -1.52147 4.54409 11.3937 1 0 0
272 2 H 2.46779 4.31228 11.5991 0 0 0
273 2 H -1.36069 6.63353 10.8837 0 0 0
278 2 H 7.38169 4.31262 11.5974 0 0 0
279 2 H 3.55329 6.63381 10.8841 0 0 0
285 2 H 8.47008 6.63393 10.8828 0 0 0
302 1 C 4.00978 4.5124 17.6248 0 0 0
303 1 C 2.56979 5.01428 17.3615 0 0 0
304 1 C 4.87829 4.59362 16.3445 0 0 0
332 2 H 3.52714 2.37652 17.5373 0 0 0
334 2 H 2.06154 4.35837 16.6168 0 0 0
335 2 H 2.58215 6.05622 16.9669 0 0 0
337 2 H 5.91467 4.24152 16.5423 0 0 0
338 2 H 4.43181 3.9606 15.5415 0 0 0
339 2 H 4.92022 5.64497 15.9737 0 0 0
301 1 C 3.99963 3.0942 18.2493 0 0 0
305 1 C 5.77354 5.38799 19.1464 0 0 0
306 1 C 7.43795 6.68329 20.5218 0 0 0
307 1 C 7.6269 6.32148 22.0298 0 0 0
308 1 C 7.53699 4.80389 22.2548 0 0 0
309 1 C 6.08641 3.00251 23.0024 0 0 0
310 1 C 6.4941 2.68161 24.4576 0 0 0
311 1 C 5.68318 3.518 25.5037 0 0 0
312 1 C 4.24634 3.88849 25.0049 0 0 0
313 1 C 3.69775 2.82173 24.0207 0 0 0
314 1 C 4.57823 2.73467 22.7334 0 0 0
315 1 C 7.89455 8.13206 20.2588 0 0 0
331 2 H 3.40378 3.08826 19.1927 0 0 0
333 2 H 5.03174 2.7514 18.4764 0 0 0
336 2 H 1.97669 5.00655 18.3048 0 0 0
340 2 H 5.49987 7.35147 19.8137 0 0 0
341 2 H 8.10243 6.01507 19.9145 0 0 0
342 2 H 8.64357 6.65104 22.3387 0 0 0
343 2 H 6.86094 6.85075 22.6407 0 0 0
344 2 H 6.73859 2.46298 22.2798 0 0 0
345 2 H 7.59132 2.839 24.5799 0 0 0
346 2 H 6.31801 1.58851 24.615 0 0 0
347 2 H 6.24061 4.45261 25.7514 0 0 0
348 2 H 5.61885 2.93352 26.4541 0 0 0
349 2 H 4.2764 4.87468 24.4808 0 0 0
350 2 H 3.55797 4.0089 25.8754 0 0 0
351 2 H 3.67474 1.82744 24.5342 0 0 0
352 2 H 2.64153 3.04865 23.7391 0 0 0
353 2 H 4.23638 3.47733 21.9728 0 0 0
354 2 H 4.47235 1.7268 22.2644 0 0 0
379 3 Mg 8.60394 10.3286 19.8463 0 0 0
380 4 N 6.02071 6.48005 20.0455 0 0 0
382 5 O 4.5092 5.52108 18.6246 0 0 0
383 5 O 6.57361 4.47202 18.9364 0 0 0
384 5 O 8.44143 4.01293 22.0022 0 0 0
385 5 O 6.30865 4.45882 22.7635 0 0 0
386 5 O 8.95411 8.59137 20.8479 0 0 0
387 5 O 7.21971 8.88558 19.4471 0 0 0
19 6 Si -2.45133 12.2998 5.84837 0 0 0
22 5 O -1.59813 11.5887 7.13367 0 0 0
23 5 O -3.60089 13.4094 6.46218 0 0 0
25 5 O -3.41005 11.0198 5.15665 0 0 0
29 6 Si -3.38971 10.7876 9.96123 0 0 0
30 6 Si -0.92316 12.0018 8.59021 0 0 0
33 5 O -1.84036 11.4025 9.86277 0 0 0
34 5 O -0.897893 13.6514 8.7566 0 0 0
35 5 O 0.586401 11.3048 8.67714 0 0 0
36 5 O 0.938456 11.4444 11.3935 0 0 0
37 6 Si -4.90833 19.2005 5.84786 0 0 0
38 6 Si -3.53169 15.0798 6.48776 0 0 0
39 6 Si -1.01763 16.3132 5 0 0 0
40 5 O -4.05457 18.4899 7.13316 0 0 0
41 5 O -6.05829 20.3093 6.46125 0 0 0
42 5 O -1.97072 15.5828 6.22614 0 0 0
43 5 O -5.86753 17.9203 5.15665 0 0 0
44 5 O -4.47294 15.662 5.21008 0 0 0
45 5 O -4.04527 15.5976 7.98349 0 0 0
46 6 Si -4.80722 14.8679 9.29252 0 0 0
47 6 Si -5.84679 17.6884 9.96068 0 0 0
48 6 Si -3.38015 18.9025 8.58982 0 0 0
49 5 O -3.65443 14.349 10.364 0 0 0
50 5 O -0.867282 16.0326 9.99043 0 0 0
51 5 O -4.29754 18.3025 9.86237 0 0 0
52 5 O -3.35408 20.5521 8.75656 0 0 0
53 5 O -1.8709 18.2053 8.67713 0 0 0
54 5 O -1.51777 18.3454 11.3935 0 0 0
73 6 Si 2.46397 12.3001 5.84797 0 0 0
76 5 O 3.31828 11.5895 7.13296 0 0 0
77 5 O 1.31394 13.4094 6.46173 0 0 0
79 5 O 1.50492 11.0198 5.15665 0 0 0
83 6 Si 1.52498 10.7875 9.96049 0 0 0
84 6 Si 3.99234 12.0015 8.59018 0 0 0
87 5 O 3.07454 11.401 9.86173 0 0 0
88 5 O 4.01872 13.651 8.75862 0 0 0
89 5 O 5.50193 11.3048 8.67728 0 0 0
90 5 O 5.85433 11.4445 11.3934 0 0 0
91 6 Si 0.00694918 19.201 5.84707 0 0 0
92 6 Si 1.38342 15.0795 6.48729 0 0 0
93 6 Si 3.89733 16.3132 5 0 0 0
94 5 O 0.861677 18.4905 7.1319 0 0 0
95 5 O -1.14296 20.3094 6.46134 0 0 0
96 5 O 2.94449 15.5833 6.22677 0 0 0
97 5 O -0.952567 17.9203 5.15665 0 0 0
98 5 O 0.442021 15.662 5.21008 0 0 0
99 5 O 0.87001 15.5973 7.98323 0 0 0
100 6 Si 0.107459 14.868 9.29174 0 0 0
101 6 Si -0.932015 17.6877 9.96069 0 0 0
102 6 Si 1.53526 18.902 8.58949 0 0 0
103 5 O 1.26076 14.3485 10.3627 0 0 0
104 5 O 4.04813 16.0326 9.98984 0 0 0
105 5 O 0.61733 18.3012 9.86141 0 0 0
106 5 O 1.561 20.5513 8.75865 0 0 0
107 5 O 3.04481 18.2049 8.67733 0 0 0
108 5 O 3.39513 18.3445 11.3938 0 0 0
127 6 Si 7.37866 12.3006 5.84735 0 0 0
131 5 O 6.22896 13.4093 6.46112 0 0 0
133 5 O 6.41988 11.0198 5.15665 0 0 0
137 6 Si 6.44089 10.7875 9.96079 0 0 0
141 5 O 7.98945 11.4025 9.86156 0 0 0
145 6 Si 4.92133 19.2002 5.84878 0 0 0
146 6 Si 6.29826 15.0794 6.48799 0 0 0
149 5 O 3.77141 20.3095 6.46133 0 0 0
151 5 O 3.9624 17.9203 5.15665 0 0 0
152 5 O 5.35699 15.662 5.21008 0 0 0
153 5 O 5.78455 15.5969 7.98355 0 0 0
154 6 Si 5.02347 14.8677 9.29329 0 0 0
155 6 Si 3.9831 17.6875 9.96117 0 0 0
157 5 O 6.17591 14.35 10.3651 0 0 0
159 5 O 5.53201 18.3032 9.8634 0 0 0
252 5 O -3.97757 11.444 11.394 1 0 0
270 5 O -6.4338 18.3453 11.3933 1 0 0
271 2 H -6.27489 20.4349 10.8827 0 -1 0
274 2 H 0.0114738 11.2129 11.599 0 0 0
275 2 H -3.81741 13.5343 10.8835 0 0 0
276 2 H -2.4443 18.1136 11.5997 0 0 0
277 2 H -1.36002 20.4349 10.8831 0 -1 0
280 2 H 4.92726 11.2135 11.5985 0 0 0
281 2 H 1.09721 13.535 10.8835 0 0 0
282 2 H 2.46833 18.1128 11.5982 0 0 0
283 2 H 3.55569 20.4351 10.8827 0 -1 0
287 2 H 6.01437 13.5335 10.8827 0 0 0
111 6 Si 13.7273 2.51221 5 0 0 0
112 5 O 10.6894 4.68788 7.13438 0 0 0
114 5 O 12.7743 1.78154 6.22629 0 0 0
120 6 Si 11.3641 5.10176 8.59055 0 0 0
122 5 O 13.8776 2.23195 9.99051 0 0 0
124 5 O 11.3905 6.7513 8.7556 0 0 0
125 5 O 12.8743 4.40484 8.67788 0 0 0
126 5 O 13.2237 4.54352 11.3941 0 0 0
129 6 Si 11.2698 9.41269 5 0 0 0
132 5 O 10.317 8.68229 6.2264 0 0 0
140 5 O 11.4201 9.13291 9.98979 0 0 0
163 6 Si 14.7513 5.39871 5.84878 0 0 0
164 6 Si 16.1283 1.27851 6.48752 0 0 0
165 6 Si 18.6422 2.51221 5 0 0 0
166 5 O 15.6031 4.68765 7.13501 0 0 0
167 5 O 13.601 6.5086 6.46098 0 0 0
168 5 O 17.6894 1.78187 6.22632 0 0 0
169 5 O 13.7923 4.11933 5.15665 0 0 0
170 5 O 15.1869 1.86105 5.21008 0 0 0
171 5 O 15.6147 1.79635 7.98323 0 0 0
172 6 Si 14.8525 1.06698 9.29196 0 0 0
173 6 Si 13.8123 3.88715 9.96143 0 0 0
174 6 Si 16.2787 5.10172 8.59072 0 0 0
175 5 O 16.0051 0.546953 10.363 0 0 0
176 5 O 18.7929 2.2321 9.98969 0 0 0
177 5 O 15.3614 4.50234 9.86343 0 0 0
178 5 O 16.3038 6.75143 8.75585 0 0 0
179 5 O 17.7884 4.40497 8.67838 0 0 0
180 5 O 18.1381 4.54373 11.3945 0 0 0
182 6 Si 13.6707 8.17899 6.48732 0 0 0
183 6 Si 16.1847 9.41269 5 0 0 0
186 5 O 15.232 8.68168 6.22531 0 0 0
188 5 O 12.7294 8.76153 5.21008 0 0 0
189 5 O 13.1577 8.69727 7.98351 0 0 0
190 6 Si 12.395 7.96824 9.292 0 0 0
193 5 O 13.5469 7.44804 10.3641 0 0 0
194 5 O 16.3348 9.13247 9.99042 0 0 0
217 6 Si 19.6662 5.39926 5.84946 0 0 0
218 6 Si 21.0433 1.27862 6.48757 0 0 0
219 6 Si 23.5572 2.51221 5 0 0 0
220 5 O 20.5182 4.68744 7.13522 0 0 0
221 5 O 18.5169 6.50884 6.46116 0 0 0
222 5 O 22.6045 1.78242 6.22653 0 0 0
223 5 O 18.7073 4.11933 5.15665 0 0 0
224 5 O 20.1019 1.86105 5.21008 0 0 0
225 5 O 20.5296 1.79651 7.98319 0 0 0
226 6 Si 19.7675 1.06698 9.29243 0 0 0
227 6 Si 18.7266 3.88706 9.96154 0 0 0
228 6 Si 21.1938 5.10146 8.59111 0 0 0
229 5 O 20.9204 0.547795 10.3634 0 0 0
230 5 O 23.7073 2.2319 9.98954 0 0 0
231 5 O 20.276 4.50181 9.86319 0 0 0
232 5 O 21.22 6.75119 8.7573 0 0 0
233 5 O 22.7035 4.40464 8.67757 0 0 0
236 6 Si 18.5857 8.17881 6.48717 0 0 0
237 6 Si 21.0997 9.41269 5 0 0 0
240 5 O 20.1467 8.68252 6.22655 0 0 0
242 5 O 17.6444 8.76153 5.21008 0 0 0
243 5 O 18.0724 8.69715 7.98349 0 0 0
244 6 Si 17.3099 7.96747 9.29208 0 0 0
247 5 O 18.4629 7.44684 10.3624 0 0 0
248 5 O 21.2502 9.13225 9.99037 0 0 0
284 2 H 12.2964 4.31179 11.598 0 0 0
290 2 H 17.2106 4.31282 11.5976 0 0 0
291 2 H 13.3826 6.63406 10.8841 0 0 0
296 2 H 22.1257 4.31306 11.597 0 0 0
297 2 H 18.297 6.63391 10.8851 0 0 0
130 5 O 8.23309 11.5899 7.13242 0 0 0
138 6 Si 8.90744 12.0025 8.58903 0 0 0
142 5 O 8.9328 13.6522 8.75521 0 0 0
143 5 O 10.4162 11.3045 8.67659 0 0 0
144 5 O 10.7665 11.4443 11.393 0 0 0
147 6 Si 8.8123 16.3132 5 0 0 0
148 5 O 5.77541 18.4897 7.13395 0 0 0
150 5 O 7.85932 15.583 6.22657 0 0 0
156 6 Si 6.44903 18.9028 8.59048 0 0 0
158 5 O 8.96263 16.0332 9.98989 0 0 0
160 5 O 6.47435 20.5524 8.75618 0 0 0
161 5 O 7.95902 18.206 8.67795 0 0 0
162 5 O 8.31045 18.3449 11.3943 0 0 0
181 6 Si 12.2938 12.3002 5.84841 0 0 0
184 5 O 13.1463 11.5899 7.13412 0 0 0
185 5 O 11.1436 13.4094 6.46197 0 0 0
187 5 O 11.3348 11.0198 5.15665 0 0 0
191 6 Si 11.3547 10.7881 9.96091 0 0 0
192 6 Si 13.822 12.0022 8.59018 0 0 0
195 5 O 12.9038 11.4033 9.86272 0 0 0
196 5 O 13.8482 13.6516 8.75608 0 0 0
197 5 O 15.3314 11.3051 8.6782 0 0 0
198 5 O 15.6835 11.4448 11.3934 0 0 0
199 6 Si 9.83637 19.2007 5.84833 0 0 0
200 6 Si 11.2136 15.0796 6.48748 0 0 0
201 6 Si 13.7273 16.3132 5 0 0 0
202 5 O 10.6895 18.4902 7.13352 0 0 0
203 5 O 8.68599 20.3099 6.46143 0 0 0
204 5 O 12.7745 15.583 6.22641 0 0 0
205 5 O 8.87737 17.9203 5.15665 0 0 0
206 5 O 10.272 15.662 5.21008 0 0 0
207 5 O 10.7003 15.5978 7.98372 0 0 0
208 6 Si 9.93785 14.8685 9.29191 0 0 0
209 6 Si 8.89786 17.6885 9.96108 0 0 0
210 6 Si 11.3645 18.903 8.58998 0 0 0
211 5 O 11.0901 14.3487 10.3631 0 0 0
212 5 O 13.878 16.0331 9.99044 0 0 0
213 5 O 10.4472 18.3025 9.86215 0 0 0
214 5 O 11.3902 20.5523 8.75723 0 0 0
215 5 O 12.8737 18.2054 8.67801 0 0 0
216 5 O 13.2253 18.3447 11.3938 0 0 0
235 6 Si 17.2095 12.3004 5.84793 0 0 0
238 5 O 18.0625 11.5898 7.13367 0 0 0
239 5 O 16.0589 13.4092 6.46124 0 0 0
241 5 O 16.2498 11.0198 5.15665 0 0 0
245 6 Si 16.2705 10.788 9.96085 0 0 0
246 6 Si 18.7373 12.002 8.58975 0 0 0
249 5 O 17.8196 11.4025 9.86237 0 0 0
250 5 O 18.7626 13.6513 8.75785 0 0 0
251 5 O 20.2468 11.3051 8.67771 0 0 0
253 6 Si 14.7516 19.2008 5.84829 0 0 0
254 6 Si 16.1281 15.0794 6.48753 0 0 0
255 6 Si 18.6422 16.3132 5 0 0 0
256 5 O 15.605 18.4901 7.13321 0 0 0
257 5 O 13.6019 20.3097 6.46192 0 0 0
258 5 O 17.6894 15.583 6.22632 0 0 0
259 5 O 13.7923 17.9203 5.15665 0 0 0
260 5 O 15.1869 15.662 5.21008 0 0 0
261 5 O 15.6151 15.5977 7.98368 0 0 0
262 6 Si 14.8528 14.8684 9.29201 0 0 0
263 6 Si 13.813 17.6881 9.96124 0 0 0
264 6 Si 16.2796 18.9027 8.5899 0 0 0
265 5 O 16.0051 14.349 10.364 0 0 0
266 5 O 18.7928 16.0329 9.99024 0 0 0
267 5 O 15.3621 18.3026 9.86264 0 0 0
268 5 O 16.3063 20.5519 8.75693 0 0 0
269 5 O 17.7892 18.2055 8.67726 0 0 0
286 2 H 9.839 11.2135 11.5963 0 0 0
288 2 H 7.38359 18.1126 11.5994 0 0 0
289 2 H 8.46807 20.4346 10.8842 0 -1 0
292 2 H 14.7563 11.2125 11.599 0 0 0
293 2 H 10.9263 13.5347 10.8841 0 0 0
294 2 H 12.2984 18.1132 11.5988 0 0 0
295 2 H 13.3846 20.4348 10.883 0 -1 0
298 2 H 19.6702 11.2122 11.5984 0 0 0
299 2 H 15.8415 13.5348 10.8833 0 0 0
300 2 H 17.2136 18.1138 11.5978 0 0 0
316 1 C 13.34 16.5031 15.9053 0 0 0
317 1 C 13.3461 14.9546 15.8485 0 0 0
318 1 C 14.7922 14.4036 15.8554 0 0 0
319 1 C 12.5365 14.399 14.6501 0 0 0
320 1 C 11.5067 14.6869 17.5031 0 0 0
355 2 H 13.892 16.862 16.8061 0 0 0
356 2 H 13.8509 16.9115 15.0012 0 0 0
357 2 H 12.3016 16.8965 15.9422 0 0 0
358 2 H 15.3398 14.7428 14.9453 0 0 0
359 2 H 14.7888 13.2895 15.873 0 0 0
360 2 H 15.3414 14.7641 16.7554 0 0 0
361 2 H 11.4953 14.7901 14.6562 0 0 0
362 2 H 13.0249 14.6949 13.6916 0 0 0
363 2 H 12.5024 13.2846 14.6919 0 0 0
388 5 O 12.7925 14.3817 17.1259 0 0 0
389 5 O 10.7252 15.4536 16.9334 0 0 0
321 1 C 9.76967 13.976 19.1815 0 0 0
322 1 C 9.51493 14.8671 20.4392 0 0 0
323 1 C 9.60774 16.3613 20.0921 0 0 0
324 1 C 11.0382 18.3241 20.1879 0 0 0
325 1 C 10.5671 19.1558 21.4017 0 0 0
326 1 C 11.3218 18.7717 22.7185 0 0 0
327 1 C 12.7767 18.2559 22.4581 0 0 0
328 1 C 13.3792 18.8889 21.176 0 0 0
329 1 C 12.5595 18.487 19.9086 0 0 0
330 1 C 9.31291 12.5285 19.4511 0 0 0
364 2 H 11.7323 13.1107 18.8598 0 0 0
365 2 H 9.13965 14.3671 18.3407 0 0 0
366 2 H 8.4823 14.6659 20.8009 0 0 0
367 2 H 10.2474 14.6074 21.2367 0 0 0
368 2 H 10.4247 18.5531 19.2881 0 0 0
369 2 H 9.46405 19.045 21.5228 0 0 0
370 2 H 10.7453 20.2314 21.1524 0 0 0
371 2 H 10.7454 17.9896 23.2678 0 0 0
372 2 H 11.3476 19.6662 23.388 0 0 0
373 2 H 12.762 17.1457 22.3342 0 0 0
374 2 H 13.4233 18.4713 23.3422 0 0 0
375 2 H 13.3873 20.0027 21.2868 0 0 0
376 2 H 14.4452 18.5834 21.0468 0 0 0
377 2 H 12.9293 17.5191 19.4922 0 0 0
378 2 H 12.6956 19.2516 19.1061 0 0 0
381 4 N 11.209 14.0016 18.7294 0 0 0
390 5 O 8.72282 16.9953 19.5242 0 0 0
391 5 O 10.8144 16.8805 20.4934 0 0 0
392 5 O 8.22346 12.3097 20.1189 0 0 0
393 5 O 10.0177 11.5345 19.0067 0 0 0
ITEM: TIMESTEP
100000
ITEM: NUMBER OF ATOMS
393
ITEM: BOX BOUNDS xy xz yz pp pp ff
-7.3724492699999997e+00 2.4574830899999998e+01 -7.3724492699999997e+00
0.0000000000000000e+00 2.0701456793999998e+01 0.0000000000000000e+00
0.0000000000000000e+00 3.6159325252999999e+01 0.0000000000000000e+00
ITEM: ATOMS id type element x y z ix iy iz
1 6 Si 0.00622726 5.39871 5.84924 0 0 0
2 6 Si 1.38346 1.27811 6.48741 0 0 0
3 6 Si 3.89733 2.51221 5 0 0 0
4 5 O 0.858352 4.68694 7.13486 0 0 0
5 5 O -1.14378 6.50859 6.46205 0 0 0
6 5 O 2.94457 1.78139 6.226 0 0 0
7 5 O -0.952567 4.11933 5.15665 0 0 0
8 5 O 0.442021 1.86105 5.21008 0 0 0
9 5 O 0.870684 1.7965 7.98348 0 0 0
10 6 Si 0.108347 1.0673 9.29214 0 0 0
11 6 Si -0.932944 3.88682 9.96119 0 0 0
12 6 Si 1.53387 5.10158 8.5903 0 0 0
13 5 O 1.25995 0.548871 10.3652 0 0 0
14 5 O 4.0475 2.23179 9.99057 0 0 0
15 5 O 0.616427 4.50304 9.86346 0 0 0
16 5 O 1.55993 6.7512 8.75528 0 0 0
17 5 O 3.0434 4.40433 8.67773 0 0 0
18 5 O 3.39493 4.54421 11.3942 0 0 0
20 6 Si -1.07443 8.17899 6.48741 0 0 0
21 6 Si 1.43985 9.41269 5 0 0 0
24 5 O 0.48677 8.68222 6.22631 0 0 0
26 5 O -2.01546 8.76153 5.21008 0 0 0
27 5 O -1.58752 8.69681 7.98347 0 0 0
28 6 Si -2.34944 7.96739 9.29251 0 0 0
31 5 O -1.19709 7.44814 10.364 0 0 0
32 5 O 1.58973 9.13228 9.98983 0 0 0
55 6 Si 4.92164 5.3998 5.84881 0 0 0
56 6 Si 6.29867 1.27862 6.48761 0 0 0
57 6 Si 8.8123 2.51221 5 0 0 0
58 5 O 5.77436 4.68857 7.13341 0 0 0
59 5 O 3.77178 6.50872 6.46115 0 0 0
60 5 O 7.85968 1.78234 6.2264 0 0 0
61 5 O 3.9624 4.11933 5.15665 0 0 0
62 5 O 5.35699 1.86105 5.21008 0 0 0
63 5 O 5.78483 1.79682 7.98346 0 0 0
64 6 Si 5.02283 1.06715 9.29213 0 0 0
65 6 Si 3.98204 3.88696 9.96118 0 0 0
66 6 Si 6.44906 5.10138 8.58986 0 0 0
67 5 O 6.17476 0.548476 10.3642 0 0 0
68 5 O 8.9627 2.23168 9.98953 0 0 0
69 5 O 5.53151 4.50162 9.86252 0 0 0
70 5 O 6.4755 6.75064 8.75727 0 0 0
71 5 O 7.95899 4.40475 8.67802 0 0 0
72 5 O 8.30915 4.54312 11.3937 0 0 0
74 6 Si 3.84116 8.17897 6.4874 0 0 0
75 6 Si 6.35482 9.41269 5 0 0 0
78 5 O 5.40192 8.68265 6.2263 0 0 0
80 5 O 2.8995 8.76153 5.21008 0 0 0
81 5 O 3.32757 8.69718 7.98326 0 0 0
82 6 Si 2.56495 7.96765 9.29157 0 0 0
85 5 O 3.71742 7.44801 10.3633 0 0 0
86 5 O 6.5055 9.13243 9.98953 0 0 0
109 6 Si 9.8366 5.39916 5.84913 0 0 0
110 6 Si 11.2129 1.27822 6.48797 0 0 0
113 5 O 8.68707 6.50833 6.46242 0 0 0
115 5 O 8.87737 4.11933 5.15665 0 0 0
116 5 O 10.272 1.86105 5.21008 0 0 0
117 5 O 10.6991 1.7961 7.98356 0 0 0
118 6 Si 9.93775 1.06695 9.29289 0 0 0
119 6 Si 8.8973 3.88685 9.96147 0 0 0
121 5 O 11.0905 0.548691 10.3647 0 0 0
123 5 O 10.4464 4.50259 9.86373 0 0 0
128 6 Si 8.75579 8.17886 6.48773 0 0 0
134 5 O 7.81447 8.76153 5.21008 0 0 0
135 5 O 8.24249 8.69677 7.98368 0 0 0
136 6 Si 7.48025 7.96744 9.29255 0 0 0
139 5 O 8.63292 7.44897 10.3645 0 0 0
234 5 O -1.52147 4.54409 11.3937 1 0 0
272 2 H 2.46779 4.31228 11.5991 0 0 0
273 2 H -1.36069 6.63353 10.8837 0 0 0
278 2 H 7.38169 4.31262 11.5974 0 0 0
279 2 H 3.55329 6.63381 10.8841 0 0 0
285 2 H 8.47008 6.63393 10.8828 0 0 0
302 1 C 4.79059 2.66906 14.6571 0 0 0
303 1 C 3.33508 3.1469 14.4383 0 0 0
304 1 C 5.6676 2.94255 13.4097 0 0 0
332 2 H 4.39076 0.54491 14.2956 0 0 0
334 2 H 2.85942 2.57173 13.61 0 0 0
335 2 H 3.31141 4.22997 14.1776 0 0 0
337 2 H 6.71474 2.60664 13.5766 0 0 0
338 2 H 5.25336 2.39967 12.5274 0 0 0
339 2 H 5.67289 4.03304 13.1742 0 0 0
301 1 C 4.82864 1.18414 15.0986 0 0 0
333 2 H 5.87087 0.853585 15.2957 0 0 0
336 2 H 2.73369 2.99877 15.3646 0 0 0
382 5 O 5.24151 3.56154 15.7826 0 0 0
305 1 C 6.50496 3.41033 16.3016 0 0 0
331 2 H 4.22444 1.03767 16.0252 0 0 0
383 5 O 7.34141 2.55805 15.9898 0 0 0
387 5 O 7.81352 6.89297 17.0591 0 0 0
380 4 N 6.7016 4.38889 17.334 0 0 0
379 3 Mg 9.13772 8.32411 17.6559 0 0 0
340 2 H 6.15009 5.26285 17.2059 0 0 0
341 2 H 8.80072 4.02079 17.1755 0 0 0
315 1 C 8.50884 6.06856 17.7795 0 0 0
306 1 C 8.10541 4.58245 17.8522 0 0 0
385 5 O 7.04047 2.05364 19.7809 0 0 0
386 5 O 9.54438 6.48865 18.4367 0 0 0
347 2 H 6.94408 1.66897 22.7431 0 0 0
307 1 C 8.29358 4.04092 19.3055 0 0 0
308 1 C 8.25955 2.50482 19.3371 0 0 0
309 1 C 6.87175 0.571672 19.8321 0 0 0
310 1 C 7.27742 0.0853619 21.2413 0 0 0
311 1 C 6.42516 0.753148 22.3722 0 0 0
312 1 C 4.98006 1.1305 21.9033 0 0 0
313 1 C 4.48208 0.176667 20.7854 0 0 0
314 1 C 5.37754 0.284645 19.5101 0 0 0
350 2 H 4.27928 1.11507 22.7721 0 0 0
353 2 H 5.01489 1.10408 18.8438 0 0 0
384 5 O 9.19593 1.78566 19.0003 0 0 0
349 2 H 4.97745 2.17522 21.5076 0 0 0
352 2 H 3.42072 0.398306 20.5194 0 0 0
345 2 H 8.36661 0.266281 21.398 0 0 0
342 2 H 9.29391 4.36607 19.6678 0 0 0
343 2 H 7.50213 4.46064 19.9669 0 0 0
344 2 H 7.55095 0.151658 19.057 0 0 0
19 6 Si -2.45133 12.2998 5.84837 0 0 0
22 5 O -1.59813 11.5887 7.13367 0 0 0
23 5 O -3.60089 13.4094 6.46218 0 0 0
25 5 O -3.41005 11.0198 5.15665 0 0 0
29 6 Si -3.38971 10.7876 9.96123 0 0 0
30 6 Si -0.92316 12.0018 8.59021 0 0 0
33 5 O -1.84036 11.4025 9.86277 0 0 0
34 5 O -0.897893 13.6514 8.7566 0 0 0
35 5 O 0.586401 11.3048 8.67714 0 0 0
36 5 O 0.938456 11.4444 11.3935 0 0 0
37 6 Si -4.90833 19.2005 5.84786 0 0 0
38 6 Si -3.53169 15.0798 6.48776 0 0 0
39 6 Si -1.01763 16.3132 5 0 0 0
40 5 O -4.05457 18.4899 7.13316 0 0 0
41 5 O -6.05829 20.3093 6.46125 0 0 0
42 5 O -1.97072 15.5828 6.22614 0 0 0
43 5 O -5.86753 17.9203 5.15665 0 0 0
44 5 O -4.47294 15.662 5.21008 0 0 0
45 5 O -4.04527 15.5976 7.98349 0 0 0
46 6 Si -4.80722 14.8679 9.29252 0 0 0
47 6 Si -5.84679 17.6884 9.96068 0 0 0
48 6 Si -3.38015 18.9025 8.58982 0 0 0
49 5 O -3.65443 14.349 10.364 0 0 0
50 5 O -0.867282 16.0326 9.99043 0 0 0
51 5 O -4.29754 18.3025 9.86237 0 0 0
52 5 O -3.35408 20.5521 8.75656 0 0 0
53 5 O -1.8709 18.2053 8.67713 0 0 0
54 5 O -1.51777 18.3454 11.3935 0 0 0
73 6 Si 2.46397 12.3001 5.84797 0 0 0
76 5 O 3.31828 11.5895 7.13296 0 0 0
77 5 O 1.31394 13.4094 6.46173 0 0 0
79 5 O 1.50492 11.0198 5.15665 0 0 0
83 6 Si 1.52498 10.7875 9.96049 0 0 0
84 6 Si 3.99234 12.0015 8.59018 0 0 0
87 5 O 3.07454 11.401 9.86173 0 0 0
88 5 O 4.01872 13.651 8.75862 0 0 0
89 5 O 5.50193 11.3048 8.67728 0 0 0
90 5 O 5.85433 11.4445 11.3934 0 0 0
91 6 Si 0.00694918 19.201 5.84707 0 0 0
92 6 Si 1.38342 15.0795 6.48729 0 0 0
93 6 Si 3.89733 16.3132 5 0 0 0
94 5 O 0.861677 18.4905 7.1319 0 0 0
95 5 O -1.14296 20.3094 6.46134 0 0 0
96 5 O 2.94449 15.5833 6.22677 0 0 0
97 5 O -0.952567 17.9203 5.15665 0 0 0
98 5 O 0.442021 15.662 5.21008 0 0 0
99 5 O 0.87001 15.5973 7.98323 0 0 0
100 6 Si 0.107459 14.868 9.29174 0 0 0
101 6 Si -0.932015 17.6877 9.96069 0 0 0
102 6 Si 1.53526 18.902 8.58949 0 0 0
103 5 O 1.26076 14.3485 10.3627 0 0 0
104 5 O 4.04813 16.0326 9.98984 0 0 0
105 5 O 0.61733 18.3012 9.86141 0 0 0
106 5 O 1.561 20.5513 8.75865 0 0 0
107 5 O 3.04481 18.2049 8.67733 0 0 0
108 5 O 3.39513 18.3445 11.3938 0 0 0
127 6 Si 7.37866 12.3006 5.84735 0 0 0
131 5 O 6.22896 13.4093 6.46112 0 0 0
133 5 O 6.41988 11.0198 5.15665 0 0 0
137 6 Si 6.44089 10.7875 9.96079 0 0 0
141 5 O 7.98945 11.4025 9.86156 0 0 0
145 6 Si 4.92133 19.2002 5.84878 0 0 0
146 6 Si 6.29826 15.0794 6.48799 0 0 0
149 5 O 3.77141 20.3095 6.46133 0 0 0
151 5 O 3.9624 17.9203 5.15665 0 0 0
152 5 O 5.35699 15.662 5.21008 0 0 0
153 5 O 5.78455 15.5969 7.98355 0 0 0
154 6 Si 5.02347 14.8677 9.29329 0 0 0
155 6 Si 3.9831 17.6875 9.96117 0 0 0
157 5 O 6.17591 14.35 10.3651 0 0 0
159 5 O 5.53201 18.3032 9.8634 0 0 0
252 5 O -3.97757 11.444 11.394 1 0 0
270 5 O -6.4338 18.3453 11.3933 1 0 0
271 2 H -6.27489 20.4349 10.8827 0 -1 0
274 2 H 0.0114738 11.2129 11.599 0 0 0
275 2 H -3.81741 13.5343 10.8835 0 0 0
276 2 H -2.4443 18.1136 11.5997 0 0 0
277 2 H -1.36002 20.4349 10.8831 0 -1 0
280 2 H 4.92726 11.2135 11.5985 0 0 0
281 2 H 1.09721 13.535 10.8835 0 0 0
282 2 H 2.46833 18.1128 11.5982 0 0 0
283 2 H 3.55569 20.4351 10.8827 0 -1 0
287 2 H 6.01437 13.5335 10.8827 0 0 0
354 2 H -2.0577 20.0421 18.9169 0 -1 0
351 2 H -2.8803 19.8269 21.1698 0 -1 0
346 2 H -0.230731 19.6769 21.2579 0 -1 0
348 2 H -0.99836 20.7532 23.2408 0 -1 0
111 6 Si 13.7273 2.51221 5 0 0 0
112 5 O 10.6894 4.68788 7.13438 0 0 0
114 5 O 12.7743 1.78154 6.22629 0 0 0
120 6 Si 11.3641 5.10176 8.59055 0 0 0
122 5 O 13.8776 2.23195 9.99051 0 0 0
124 5 O 11.3905 6.7513 8.7556 0 0 0
125 5 O 12.8743 4.40484 8.67788 0 0 0
126 5 O 13.2237 4.54352 11.3941 0 0 0
129 6 Si 11.2698 9.41269 5 0 0 0
132 5 O 10.317 8.68229 6.2264 0 0 0
140 5 O 11.4201 9.13291 9.98979 0 0 0
163 6 Si 14.7513 5.39871 5.84878 0 0 0
164 6 Si 16.1283 1.27851 6.48752 0 0 0
165 6 Si 18.6422 2.51221 5 0 0 0
166 5 O 15.6031 4.68765 7.13501 0 0 0
167 5 O 13.601 6.5086 6.46098 0 0 0
168 5 O 17.6894 1.78187 6.22632 0 0 0
169 5 O 13.7923 4.11933 5.15665 0 0 0
170 5 O 15.1869 1.86105 5.21008 0 0 0
171 5 O 15.6147 1.79635 7.98323 0 0 0
172 6 Si 14.8525 1.06698 9.29196 0 0 0
173 6 Si 13.8123 3.88715 9.96143 0 0 0
174 6 Si 16.2787 5.10172 8.59072 0 0 0
175 5 O 16.0051 0.546953 10.363 0 0 0
176 5 O 18.7929 2.2321 9.98969 0 0 0
177 5 O 15.3614 4.50234 9.86343 0 0 0
178 5 O 16.3038 6.75143 8.75585 0 0 0
179 5 O 17.7884 4.40497 8.67838 0 0 0
180 5 O 18.1381 4.54373 11.3945 0 0 0
182 6 Si 13.6707 8.17899 6.48732 0 0 0
183 6 Si 16.1847 9.41269 5 0 0 0
186 5 O 15.232 8.68168 6.22531 0 0 0
188 5 O 12.7294 8.76153 5.21008 0 0 0
189 5 O 13.1577 8.69727 7.98351 0 0 0
190 6 Si 12.395 7.96824 9.292 0 0 0
193 5 O 13.5469 7.44804 10.3641 0 0 0
194 5 O 16.3348 9.13247 9.99042 0 0 0
217 6 Si 19.6662 5.39926 5.84946 0 0 0
218 6 Si 21.0433 1.27862 6.48757 0 0 0
219 6 Si 23.5572 2.51221 5 0 0 0
220 5 O 20.5182 4.68744 7.13522 0 0 0
221 5 O 18.5169 6.50884 6.46116 0 0 0
222 5 O 22.6045 1.78242 6.22653 0 0 0
223 5 O 18.7073 4.11933 5.15665 0 0 0
224 5 O 20.1019 1.86105 5.21008 0 0 0
225 5 O 20.5296 1.79651 7.98319 0 0 0
226 6 Si 19.7675 1.06698 9.29243 0 0 0
227 6 Si 18.7266 3.88706 9.96154 0 0 0
228 6 Si 21.1938 5.10146 8.59111 0 0 0
229 5 O 20.9204 0.547795 10.3634 0 0 0
230 5 O 23.7073 2.2319 9.98954 0 0 0
231 5 O 20.276 4.50181 9.86319 0 0 0
232 5 O 21.22 6.75119 8.7573 0 0 0
233 5 O 22.7035 4.40464 8.67757 0 0 0
236 6 Si 18.5857 8.17881 6.48717 0 0 0
237 6 Si 21.0997 9.41269 5 0 0 0
240 5 O 20.1467 8.68252 6.22655 0 0 0
242 5 O 17.6444 8.76153 5.21008 0 0 0
243 5 O 18.0724 8.69715 7.98349 0 0 0
244 6 Si 17.3099 7.96747 9.29208 0 0 0
247 5 O 18.4629 7.44684 10.3624 0 0 0
248 5 O 21.2502 9.13225 9.99037 0 0 0
284 2 H 12.2964 4.31179 11.598 0 0 0
290 2 H 17.2106 4.31282 11.5976 0 0 0
291 2 H 13.3826 6.63406 10.8841 0 0 0
296 2 H 22.1257 4.31306 11.597 0 0 0
297 2 H 18.297 6.63391 10.8851 0 0 0
393 5 O 10.5123 9.67716 16.9944 0 0 0
392 5 O 8.67924 10.2399 18.1693 0 0 0
130 5 O 8.23309 11.5899 7.13242 0 0 0
138 6 Si 8.90744 12.0025 8.58903 0 0 0
142 5 O 8.9328 13.6522 8.75521 0 0 0
143 5 O 10.4162 11.3045 8.67659 0 0 0
144 5 O 10.7665 11.4443 11.393 0 0 0
147 6 Si 8.8123 16.3132 5 0 0 0
148 5 O 5.77541 18.4897 7.13395 0 0 0
150 5 O 7.85932 15.583 6.22657 0 0 0
156 6 Si 6.44903 18.9028 8.59048 0 0 0
158 5 O 8.96263 16.0332 9.98989 0 0 0
160 5 O 6.47435 20.5524 8.75618 0 0 0
161 5 O 7.95902 18.206 8.67795 0 0 0
162 5 O 8.31045 18.3449 11.3943 0 0 0
181 6 Si 12.2938 12.3002 5.84841 0 0 0
184 5 O 13.1463 11.5899 7.13412 0 0 0
185 5 O 11.1436 13.4094 6.46197 0 0 0
187 5 O 11.3348 11.0198 5.15665 0 0 0
191 6 Si 11.3547 10.7881 9.96091 0 0 0
192 6 Si 13.822 12.0022 8.59018 0 0 0
195 5 O 12.9038 11.4033 9.86272 0 0 0
196 5 O 13.8482 13.6516 8.75608 0 0 0
197 5 O 15.3314 11.3051 8.6782 0 0 0
198 5 O 15.6835 11.4448 11.3934 0 0 0
199 6 Si 9.83637 19.2007 5.84833 0 0 0
200 6 Si 11.2136 15.0796 6.48748 0 0 0
201 6 Si 13.7273 16.3132 5 0 0 0
202 5 O 10.6895 18.4902 7.13352 0 0 0
203 5 O 8.68599 20.3099 6.46143 0 0 0
204 5 O 12.7745 15.583 6.22641 0 0 0
205 5 O 8.87737 17.9203 5.15665 0 0 0
206 5 O 10.272 15.662 5.21008 0 0 0
207 5 O 10.7003 15.5978 7.98372 0 0 0
208 6 Si 9.93785 14.8685 9.29191 0 0 0
209 6 Si 8.89786 17.6885 9.96108 0 0 0
210 6 Si 11.3645 18.903 8.58998 0 0 0
211 5 O 11.0901 14.3487 10.3631 0 0 0
212 5 O 13.878 16.0331 9.99044 0 0 0
213 5 O 10.4472 18.3025 9.86215 0 0 0
214 5 O 11.3902 20.5523 8.75723 0 0 0
215 5 O 12.8737 18.2054 8.67801 0 0 0
216 5 O 13.2253 18.3447 11.3938 0 0 0
235 6 Si 17.2095 12.3004 5.84793 0 0 0
238 5 O 18.0625 11.5898 7.13367 0 0 0
239 5 O 16.0589 13.4092 6.46124 0 0 0
241 5 O 16.2498 11.0198 5.15665 0 0 0
245 6 Si 16.2705 10.788 9.96085 0 0 0
246 6 Si 18.7373 12.002 8.58975 0 0 0
249 5 O 17.8196 11.4025 9.86237 0 0 0
250 5 O 18.7626 13.6513 8.75785 0 0 0
251 5 O 20.2468 11.3051 8.67771 0 0 0
253 6 Si 14.7516 19.2008 5.84829 0 0 0
254 6 Si 16.1281 15.0794 6.48753 0 0 0
255 6 Si 18.6422 16.3132 5 0 0 0
256 5 O 15.605 18.4901 7.13321 0 0 0
257 5 O 13.6019 20.3097 6.46192 0 0 0
258 5 O 17.6894 15.583 6.22632 0 0 0
259 5 O 13.7923 17.9203 5.15665 0 0 0
260 5 O 15.1869 15.662 5.21008 0 0 0
261 5 O 15.6151 15.5977 7.98368 0 0 0
262 6 Si 14.8528 14.8684 9.29201 0 0 0
263 6 Si 13.813 17.6881 9.96124 0 0 0
264 6 Si 16.2796 18.9027 8.5899 0 0 0
265 5 O 16.0051 14.349 10.364 0 0 0
266 5 O 18.7928 16.0329 9.99024 0 0 0
267 5 O 15.3621 18.3026 9.86264 0 0 0
268 5 O 16.3063 20.5519 8.75693 0 0 0
269 5 O 17.7892 18.2055 8.67726 0 0 0
286 2 H 9.839 11.2135 11.5963 0 0 0
288 2 H 7.38359 18.1126 11.5994 0 0 0
289 2 H 8.46807 20.4346 10.8842 0 -1 0
292 2 H 14.7563 11.2125 11.599 0 0 0
293 2 H 10.9263 13.5347 10.8841 0 0 0
294 2 H 12.2984 18.1132 11.5988 0 0 0
295 2 H 13.3846 20.4348 10.883 0 -1 0
298 2 H 19.6702 11.2122 11.5984 0 0 0
299 2 H 15.8415 13.5348 10.8833 0 0 0
300 2 H 17.2136 18.1138 11.5978 0 0 0
316 1 C 13.672 15.1151 14.5884 0 0 0
317 1 C 13.7378 13.5872 14.338 0 0 0
318 1 C 15.2037 13.0932 14.2964 0 0 0
319 1 C 12.9616 13.1575 13.068 0 0 0
320 1 C 11.8942 13.0461 15.9195 0 0 0
355 2 H 14.2012 15.3778 15.5349 0 0 0
356 2 H 14.1756 15.6525 13.7501 0 0 0
357 2 H 12.6191 15.4623 14.6595 0 0 0
358 2 H 15.7467 13.5641 13.444 0 0 0
359 2 H 15.2427 11.9864 14.1741 0 0 0
360 2 H 15.7301 13.3575 15.2423 0 0 0
361 2 H 11.9062 13.5063 13.1082 0 0 0
362 2 H 13.4475 13.5894 12.1612 0 0 0
363 2 H 12.9697 12.0463 12.9692 0 0 0
388 5 O 13.1942 12.8383 15.5255 0 0 0
389 5 O 11.0895 13.8493 15.4393 0 0 0
365 2 H 9.53317 12.5368 16.6764 0 0 0
364 2 H 12.1668 11.3211 17.0709 0 0 0
330 1 C 9.76589 10.5807 17.5499 0 0 0
321 1 C 10.1696 12.0664 17.4705 0 0 0
381 4 N 11.6112 12.2015 17.0458 0 0 0
376 2 H 14.6476 16.5709 19.9655 0 0 0
322 1 C 9.86894 12.7822 18.8262 0 0 0
371 2 H 10.952 15.567 22.0413 0 0 0
375 2 H 13.534 17.9089 20.3664 0 0 0
325 1 C 10.7472 16.9515 20.3338 0 0 0
326 1 C 11.5034 16.4326 21.6027 0 0 0
327 1 C 12.9793 16.0074 21.3006 0 0 0
328 1 C 13.5695 16.8184 20.1167 0 0 0
374 2 H 13.6088 16.1334 22.2139 0 0 0
373 2 H 13.0083 14.9218 21.0383 0 0 0
370 2 H 10.8867 18.0556 20.224 0 0 0
391 5 O 11.09 14.8192 19.151 0 0 0
366 2 H 8.84134 12.4994 19.145 0 0 0
367 2 H 10.6031 12.4513 19.5953 0 0 0
372 2 H 11.4886 17.2361 22.3794 0 0 0
369 2 H 9.64813 16.7859 20.4243 0 0 0