
     Program PWSCF v.7.2 starts on  7Mar2024 at 22: 3:55 

     This program is part of the open-source Quantum ESPRESSO suite
     for quantum simulation of materials; please cite
         "P. Giannozzi et al., J. Phys.:Condens. Matter 21 395502 (2009);
         "P. Giannozzi et al., J. Phys.:Condens. Matter 29 465901 (2017);
         "P. Giannozzi et al., J. Chem. Phys. 152 154105 (2020);
          URL http://www.quantum-espresso.org", 
     in publications or presentations arising from this work. More details at
     http://www.quantum-espresso.org/quote

     Parallel version (MPI), running on    48 processors

     MPI processes distributed on     1 nodes
     972768 MiB available memory on the printing compute node when the environment starts
 
     Waiting for input...
     Reading input from standard input
Warning: card &CELL ignored
Warning: card / ignored

     Current dimensions of program PWSCF are:
     Max number of different atomic species (ntypx) = 10
     Max number of k-points (npk) =  40000
     Max angular momentum in pseudopotentials (lmaxx) =  4
     file O.pbe-n-kjpaw_psl.1.0.0.UPF: wavefunction(s)  2S 2P renormalized
     file N.pbe-n-kjpaw_psl.1.0.0.UPF: wavefunction(s)  2S renormalized
     file H.pbe-kjpaw_psl.1.0.0.UPF: wavefunction(s)  1S renormalized
     file C.pbe-n-kjpaw_psl.1.0.0.UPF: wavefunction(s)  2S 2P renormalized
 
     R & G space division:  proc/nbgrp/npool/nimage =      48
     Subspace diagonalization in iterative solution of the eigenvalue problem:
     a serial algorithm will be used

 
     Parallelization info
     --------------------
     sticks:   dense  smooth     PW     G-vecs:    dense   smooth      PW
     Min          53      19      5                12798     2761     425
     Max          54      20      6                12823     2781     460
     Sum        2567     929    273               614915   132863   21297
 
     Using Slab Decomposition
 


     bravais-lattice index     =            0
     lattice parameter (alat)  =      10.7563  a.u.
     unit-cell volume          =    4551.7618 (a.u.)^3
     number of atoms/cell      =           72
     number of atomic types    =            4
     number of electrons       =       228.00
     number of Kohn-Sham states=          137
     kinetic-energy cutoff     =      36.0000  Ry
     charge density cutoff     =     400.0000  Ry
     scf convergence threshold =      1.0E-06
     mixing beta               =       0.2000
     number of iterations used =            8  plain     mixing
     energy convergence thresh.=      1.0E-04
     force convergence thresh. =      1.0E-03
     Exchange-correlation= SLA  PW   PBX  PBC
                           (   1   4   3   4   0   0   0)
     nstep                     =         9999


     celldm(1)=  10.756321  celldm(2)=   0.000000  celldm(3)=   0.000000
     celldm(4)=   0.000000  celldm(5)=   0.000000  celldm(6)=   0.000000

     crystal axes: (cart. coord. in units of alat)
               a(1) = (   1.000000   0.000000   0.000000 )  
               a(2) = (   0.000000   0.698349   0.000000 )  
               a(3) = (  -0.620814   0.000000   5.237403 )  

     reciprocal axes: (cart. coord. in units 2 pi/alat)
               b(1) = (  1.000000  0.000000  0.118535 )  
               b(2) = (  0.000000  1.431950  0.000000 )  
               b(3) = (  0.000000  0.000000  0.190934 )  


     PseudoPot. # 1 for O  read from file:
     ./pseudo/O.pbe-n-kjpaw_psl.1.0.0.UPF
     MD5 check sum: 54880130194cacfd11baed2e72b13d2a
     Pseudo is Projector augmented-wave + core cor, Zval =  6.0
     Generated using 'atomic' code by A. Dal Corso  v.7.2
     Shape of augmentation charge: PSQ
     Using radial grid of 1095 points,  4 beta functions with: 
                l(1) =   0
                l(2) =   0
                l(3) =   1
                l(4) =   1
     Q(r) pseudized with 0 coefficients 


     PseudoPot. # 2 for N  read from file:
     ./pseudo/N.pbe-n-kjpaw_psl.1.0.0.UPF
     MD5 check sum: 6654930a71f78718b13e91073ae2a058
     Pseudo is Projector augmented-wave + core cor, Zval =  5.0
     Generated using 'atomic' code by A. Dal Corso  v.7.2
     Shape of augmentation charge: PSQ
     Using radial grid of 1085 points,  4 beta functions with: 
                l(1) =   0
                l(2) =   0
                l(3) =   1
                l(4) =   1
     Q(r) pseudized with 0 coefficients 


     PseudoPot. # 3 for H  read from file:
     ./pseudo/H.pbe-kjpaw_psl.1.0.0.UPF
     MD5 check sum: b3cb3c48ee3b58cc53e4d592112d0ca6
     Pseudo is Projector augmented-wave, Zval =  1.0
     Generated using 'atomic' code by A. Dal Corso  v.7.2
     Shape of augmentation charge: PSQ
     Using radial grid of  929 points,  2 beta functions with: 
                l(1) =   0
                l(2) =   0
     Q(r) pseudized with 0 coefficients 


     PseudoPot. # 4 for C  read from file:
     ./pseudo/C.pbe-n-kjpaw_psl.1.0.0.UPF
     MD5 check sum: 6b0792899573946bb42fe395835041da
     Pseudo is Projector augmented-wave + core cor, Zval =  4.0
     Generated using 'atomic' code by A. Dal Corso  v.7.2
     Shape of augmentation charge: PSQ
     Using radial grid of 1073 points,  4 beta functions with: 
                l(1) =   0
                l(2) =   0
                l(3) =   1
                l(4) =   1
     Q(r) pseudized with 0 coefficients 


     atomic species   valence    mass     pseudopotential
        O              6.00    15.99900     O ( 1.00)
        N              5.00    14.00700     N ( 1.00)
        H              1.00     1.00800     H ( 1.00)
        C              4.00    12.01100     C ( 1.00)

     No symmetry found



   Cartesian axes

     site n.     atom                  positions (alat units)
         1           O   tau(   1) = (   0.1488215   0.2904432   0.4570682  )
         2           O   tau(   2) = (  -0.1615857   0.0587311   3.0757698  )
         3           O   tau(   3) = (   0.2303640   0.4079054   4.7803350  )
         4           O   tau(   4) = (   0.5407713   0.6396174   2.1616334  )
         5           N   tau(   5) = (   0.7416820   0.5882888   0.4076271  )
         6           N   tau(   6) = (   0.4312748   0.4592340   3.0263287  )
         7           N   tau(   7) = (  -0.3624964   0.1100597   4.8297761  )
         8           N   tau(   8) = (  -0.0520892   0.2391145   2.2110745  )
         9           H   tau(   9) = (   0.8676423   0.5054647   0.3969952  )
        10           H   tau(  10) = (   0.5572350   0.5420582   3.0156967  )
        11           H   tau(  11) = (  -0.4884567   0.1928839   4.8404080  )
        12           H   tau(  12) = (  -0.1780495   0.1562904   2.2217064  )
        13           C   tau(  13) = (   0.3874894   0.1543350   0.8783125  )
        14           C   tau(  14) = (   0.0770822   0.1948392   3.4970141  )
        15           C   tau(  15) = (  -0.0083039   0.5440135   4.3590907  )
        16           C   tau(  16) = (   0.3021034   0.5035093   1.7403891  )
        17           H   tau(  17) = (   0.2514062   0.2422571   0.8992621  )
        18           H   tau(  18) = (  -0.0590011   0.1069172   3.5179637  )
        19           H   tau(  19) = (   0.1277794   0.4560914   4.3381410  )
        20           H   tau(  20) = (   0.4381866   0.5914314   1.7194395  )
        21           C   tau(  21) = (   0.5151676   0.0872936   1.0700015  )
        22           C   tau(  22) = (   0.2047604   0.2618807   3.6887030  )
        23           C   tau(  23) = (  -0.1359820   0.6110550   4.1674017  )
        24           C   tau(  24) = (   0.1744252   0.4364678   1.5487001  )
        25           H   tau(  25) = (   0.4615502   0.1224903   1.2203149  )
        26           H   tau(  26) = (   0.1511430   0.2266839   3.8390165  )
        27           H   tau(  27) = (  -0.0823647   0.5758582   4.0170882  )
        28           H   tau(  28) = (   0.2280425   0.4716646   1.3983866  )
        29           C   tau(  29) = (   0.7268063   0.6634311   1.0401483  )
        30           C   tau(  30) = (   0.4163990   0.3840917   3.6588498  )
        31           C   tau(  31) = (  -0.3476207   0.0349174   4.1972549  )
        32           C   tau(  32) = (  -0.0372135   0.3142569   1.5785533  )
        33           H   tau(  33) = (   0.8171859   0.6264187   1.1710833  )
        34           H   tau(  34) = (   0.5067787   0.4211042   3.7897849  )
        35           H   tau(  35) = (  -0.4380003   0.0719299   4.0663198  )
        36           H   tau(  36) = (  -0.1275931   0.2772444   1.4476182  )
        37           C   tau(  37) = (   0.8025080   0.5984847   0.8233198  )
        38           C   tau(  38) = (   0.4921008   0.4490381   3.4420214  )
        39           C   tau(  39) = (  -0.4233224   0.0998638   4.4140834  )
        40           C   tau(  40) = (  -0.1129152   0.2493104   1.7953818  )
        41           H   tau(  41) = (  -0.0569433   0.5168478   0.8060363  )
        42           H   tau(  42) = (  -0.3673506   0.5306751   3.4247379  )
        43           H   tau(  43) = (   0.4361289   0.1815008   4.4313668  )
        44           H   tau(  44) = (   0.7465361   0.1676735   1.8126652  )
        45           C   tau(  45) = (   0.6686885   0.6550509   0.6269172  )
        46           C   tau(  46) = (   0.3582813   0.3924719   3.2456187  )
        47           C   tau(  47) = (  -0.2895029   0.0432976   4.6104860  )
        48           C   tau(  48) = (   0.0209043   0.3058767   1.9917844  )
        49           C   tau(  49) = (   0.4581948   0.0928804   0.6504855  )
        50           C   tau(  50) = (   0.1477876   0.2562939   3.2691871  )
        51           C   tau(  51) = (  -0.0790093   0.6054682   4.5869177  )
        52           C   tau(  52) = (   0.2313979   0.4420546   1.9682161  )
        53           C   tau(  53) = (   0.6257986   0.6452741   0.2016400  )
        54           C   tau(  54) = (   0.3153914   0.4022488   2.8203416  )
        55           C   tau(  55) = (  -0.2466131   0.0530745   5.0357631  )
        56           C   tau(  56) = (   0.0637941   0.2960998   2.4170616  )
        57           C   tau(  57) = (   0.4148983   0.0768183   0.2168285  )
        58           C   tau(  58) = (   0.1044911   0.2723559   2.8355301  )
        59           C   tau(  59) = (  -0.0357127   0.6215302   5.0205747  )
        60           C   tau(  60) = (   0.2746945   0.4259926   2.4018731  )
        61           C   tau(  61) = (   0.3279170   0.1592235   0.4436080  )
        62           C   tau(  62) = (   0.0175098   0.1899508   3.0623096  )
        63           C   tau(  63) = (   0.0512685   0.5391251   4.7937951  )
        64           C   tau(  64) = (   0.3616758   0.5083978   2.1750935  )
        65           C   tau(  65) = (   0.2941963   0.1264011   0.0109985  )
        66           C   tau(  66) = (  -0.0162109   0.2227732   2.6297001  )
        67           C   tau(  67) = (   0.0849893   0.5719475   5.2264046  )
        68           C   tau(  68) = (   0.3953965   0.4755754   2.6077030  )
        69           H   tau(  69) = (   0.1550651   0.2118091   0.0188547  )
        70           H   tau(  70) = (  -0.1553422   0.1373652   2.6375562  )
        71           H   tau(  71) = (   0.2241205   0.4865394   5.2185485  )
        72           H   tau(  72) = (   0.5345277   0.5609834   2.5998469  )

     --------------------------------------------
     DFT-D3 Dispersion Correction (3-body terms):
     --------------------------------------------
       Reference C6 values for interpolation: 

         atom   Coordination number   C6
         H          0.912             6.05
         H          0.000            15.18
         C          0.000            98.23
         C          0.987            86.49
         C          1.998            58.72
         C          2.999            51.56
         C          3.984            36.41
         N          0.000            50.54
         N          0.994            44.25
         N          2.014            39.35
         N          2.990            31.16
         O          0.000            31.01
         O          0.993            25.63
         O          1.989            20.74

       Values used:

         atom   Coordination number  R0_AB[au]  C6      C8
         O          1.079            2.345     25.49    514.40
         O          1.079            2.345     25.49    514.40
         O          1.079            2.345     25.49    514.40
         O          1.079            2.345     25.49    514.40
         N          3.208            2.478     31.19    688.17
         N          3.208            2.478     31.19    688.17
         N          3.208            2.478     31.19    688.17
         N          3.208            2.478     31.19    688.17
         H          1.038            2.062      6.15     74.35
         H          1.038            2.062      6.15     74.35
         H          1.038            2.062      6.15     74.35
         H          1.038            2.062      6.15     74.35
         C          3.201            2.750     50.05   1447.45
         C          3.201            2.750     50.05   1447.45
         C          3.201            2.750     50.05   1447.45
         C          3.201            2.750     50.05   1447.45
         H          1.023            2.062      6.16     74.48
         H          1.023            2.062      6.16     74.48
         H          1.023            2.062      6.16     74.48
         H          1.023            2.062      6.16     74.48
         C          3.168            2.750     50.38   1457.15
         C          3.168            2.750     50.38   1457.15
         C          3.168            2.750     50.38   1457.15
         C          3.168            2.750     50.38   1457.15
         H          1.022            2.062      6.16     74.49
         H          1.022            2.062      6.16     74.49
         H          1.022            2.062      6.16     74.49
         H          1.022            2.062      6.16     74.49
         C          3.181            2.750     50.25   1453.34
         C          3.181            2.750     50.25   1453.34
         C          3.181            2.750     50.25   1453.34
         C          3.181            2.750     50.25   1453.34
         H          1.023            2.062      6.16     74.48
         H          1.023            2.062      6.16     74.48
         H          1.023            2.062      6.16     74.48
         H          1.023            2.062      6.16     74.48
         C          3.199            2.750     50.07   1448.08
         C          3.199            2.750     50.07   1448.08
         C          3.199            2.750     50.07   1448.08
         C          3.199            2.750     50.07   1448.08
         H          1.024            2.062      6.16     74.48
         H          1.024            2.062      6.16     74.48
         H          1.024            2.062      6.16     74.48
         H          1.024            2.062      6.16     74.48
         C          3.284            2.750     48.86   1413.04
         C          3.284            2.750     48.86   1413.04
         C          3.284            2.750     48.86   1413.04
         C          3.284            2.750     48.86   1413.04
         C          3.262            2.750     49.23   1423.82
         C          3.262            2.750     49.23   1423.82
         C          3.262            2.750     49.23   1423.82
         C          3.262            2.750     49.23   1423.82
         C          3.281            2.750     48.91   1414.45
         C          3.281            2.750     48.91   1414.45
         C          3.281            2.750     48.91   1414.45
         C          3.281            2.750     48.91   1414.45
         C          3.286            2.750     48.83   1412.27
         C          3.286            2.750     48.83   1412.27
         C          3.286            2.750     48.83   1412.27
         C          3.286            2.750     48.83   1412.27
         C          3.186            2.750     50.21   1452.07
         C          3.186            2.750     50.21   1452.07
         C          3.186            2.750     50.21   1452.07
         C          3.186            2.750     50.21   1452.07
         C          3.253            2.750     49.37   1427.73
         C          3.253            2.750     49.37   1427.73
         C          3.253            2.750     49.37   1427.73
         C          3.253            2.750     49.37   1427.73
         H          1.026            2.062      6.16     74.46
         H          1.026            2.062      6.16     74.46
         H          1.026            2.062      6.16     74.46
         H          1.026            2.062      6.16     74.46

         Molecular C6 ( Ry / a.u.^6 ) =    146848.86


     number of k points=     8  Gaussian smearing, width (Ry)=  0.0100
                       cart. coord. in units 2pi/alat
        k(    1) = (   0.0000000   0.0000000   0.0000000), wk =   0.2500000
        k(    2) = (   0.0000000   0.0000000  -0.0954672), wk =   0.2500000
        k(    3) = (   0.0000000  -0.7159748   0.0000000), wk =   0.2500000
        k(    4) = (   0.0000000  -0.7159748  -0.0954672), wk =   0.2500000
        k(    5) = (  -0.5000000   0.0000000  -0.0592674), wk =   0.2500000
        k(    6) = (  -0.5000000   0.0000000  -0.1547345), wk =   0.2500000
        k(    7) = (  -0.5000000  -0.7159748  -0.0592674), wk =   0.2500000
        k(    8) = (  -0.5000000  -0.7159748  -0.1547345), wk =   0.2500000

     Dense  grid:   614915 G-vectors     FFT dimensions: (  72,  48, 375)

     Smooth grid:   132863 G-vectors     FFT dimensions: (  45,  30, 225)

     Estimated max dynamical RAM per process >      50.49 MB

     Estimated total dynamical RAM >       2.37 GB

     Check: negative core charge=   -0.000005

     Initial potential from superposition of free atoms

     starting charge     227.9981, renormalised to     228.0000
     Starting wfcs are  216 randomized atomic wfcs
     Checking if some PAW data can be deallocated... 

     total cpu time spent up to now is        3.7 secs

     Self-consistent Calculation

     iteration #  1     ecut=    36.00 Ry     beta= 0.20
     Davidson diagonalization with overlap
     ethr =  1.00E-02,  avg # of iterations =  2.9

     total cpu time spent up to now is        6.4 secs

     total energy              =   -1045.82350371 Ry
     estimated scf accuracy    <       9.30956467 Ry

     iteration #  2     ecut=    36.00 Ry     beta= 0.20
     Davidson diagonalization with overlap
     ethr =  4.08E-03,  avg # of iterations =  1.1

     total cpu time spent up to now is        8.0 secs

     total energy              =   -1043.88102229 Ry
     estimated scf accuracy    <       4.38778409 Ry

     iteration #  3     ecut=    36.00 Ry     beta= 0.20
     Davidson diagonalization with overlap
     ethr =  1.92E-03,  avg # of iterations =  8.4

     total cpu time spent up to now is       11.4 secs

     total energy              =   -1044.43835140 Ry
     estimated scf accuracy    <       0.39457109 Ry

     iteration #  4     ecut=    36.00 Ry     beta= 0.20
     Davidson diagonalization with overlap
     ethr =  1.73E-04,  avg # of iterations =  9.5

     total cpu time spent up to now is       14.4 secs

     total energy              =   -1044.39667480 Ry
     estimated scf accuracy    <       0.20180945 Ry

     iteration #  5     ecut=    36.00 Ry     beta= 0.20
     Davidson diagonalization with overlap
     ethr =  8.85E-05,  avg # of iterations =  4.4

     total cpu time spent up to now is       16.7 secs

     total energy              =   -1044.42531396 Ry
     estimated scf accuracy    <       0.04852363 Ry

     iteration #  6     ecut=    36.00 Ry     beta= 0.20
     Davidson diagonalization with overlap
     ethr =  2.13E-05,  avg # of iterations =  2.5

     total cpu time spent up to now is       18.5 secs

     total energy              =   -1044.42263350 Ry
     estimated scf accuracy    <       0.01550819 Ry

     iteration #  7     ecut=    36.00 Ry     beta= 0.20
     Davidson diagonalization with overlap
     c_bands:  1 eigenvalues not converged
     ethr =  6.80E-06,  avg # of iterations =  7.9

     total cpu time spent up to now is       21.5 secs

     total energy              =   -1044.42424798 Ry
     estimated scf accuracy    <       0.00890310 Ry

     iteration #  8     ecut=    36.00 Ry     beta= 0.20
     Davidson diagonalization with overlap
     ethr =  3.90E-06,  avg # of iterations =  5.1

     total cpu time spent up to now is       23.9 secs

     total energy              =   -1044.42613712 Ry
     estimated scf accuracy    <       0.00112976 Ry

     iteration #  9     ecut=    36.00 Ry     beta= 0.20
     Davidson diagonalization with overlap
     ethr =  4.96E-07,  avg # of iterations =  4.0

     total cpu time spent up to now is       26.1 secs

     total energy              =   -1044.42642009 Ry
     estimated scf accuracy    <       0.00015969 Ry

     iteration # 10     ecut=    36.00 Ry     beta= 0.20
     Davidson diagonalization with overlap
     ethr =  7.00E-08,  avg # of iterations =  4.0

     total cpu time spent up to now is       28.6 secs

     total energy              =   -1044.42648230 Ry
     estimated scf accuracy    <       0.00003087 Ry

     iteration # 11     ecut=    36.00 Ry     beta= 0.20
     Davidson diagonalization with overlap
     ethr =  1.35E-08,  avg # of iterations =  3.5

     total cpu time spent up to now is       30.5 secs

     total energy              =   -1044.42648989 Ry
     estimated scf accuracy    <       0.00002661 Ry

     iteration # 12     ecut=    36.00 Ry     beta= 0.20
     Davidson diagonalization with overlap
     ethr =  1.17E-08,  avg # of iterations =  2.0

     total cpu time spent up to now is       32.2 secs

     total energy              =   -1044.42649871 Ry
     estimated scf accuracy    <       0.00000421 Ry

     iteration # 13     ecut=    36.00 Ry     beta= 0.20
     Davidson diagonalization with overlap
     ethr =  1.85E-09,  avg # of iterations =  4.9

     total cpu time spent up to now is       34.9 secs

     total energy              =   -1044.42650502 Ry
     estimated scf accuracy    <       0.00000191 Ry

     iteration # 14     ecut=    36.00 Ry     beta= 0.20
     Davidson diagonalization with overlap
     ethr =  8.38E-10,  avg # of iterations =  4.1

     total cpu time spent up to now is       37.0 secs

     End of self-consistent calculation

          k = 0.0000 0.0000 0.0000 ( 16641 PWs)   bands (ev):

   -18.1479 -18.1478 -18.0909 -18.0908 -17.4838 -17.4838 -17.4536 -17.4535
   -14.7310 -14.7229 -14.3480 -14.3129 -14.1250 -14.0949 -12.6387 -12.6291
   -12.3176 -12.2948 -12.1916 -12.1402 -11.6995 -11.6933 -11.6526 -11.6433
   -11.1530 -11.1139 -10.0833 -10.0120  -9.1154  -9.0699  -8.8906  -8.8071
    -8.5123  -8.4975  -8.4726  -8.4196  -8.1677  -8.1649  -7.4630  -7.3956
    -7.1007  -7.0883  -7.0636  -7.0258  -6.7552  -6.6284  -6.2617  -6.1557
    -5.7839  -5.6581  -5.2505  -5.1081  -4.6885  -4.5649  -4.5457  -4.3889
    -4.2720  -4.2622  -3.9649  -3.9050  -3.9046  -3.8480  -3.7812  -3.7531
    -3.6668  -3.6387  -3.4228  -3.3723  -3.3011  -3.2913  -3.2305  -3.1820
    -3.1655  -3.0575  -2.8741  -2.8713  -2.6569  -2.5907  -2.2311  -2.2296
    -2.0570  -2.0494  -2.0455  -1.9697  -1.9117  -1.8819  -1.6670  -1.5666
    -1.5659  -1.5372  -1.2846  -1.2490  -1.0962  -1.0768  -0.9650  -0.9247
    -0.1330  -0.1060   0.1617   0.1747   0.5194   0.5396   0.5554   0.5995
     1.1277   1.1629   1.4898   1.5086   1.5409   1.5452   1.6044   1.6098
     2.1938   2.2174   4.2265   4.2565   5.1962   5.2881   5.3060   5.4476
     6.2316   6.3430   6.3545   6.3696   6.7891   6.8006   7.0031   7.1051
     7.2871   7.3304   7.8353   7.8654   7.9411   8.2864   8.2980   8.4313
     8.7435

          k = 0.0000 0.0000-0.0955 ( 16630 PWs)   bands (ev):

   -18.1479 -18.1478 -18.0909 -18.0908 -17.4838 -17.4838 -17.4536 -17.4536
   -14.7271 -14.7270 -14.3315 -14.3315 -14.1089 -14.1089 -12.6340 -12.6340
   -12.3076 -12.3075 -12.1654 -12.1654 -11.6837 -11.6837 -11.6603 -11.6603
   -11.1331 -11.1331 -10.0481 -10.0481  -9.0932  -9.0932  -8.8483  -8.8482
    -8.5070  -8.5070  -8.4437  -8.4436  -8.1660  -8.1660  -7.4310  -7.4310
    -7.0941  -7.0941  -7.0447  -7.0447  -6.6918  -6.6917  -6.2136  -6.2136
    -5.7167  -5.7167  -5.1770  -5.1770  -4.6588  -4.6588  -4.4362  -4.4362
    -4.2668  -4.2667  -3.9143  -3.9143  -3.8963  -3.8963  -3.7672  -3.7671
    -3.6527  -3.6527  -3.3982  -3.3981  -3.2965  -3.2965  -3.2167  -3.2167
    -3.1003  -3.1003  -2.8726  -2.8726  -2.6240  -2.6239  -2.2304  -2.2304
    -2.0507  -2.0506  -1.9903  -1.9902  -1.9250  -1.9250  -1.6076  -1.6076
    -1.5508  -1.5507  -1.2675  -1.2675  -1.0854  -1.0854  -0.9449  -0.9449
    -0.1195  -0.1194   0.1682   0.1682   0.5254   0.5255   0.5813   0.5813
     1.1456   1.1456   1.4997   1.4997   1.5438   1.5440   1.6065   1.6066
     2.2058   2.2058   4.2415   4.2415   5.2258   5.2259   5.3909   5.3909
     6.2895   6.2895   6.3630   6.3630   6.7946   6.7946   7.0526   7.0527
     7.2972   7.2973   7.8665   7.8665   8.0835   8.0835   8.3683   8.3683
     8.9087

          k = 0.0000-0.7160 0.0000 ( 16566 PWs)   bands (ev):

   -17.9845 -17.9844 -17.9583 -17.9581 -17.5781 -17.5781 -17.5211 -17.5211
   -14.5783 -14.5783 -14.1929 -14.1929 -13.9828 -13.9828 -12.5978 -12.5978
   -12.3264 -12.3264 -12.0977 -12.0977 -11.7148 -11.7148 -11.6186 -11.6186
   -11.1555 -11.1555  -9.9349  -9.9348  -9.1350  -9.1350  -8.8118  -8.8118
    -8.7416  -8.7415  -8.6894  -8.6894  -8.1103  -8.1102  -7.6770  -7.6770
    -7.0354  -7.0354  -7.0262  -7.0262  -6.6249  -6.6249  -6.3293  -6.3292
    -5.7191  -5.7190  -5.1028  -5.1027  -4.6268  -4.6268  -4.4000  -4.3999
    -4.2291  -4.2291  -4.1999  -4.1998  -4.1163  -4.1163  -3.9868  -3.9868
    -3.8087  -3.8087  -3.7526  -3.7525  -3.6830  -3.6830  -3.2801  -3.2801
    -3.1960  -3.1959  -2.9053  -2.9052  -2.7065  -2.7064  -2.5780  -2.5780
    -2.3779  -2.3779  -2.1662  -2.1661  -1.9458  -1.9457  -1.9123  -1.9123
    -1.8401  -1.8401  -1.5973  -1.5973  -1.3922  -1.3922  -1.3083  -1.3083
    -0.7784  -0.7784   0.3167   0.3167   0.5706   0.5707   0.7726   0.7726
     0.9579   0.9580   1.5419   1.5420   1.5670   1.5671   1.7227   1.7228
     2.5420   2.5420   4.1974   4.1974   5.1259   5.1259   5.7929   5.7929
     6.3454   6.3454   6.6521   6.6521   7.2895   7.2895   7.4301   7.4301
     8.3375   8.3375   8.9922   8.9923   9.0374   9.0375   9.7226   9.7333
     9.7340

          k = 0.0000-0.7160-0.0955 ( 16608 PWs)   bands (ev):

   -17.9846 -17.9844 -17.9583 -17.9582 -17.5781 -17.5781 -17.5211 -17.5211
   -14.5783 -14.5783 -14.1929 -14.1929 -13.9829 -13.9829 -12.5978 -12.5978
   -12.3264 -12.3263 -12.0981 -12.0981 -11.7132 -11.7132 -11.6204 -11.6203
   -11.1553 -11.1553  -9.9352  -9.9351  -9.1342  -9.1341  -8.8099  -8.8099
    -8.7506  -8.7505  -8.6834  -8.6834  -8.1101  -8.1100  -7.6770  -7.6769
    -7.0347  -7.0347  -7.0279  -7.0278  -6.6255  -6.6254  -6.3277  -6.3277
    -5.7208  -5.7207  -5.1025  -5.1024  -4.6272  -4.6272  -4.3996  -4.3996
    -4.2214  -4.2214  -4.2140  -4.2140  -4.1064  -4.1064  -3.9906  -3.9906
    -3.8081  -3.8081  -3.7558  -3.7558  -3.6833  -3.6833  -3.2724  -3.2724
    -3.2029  -3.2029  -2.9056  -2.9055  -2.7095  -2.7094  -2.5740  -2.5740
    -2.3783  -2.3783  -2.1665  -2.1664  -1.9450  -1.9450  -1.9276  -1.9275
    -1.8250  -1.8250  -1.5963  -1.5963  -1.4034  -1.4034  -1.3011  -1.3011
    -0.7787  -0.7787   0.3163   0.3163   0.5709   0.5709   0.7717   0.7717
     0.9581   0.9582   1.5404   1.5405   1.5663   1.5665   1.7215   1.7216
     2.5417   2.5417   4.1971   4.1971   5.1268   5.1268   5.7879   5.7879
     6.3603   6.3603   6.6364   6.6364   7.3016   7.3016   7.4217   7.4217
     8.3370   8.3370   8.9924   8.9925   9.0372   9.0372   9.7232   9.7330
     9.7330

          k =-0.5000 0.0000-0.0593 ( 16552 PWs)   bands (ev):

   -18.0296 -18.0295 -17.9978 -17.9976 -17.6352 -17.6352 -17.5789 -17.5789
   -14.6899 -14.6885 -14.2977 -14.2938 -14.0550 -14.0533 -12.5889 -12.5808
   -12.3719 -12.3544 -12.1577 -12.1147 -11.7674 -11.7384 -11.7143 -11.6861
   -11.2039 -11.1532  -9.9937  -9.9303  -9.1476  -9.0847  -8.8190  -8.7105
    -8.6724  -8.6680  -8.6176  -8.5801  -8.0159  -7.9821  -7.6883  -7.6130
    -7.0439  -6.9677  -6.9108  -6.8927  -6.5490  -6.4946  -6.4028  -6.2366
    -5.7801  -5.7304  -5.1451  -5.0801  -4.5957  -4.5452  -4.3434  -4.3377
    -4.2429  -4.2110  -4.1296  -4.1091  -4.0489  -4.0018  -3.7422  -3.7216
    -3.6862  -3.6670  -3.4558  -3.4493  -3.3362  -3.3187  -3.2710  -3.1708
    -3.0026  -2.9915  -2.8917  -2.8705  -2.6889  -2.6812  -2.0469  -2.0464
    -2.0126  -1.9174  -1.8267  -1.8263  -1.8155  -1.8042  -1.6440  -1.6400
    -1.6267  -1.5867  -1.3805  -1.3484  -1.3105  -1.2864  -1.0356  -1.0330
    -0.2660  -0.2631   0.4027   0.4114   0.6134   0.6152   0.7736   0.8044
     1.1156   1.1513   1.5450   1.5579   1.5945   1.5955   1.6767   1.6800
     2.2954   2.3117   4.0953   4.1187   5.1618   5.2150   5.4853   5.4891
     6.0558   6.0863   6.0967   6.0973   6.3487   6.3548   6.8300   6.8468
     7.9843   8.0021   8.1291   8.1605   8.2084   8.2698   8.8447   8.8609
     8.9343

          k =-0.5000 0.0000-0.1547 ( 16566 PWs)   bands (ev):

   -18.0296 -18.0295 -17.9978 -17.9977 -17.6352 -17.6352 -17.5790 -17.5789
   -14.6892 -14.6892 -14.2958 -14.2958 -14.0541 -14.0541 -12.5850 -12.5850
   -12.3634 -12.3633 -12.1372 -12.1372 -11.7416 -11.7416 -11.7112 -11.7112
   -11.1777 -11.1777  -9.9626  -9.9625  -9.1186  -9.1186  -8.7634  -8.7633
    -8.6685  -8.6685  -8.6006  -8.6006  -7.9978  -7.9977  -7.6518  -7.6518
    -7.0092  -7.0091  -6.8975  -6.8975  -6.5241  -6.5240  -6.3250  -6.3250
    -5.7448  -5.7447  -5.1154  -5.1154  -4.5743  -4.5742  -4.3409  -4.3408
    -4.2235  -4.2235  -4.1301  -4.1300  -4.0088  -4.0088  -3.7354  -3.7353
    -3.6770  -3.6770  -3.4530  -3.4529  -3.3452  -3.3452  -3.2053  -3.2053
    -2.9961  -2.9961  -2.8827  -2.8827  -2.6845  -2.6844  -2.0470  -2.0469
    -1.9730  -1.9730  -1.8277  -1.8277  -1.7981  -1.7981  -1.6420  -1.6420
    -1.6104  -1.6104  -1.3661  -1.3661  -1.2959  -1.2959  -1.0345  -1.0345
    -0.2648  -0.2648   0.4072   0.4072   0.6140   0.6141   0.7879   0.7879
     1.1346   1.1346   1.5513   1.5513   1.5951   1.5953   1.6782   1.6782
     2.3034   2.3034   4.1069   4.1069   5.1874   5.1874   5.4881   5.4882
     6.0707   6.0707   6.0968   6.0969   6.3515   6.3515   6.8382   6.8382
     7.9931   7.9931   8.1404   8.1404   8.2429   8.2430   8.8522   8.8525
     8.9286

          k =-0.5000-0.7160-0.0593 ( 16676 PWs)   bands (ev):

   -18.0215 -18.0214 -17.9838 -17.9837 -17.5158 -17.5158 -17.4780 -17.4780
   -14.5713 -14.5713 -14.1882 -14.1882 -14.0085 -14.0085 -12.6875 -12.6875
   -12.3556 -12.3555 -12.1662 -12.1662 -11.7381 -11.7380 -11.6285 -11.6285
   -11.1874 -11.1874  -9.9816  -9.9815  -9.1375  -9.1375  -8.7774  -8.7774
    -8.5298  -8.5297  -8.4890  -8.4890  -8.1180  -8.1180  -7.4815  -7.4815
    -7.0731  -7.0730  -7.0470  -7.0470  -6.6486  -6.6486  -6.2470  -6.2470
    -5.7446  -5.7446  -5.1669  -5.1669  -4.6410  -4.6409  -4.5312  -4.5311
    -4.4828  -4.4828  -4.3191  -4.3190  -4.0750  -4.0749  -3.9981  -3.9981
    -3.9582  -3.9582  -3.7630  -3.7630  -3.7323  -3.7323  -3.3929  -3.3929
    -3.1986  -3.1986  -3.1688  -3.1687  -2.7275  -2.7275  -2.6061  -2.6061
    -2.1184  -2.1184  -1.9384  -1.9384  -1.9028  -1.9028  -1.7860  -1.7860
    -1.6594  -1.6593  -1.6133  -1.6133  -1.2617  -1.2617  -1.0659  -1.0659
    -0.9487  -0.9487   0.3690   0.3690   0.8308   0.8308   0.9117   0.9117
     1.0011   1.0011   1.4869   1.4869   1.5534   1.5536   1.7175   1.7176
     2.4569   2.4569   3.9777   3.9778   5.0358   5.0359   5.8525   5.8526
     6.0225   6.0225   6.4365   6.4365   7.0363   7.0364   7.5087   7.5087
     8.4032   8.4032   8.8375   8.8375   8.9520   8.9521   9.2402   9.2403
     9.8128

          k =-0.5000-0.7160-0.1547 ( 16624 PWs)   bands (ev):

   -18.0214 -18.0213 -17.9837 -17.9836 -17.5157 -17.5157 -17.4780 -17.4780
   -14.5712 -14.5712 -14.1881 -14.1881 -14.0085 -14.0085 -12.6874 -12.6874
   -12.3555 -12.3555 -12.1661 -12.1661 -11.7379 -11.7379 -11.6285 -11.6285
   -11.1873 -11.1873  -9.9814  -9.9814  -9.1372  -9.1372  -8.7775  -8.7774
    -8.5297  -8.5296  -8.4886  -8.4886  -8.1179  -8.1179  -7.4816  -7.4815
    -7.0711  -7.0710  -7.0476  -7.0475  -6.6502  -6.6502  -6.2448  -6.2448
    -5.7452  -5.7451  -5.1674  -5.1674  -4.6393  -4.6393  -4.5309  -4.5309
    -4.4829  -4.4829  -4.3181  -4.3180  -4.0753  -4.0753  -3.9939  -3.9938
    -3.9662  -3.9662  -3.7534  -3.7533  -3.7394  -3.7393  -3.3910  -3.3910
    -3.1975  -3.1974  -3.1675  -3.1674  -2.7359  -2.7359  -2.6054  -2.6053
    -2.0663  -2.0663  -1.9732  -1.9731  -1.9288  -1.9288  -1.7914  -1.7914
    -1.6480  -1.6479  -1.6010  -1.6009  -1.2616  -1.2616  -1.0655  -1.0655
    -0.9506  -0.9506   0.3692   0.3692   0.8312   0.8312   0.9119   0.9120
     1.0013   1.0014   1.4884   1.4885   1.5537   1.5538   1.7185   1.7185
     2.4571   2.4571   3.9784   3.9784   5.0360   5.0360   5.8524   5.8524
     6.0231   6.0231   6.4365   6.4365   7.0371   7.0371   7.5084   7.5084
     8.4078   8.4078   8.8147   8.8148   8.9765   8.9766   9.2341   9.2342
     9.8155

     the Fermi energy is     3.2652 ev

!    total energy              =   -1044.42651467 Ry
     total all-electron energy =     -4115.573054 Ry
     estimated scf accuracy    <       0.00000035 Ry
     smearing contrib. (-TS)   =      -0.00000000 Ry
     internal energy E=F+TS    =   -1044.42651467 Ry

     The total energy is F=E-TS. E is the sum of the following terms:
     one-electron contribution =    -651.88999930 Ry
     hartree contribution      =     418.48042838 Ry
     xc contribution           =    -258.48918458 Ry
     ewald contribution        =    -235.01600382 Ry
     DFT-D3 Dispersion         =      -0.45502108 Ry
     one-center paw contrib.   =    -317.05673427 Ry

     convergence has been achieved in  14 iterations

     Forces acting on atoms (cartesian axes, Ry/au):

     atom    1 type  1   force =     0.01070162   -0.01067418   -0.00362803
     atom    2 type  1   force =     0.01072549    0.01068705   -0.00363270
     atom    3 type  1   force =    -0.01069370    0.01066930    0.00362885
     atom    4 type  1   force =    -0.01073414   -0.01069333    0.00363211
     atom    5 type  2   force =    -0.36637641    0.24080261    0.02162906
     atom    6 type  2   force =    -0.36637919   -0.24080513    0.02163869
     atom    7 type  2   force =     0.36637699   -0.24080267   -0.02163099
     atom    8 type  2   force =     0.36637868    0.24080520   -0.02163680
     atom    9 type  3   force =     0.38453064   -0.25058554   -0.02935997
     atom   10 type  3   force =     0.38453211    0.25058659   -0.02935883
     atom   11 type  3   force =    -0.38453158    0.25058667    0.02935997
     atom   12 type  3   force =    -0.38453115   -0.25058554    0.02935873
     atom   13 type  4   force =     0.25025929   -0.16391938   -0.05495981
     atom   14 type  4   force =     0.25025780    0.16391449   -0.05482269
     atom   15 type  4   force =    -0.25025927    0.16391970    0.05495887
     atom   16 type  4   force =    -0.25025745   -0.16391396    0.05482324
     atom   17 type  3   force =    -0.28552020    0.18100103    0.03649396
     atom   18 type  3   force =    -0.28552122   -0.18100165    0.03649407
     atom   19 type  3   force =     0.28552102   -0.18100116   -0.03649424
     atom   20 type  3   force =     0.28552044    0.18100147   -0.03649394
     atom   21 type  4   force =     0.11574227   -0.07638419   -0.27838300
     atom   22 type  4   force =     0.11573853    0.07639186   -0.27832118
     atom   23 type  4   force =    -0.11574183    0.07638424    0.27838234
     atom   24 type  4   force =    -0.11573862   -0.07639169    0.27832193
     atom   25 type  3   force =    -0.10826013    0.07830361    0.31200178
     atom   26 type  3   force =    -0.10826249   -0.07830514    0.31200307
     atom   27 type  3   force =     0.10826032   -0.07830335   -0.31200206
     atom   28 type  3   force =     0.10826241    0.07830540   -0.31200272
     atom   29 type  4   force =    -0.18984469    0.08103018   -0.22709832
     atom   30 type  4   force =    -0.18985665   -0.08102434   -0.22710932
     atom   31 type  4   force =     0.18984451   -0.08102968    0.22709793
     atom   32 type  4   force =     0.18985687    0.08102487    0.22710954
     atom   33 type  3   force =     0.18792051   -0.08000832    0.27374731
     atom   34 type  3   force =     0.18791937    0.08000809    0.27374550
     atom   35 type  3   force =    -0.18792074    0.08000877   -0.27374782
     atom   36 type  3   force =    -0.18791907   -0.08000764   -0.27374513
     atom   37 type  4   force =    -0.25228100    0.14541251    0.02162548
     atom   38 type  4   force =    -0.25228629   -0.14540848    0.02173603
     atom   39 type  4   force =     0.25228066   -0.14541216   -0.02162730
     atom   40 type  4   force =     0.25228659    0.14540878   -0.02173404
     atom   41 type  3   force =     0.28965771   -0.16942683   -0.04132712
     atom   42 type  3   force =     0.28965849    0.16942744   -0.04132739
     atom   43 type  3   force =    -0.28965860    0.16942771    0.04132711
     atom   44 type  3   force =    -0.28965749   -0.16942659    0.04132736
     atom   45 type  4   force =    -0.03547834    0.02572020   -0.03688909
     atom   46 type  4   force =    -0.03548415   -0.02571251   -0.03668807
     atom   47 type  4   force =     0.03547853   -0.02571971    0.03689036
     atom   48 type  4   force =     0.03548413    0.02571304    0.03668677
     atom   49 type  4   force =     0.03624737   -0.02905368    0.00044398
     atom   50 type  4   force =     0.03625362    0.02904858    0.00050947
     atom   51 type  4   force =    -0.03624687    0.02905364   -0.00044389
     atom   52 type  4   force =    -0.03625419   -0.02904872   -0.00050887
     atom   53 type  4   force =    -0.02697300    0.01433021    0.07564637
     atom   54 type  4   force =    -0.02696349   -0.01433455    0.07565188
     atom   55 type  4   force =     0.02697437   -0.01433042   -0.07564554
     atom   56 type  4   force =     0.02696219    0.01433430   -0.07565259
     atom   57 type  4   force =     0.00229518   -0.00330861    0.00288109
     atom   58 type  4   force =     0.00231203    0.00330460    0.00291971
     atom   59 type  4   force =    -0.00229499    0.00330884   -0.00288226
     atom   60 type  4   force =    -0.00231220   -0.00330443   -0.00291921
     atom   61 type  4   force =    -0.03393742    0.03302949    0.00170281
     atom   62 type  4   force =    -0.03393152   -0.03301761    0.00188794
     atom   63 type  4   force =     0.03393619   -0.03302827   -0.00170029
     atom   64 type  4   force =     0.03393162    0.03301791   -0.00188991
     atom   65 type  4   force =     0.23556707   -0.14040339    0.02352259
     atom   66 type  4   force =     0.23556713    0.14040335    0.02371621
     atom   67 type  4   force =    -0.23556679    0.14040350   -0.02352486
     atom   68 type  4   force =    -0.23556721   -0.14040302   -0.02371408
     atom   69 type  3   force =    -0.28732753    0.17863354    0.02235766
     atom   70 type  3   force =    -0.28732797   -0.17863365    0.02235807
     atom   71 type  3   force =     0.28732774   -0.17863327   -0.02235785
     atom   72 type  3   force =     0.28732808    0.17863401   -0.02235793
     The non-local contrib.  to forces
     atom    1 type  1   force =     1.85724156   -1.37176161   -0.19044319
     atom    2 type  1   force =     1.85727084    1.37177051   -0.19044381
     atom    3 type  1   force =    -1.85723431    1.37175612    0.19044265
     atom    4 type  1   force =    -1.85727904   -1.37177767    0.19044801
     atom    5 type  2   force =    -0.25106622    0.16125606    0.00496936
     atom    6 type  2   force =    -0.25107584   -0.16126423    0.00497855
     atom    7 type  2   force =     0.25106540   -0.16125642   -0.00497507
     atom    8 type  2   force =     0.25107741    0.16126461   -0.00497287
     atom    9 type  3   force =    -0.14252159    0.09413378    0.01128251
     atom   10 type  3   force =    -0.14252123   -0.09413358    0.01128266
     atom   11 type  3   force =     0.14252092   -0.09413334   -0.01128242
     atom   12 type  3   force =     0.14252185    0.09413398   -0.01128275
     atom   13 type  4   force =     0.22768485   -0.15321329   -0.11569358
     atom   14 type  4   force =     0.22768603    0.15321409   -0.11565235
     atom   15 type  4   force =    -0.22768474    0.15321305    0.11569119
     atom   16 type  4   force =    -0.22768655   -0.15321429    0.11565585
     atom   17 type  3   force =     0.10293951   -0.06687731   -0.01544301
     atom   18 type  3   force =     0.10293873    0.06687677   -0.01544277
     atom   19 type  3   force =    -0.10293859    0.06687671    0.01544286
     atom   20 type  3   force =    -0.10293964   -0.06687735    0.01544290
     atom   21 type  4   force =     0.11705171   -0.08270813   -0.21846649
     atom   22 type  4   force =     0.11705015    0.08270947   -0.21845142
     atom   23 type  4   force =    -0.11705166    0.08270817    0.21846492
     atom   24 type  4   force =    -0.11704972   -0.08270964    0.21845380
     atom   25 type  3   force =     0.04063190   -0.02603904   -0.11211391
     atom   26 type  3   force =     0.04063119    0.02603856   -0.11211232
     atom   27 type  3   force =    -0.04063146    0.02603876    0.11211273
     atom   28 type  3   force =    -0.04063163   -0.02603884    0.11211351
     atom   29 type  4   force =    -0.15096159    0.07362590   -0.16775223
     atom   30 type  4   force =    -0.15096705   -0.07362721   -0.16774279
     atom   31 type  4   force =     0.15096225   -0.07362626    0.16775004
     atom   32 type  4   force =     0.15096629    0.07362708    0.16774508
     atom   33 type  3   force =    -0.06806772    0.02763817   -0.09832332
     atom   34 type  3   force =    -0.06806703   -0.02763785   -0.09832235
     atom   35 type  3   force =     0.06806701   -0.02763788    0.09832230
     atom   36 type  3   force =     0.06806774    0.02763814    0.09832338
     atom   37 type  4   force =    -0.28348122    0.14547617   -0.06814167
     atom   38 type  4   force =    -0.28347901   -0.14547613   -0.06809534
     atom   39 type  4   force =     0.28348056   -0.14547662    0.06813855
     atom   40 type  4   force =     0.28348008    0.14547604    0.06809901
     atom   41 type  3   force =    -0.10655642    0.06190145    0.01283466
     atom   42 type  3   force =    -0.10655578   -0.06190109    0.01283453
     atom   43 type  3   force =     0.10655556   -0.06190095   -0.01283454
     atom   44 type  3   force =     0.10655664    0.06190158   -0.01283464
     atom   45 type  4   force =     0.05809885   -0.06469817   -0.37993522
     atom   46 type  4   force =     0.05809484    0.06470079   -0.37986693
     atom   47 type  4   force =    -0.05809874    0.06469760    0.37993075
     atom   48 type  4   force =    -0.05809527   -0.06470093    0.37987105
     atom   49 type  4   force =     0.09653760   -0.07698369   -0.03864695
     atom   50 type  4   force =     0.09654633    0.07698400   -0.03861700
     atom   51 type  4   force =    -0.09653547    0.07698301    0.03864398
     atom   52 type  4   force =    -0.09654705   -0.07698584    0.03862117
     atom   53 type  4   force =     0.13064041   -0.04883091    0.38583649
     atom   54 type  4   force =     0.13064987    0.04883444    0.38584473
     atom   55 type  4   force =    -0.13063834    0.04882952   -0.38584008
     atom   56 type  4   force =    -0.13065237   -0.04883587   -0.38584106
     atom   57 type  4   force =     0.05777793   -0.03161844    0.00989001
     atom   58 type  4   force =     0.05778690    0.03161770    0.00991567
     atom   59 type  4   force =    -0.05777855    0.03161856   -0.00989518
     atom   60 type  4   force =    -0.05778645   -0.03161856   -0.00991206
     atom   61 type  4   force =    -0.13283126    0.09581165   -0.02044818
     atom   62 type  4   force =    -0.13278961   -0.09577598   -0.02038875
     atom   63 type  4   force =     0.13283205   -0.09581189    0.02044800
     atom   64 type  4   force =     0.13278730    0.09577507    0.02038928
     atom   65 type  4   force =     0.24903739   -0.16215991   -0.01611582
     atom   66 type  4   force =     0.24904301    0.16216359   -0.01605489
     atom   67 type  4   force =    -0.24903733    0.16215916    0.01610898
     atom   68 type  4   force =    -0.24904301   -0.16216406    0.01606063
     atom   69 type  3   force =     0.10492018   -0.06454206   -0.00744529
     atom   70 type  3   force =     0.10492039    0.06454216   -0.00744500
     atom   71 type  3   force =    -0.10492010    0.06454201    0.00744528
     atom   72 type  3   force =    -0.10492045   -0.06454221    0.00744500
     The ionic contribution  to forces
     atom    1 type  1   force =    -8.13262512    5.17367614    5.44793528
     atom    2 type  1   force =    -8.13262512   -5.17367614    5.44793528
     atom    3 type  1   force =     8.13262512   -5.17367614   -5.44793528
     atom    4 type  1   force =     8.13262512    5.17367613   -5.44793528
     atom    5 type  2   force =     3.47681710   -1.43930063    2.84281953
     atom    6 type  2   force =     3.47681710    1.43930063    2.84281953
     atom    7 type  2   force =    -3.47681710    1.43930063   -2.84281953
     atom    8 type  2   force =    -3.47681710   -1.43930062   -2.84281953
     atom    9 type  3   force =     3.46887360   -2.15682909    0.21833364
     atom   10 type  3   force =     3.46887360    2.15682909    0.21833364
     atom   11 type  3   force =    -3.46887360    2.15682909   -0.21833364
     atom   12 type  3   force =    -3.46887360   -2.15682909   -0.21833364
     atom   13 type  4   force =    -3.45732270    1.53395983    6.41733334
     atom   14 type  4   force =    -3.45732270   -1.53395983    6.41733334
     atom   15 type  4   force =     3.45732270   -1.53395983   -6.41733334
     atom   16 type  4   force =     3.45732270    1.53395983   -6.41733334
     atom   17 type  3   force =    -2.73351062    1.63907527    1.96913305
     atom   18 type  3   force =    -2.73351062   -1.63907527    1.96913305
     atom   19 type  3   force =     2.73351062   -1.63907527   -1.96913305
     atom   20 type  3   force =     2.73351062    1.63907527   -1.96913305
     atom   21 type  4   force =    -1.20964763    0.60644863    7.35479415
     atom   22 type  4   force =    -1.20964763   -0.60644863    7.35479415
     atom   23 type  4   force =     1.20964763   -0.60644863   -7.35479415
     atom   24 type  4   force =     1.20964763    0.60644863   -7.35479415
     atom   25 type  3   force =    -1.02604581    0.64047237    3.28145390
     atom   26 type  3   force =    -1.02604581   -0.64047237    3.28145390
     atom   27 type  3   force =     1.02604581   -0.64047237   -3.28145390
     atom   28 type  3   force =     1.02604581    0.64047237   -3.28145390
     atom   29 type  4   force =     2.23740653   -0.61371849    7.21222616
     atom   30 type  4   force =     2.23740653    0.61371849    7.21222616
     atom   31 type  4   force =    -2.23740653    0.61371849   -7.21222616
     atom   32 type  4   force =    -2.23740653   -0.61371849   -7.21222616
     atom   33 type  3   force =     1.78116572   -0.67088031    3.02546149
     atom   34 type  3   force =     1.78116572    0.67088031    3.02546149
     atom   35 type  3   force =    -1.78116572    0.67088031   -3.02546149
     atom   36 type  3   force =    -1.78116572   -0.67088031   -3.02546149
     atom   37 type  4   force =     3.84956468   -1.58683834    5.68680286
     atom   38 type  4   force =     3.84956468    1.58683834    5.68680286
     atom   39 type  4   force =    -3.84956468    1.58683834   -5.68680286
     atom   40 type  4   force =    -3.84956468   -1.58683834   -5.68680286
     atom   41 type  3   force =     2.76270294   -1.49731016    1.28472083
     atom   42 type  3   force =     2.76270294    1.49731016    1.28472083
     atom   43 type  3   force =    -2.76270294    1.49731016   -1.28472083
     atom   44 type  3   force =    -2.76270294   -1.49731016   -1.28472083
     atom   45 type  4   force =     0.90089588   -0.15740050    5.62242869
     atom   46 type  4   force =     0.90089588    0.15740050    5.62242869
     atom   47 type  4   force =    -0.90089588    0.15740050   -5.62242869
     atom   48 type  4   force =    -0.90089588   -0.15740050   -5.62242869
     atom   49 type  4   force =    -1.19365449    0.36800775    5.16495424
     atom   50 type  4   force =    -1.19365449   -0.36800775    5.16495424
     atom   51 type  4   force =     1.19365449   -0.36800775   -5.16495424
     atom   52 type  4   force =     1.19365449    0.36800775   -5.16495424
     atom   53 type  4   force =     1.24077303    0.02188864    0.26910572
     atom   54 type  4   force =     1.24077303   -0.02188864    0.26910572
     atom   55 type  4   force =    -1.24077303   -0.02188864   -0.26910572
     atom   56 type  4   force =    -1.24077303    0.02188864   -0.26910572
     atom   57 type  4   force =    -1.33204162    0.38519375    1.32898853
     atom   58 type  4   force =    -1.33204162   -0.38519375    1.32898853
     atom   59 type  4   force =     1.33204162   -0.38519375   -1.32898853
     atom   60 type  4   force =     1.33204162    0.38519375   -1.32898853
     atom   61 type  4   force =     0.50915138   -1.32695740    3.02326628
     atom   62 type  4   force =     0.50915138    1.32695740    3.02326628
     atom   63 type  4   force =    -0.50915138    1.32695740   -3.02326628
     atom   64 type  4   force =    -0.50915138   -1.32695740   -3.02326628
     atom   65 type  4   force =    -3.79515388    1.50255586    0.36667794
     atom   66 type  4   force =    -3.79515388   -1.50255586    0.36667794
     atom   67 type  4   force =     3.79515388   -1.50255586   -0.36667793
     atom   68 type  4   force =     3.79515388    1.50255586   -0.36667794
     atom   69 type  3   force =    -2.87099267    1.60192455    0.08379375
     atom   70 type  3   force =    -2.87099267   -1.60192455    0.08379375
     atom   71 type  3   force =     2.87099267   -1.60192455   -0.08379375
     atom   72 type  3   force =     2.87099267    1.60192455   -0.08379375
     The local contribution  to forces
     atom    1 type  1   force =     6.29997805   -3.82322106   -5.26267848
     atom    2 type  1   force =     6.30003314    3.82325374   -5.26264988
     atom    3 type  1   force =    -6.29998344    3.82322265    5.26265122
     atom    4 type  1   force =    -6.30003571   -3.82324939    5.26267993
     atom    5 type  2   force =    -3.60052002    1.52471473   -2.82623451
     atom    6 type  2   force =    -3.60054909   -1.52471815   -2.82620959
     atom    7 type  2   force =     3.60052444   -1.52471619    2.82621091
     atom    8 type  2   force =     3.60054998    1.52471711    2.82623277
     atom    9 type  3   force =    -2.94190426    1.81233852   -0.25894828
     atom   10 type  3   force =    -2.94190996   -1.81234108   -0.25894254
     atom   11 type  3   force =     2.94190256   -1.81233764    0.25894278
     atom   12 type  3   force =     2.94191182    1.81234179    0.25894812
     atom   13 type  4   force =     3.48573563   -1.54884929   -6.35968919
     atom   14 type  4   force =     3.48574673    1.54885169   -6.35973152
     atom   15 type  4   force =    -3.48573968    1.54885106    6.35967511
     atom   16 type  4   force =    -3.48574437   -1.54884999    6.35974690
     atom   17 type  3   force =     2.34510237   -1.39141438   -1.91707028
     atom   18 type  3   force =     2.34510609    1.39141536   -1.91706526
     atom   19 type  3   force =    -2.34510338    1.39141481    1.91706685
     atom   20 type  3   force =    -2.34510582   -1.39141508    1.91706883
     atom   21 type  4   force =     1.21183465   -0.60264946   -7.42008399
     atom   22 type  4   force =     1.21183981    0.60264941   -7.42010288
     atom   23 type  4   force =    -1.21183573    0.60264968    7.42007851
     atom   24 type  4   force =    -1.21183875   -0.60264852    7.42011020
     atom   25 type  3   force =     0.87718011   -0.53620908   -2.85748202
     atom   26 type  3   force =     0.87717940    0.53620807   -2.85748320
     atom   27 type  3   force =    -0.87718088    0.53620954    2.85748369
     atom   28 type  3   force =    -0.87717870   -0.53620757    2.85748218
     atom   29 type  4   force =    -2.28112655    0.62369292   -7.27586328
     atom   30 type  4   force =    -2.28112811   -0.62369301   -7.27585812
     atom   31 type  4   force =     2.28112914   -0.62369384    7.27585626
     atom   32 type  4   force =     2.28112704    0.62369256    7.27586594
     atom   33 type  3   force =    -1.52523388    0.56330092   -2.65349464
     atom   34 type  3   force =    -1.52523766   -0.56330223   -2.65349696
     atom   35 type  3   force =     1.52523513   -0.56330137    2.65349490
     atom   36 type  3   force =     1.52523642    0.56330180    2.65349673
     atom   37 type  4   force =    -3.82490044    1.59036271   -5.59825399
     atom   38 type  4   force =    -3.82491268   -1.59036277   -5.59828773
     atom   39 type  4   force =     3.82490335   -1.59036363    5.59823655
     atom   40 type  4   force =     3.82491140    1.59036179    5.59830702
     atom   41 type  3   force =    -2.36660691    1.26615405   -1.33872080
     atom   42 type  3   force =    -2.36660881   -1.26615499   -1.33871350
     atom   43 type  3   force =     2.36660692   -1.26615409    1.33871667
     atom   44 type  3   force =     2.36660884    1.26615491    1.33871799
     atom   45 type  4   force =    -0.99449062    0.24736321   -5.28579464
     atom   46 type  4   force =    -0.99451505   -0.24737844   -5.28585379
     atom   47 type  4   force =     0.99449457   -0.24736434    5.28578044
     atom   48 type  4   force =     0.99451645    0.24737806    5.28587012
     atom   49 type  4   force =     1.13518088   -0.32174519   -5.12652877
     atom   50 type  4   force =     1.13518398    0.32174794   -5.12653985
     atom   51 type  4   force =    -1.13518220    0.32174519    5.12651485
     atom   52 type  4   force =    -1.13518578   -0.32174662    5.12655762
     atom   53 type  4   force =    -1.39662918    0.04117009   -0.57139920
     atom   54 type  4   force =    -1.39665559   -0.04117818   -0.57137672
     atom   55 type  4   force =     1.39663199   -0.04117016    0.57137680
     atom   56 type  4   force =     1.39665584    0.04117912    0.57139536
     atom   57 type  4   force =     1.27781477   -0.35791094   -1.33541822
     atom   58 type  4   force =     1.27782032    0.35791335   -1.33541281
     atom   59 type  4   force =    -1.27780983    0.35790969    1.33539516
     atom   60 type  4   force =    -1.27782585   -0.35791331    1.33543054
     atom   61 type  4   force =    -0.40862674    1.26228454   -3.00216146
     atom   62 type  4   force =    -0.40858386   -1.26227504   -3.00223127
     atom   63 type  4   force =     0.40862823   -1.26228598    3.00214415
     atom   64 type  4   force =     0.40857586    1.26227012    3.00225011
     atom   65 type  4   force =     3.78827699   -1.48509629   -0.32618750
     atom   66 type  4   force =     3.78829306    1.48509769   -0.32624114
     atom   67 type  4   force =    -3.78827603    1.48509651    0.32615903
     atom   68 type  4   force =    -3.78829374   -1.48509709    0.32626400
     atom   69 type  3   force =     2.47884848   -1.35897288   -0.05398388
     atom   70 type  3   force =     2.47885197    1.35897332   -0.05397782
     atom   71 type  3   force =    -2.47884891    1.35897282    0.05397565
     atom   72 type  3   force =    -2.47885146   -1.35897316    0.05398486
     The core correction contribution to forces
     atom    1 type  1   force =    -0.01388607    0.01032332    0.00151631
     atom    2 type  1   force =    -0.01388656   -0.01032341    0.00151612
     atom    3 type  1   force =     0.01388605   -0.01032332   -0.00151631
     atom    4 type  1   force =     0.01388658    0.01032347   -0.00151615
     atom    5 type  2   force =     0.00833694   -0.00543688   -0.00012443
     atom    6 type  2   force =     0.00833736    0.00543695   -0.00011962
     atom    7 type  2   force =    -0.00833693    0.00543689    0.00012454
     atom    8 type  2   force =    -0.00833738   -0.00543696    0.00011951
     atom    9 type  3   force =     0.00000000    0.00000000    0.00000000
     atom   10 type  3   force =     0.00000000    0.00000000    0.00000000
     atom   11 type  3   force =     0.00000000    0.00000000    0.00000000
     atom   12 type  3   force =     0.00000000    0.00000000    0.00000000
     atom   13 type  4   force =    -0.00494576    0.00326350    0.00311890
     atom   14 type  4   force =    -0.00494433   -0.00326584    0.00326818
     atom   15 type  4   force =     0.00494576   -0.00326349   -0.00311885
     atom   16 type  4   force =     0.00494433    0.00326583   -0.00326824
     atom   17 type  3   force =     0.00000000    0.00000000    0.00000000
     atom   18 type  3   force =     0.00000000    0.00000000    0.00000000
     atom   19 type  3   force =     0.00000000    0.00000000    0.00000000
     atom   20 type  3   force =     0.00000000    0.00000000    0.00000000
     atom   21 type  4   force =    -0.00311493    0.00211127    0.00454490
     atom   22 type  4   force =    -0.00311902   -0.00210366    0.00461271
     atom   23 type  4   force =     0.00311493   -0.00211128   -0.00454488
     atom   24 type  4   force =     0.00311900    0.00210366   -0.00461274
     atom   25 type  3   force =     0.00000000    0.00000000    0.00000000
     atom   26 type  3   force =     0.00000000    0.00000000    0.00000000
     atom   27 type  3   force =     0.00000000    0.00000000    0.00000000
     atom   28 type  3   force =     0.00000000    0.00000000    0.00000000
     atom   29 type  4   force =     0.00414320   -0.00214144    0.00335755
     atom   30 type  4   force =     0.00412868    0.00214620    0.00334120
     atom   31 type  4   force =    -0.00414322    0.00214145   -0.00335751
     atom   32 type  4   force =    -0.00412865   -0.00214619   -0.00334124
     atom   33 type  3   force =     0.00000000    0.00000000    0.00000000
     atom   34 type  3   force =     0.00000000    0.00000000    0.00000000
     atom   35 type  3   force =     0.00000000    0.00000000    0.00000000
     atom   36 type  3   force =     0.00000000    0.00000000    0.00000000
     atom   37 type  4   force =     0.00572316   -0.00278593    0.00167502
     atom   38 type  4   force =     0.00571000    0.00278491    0.00179699
     atom   39 type  4   force =    -0.00572317    0.00278595   -0.00167498
     atom   40 type  4   force =    -0.00571000   -0.00278490   -0.00179704
     atom   41 type  3   force =     0.00000000    0.00000000    0.00000000
     atom   42 type  3   force =     0.00000000    0.00000000    0.00000000
     atom   43 type  3   force =     0.00000000    0.00000000    0.00000000
     atom   44 type  3   force =     0.00000000    0.00000000    0.00000000
     atom   45 type  4   force =    -0.00050527    0.00107866    0.00696437
     atom   46 type  4   force =    -0.00050683   -0.00106691    0.00717918
     atom   47 type  4   force =     0.00050527   -0.00107865   -0.00696429
     atom   48 type  4   force =     0.00050686    0.00106692   -0.00717925
     atom   49 type  4   force =    -0.00145808    0.00127376    0.00110278
     atom   50 type  4   force =    -0.00145206   -0.00127762    0.00116708
     atom   51 type  4   force =     0.00145802   -0.00127376   -0.00110270
     atom   52 type  4   force =     0.00145206    0.00127766   -0.00116716
     atom   53 type  4   force =    -0.00256888    0.00069073   -0.00845976
     atom   54 type  4   force =    -0.00256339   -0.00069835   -0.00845856
     atom   55 type  4   force =     0.00256881   -0.00069070    0.00845983
     atom   56 type  4   force =     0.00256347    0.00069840    0.00845849
     atom   57 type  4   force =    -0.00072477    0.00040562   -0.00141387
     atom   58 type  4   force =    -0.00070846   -0.00040855   -0.00138065
     atom   59 type  4   force =     0.00072481   -0.00040563    0.00141399
     atom   60 type  4   force =     0.00070842    0.00040857    0.00138056
     atom   61 type  4   force =    -0.00128190    0.00122802    0.00085476
     atom   62 type  4   force =    -0.00129036   -0.00122450    0.00106937
     atom   63 type  4   force =     0.00128186   -0.00122801   -0.00085483
     atom   64 type  4   force =     0.00129043    0.00122451   -0.00106932
     atom   65 type  4   force =    -0.00525109    0.00314858   -0.00076208
     atom   66 type  4   force =    -0.00525013   -0.00314777   -0.00054634
     atom   67 type  4   force =     0.00525109   -0.00314856    0.00076229
     atom   68 type  4   force =     0.00525012    0.00314779    0.00054612
     atom   69 type  3   force =     0.00000000    0.00000000    0.00000000
     atom   70 type  3   force =     0.00000000    0.00000000    0.00000000
     atom   71 type  3   force =     0.00000000    0.00000000    0.00000000
     atom   72 type  3   force =     0.00000000    0.00000000    0.00000000
     The Hubbard contrib.    to forces
     atom    1 type  1   force =     0.00000000    0.00000000    0.00000000
     atom    2 type  1   force =     0.00000000    0.00000000    0.00000000
     atom    3 type  1   force =     0.00000000    0.00000000    0.00000000
     atom    4 type  1   force =     0.00000000    0.00000000    0.00000000
     atom    5 type  2   force =     0.00000000    0.00000000    0.00000000
     atom    6 type  2   force =     0.00000000    0.00000000    0.00000000
     atom    7 type  2   force =     0.00000000    0.00000000    0.00000000
     atom    8 type  2   force =     0.00000000    0.00000000    0.00000000
     atom    9 type  3   force =     0.00000000    0.00000000    0.00000000
     atom   10 type  3   force =     0.00000000    0.00000000    0.00000000
     atom   11 type  3   force =     0.00000000    0.00000000    0.00000000
     atom   12 type  3   force =     0.00000000    0.00000000    0.00000000
     atom   13 type  4   force =     0.00000000    0.00000000    0.00000000
     atom   14 type  4   force =     0.00000000    0.00000000    0.00000000
     atom   15 type  4   force =     0.00000000    0.00000000    0.00000000
     atom   16 type  4   force =     0.00000000    0.00000000    0.00000000
     atom   17 type  3   force =     0.00000000    0.00000000    0.00000000
     atom   18 type  3   force =     0.00000000    0.00000000    0.00000000
     atom   19 type  3   force =     0.00000000    0.00000000    0.00000000
     atom   20 type  3   force =     0.00000000    0.00000000    0.00000000
     atom   21 type  4   force =     0.00000000    0.00000000    0.00000000
     atom   22 type  4   force =     0.00000000    0.00000000    0.00000000
     atom   23 type  4   force =     0.00000000    0.00000000    0.00000000
     atom   24 type  4   force =     0.00000000    0.00000000    0.00000000
     atom   25 type  3   force =     0.00000000    0.00000000    0.00000000
     atom   26 type  3   force =     0.00000000    0.00000000    0.00000000
     atom   27 type  3   force =     0.00000000    0.00000000    0.00000000
     atom   28 type  3   force =     0.00000000    0.00000000    0.00000000
     atom   29 type  4   force =     0.00000000    0.00000000    0.00000000
     atom   30 type  4   force =     0.00000000    0.00000000    0.00000000
     atom   31 type  4   force =     0.00000000    0.00000000    0.00000000
     atom   32 type  4   force =     0.00000000    0.00000000    0.00000000
     atom   33 type  3   force =     0.00000000    0.00000000    0.00000000
     atom   34 type  3   force =     0.00000000    0.00000000    0.00000000
     atom   35 type  3   force =     0.00000000    0.00000000    0.00000000
     atom   36 type  3   force =     0.00000000    0.00000000    0.00000000
     atom   37 type  4   force =     0.00000000    0.00000000    0.00000000
     atom   38 type  4   force =     0.00000000    0.00000000    0.00000000
     atom   39 type  4   force =     0.00000000    0.00000000    0.00000000
     atom   40 type  4   force =     0.00000000    0.00000000    0.00000000
     atom   41 type  3   force =     0.00000000    0.00000000    0.00000000
     atom   42 type  3   force =     0.00000000    0.00000000    0.00000000
     atom   43 type  3   force =     0.00000000    0.00000000    0.00000000
     atom   44 type  3   force =     0.00000000    0.00000000    0.00000000
     atom   45 type  4   force =     0.00000000    0.00000000    0.00000000
     atom   46 type  4   force =     0.00000000    0.00000000    0.00000000
     atom   47 type  4   force =     0.00000000    0.00000000    0.00000000
     atom   48 type  4   force =     0.00000000    0.00000000    0.00000000
     atom   49 type  4   force =     0.00000000    0.00000000    0.00000000
     atom   50 type  4   force =     0.00000000    0.00000000    0.00000000
     atom   51 type  4   force =     0.00000000    0.00000000    0.00000000
     atom   52 type  4   force =     0.00000000    0.00000000    0.00000000
     atom   53 type  4   force =     0.00000000    0.00000000    0.00000000
     atom   54 type  4   force =     0.00000000    0.00000000    0.00000000
     atom   55 type  4   force =     0.00000000    0.00000000    0.00000000
     atom   56 type  4   force =     0.00000000    0.00000000    0.00000000
     atom   57 type  4   force =     0.00000000    0.00000000    0.00000000
     atom   58 type  4   force =     0.00000000    0.00000000    0.00000000
     atom   59 type  4   force =     0.00000000    0.00000000    0.00000000
     atom   60 type  4   force =     0.00000000    0.00000000    0.00000000
     atom   61 type  4   force =     0.00000000    0.00000000    0.00000000
     atom   62 type  4   force =     0.00000000    0.00000000    0.00000000
     atom   63 type  4   force =     0.00000000    0.00000000    0.00000000
     atom   64 type  4   force =     0.00000000    0.00000000    0.00000000
     atom   65 type  4   force =     0.00000000    0.00000000    0.00000000
     atom   66 type  4   force =     0.00000000    0.00000000    0.00000000
     atom   67 type  4   force =     0.00000000    0.00000000    0.00000000
     atom   68 type  4   force =     0.00000000    0.00000000    0.00000000
     atom   69 type  3   force =     0.00000000    0.00000000    0.00000000
     atom   70 type  3   force =     0.00000000    0.00000000    0.00000000
     atom   71 type  3   force =     0.00000000    0.00000000    0.00000000
     atom   72 type  3   force =     0.00000000    0.00000000    0.00000000
     The SCF correction term to forces
     atom    1 type  1   force =     0.00036118   -0.00018932    0.00005417
     atom    2 type  1   force =     0.00030117    0.00016037    0.00002170
     atom    3 type  1   force =    -0.00035518    0.00018800   -0.00002551
     atom    4 type  1   force =    -0.00029914   -0.00016423   -0.00005648
     atom    5 type  2   force =    -0.00029159    0.00010041    0.00007882
     atom    6 type  2   force =    -0.00025610   -0.00009176    0.00004953
     atom    7 type  2   force =     0.00028849   -0.00009901   -0.00005153
     atom    8 type  2   force =     0.00025307    0.00009216   -0.00007635
     atom    9 type  3   force =    -0.00003079    0.00000907    0.00000670
     atom   10 type  3   force =    -0.00002398   -0.00000600    0.00000194
     atom   11 type  3   force =     0.00003215   -0.00000961   -0.00000125
     atom   12 type  3   force =     0.00002238    0.00000561   -0.00000749
     atom   13 type  4   force =     0.00006892   -0.00003174   -0.00001501
     atom   14 type  4   force =     0.00005371    0.00002566   -0.00002607
     atom   15 type  4   force =    -0.00006503    0.00003019    0.00003053
     atom   16 type  4   force =    -0.00005527   -0.00002697    0.00000784
     atom   17 type  3   force =     0.00001005   -0.00000003    0.00000725
     atom   18 type  3   force =     0.00000608   -0.00000137    0.00000211
     atom   19 type  3   force =    -0.00000922   -0.00000028   -0.00000392
     atom   20 type  3   force =    -0.00000631    0.00000116   -0.00000564
     atom   21 type  4   force =     0.00000782   -0.00001044   -0.00005255
     atom   22 type  4   force =     0.00000458    0.00000886   -0.00005472
     atom   23 type  4   force =    -0.00000644    0.00000989    0.00005897
     atom   24 type  4   force =    -0.00000620   -0.00000975    0.00004584
     atom   25 type  3   force =    -0.00000164    0.00000095    0.00000533
     atom   26 type  3   force =    -0.00000258   -0.00000134    0.00000621
     atom   27 type  3   force =     0.00000209   -0.00000121   -0.00000607
     atom   28 type  3   force =     0.00000216    0.00000103   -0.00000599
     atom   29 type  4   force =    -0.00005331    0.00001528   -0.00002388
     atom   30 type  4   force =    -0.00004373   -0.00001314   -0.00003313
     atom   31 type  4   force =     0.00004983   -0.00001385    0.00003269
     atom   32 type  4   force =     0.00004566    0.00001388    0.00002332
     atom   33 type  3   force =    -0.00000033   -0.00000102    0.00000835
     atom   34 type  3   force =     0.00000162    0.00000145    0.00000789
     atom   35 type  3   force =    -0.00000052    0.00000130   -0.00000806
     atom   36 type  3   force =    -0.00000087   -0.00000121   -0.00000828
     atom   37 type  4   force =    -0.00010433    0.00003077    0.00002061
     atom   38 type  4   force =    -0.00008642   -0.00002604   -0.00000339
     atom   39 type  4   force =     0.00010167   -0.00002942   -0.00000189
     atom   40 type  4   force =     0.00008684    0.00002707   -0.00001750
     atom   41 type  3   force =    -0.00000219   -0.00000192    0.00001387
     atom   42 type  3   force =    -0.00000015    0.00000278    0.00000643
     atom   43 type  3   force =     0.00000207    0.00000201   -0.00000984
     atom   44 type  3   force =     0.00000018   -0.00000269   -0.00001080
     atom   45 type  4   force =    -0.00014774    0.00004066   -0.00002208
     atom   46 type  4   force =    -0.00012355   -0.00003244   -0.00004501
     atom   47 type  4   force =     0.00014380   -0.00003882    0.00004198
     atom   48 type  4   force =     0.00012246    0.00003315    0.00002337
     atom   49 type  4   force =     0.00005441   -0.00003238   -0.00007504
     atom   50 type  4   force =     0.00004282    0.00002774   -0.00009272
     atom   51 type  4   force =    -0.00005474    0.00003268    0.00009198
     atom   52 type  4   force =    -0.00004095   -0.00002774    0.00007151
     atom   53 type  4   force =    -0.00013040    0.00004740    0.00007797
     atom   54 type  4   force =    -0.00010941   -0.00003991    0.00005155
     atom   55 type  4   force =     0.00012688   -0.00004654   -0.00005118
     atom   56 type  4   force =     0.00011020    0.00003976   -0.00007446
     atom   57 type  4   force =     0.00010308   -0.00002395    0.00010917
     atom   58 type  4   force =     0.00008909    0.00002087    0.00008351
     atom   59 type  4   force =    -0.00010733    0.00002500   -0.00008220
     atom   60 type  4   force =    -0.00008421   -0.00002025   -0.00010421
     atom   61 type  4   force =     0.00026690   -0.00012540    0.00002857
     atom   62 type  4   force =     0.00019673    0.00008826    0.00000947
     atom   63 type  4   force =    -0.00027044    0.00012795   -0.00000846
     atom   64 type  4   force =    -0.00018646   -0.00008247   -0.00003082
     atom   65 type  4   force =     0.00014163   -0.00003979    0.00001206
     atom   66 type  4   force =     0.00011904    0.00003351   -0.00001734
     atom   67 type  4   force =    -0.00014244    0.00004008    0.00002080
     atom   68 type  4   force =    -0.00011852   -0.00003367   -0.00000886
     atom   69 type  3   force =     0.00001453    0.00000156    0.00000137
     atom   70 type  3   force =     0.00001040   -0.00000255   -0.00000456
     atom   71 type  3   force =    -0.00001405   -0.00000151    0.00000671
     atom   72 type  3   force =    -0.00001080    0.00000245   -0.00000230

     DFT-D3 dispersion contribution to forces:
     atom    1 type  1   force =    -0.00036801    0.00049819   -0.00001210
     atom    2 type  1   force =    -0.00036801   -0.00049819   -0.00001210
     atom    3 type  1   force =     0.00036801   -0.00049819    0.00001210
     atom    4 type  1   force =     0.00036801    0.00049819    0.00001210
     atom    5 type  2   force =     0.00034734   -0.00053126    0.00012030
     atom    6 type  2   force =     0.00034734    0.00053126    0.00012030
     atom    7 type  2   force =    -0.00034734    0.00053126   -0.00012030
     atom    8 type  2   force =    -0.00034734   -0.00053126   -0.00012030
     atom    9 type  3   force =     0.00011364   -0.00023799   -0.00003452
     atom   10 type  3   force =     0.00011364    0.00023799   -0.00003452
     atom   11 type  3   force =    -0.00011364    0.00023799    0.00003452
     atom   12 type  3   force =    -0.00011364   -0.00023799    0.00003452
     atom   13 type  4   force =    -0.00096168    0.00095145   -0.00001425
     atom   14 type  4   force =    -0.00096168   -0.00095145   -0.00001425
     atom   15 type  4   force =     0.00096168   -0.00095145    0.00001425
     atom   16 type  4   force =     0.00096168    0.00095145    0.00001425
     atom   17 type  3   force =    -0.00006155    0.00021731   -0.00013304
     atom   18 type  3   force =    -0.00006155   -0.00021731   -0.00013304
     atom   19 type  3   force =     0.00006155   -0.00021731    0.00013304
     atom   20 type  3   force =     0.00006155    0.00021731    0.00013304
     atom   21 type  4   force =    -0.00038939    0.00042376    0.00088100
     atom   22 type  4   force =    -0.00038939   -0.00042376    0.00088100
     atom   23 type  4   force =     0.00038939   -0.00042376   -0.00088100
     atom   24 type  4   force =     0.00038939    0.00042376   -0.00088100
     atom   25 type  3   force =    -0.00002473    0.00007824    0.00013850
     atom   26 type  3   force =    -0.00002473   -0.00007824    0.00013850
     atom   27 type  3   force =     0.00002473   -0.00007824   -0.00013850
     atom   28 type  3   force =     0.00002473    0.00007824   -0.00013850
     atom   29 type  4   force =     0.00074699   -0.00044415    0.00095738
     atom   30 type  4   force =     0.00074699    0.00044415    0.00095738
     atom   31 type  4   force =    -0.00074699    0.00044415   -0.00095738
     atom   32 type  4   force =    -0.00074699   -0.00044415   -0.00095738
     atom   33 type  3   force =     0.00005668   -0.00006624    0.00009545
     atom   34 type  3   force =     0.00005668    0.00006624    0.00009545
     atom   35 type  3   force =    -0.00005668    0.00006624   -0.00009545
     atom   36 type  3   force =    -0.00005668   -0.00006624   -0.00009545
     atom   37 type  4   force =     0.00091710   -0.00083305   -0.00047734
     atom   38 type  4   force =     0.00091710    0.00083305   -0.00047734
     atom   39 type  4   force =    -0.00091710    0.00083305    0.00047734
     atom   40 type  4   force =    -0.00091710   -0.00083305    0.00047734
     atom   41 type  3   force =     0.00012025   -0.00017041   -0.00017566
     atom   42 type  3   force =     0.00012025    0.00017041   -0.00017566
     atom   43 type  3   force =    -0.00012025    0.00017041    0.00017566
     atom   44 type  3   force =    -0.00012025   -0.00017041    0.00017566
     atom   45 type  4   force =     0.00067053   -0.00066383   -0.00053018
     atom   46 type  4   force =     0.00067053    0.00066383   -0.00053018
     atom   47 type  4   force =    -0.00067053    0.00066383    0.00053018
     atom   48 type  4   force =    -0.00067053   -0.00066383    0.00053018
     atom   49 type  4   force =    -0.00041299    0.00042590   -0.00036226
     atom   50 type  4   force =    -0.00041299   -0.00042590   -0.00036226
     atom   51 type  4   force =     0.00041299   -0.00042590    0.00036226
     atom   52 type  4   force =     0.00041299    0.00042590    0.00036226
     atom   53 type  4   force =     0.00094198   -0.00063592    0.00048518
     atom   54 type  4   force =     0.00094198    0.00063592    0.00048518
     atom   55 type  4   force =    -0.00094198    0.00063592   -0.00048518
     atom   56 type  4   force =    -0.00094198   -0.00063592   -0.00048518
     atom   57 type  4   force =    -0.00063424    0.00064520    0.00072548
     atom   58 type  4   force =    -0.00063424   -0.00064520    0.00072548
     atom   59 type  4   force =     0.00063424   -0.00064520   -0.00072548
     atom   60 type  4   force =     0.00063424    0.00064520   -0.00072548
     atom   61 type  4   force =    -0.00061583    0.00078791    0.00016286
     atom   62 type  4   force =    -0.00061583   -0.00078791    0.00016286
     atom   63 type  4   force =     0.00061583   -0.00078791   -0.00016286
     atom   64 type  4   force =     0.00061583    0.00078791   -0.00016286
     atom   65 type  4   force =    -0.00148401    0.00118798   -0.00010199
     atom   66 type  4   force =    -0.00148401   -0.00118798   -0.00010199
     atom   67 type  4   force =     0.00148401   -0.00118798    0.00010199
     atom   68 type  4   force =     0.00148401    0.00118798    0.00010199
     atom   69 type  3   force =    -0.00011809    0.00022220   -0.00000828
     atom   70 type  3   force =    -0.00011809   -0.00022220   -0.00000828
     atom   71 type  3   force =     0.00011809   -0.00022220    0.00000828
     atom   72 type  3   force =     0.00011809    0.00022220    0.00000828

     Total force =     2.399988     Total SCF correction =     0.001278

     BFGS Geometry Optimization
     Energy error            =      0.0E+00 Ry
     Gradient error          =      3.8E-01 Ry/Bohr

     number of scf cycles    =   1
     number of bfgs steps    =   0

     energy             new  =   -1044.4265146697 Ry

     new trust radius        =       0.4599136070 bohr
     new conv_thr            =       0.0000010000 Ry


ATOMIC_POSITIONS (angstrom)
O             0.8527551696        1.6475539688        2.5997121738
O            -0.9140700913        0.3399528443       17.5053590993
O             1.3055732417        2.3274434493       27.2115870493
O             3.0723897325        3.6350438328       12.3059393813
N             4.0277759667        3.4759672543        2.3316589897
N             2.2609366064        2.4865314109       17.2373134803
N            -1.8694514366        0.4990327134       27.4796387762
N            -0.1026126576        1.4884686252       12.5739863082
H             5.1421046267        2.7445008415        2.2441598222
H             3.3752675174        3.2179997134       17.1498098205
H            -2.9837809017        1.2304997556       27.5671389666
H            -1.2169427875        0.7570008433       12.6614889182
C             2.3380212874        0.7917326002        4.9702713280
C             0.5711826073        1.1957648109       19.8759932848
C            -0.1796970506        3.1832675710       24.8410269647
C             1.5871418019        2.7792354667        9.9353057962
H             1.2799130834        1.4747091192        5.1379117725
H            -0.4869253455        0.5127905533       20.0435612263
[...]
     atom   60 type  4   force =     0.00000000    0.00000000    0.00000000
     atom   61 type  4   force =     0.00000000    0.00000000    0.00000000
     atom   62 type  4   force =     0.00000000    0.00000000    0.00000000
     atom   63 type  4   force =     0.00000000    0.00000000    0.00000000
     atom   64 type  4   force =     0.00000000    0.00000000    0.00000000
     atom   65 type  4   force =     0.00000000    0.00000000    0.00000000
     atom   66 type  4   force =     0.00000000    0.00000000    0.00000000
     atom   67 type  4   force =     0.00000000    0.00000000    0.00000000
     atom   68 type  4   force =     0.00000000    0.00000000    0.00000000
     atom   69 type  3   force =     0.00000000    0.00000000    0.00000000
     atom   70 type  3   force =     0.00000000    0.00000000    0.00000000
     atom   71 type  3   force =     0.00000000    0.00000000    0.00000000
     atom   72 type  3   force =     0.00000000    0.00000000    0.00000000
     The SCF correction term to forces
     atom    1 type  1   force =     0.00003710   -0.00001036   -0.00001100
     atom    2 type  1   force =     0.00003297    0.00001221   -0.00003181
     atom    3 type  1   force =    -0.00003509    0.00001357    0.00003136
     atom    4 type  1   force =    -0.00003304   -0.00000857    0.00001121
     atom    5 type  2   force =     0.00003600   -0.00000643   -0.00001531
     atom    6 type  2   force =     0.00003819    0.00000713   -0.00003437
     atom    7 type  2   force =    -0.00003936    0.00000665    0.00003362
     atom    8 type  2   force =    -0.00003522   -0.00000698    0.00001609
     atom    9 type  3   force =     0.00000191    0.00000022   -0.00000153
     atom   10 type  3   force =     0.00000193   -0.00000017   -0.00000524
     atom   11 type  3   force =    -0.00000226   -0.00000010    0.00000526
     atom   12 type  3   force =    -0.00000174    0.00000022    0.00000148
     atom   13 type  4   force =     0.00000139    0.00000048    0.00001010
     atom   14 type  4   force =    -0.00000088   -0.00000112    0.00000073
     atom   15 type  4   force =     0.00000085   -0.00000098   -0.00000095
     atom   16 type  4   force =    -0.00000121    0.00000064   -0.00000981
     atom   17 type  3   force =     0.00000052   -0.00000014    0.00000092
     atom   18 type  3   force =    -0.00000015   -0.00000012   -0.00000092
     atom   19 type  3   force =     0.00000011   -0.00000009    0.00000096
     atom   20 type  3   force =    -0.00000044   -0.00000009   -0.00000094
     atom   21 type  4   force =     0.00000019    0.00000062   -0.00001316
     atom   22 type  4   force =    -0.00000045   -0.00000089   -0.00001624
     atom   23 type  4   force =     0.00000090   -0.00000112    0.00001604
     atom   24 type  4   force =    -0.00000061    0.00000042    0.00001321
     atom   25 type  3   force =    -0.00000017    0.00000016   -0.00000041
     atom   26 type  3   force =    -0.00000045   -0.00000037    0.00000026
     atom   27 type  3   force =     0.00000039   -0.00000031    0.00000000
     atom   28 type  3   force =     0.00000024    0.00000022    0.00000012
     atom   29 type  4   force =    -0.00000115    0.00000034   -0.00000732
     atom   30 type  4   force =     0.00000117    0.00000041   -0.00001134
     atom   31 type  4   force =    -0.00000109    0.00000037    0.00001161
     atom   32 type  4   force =     0.00000095    0.00000025    0.00000698
     atom   33 type  3   force =    -0.00000010   -0.00000001   -0.00000135
     atom   34 type  3   force =     0.00000038    0.00000018   -0.00000140
     atom   35 type  3   force =    -0.00000037    0.00000017    0.00000145
     atom   36 type  3   force =     0.00000007   -0.00000003    0.00000128
     atom   37 type  4   force =     0.00000052   -0.00000760    0.00001161
     atom   38 type  4   force =     0.00000333    0.00000877    0.00000118
     atom   39 type  4   force =    -0.00000332    0.00000850   -0.00000200
     atom   40 type  4   force =    -0.00000077   -0.00000793   -0.00001079
     atom   41 type  3   force =    -0.00000072   -0.00000090    0.00000178
     atom   42 type  3   force =    -0.00000050    0.00000103   -0.00000057
     atom   43 type  3   force =     0.00000042    0.00000102    0.00000047
     atom   44 type  3   force =     0.00000077   -0.00000093   -0.00000164
     atom   45 type  4   force =     0.00000018    0.00000423    0.00002022
     atom   46 type  4   force =     0.00000203   -0.00000413    0.00000839
     atom   47 type  4   force =    -0.00000143   -0.00000454   -0.00000945
     atom   48 type  4   force =    -0.00000097    0.00000385   -0.00001925
     atom   49 type  4   force =    -0.00000150   -0.00000076    0.00001329
     atom   50 type  4   force =    -0.00000213    0.00000055    0.00000249
     atom   51 type  4   force =     0.00000255    0.00000050   -0.00000334
     atom   52 type  4   force =     0.00000130   -0.00000080   -0.00001254
     atom   53 type  4   force =     0.00000800   -0.00000272   -0.00001293
     atom   54 type  4   force =     0.00001044    0.00000361   -0.00003256
     atom   55 type  4   force =    -0.00001011    0.00000337    0.00003297
     atom   56 type  4   force =    -0.00000831   -0.00000300    0.00001277
     atom   57 type  4   force =    -0.00000761    0.00000107   -0.00000738
     atom   58 type  4   force =    -0.00000787   -0.00000090   -0.00002755
     atom   59 type  4   force =     0.00000881   -0.00000148    0.00002710
     atom   60 type  4   force =     0.00000685    0.00000042    0.00000797
     atom   61 type  4   force =    -0.00001619    0.00000929    0.00000507
     atom   62 type  4   force =    -0.00001690   -0.00000872   -0.00000715
     atom   63 type  4   force =     0.00001866   -0.00000976    0.00000732
     atom   64 type  4   force =     0.00001487    0.00000828   -0.00000520
     atom   65 type  4   force =    -0.00000651    0.00000475    0.00000795
     atom   66 type  4   force =    -0.00000543   -0.00000387   -0.00001532
     atom   67 type  4   force =     0.00000621   -0.00000436    0.00001453
     atom   68 type  4   force =     0.00000580    0.00000422   -0.00000714
     atom   69 type  3   force =    -0.00000062    0.00000044    0.00000152
     atom   70 type  3   force =    -0.00000088   -0.00000049   -0.00000357
     atom   71 type  3   force =     0.00000092   -0.00000053    0.00000344
     atom   72 type  3   force =     0.00000059    0.00000040   -0.00000142

     DFT-D3 dispersion contribution to forces:
     atom    1 type  1   force =    -0.00028319    0.00042918   -0.00002795
     atom    2 type  1   force =    -0.00028276   -0.00042900   -0.00002800
     atom    3 type  1   force =     0.00028322   -0.00042921    0.00002794
     atom    4 type  1   force =     0.00028273    0.00042897    0.00002800
     atom    5 type  2   force =     0.00024329   -0.00043434    0.00002167
     atom    6 type  2   force =     0.00024266    0.00043426    0.00002079
     atom    7 type  2   force =    -0.00024333    0.00043437   -0.00002167
     atom    8 type  2   force =    -0.00024262   -0.00043425   -0.00002079
     atom    9 type  3   force =     0.00004381   -0.00015454   -0.00003649
     atom   10 type  3   force =     0.00004373    0.00015445   -0.00003649
     atom   11 type  3   force =    -0.00004383    0.00015455    0.00003649
     atom   12 type  3   force =    -0.00004372   -0.00015444    0.00003649
     atom   13 type  4   force =    -0.00068515    0.00072738    0.00000065
     atom   14 type  4   force =    -0.00068485   -0.00072732    0.00000035
     atom   15 type  4   force =     0.00068510   -0.00072734   -0.00000059
     atom   16 type  4   force =     0.00068489    0.00072735   -0.00000041
     atom   17 type  3   force =    -0.00016219    0.00022733   -0.00009515
     atom   18 type  3   force =    -0.00016210   -0.00022736   -0.00009514
     atom   19 type  3   force =     0.00016219   -0.00022733    0.00009515
     atom   20 type  3   force =     0.00016210    0.00022735    0.00009514
     atom   21 type  4   force =    -0.00028726    0.00034919    0.00057434
     atom   22 type  4   force =    -0.00028709   -0.00034924    0.00057451
     atom   23 type  4   force =     0.00028727   -0.00034920   -0.00057435
     atom   24 type  4   force =     0.00028708    0.00034923   -0.00057450
     atom   25 type  3   force =    -0.00004799    0.00010740    0.00021904
     atom   26 type  3   force =    -0.00004800   -0.00010742    0.00021905
     atom   27 type  3   force =     0.00004799   -0.00010740   -0.00021904
     atom   28 type  3   force =     0.00004800    0.00010742   -0.00021905
     atom   29 type  4   force =     0.00054670   -0.00037957    0.00057061
     atom   30 type  4   force =     0.00054672    0.00037948    0.00057065
     atom   31 type  4   force =    -0.00054669    0.00037957   -0.00057058
     atom   32 type  4   force =    -0.00054673   -0.00037948   -0.00057068
     atom   33 type  3   force =     0.00008565   -0.00007629    0.00014246
     atom   34 type  3   force =     0.00008563    0.00007630    0.00014247
     atom   35 type  3   force =    -0.00008564    0.00007629   -0.00014246
     atom   36 type  3   force =    -0.00008563   -0.00007630   -0.00014247
     atom   37 type  4   force =     0.00069342   -0.00067035   -0.00035310
     atom   38 type  4   force =     0.00069331    0.00067027   -0.00035308
     atom   39 type  4   force =    -0.00069344    0.00067035    0.00035310
     atom   40 type  4   force =    -0.00069329   -0.00067026    0.00035308
     atom   41 type  3   force =     0.00019395   -0.00018476   -0.00016919
     atom   42 type  3   force =     0.00019391    0.00018473   -0.00016912
     atom   43 type  3   force =    -0.00019397    0.00018477    0.00016920
     atom   44 type  3   force =    -0.00019390   -0.00018472    0.00016911
     atom   45 type  4   force =     0.00066613   -0.00056600   -0.00023858
     atom   46 type  4   force =     0.00066506    0.00056603   -0.00024095
     atom   47 type  4   force =    -0.00066602    0.00056593    0.00023858
     atom   48 type  4   force =    -0.00066516   -0.00056609    0.00024095
     atom   49 type  4   force =    -0.00039146    0.00037626   -0.00027618
     atom   50 type  4   force =    -0.00039159   -0.00037586   -0.00027776
     atom   51 type  4   force =     0.00039148   -0.00037626    0.00027612
     atom   52 type  4   force =     0.00039157    0.00037586    0.00027780
     atom   53 type  4   force =     0.00070634   -0.00060141    0.00005333
     atom   54 type  4   force =     0.00070413    0.00060060    0.00005228
     atom   55 type  4   force =    -0.00070621    0.00060133   -0.00005334
     atom   56 type  4   force =    -0.00070424   -0.00060067   -0.00005227
     atom   57 type  4   force =    -0.00044020    0.00045415    0.00030137
     atom   58 type  4   force =    -0.00043916   -0.00045271    0.00029884
     atom   59 type  4   force =     0.00044024   -0.00045416   -0.00030133
     atom   60 type  4   force =     0.00043913    0.00045270   -0.00029887
     atom   61 type  4   force =    -0.00054192    0.00072382    0.00008425
     atom   62 type  4   force =    -0.00054112   -0.00072305    0.00008315
     atom   63 type  4   force =     0.00054181   -0.00072374   -0.00008424
     atom   64 type  4   force =     0.00054122    0.00072311   -0.00008315
     atom   65 type  4   force =    -0.00085568    0.00081904   -0.00015320
     atom   66 type  4   force =    -0.00085383   -0.00081787   -0.00015288
     atom   67 type  4   force =     0.00085561   -0.00081900    0.00015316
     atom   68 type  4   force =     0.00085389    0.00081790    0.00015292
     atom   69 type  3   force =    -0.00019186    0.00024558   -0.00001449
     atom   70 type  3   force =    -0.00019154   -0.00024537   -0.00001444
     atom   71 type  3   force =     0.00019183   -0.00024556    0.00001449
     atom   72 type  3   force =     0.00019157    0.00024539    0.00001444

     Total force =     0.005322     Total SCF correction =     0.000163
     Energy error            =      4.1E-05 Ry
     Gradient error          =      9.3E-04 Ry/Bohr

     bfgs converged in  22 scf cycles and  20 bfgs steps
     (criteria: energy <  1.0E-04 Ry, force <  1.0E-03 Ry/Bohr)

     End of BFGS Geometry Optimization

     Final energy             =   -1045.5848726002 Ry

     File /scratch/calc/outdir/pwscf.bfgs deleted, as requested
Begin final coordinates

ATOMIC_POSITIONS (angstrom)
O             0.8412340720        1.6779047628        2.6218941948
O            -0.9254283014        0.3096785258       17.5281341237
O             1.3170664210        2.2971090872       27.1894048377
O             3.0837747316        3.6653333405       12.2831643157
N             4.2341444686        3.3493490143        2.3293389358
N             2.4672195449        2.6133779430       17.2354077924
N            -2.0758041953        0.6256397551       27.4819604794
N            -0.3089094845        1.3616120293       12.5758898364
H             5.0947873102        2.7818982834        2.2744677085
H             3.3279870382        3.1806923764       17.1806527131
H            -2.9364704054        1.1931054963       27.5368344484
H            -1.1696562946        0.7943104151       12.6306425259
C             2.1935342049        0.8777595340        5.0158966829
C             0.4267470734        1.1097596667       19.9220565928
C            -0.0352106189        3.0972419720       24.7954011078
C             1.7315784278        2.8652420478        9.8892430239
H             1.2669173978        1.4415209275        5.1149503665
H            -0.4997992601        0.5459351153       20.0213086094
H             0.8914069386        2.5334798703       24.6963521761
H             2.6581234384        3.4290654045        9.7899868218
C             2.9310598564        0.5153608871        6.1261681471
C             1.1642914370        1.4721456215       21.0323003751
C            -0.7727321521        3.4596388300       23.6851355984
C             0.9940291375        2.5028543003        8.7789933433
H             2.5962806916        0.8007491198        7.1237166363
H             0.8295744540        1.1867608043       22.0298943526
H            -0.4379557054        3.1742527625       22.6875837994
H             1.3287492701        2.7882414253        7.7814026289
C             4.1314027083        3.7721783720        5.9600877136
C             2.3646067272        2.1903485835       20.8662571061
C            -1.9730812907        0.2028250027       23.8512136979
C            -0.2062798395        1.7846548061        8.9450389103
H             4.7228316203        3.4962866680        6.8331274585
H             2.9559032650        2.4661538688       21.7394074294
H            -2.5645062959        0.4787152936       22.9781744401
H            -0.7975796703        1.5088480245        8.0718879277
C             4.5695942046        3.4037744104        4.7050443222
C             2.8028193479        2.5588713862       19.6112011558
C            -2.4112649252        0.5712231088       25.1062560642
C            -0.6444994827        1.4161263812       10.2000958642
H            -0.1964654335        2.8492840060        4.5570039703
H            -1.9632041381        3.1133678867       19.4634589484
H             2.3547889407        1.1257171649       25.2542992160
H             4.1215288539        0.8616329579       10.3478353437
C             3.8073988962        3.7451486406        3.5671050728
C             2.0405444530        2.2176317282       18.4733388280
C            -1.6490827506        0.2298570625       26.2441996366
C             0.1177868330        1.7573730749       11.3379547116
C             2.6113705864        0.5219922350        3.7150183395
C             0.8445268854        1.4657407046       18.6212977964
C            -0.4530451272        3.4530086073       26.0962833479
C             1.3137961114        2.5092601574       11.1899984622
C             3.5534514880        3.6572415513        1.1768336750
C             1.7866135848        2.3054745909       16.0827511102
C            -1.3951329562        0.3177616856       28.6344657872
C             0.3717151794        1.6695280013       13.7285472840
C             2.3532532457        0.4498609094        1.2435646201
C             0.5863737068        1.5378744089       16.1495716396
C            -0.1949303377        3.5251393638       28.5677318986
C             1.5719513739        2.4371256931       13.6617289496
C             1.8534466449        0.9365500785        2.5393682707
C             0.0866242215        1.0511529957       17.4455311592
C             0.3049017973        3.0384322005       27.2719316651
C             2.0716772742        2.9238305294       12.3657669114
C             1.6687122369        0.7508944581        0.0663565225
C            -0.0980539312        1.2367430231       14.9721424407
C             0.4896206422        3.2241001904       29.7449488544
C             2.2563699738        2.7382521274       14.8391504226
H             0.7495191409        1.3306225189        0.1386682842
H            -1.0172562890        0.6570260495       15.0445130032
H             1.4088041716        2.6443769843       29.6726308596
H             3.1755808246        3.3179731902       14.7667851105
End final coordinates



     Writing all to output data dir /scratch/calc/outdir/pwscf.save/
 
     init_run     :      1.45s CPU      1.68s WALL (       1 calls)
     electrons    :    400.06s CPU    429.51s WALL (      22 calls)
     update_pot   :     10.08s CPU     10.35s WALL (      21 calls)
     forces       :     22.69s CPU     29.27s WALL (      22 calls)
     force_dftd3  :      9.23s CPU     14.41s WALL (      22 calls)

     Called by init_run:
     wfcinit      :      0.81s CPU      0.90s WALL (       1 calls)
     potinit      :      0.19s CPU      0.20s WALL (       1 calls)
     hinit0       :      0.29s CPU      0.40s WALL (       1 calls)

     Called by electrons:
     c_bands      :    336.63s CPU    357.05s WALL (     198 calls)
     sum_band     :     42.19s CPU     45.66s WALL (     198 calls)
     v_of_rho     :      2.51s CPU      2.76s WALL (     211 calls)
     newd         :      5.96s CPU      6.60s WALL (     211 calls)
     PAW_pot      :     10.20s CPU     10.25s WALL (     232 calls)
     mix_rho      :      0.35s CPU      0.39s WALL (     198 calls)
     energy_dftd3 :      4.08s CPU      8.14s WALL (      22 calls)

     Called by c_bands:
     init_us_2    :      2.92s CPU      3.11s WALL (    3520 calls)
     init_us_2:cp :      2.91s CPU      3.10s WALL (    3520 calls)
     cegterg      :    328.78s CPU    347.97s WALL (    1584 calls)

     Called by *egterg:
     cdiaghg      :    110.67s CPU    111.10s WALL (    6453 calls)
     h_psi        :    156.72s CPU    164.98s WALL (    6701 calls)
     s_psi        :     12.69s CPU     12.78s WALL (    6701 calls)
     g_psi        :      0.31s CPU      0.31s WALL (    5109 calls)

     Called by h_psi:
     h_psi:calbec :     18.51s CPU     20.86s WALL (    6701 calls)
     vloc_psi     :    124.44s CPU    130.11s WALL (    6701 calls)
     add_vuspsi   :     13.17s CPU     13.33s WALL (    6701 calls)

     General routines
     calbec       :     29.80s CPU     33.95s WALL (    9157 calls)
     fft          :      3.02s CPU      4.71s WALL (    2971 calls)
     ffts         :      0.09s CPU      0.10s WALL (     409 calls)
     fftw         :    135.68s CPU    142.16s WALL ( 1292656 calls)
     interpolate  :      0.20s CPU      0.23s WALL (     211 calls)
 
     Parallel routines
 
     PWSCF        :   7m18.72s CPU   7m58.78s WALL

 
   This run was terminated on:  22:11:54   7Mar2024            

=------------------------------------------------------------------------------=
   JOB DONE.
=------------------------------------------------------------------------------=
