
     Program PWSCF v.7.2 starts on 19Jul2023 at  6:28:11 

     This program is part of the open-source Quantum ESPRESSO suite
     for quantum simulation of materials; please cite
         "P. Giannozzi et al., J. Phys.:Condens. Matter 21 395502 (2009);
         "P. Giannozzi et al., J. Phys.:Condens. Matter 29 465901 (2017);
         "P. Giannozzi et al., J. Chem. Phys. 152 154105 (2020);
          URL http://www.quantum-espresso.org", 
     in publications or presentations arising from this work. More details at
     http://www.quantum-espresso.org/quote

     Parallel version (MPI), running on    48 processors

     MPI processes distributed on     1 nodes
     1472176 MiB available memory on the printing compute node when the environment starts
 
     Waiting for input...
     Reading input from standard input

     Current dimensions of program PWSCF are:
     Max number of different atomic species (ntypx) = 10
     Max number of k-points (npk) =  40000
     Max angular momentum in pseudopotentials (lmaxx) =  4
     file Mo.pbe-spn-kjpaw_psl.1.0.0.UPF: wavefunction(s)  4S 4D renormalized
     file S.pbe-n-kjpaw_psl.1.0.0.UPF: wavefunction(s)  3S 3P renormalized
 
     R & G space division:  proc/nbgrp/npool/nimage =      48
     Subspace diagonalization in iterative solution of the eigenvalue problem:
     a serial algorithm will be used

 
     Parallelization info
     --------------------
     sticks:   dense  smooth     PW     G-vecs:    dense   smooth      PW
     Min          28      16      5                 3507     1504     259
     Max          29      17      6                 3523     1524     275
     Sum        1357     769    241               168427    72729   12775
 
     Using Slab Decomposition
 


     bravais-lattice index     =            0
     lattice parameter (alat)  =       6.0325  a.u.
     unit-cell volume          =     796.7434 (a.u.)^3
     number of atoms/cell      =            6
     number of atomic types    =            2
     number of electrons       =        52.00
     number of Kohn-Sham states=           31
     kinetic-energy cutoff     =      77.0000  Ry
     charge density cutoff     =     539.0000  Ry
     scf convergence threshold =      1.0E-06
     mixing beta               =       0.2000
     number of iterations used =            8  plain     mixing
     energy convergence thresh.=      1.0E-04
     force convergence thresh. =      1.0E-03
     press convergence thresh. =      5.0E-01
     Exchange-correlation= SLA  PW   PBX  PBC
                           (   1   4   3   4   0   0   0)
     nstep                     =         1000


     celldm(1)=   6.032455  celldm(2)=   0.000000  celldm(3)=   0.000000
     celldm(4)=   0.000000  celldm(5)=   0.000000  celldm(6)=   0.000000

     crystal axes: (cart. coord. in units of alat)
               a(1) = (   1.000000   0.000000   0.000000 )  
               a(2) = (  -0.500000   0.866025   0.000000 )  
               a(3) = (   0.000000   0.000000   4.190883 )  

     reciprocal axes: (cart. coord. in units 2 pi/alat)
               b(1) = (  1.000000  0.577350  0.000000 )  
               b(2) = (  0.000000  1.154701  0.000000 )  
               b(3) = (  0.000000  0.000000  0.238613 )  


     PseudoPot. # 1 for Mo read from file:
     ./pseudo/Mo.pbe-spn-kjpaw_psl.1.0.0.UPF
     MD5 check sum: 317bf72632116215fd98f72de1686f13
     Pseudo is Projector augmented-wave + core cor, Zval = 14.0
     Generated using 'atomic' code by A. Dal Corso  v.7.2
     Shape of augmentation charge: PSQ
     Using radial grid of 1229 points,  6 beta functions with: 
                l(1) =   0
                l(2) =   0
                l(3) =   1
                l(4) =   1
                l(5) =   2
                l(6) =   2
     Q(r) pseudized with 0 coefficients 


     PseudoPot. # 2 for S  read from file:
     ./pseudo/S.pbe-n-kjpaw_psl.1.0.0.UPF
     MD5 check sum: 8b7b5302570d38d5e87fed6a1065abda
     Pseudo is Projector augmented-wave + core cor, Zval =  6.0
     Generated using 'atomic' code by A. Dal Corso  v.7.2
     Shape of augmentation charge: PSQ
     Using radial grid of 1151 points,  6 beta functions with: 
                l(1) =   0
                l(2) =   0
                l(3) =   1
                l(4) =   1
                l(5) =   2
                l(6) =   2
     Q(r) pseudized with 0 coefficients 


     atomic species   valence    mass     pseudopotential
        Mo            14.00    95.95000     Mo( 1.00)
        S              6.00    32.06000     S ( 1.00)

     No symmetry found



   Cartesian axes

     site n.     atom                  positions (alat units)
         1           Mo  tau(   1) = (  -0.0000000   0.5773503   3.1431619  )
         2           Mo  tau(   2) = (   0.5000000   0.2886751   1.0477206  )
         3           S   tau(   3) = (  -0.0000000   0.5773503   0.5577310  )
         4           S   tau(   4) = (   0.5000000   0.2886751   3.6331515  )
         5           S   tau(   5) = (   0.5000000   0.2886751   2.6531723  )
         6           S   tau(   6) = (   0.0000000   0.5773503   1.5377102  )

     --------------------------------------------
     DFT-D3 Dispersion Correction (3-body terms):
     --------------------------------------------
       Reference C6 values for interpolation: 

         atom   Coordination number   C6
         S          0.000           268.01
         S          0.995           261.99
         S          1.990           251.62
         Mo         0.000          1691.79
         Mo         1.942          1004.01
         Mo        11.056           674.22

       Values used:

         atom   Coordination number  R0_AB[au]  C6      C8
         Mo         9.886            3.547    674.22  77634.20
         Mo         9.886            3.547    674.22  77634.20
         S          3.678            3.128    251.62  12327.25
         S          3.678            3.128    251.62  12327.25
         S          3.678            3.128    251.62  12327.25
         S          3.678            3.128    251.62  12327.25

         Molecular C6 ( Ry / a.u.^6 ) =     13294.63


     number of k points=    36  Gaussian smearing, width (Ry)=  0.0100
                       cart. coord. in units 2pi/alat
        k(    1) = (   0.0000000   0.0000000   0.0000000), wk =   0.0312500
        k(    2) = (   0.0000000   0.0000000   0.0596533), wk =   0.0625000
        k(    3) = (   0.0000000   0.0000000  -0.1193066), wk =   0.0312500
        k(    4) = (   0.0000000   0.2886751   0.0000000), wk =   0.0625000
        k(    5) = (   0.0000000   0.2886751   0.0596533), wk =   0.0625000
        k(    6) = (   0.0000000   0.2886751  -0.1193066), wk =   0.0625000
        k(    7) = (   0.0000000   0.2886751  -0.0596533), wk =   0.0625000
        k(    8) = (   0.0000000  -0.5773503   0.0000000), wk =   0.0312500
        k(    9) = (   0.0000000  -0.5773503   0.0596533), wk =   0.0625000
        k(   10) = (   0.0000000  -0.5773503  -0.1193066), wk =   0.0312500
        k(   11) = (   0.2500000   0.1443376   0.0000000), wk =   0.0625000
        k(   12) = (   0.2500000   0.1443376   0.0596533), wk =   0.0625000
        k(   13) = (   0.2500000   0.1443376  -0.1193066), wk =   0.0625000
        k(   14) = (   0.2500000   0.1443376  -0.0596533), wk =   0.0625000
        k(   15) = (   0.2500000   0.4330127   0.0000000), wk =   0.0625000
        k(   16) = (   0.2500000   0.4330127   0.0596533), wk =   0.0625000
        k(   17) = (   0.2500000   0.4330127  -0.1193066), wk =   0.0625000
        k(   18) = (   0.2500000   0.4330127  -0.0596533), wk =   0.0625000
        k(   19) = (   0.2500000  -0.4330127   0.0000000), wk =   0.0625000
        k(   20) = (   0.2500000  -0.4330127   0.0596533), wk =   0.0625000
        k(   21) = (   0.2500000  -0.4330127  -0.1193066), wk =   0.0625000
        k(   22) = (   0.2500000  -0.4330127  -0.0596533), wk =   0.0625000
        k(   23) = (   0.2500000  -0.1443376   0.0000000), wk =   0.0625000
        k(   24) = (   0.2500000  -0.1443376   0.0596533), wk =   0.0625000
        k(   25) = (   0.2500000  -0.1443376  -0.1193066), wk =   0.0625000
        k(   26) = (   0.2500000  -0.1443376  -0.0596533), wk =   0.0625000
        k(   27) = (  -0.5000000  -0.2886751   0.0000000), wk =   0.0312500
        k(   28) = (  -0.5000000  -0.2886751   0.0596533), wk =   0.0625000
        k(   29) = (  -0.5000000  -0.2886751  -0.1193066), wk =   0.0312500
        k(   30) = (  -0.5000000   0.0000000   0.0000000), wk =   0.0625000
        k(   31) = (  -0.5000000   0.0000000   0.0596533), wk =   0.0625000
        k(   32) = (  -0.5000000   0.0000000  -0.1193066), wk =   0.0625000
        k(   33) = (  -0.5000000   0.0000000  -0.0596533), wk =   0.0625000
        k(   34) = (  -0.5000000  -0.8660254   0.0000000), wk =   0.0312500
        k(   35) = (  -0.5000000  -0.8660254   0.0596533), wk =   0.0625000
        k(   36) = (  -0.5000000  -0.8660254  -0.1193066), wk =   0.0312500

     Dense  grid:   168427 G-vectors     FFT dimensions: (  45,  45, 192)

     Smooth grid:    72729 G-vectors     FFT dimensions: (  36,  36, 144)

     Estimated max dynamical RAM per process >      23.95 MB

     Estimated total dynamical RAM >       1.12 GB

     Initial potential from superposition of free atoms

     starting charge      51.9981, renormalised to      52.0000
     Starting wfcs are   36 randomized atomic wfcs
     Checking if some PAW data can be deallocated... 

     total cpu time spent up to now is        0.9 secs

     Self-consistent Calculation

     iteration #  1     ecut=    77.00 Ry     beta= 0.20
     Davidson diagonalization with overlap
     ethr =  1.00E-02,  avg # of iterations =  2.3

     Threshold (ethr) on eigenvalues was too large:
     Diagonalizing with lowered threshold

     Davidson diagonalization with overlap
     ethr =  2.84E-04,  avg # of iterations =  3.6

     total cpu time spent up to now is        2.9 secs

     total energy              =    -993.56940392 Ry
     estimated scf accuracy    <       0.20678513 Ry

     iteration #  2     ecut=    77.00 Ry     beta= 0.20
     Davidson diagonalization with overlap
     ethr =  3.98E-04,  avg # of iterations =  1.3

     total cpu time spent up to now is        3.6 secs

     total energy              =    -993.55279056 Ry
     estimated scf accuracy    <       0.07577332 Ry

     iteration #  3     ecut=    77.00 Ry     beta= 0.20
     Davidson diagonalization with overlap
     ethr =  1.46E-04,  avg # of iterations =  2.0

     total cpu time spent up to now is        4.6 secs

     total energy              =    -993.56012885 Ry
     estimated scf accuracy    <       0.01327613 Ry

     iteration #  4     ecut=    77.00 Ry     beta= 0.20
     Davidson diagonalization with overlap
     ethr =  2.55E-05,  avg # of iterations =  3.3

     total cpu time spent up to now is        5.5 secs

     total energy              =    -993.56087336 Ry
     estimated scf accuracy    <       0.00446647 Ry

     iteration #  5     ecut=    77.00 Ry     beta= 0.20
     Davidson diagonalization with overlap
     ethr =  8.59E-06,  avg # of iterations =  4.1

     total cpu time spent up to now is        6.6 secs

     total energy              =    -993.56077119 Ry
     estimated scf accuracy    <       0.00374757 Ry

     iteration #  6     ecut=    77.00 Ry     beta= 0.20
     Davidson diagonalization with overlap
     ethr =  7.21E-06,  avg # of iterations =  2.0

     total cpu time spent up to now is        7.4 secs

     total energy              =    -993.56103953 Ry
     estimated scf accuracy    <       0.00032836 Ry

     iteration #  7     ecut=    77.00 Ry     beta= 0.20
     Davidson diagonalization with overlap
     ethr =  6.31E-07,  avg # of iterations =  4.0

     total cpu time spent up to now is        8.5 secs

     total energy              =    -993.56110234 Ry
     estimated scf accuracy    <       0.00002977 Ry

     iteration #  8     ecut=    77.00 Ry     beta= 0.20
     Davidson diagonalization with overlap
     ethr =  5.73E-08,  avg # of iterations =  5.2

     total cpu time spent up to now is        9.6 secs

     total energy              =    -993.56110388 Ry
     estimated scf accuracy    <       0.00002722 Ry

     iteration #  9     ecut=    77.00 Ry     beta= 0.20
     Davidson diagonalization with overlap
     ethr =  5.23E-08,  avg # of iterations =  2.7

     total cpu time spent up to now is       10.6 secs

     total energy              =    -993.56111019 Ry
     estimated scf accuracy    <       0.00000378 Ry

     iteration # 10     ecut=    77.00 Ry     beta= 0.20
     Davidson diagonalization with overlap
     ethr =  7.27E-09,  avg # of iterations =  2.1

     total cpu time spent up to now is       11.4 secs

     total energy              =    -993.56111069 Ry
     estimated scf accuracy    <       0.00000113 Ry

     iteration # 11     ecut=    77.00 Ry     beta= 0.20
     Davidson diagonalization with overlap
     ethr =  2.18E-09,  avg # of iterations =  4.2

     total cpu time spent up to now is       12.6 secs

     total energy              =    -993.56111004 Ry
     estimated scf accuracy    <       0.00000372 Ry

     iteration # 12     ecut=    77.00 Ry     beta= 0.20
     Davidson diagonalization with overlap
     ethr =  2.18E-09,  avg # of iterations =  3.1

     total cpu time spent up to now is       13.5 secs

     End of self-consistent calculation

          k = 0.0000 0.0000 0.0000 (  9149 PWs)   bands (ev):

   -52.0734 -52.0731 -26.1983 -26.1980 -26.0096 -26.0096 -26.0093 -26.0093
    -5.2848  -5.1940  -4.0276  -3.8717   2.9907   3.4868   6.2159   6.2159
     6.2196   6.2196   6.4479   7.3086   7.3086   7.3216   7.3216   7.7653
     8.5091   9.2479  11.5479  11.5479  11.5571  11.5571  11.7630

          k = 0.0000 0.0000 0.0597 (  9185 PWs)   bands (ev):

   -52.0734 -52.0731 -26.1983 -26.1980 -26.0096 -26.0096 -26.0093 -26.0093
    -5.2726  -5.2086  -4.0037  -3.8936   3.0536   3.4015   6.2165   6.2165
     6.2191   6.2191   6.6070   7.3105   7.3105   7.3197   7.3197   7.4811
     8.7187   9.1865  11.5488  11.5488  11.5553  11.5553  11.7713

          k = 0.0000 0.0000-0.1193 (  9118 PWs)   bands (ev):

   -52.0734 -52.0731 -26.1983 -26.1980 -26.0096 -26.0096 -26.0092 -26.0092
    -5.2419  -5.2417  -3.9477  -3.9475   3.2166   3.2168   6.2176   6.2176
     6.2179   6.2179   7.0046   7.0048   7.3150   7.3150   7.3152   7.3152
     9.0029   9.0031  11.5515  11.5515  11.5517  11.5517  11.7907

          k = 0.0000 0.2887 0.0000 (  9117 PWs)   bands (ev):

   -52.0555 -52.0552 -26.1912 -26.1909 -26.1623 -26.1620 -26.0513 -26.0510
    -4.4698  -4.3884  -3.6723  -3.5586   3.6742   4.0274   4.9567   5.0951
     5.1087   5.4076   6.3366   6.3573   7.0172   7.0375   7.2834   7.7392
     8.0686   8.1496  10.7394  11.1130  11.1845  11.3174  11.5385

          k = 0.0000 0.2887 0.0597 (  9108 PWs)   bands (ev):

   -52.0555 -52.0552 -26.1912 -26.1909 -26.1623 -26.1620 -26.0513 -26.0510
    -4.4591  -4.4018  -3.6543  -3.5741   3.7183   3.9657   4.9611   5.0232
     5.2176   5.3888   6.3396   6.3542   7.0203   7.0346   7.3351   7.6489
     8.0966   8.1458  10.8091  11.1229  11.1735  11.1863  11.6480

          k = 0.0000 0.2887-0.1193 (  9100 PWs)   bands (ev):

   -52.0555 -52.0552 -26.1912 -26.1909 -26.1623 -26.1620 -26.0513 -26.0510
    -4.4319  -4.4317  -3.6130  -3.6128   3.8335   3.8338   4.9806   4.9809
     5.3254   5.3257   6.3467   6.3469   7.0274   7.0276   7.4758   7.4760
     8.1301   8.1304  10.9818  10.9821  11.1475  11.1478  11.7948

          k = 0.0000 0.2887-0.0597 (  9108 PWs)   bands (ev):

   -52.0555 -52.0552 -26.1912 -26.1909 -26.1623 -26.1620 -26.0513 -26.0510
    -4.4591  -4.4018  -3.6543  -3.5741   3.7183   3.9657   4.9612   5.0230
     5.2178   5.3887   6.3396   6.3542   7.0203   7.0346   7.3351   7.6490
     8.0966   8.1458  10.8091  11.1229  11.1735  11.1863  11.6480

          k = 0.0000-0.5774 0.0000 (  9070 PWs)   bands (ev):

   -52.0375 -52.0372 -26.3678 -26.3674 -26.1261 -26.1258 -26.0927 -26.0923
    -3.4229  -3.3883  -3.2279  -3.1954   3.0331   3.1481   4.0176   4.1105
     4.6336   4.9135   5.6616   5.6857   6.9032   6.9901   7.7916   7.8546
     8.1632   8.2026  11.0216  11.0382  11.4711  11.6041  12.4097

          k = 0.0000-0.5774 0.0597 (  9042 PWs)   bands (ev):

   -52.0375 -52.0372 -26.3678 -26.3674 -26.1261 -26.1258 -26.0927 -26.0923
    -3.4185  -3.3942  -3.2223  -3.1995   3.0491   3.1304   4.0261   4.0891
     4.6834   4.8787   5.6651   5.6821   6.9146   6.9759   7.8008   7.8454
     8.1697   8.1975  11.0239  11.0356  11.4920  11.5861  12.4727

          k = 0.0000-0.5774-0.1193 (  9084 PWs)   bands (ev):

   -52.0375 -52.0372 -26.3678 -26.3674 -26.1261 -26.1258 -26.0927 -26.0923
    -3.4071  -3.4069  -3.2103  -3.2101   3.0888   3.0890   4.0517   4.0519
     4.7879   4.7881   5.6734   5.6736   6.9438   6.9440   7.8230   7.8232
     8.1841   8.1844  11.0294  11.0298  11.5403  11.5406  12.6430

          k = 0.2500 0.1443 0.0000 (  9117 PWs)   bands (ev):

   -52.0555 -52.0552 -26.1912 -26.1909 -26.1623 -26.1620 -26.0513 -26.0510
    -4.4698  -4.3884  -3.6723  -3.5586   3.6742   4.0274   4.9567   5.0951
     5.1087   5.4076   6.3366   6.3573   7.0172   7.0375   7.2834   7.7392
     8.0686   8.1496  10.7394  11.1130  11.1845  11.3174  11.5385

          k = 0.2500 0.1443 0.0597 (  9108 PWs)   bands (ev):

   -52.0555 -52.0552 -26.1912 -26.1909 -26.1623 -26.1620 -26.0513 -26.0510
    -4.4591  -4.4018  -3.6543  -3.5741   3.7183   3.9657   4.9612   5.0230
     5.2178   5.3887   6.3396   6.3542   7.0203   7.0346   7.3351   7.6490
     8.0966   8.1458  10.8091  11.1229  11.1735  11.1863  11.6480

          k = 0.2500 0.1443-0.1193 (  9100 PWs)   bands (ev):

   -52.0555 -52.0552 -26.1912 -26.1909 -26.1623 -26.1620 -26.0513 -26.0510
    -4.4319  -4.4317  -3.6130  -3.6128   3.8335   3.8338   4.9806   4.9809
     5.3254   5.3257   6.3467   6.3469   7.0274   7.0276   7.4758   7.4760
     8.1301   8.1304  10.9819  10.9821  11.1475  11.1478  11.7947

          k = 0.2500 0.1443-0.0597 (  9108 PWs)   bands (ev):

   -52.0555 -52.0552 -26.1912 -26.1909 -26.1623 -26.1620 -26.0513 -26.0510
    -4.4591  -4.4018  -3.6543  -3.5741   3.7183   3.9657   4.9611   5.0232
     5.2176   5.3888   6.3396   6.3542   7.0203   7.0346   7.3351   7.6489
     8.0966   8.1458  10.8091  11.1229  11.1735  11.1863  11.6480

          k = 0.2500 0.4330 0.0000 (  9066 PWs)   bands (ev):

   -52.0376 -52.0372 -26.3020 -26.3016 -26.1609 -26.1605 -26.1261 -26.1258
    -3.4546  -3.4107  -3.2149  -3.1673   3.6868   3.7917   3.9193   3.9685
     5.1907   5.2333   5.4457   5.7507   5.8822   5.9794   7.1316   7.2412
     8.2853   8.3201  10.8096  11.1007  11.5342  11.6840  11.6954

          k = 0.2500 0.4330 0.0597 (  9082 PWs)   bands (ev):

   -52.0376 -52.0372 -26.3020 -26.3016 -26.1609 -26.1605 -26.1261 -26.1258
    -3.4491  -3.4184  -3.2067  -3.1733   3.7011   3.7746   3.9283   3.9623
     5.1803   5.1981   5.5202   5.7239   5.8986   5.9669   7.1423   7.2206
     8.2908   8.3154  10.8518  11.0582  11.5378  11.5999  11.8161

          k = 0.2500 0.4330-0.1193 (  9082 PWs)   bands (ev):

   -52.0376 -52.0372 -26.3020 -26.3016 -26.1609 -26.1605 -26.1261 -26.1258
    -3.4349  -3.4347  -3.1890  -3.1888   3.7365   3.7367   3.9463   3.9465
     5.1717   5.1718   5.6404   5.6406   5.9346   5.9348   7.1765   7.1766
     8.3033   8.3036  10.9545  10.9548  11.5542  11.5544  11.9561

          k = 0.2500 0.4330-0.0597 (  9082 PWs)   bands (ev):

   -52.0376 -52.0372 -26.3020 -26.3016 -26.1609 -26.1605 -26.1261 -26.1258
    -3.4491  -3.4184  -3.2067  -3.1733   3.7011   3.7746   3.9283   3.9623
     5.1803   5.1981   5.5202   5.7239   5.8986   5.9669   7.1423   7.2206
     8.2908   8.3154  10.8518  11.0582  11.5378  11.5999  11.8161

          k = 0.2500-0.4330 0.0000 (  9066 PWs)   bands (ev):

   -52.0376 -52.0372 -26.3020 -26.3016 -26.1609 -26.1605 -26.1261 -26.1258
    -3.4546  -3.4107  -3.2149  -3.1673   3.6868   3.7917   3.9193   3.9685
     5.1907   5.2333   5.4457   5.7507   5.8822   5.9794   7.1316   7.2412
     8.2853   8.3201  10.8096  11.1007  11.5342  11.6840  11.6954

          k = 0.2500-0.4330 0.0597 (  9082 PWs)   bands (ev):

   -52.0376 -52.0372 -26.3020 -26.3016 -26.1609 -26.1605 -26.1261 -26.1258
    -3.4491  -3.4184  -3.2067  -3.1733   3.7011   3.7746   3.9283   3.9623
     5.1803   5.1981   5.5202   5.7239   5.8986   5.9669   7.1423   7.2206
     8.2908   8.3154  10.8518  11.0582  11.5378  11.5999  11.8161

          k = 0.2500-0.4330-0.1193 (  9082 PWs)   bands (ev):

   -52.0376 -52.0372 -26.3020 -26.3016 -26.1609 -26.1605 -26.1261 -26.1258
    -3.4349  -3.4347  -3.1890  -3.1888   3.7365   3.7367   3.9463   3.9465
     5.1717   5.1718   5.6404   5.6406   5.9346   5.9348   7.1765   7.1766
     8.3033   8.3036  10.9545  10.9548  11.5542  11.5544  11.9561

          k = 0.2500-0.4330-0.0597 (  9082 PWs)   bands (ev):

   -52.0376 -52.0372 -26.3020 -26.3016 -26.1609 -26.1605 -26.1261 -26.1258
    -3.4491  -3.4184  -3.2067  -3.1733   3.7011   3.7746   3.9283   3.9623
     5.1803   5.1981   5.5202   5.7239   5.8986   5.9669   7.1423   7.2206
     8.2908   8.3154  10.8518  11.0582  11.5378  11.5999  11.8161

          k = 0.2500-0.1443 0.0000 (  9117 PWs)   bands (ev):

   -52.0555 -52.0552 -26.1912 -26.1909 -26.1623 -26.1620 -26.0513 -26.0510
    -4.4698  -4.3884  -3.6723  -3.5586   3.6742   4.0274   4.9567   5.0951
     5.1087   5.4076   6.3366   6.3573   7.0172   7.0375   7.2834   7.7392
     8.0686   8.1496  10.7394  11.1130  11.1845  11.3174  11.5385

          k = 0.2500-0.1443 0.0597 (  9108 PWs)   bands (ev):

   -52.0555 -52.0552 -26.1912 -26.1909 -26.1623 -26.1620 -26.0513 -26.0510
    -4.4591  -4.4018  -3.6543  -3.5741   3.7183   3.9657   4.9611   5.0232
     5.2176   5.3888   6.3396   6.3542   7.0203   7.0346   7.3351   7.6489
     8.0966   8.1458  10.8091  11.1229  11.1735  11.1863  11.6480

          k = 0.2500-0.1443-0.1193 (  9100 PWs)   bands (ev):

   -52.0555 -52.0552 -26.1912 -26.1909 -26.1623 -26.1620 -26.0513 -26.0510
    -4.4319  -4.4317  -3.6130  -3.6128   3.8335   3.8338   4.9806   4.9809
     5.3254   5.3257   6.3467   6.3469   7.0274   7.0276   7.4758   7.4760
     8.1301   8.1304  10.9818  10.9821  11.1475  11.1478  11.7949

          k = 0.2500-0.1443-0.0597 (  9108 PWs)   bands (ev):

   -52.0555 -52.0552 -26.1912 -26.1909 -26.1623 -26.1620 -26.0513 -26.0510
    -4.4591  -4.4018  -3.6543  -3.5741   3.7183   3.9657   4.9612   5.0230
     5.2178   5.3887   6.3396   6.3542   7.0203   7.0346   7.3351   7.6490
     8.0966   8.1458  10.8091  11.1229  11.1735  11.1863  11.6480

          k =-0.5000-0.2887 0.0000 (  9070 PWs)   bands (ev):

   -52.0375 -52.0372 -26.3678 -26.3674 -26.1261 -26.1258 -26.0927 -26.0923
    -3.4229  -3.3883  -3.2279  -3.1954   3.0331   3.1481   4.0176   4.1105
     4.6336   4.9135   5.6616   5.6857   6.9032   6.9901   7.7916   7.8546
     8.1632   8.2026  11.0216  11.0382  11.4711  11.6041  12.4097

          k =-0.5000-0.2887 0.0597 (  9042 PWs)   bands (ev):

   -52.0375 -52.0372 -26.3678 -26.3674 -26.1261 -26.1258 -26.0927 -26.0923
    -3.4185  -3.3942  -3.2223  -3.1995   3.0491   3.1304   4.0261   4.0891
     4.6834   4.8787   5.6651   5.6821   6.9146   6.9759   7.8008   7.8454
     8.1697   8.1975  11.0239  11.0356  11.4920  11.5861  12.4727

          k =-0.5000-0.2887-0.1193 (  9084 PWs)   bands (ev):

   -52.0375 -52.0372 -26.3678 -26.3674 -26.1261 -26.1258 -26.0927 -26.0923
    -3.4071  -3.4069  -3.2103  -3.2101   3.0888   3.0890   4.0517   4.0519
     4.7879   4.7881   5.6734   5.6736   6.9438   6.9440   7.8230   7.8232
     8.1841   8.1844  11.0294  11.0298  11.5403  11.5406  12.6432

          k =-0.5000 0.0000 0.0000 (  9066 PWs)   bands (ev):

   -52.0376 -52.0372 -26.3020 -26.3016 -26.1609 -26.1605 -26.1261 -26.1258
    -3.4546  -3.4107  -3.2149  -3.1673   3.6868   3.7917   3.9193   3.9685
     5.1907   5.2333   5.4457   5.7507   5.8822   5.9794   7.1316   7.2412
     8.2853   8.3201  10.8096  11.1007  11.5342  11.6841  11.6954

          k =-0.5000 0.0000 0.0597 (  9082 PWs)   bands (ev):

   -52.0376 -52.0372 -26.3020 -26.3016 -26.1609 -26.1605 -26.1261 -26.1258
    -3.4491  -3.4184  -3.2067  -3.1733   3.7011   3.7746   3.9283   3.9623
     5.1803   5.1981   5.5202   5.7239   5.8986   5.9669   7.1423   7.2206
     8.2908   8.3154  10.8518  11.0582  11.5378  11.5999  11.8161

          k =-0.5000 0.0000-0.1193 (  9082 PWs)   bands (ev):

   -52.0376 -52.0372 -26.3020 -26.3016 -26.1609 -26.1605 -26.1261 -26.1258
    -3.4349  -3.4347  -3.1890  -3.1888   3.7365   3.7367   3.9463   3.9465
     5.1717   5.1718   5.6404   5.6406   5.9346   5.9348   7.1765   7.1766
     8.3033   8.3036  10.9545  10.9548  11.5542  11.5545  11.9561

          k =-0.5000 0.0000-0.0597 (  9082 PWs)   bands (ev):

   -52.0376 -52.0372 -26.3020 -26.3016 -26.1609 -26.1605 -26.1261 -26.1258
    -3.4491  -3.4184  -3.2067  -3.1733   3.7011   3.7746   3.9283   3.9623
     5.1803   5.1981   5.5202   5.7239   5.8986   5.9669   7.1423   7.2206
     8.2908   8.3154  10.8518  11.0582  11.5378  11.5999  11.8161

          k =-0.5000-0.8660 0.0000 (  9070 PWs)   bands (ev):

   -52.0375 -52.0372 -26.3678 -26.3674 -26.1261 -26.1258 -26.0927 -26.0923
    -3.4229  -3.3883  -3.2279  -3.1954   3.0331   3.1481   4.0176   4.1105
     4.6336   4.9135   5.6616   5.6857   6.9032   6.9901   7.7916   7.8546
     8.1632   8.2026  11.0216  11.0382  11.4711  11.6041  12.4097

          k =-0.5000-0.8660 0.0597 (  9042 PWs)   bands (ev):

   -52.0375 -52.0372 -26.3678 -26.3674 -26.1261 -26.1258 -26.0927 -26.0923
    -3.4185  -3.3942  -3.2223  -3.1995   3.0491   3.1304   4.0261   4.0891
     4.6834   4.8787   5.6651   5.6821   6.9146   6.9759   7.8008   7.8454
     8.1697   8.1975  11.0239  11.0356  11.4920  11.5861  12.4727

          k =-0.5000-0.8660-0.1193 (  9084 PWs)   bands (ev):

   -52.0375 -52.0372 -26.3678 -26.3674 -26.1261 -26.1258 -26.0927 -26.0923
    -3.4071  -3.4069  -3.2103  -3.2101   3.0888   3.0890   4.0517   4.0519
     4.7879   4.7881   5.6734   5.6736   6.9438   6.9440   7.8230   7.8232
     8.1841   8.1844  11.0294  11.0298  11.5403  11.5406  12.6432

     the Fermi energy is    10.0523 ev

!    total energy              =    -993.56111058 Ry
     total all-electron energy =    -19390.221533 Ry
     estimated scf accuracy    <       0.00000012 Ry
     smearing contrib. (-TS)   =      -0.00000000 Ry
     internal energy E=F+TS    =    -993.56111058 Ry

     The total energy is F=E-TS. E is the sum of the following terms:
     one-electron contribution =    -218.79906230 Ry
     hartree contribution      =     133.06320722 Ry
     xc contribution           =     -59.36331658 Ry
     ewald contribution        =    -209.03907185 Ry
     DFT-D3 Dispersion         =      -0.15951006 Ry
     one-center paw contrib.   =    -639.26335702 Ry

     convergence has been achieved in  12 iterations

     Forces acting on atoms (cartesian axes, Ry/au):

     atom    1 type  1   force =    -0.00000049   -0.00000075   -0.00014009
     atom    2 type  1   force =    -0.00000197    0.00000044    0.00014213
     atom    3 type  2   force =     0.00000001    0.00000035    0.00461999
     atom    4 type  2   force =     0.00000006    0.00000029   -0.00460458
     atom    5 type  2   force =     0.00000223    0.00000020    0.00454837
     atom    6 type  2   force =     0.00000016   -0.00000053   -0.00456583
     The non-local contrib.  to forces
     atom    1 type  1   force =    -0.00000037    0.00000057   -0.00008988
     atom    2 type  1   force =     0.00000067   -0.00000040    0.00010161
     atom    3 type  2   force =     0.00000009    0.00000180    0.27006982
     atom    4 type  2   force =    -0.00000057   -0.00000097   -0.27005324
     atom    5 type  2   force =     0.00000204    0.00000101    0.26999052
     atom    6 type  2   force =     0.00000021   -0.00000086   -0.27000135
     The ionic contribution  to forces
     atom    1 type  1   force =     0.00000008   -0.00000010    0.00000000
     atom    2 type  1   force =    -0.00000008    0.00000010   -0.00000000
     atom    3 type  2   force =     0.00000008   -0.00000005  -16.30013113
     atom    4 type  2   force =    -0.00000008    0.00000005   16.30013113
     atom    5 type  2   force =    -0.00000000    0.00000005  -16.30013113
     atom    6 type  2   force =     0.00000000   -0.00000005   16.30013113
     The local contribution  to forces
     atom    1 type  1   force =    -0.00000170   -0.00000065   -0.00126466
     atom    2 type  1   force =    -0.00000653    0.00000344    0.00135658
     atom    3 type  2   force =     0.00000104   -0.00000153   16.03674633
     atom    4 type  2   force =     0.00000204    0.00000219  -16.03656573
     atom    5 type  2   force =     0.00000146   -0.00000056   16.03591188
     atom    6 type  2   force =     0.00000205    0.00000084  -16.03607262
     The core correction contribution to forces
     atom    1 type  1   force =    -0.00000001   -0.00000002   -0.00000257
     atom    2 type  1   force =    -0.00000010    0.00000007    0.00000255
     atom    3 type  2   force =     0.00000001   -0.00000004   -0.00238921
     atom    4 type  2   force =     0.00000003    0.00000005    0.00238966
     atom    5 type  2   force =     0.00000000   -0.00000001   -0.00239030
     atom    6 type  2   force =     0.00000004    0.00000002    0.00239003
     The Hubbard contrib.    to forces
     atom    1 type  1   force =     0.00000000    0.00000000    0.00000000
     atom    2 type  1   force =     0.00000000    0.00000000    0.00000000
     atom    3 type  2   force =     0.00000000    0.00000000    0.00000000
     atom    4 type  2   force =     0.00000000    0.00000000    0.00000000
     atom    5 type  2   force =     0.00000000    0.00000000    0.00000000
     atom    6 type  2   force =     0.00000000    0.00000000    0.00000000
     The SCF correction term to forces
     atom    1 type  1   force =     0.00000202   -0.00000022    0.00121985
     atom    2 type  1   force =     0.00000458   -0.00000243   -0.00131579
     atom    3 type  2   force =    -0.00000070    0.00000050   -0.00036123
     atom    4 type  2   force =    -0.00000085   -0.00000069    0.00018467
     atom    5 type  2   force =    -0.00000077    0.00000005    0.00048200
     atom    6 type  2   force =    -0.00000162   -0.00000015   -0.00032195

     DFT-D3 dispersion contribution to forces:
     atom    1 type  1   force =    -0.00000000    0.00000000   -0.00000000
     atom    2 type  1   force =     0.00000000   -0.00000000   -0.00000000
     atom    3 type  2   force =    -0.00000000    0.00000000    0.00068823
     atom    4 type  2   force =     0.00000000   -0.00000000   -0.00068823
     atom    5 type  2   force =    -0.00000000   -0.00000000    0.00068823
     atom    6 type  2   force =     0.00000000    0.00000000   -0.00068823

     Total force =     0.009172     Total SCF correction =     0.001929
     SCF correction compared to forces is large: reduce conv_thr to get better values


     Computing stress (Cartesian axis) and pressure

          total   stress  (Ry/bohr**3)                   (kbar)     P=      -35.12
  -0.00025921  -0.00000000  -0.00000000          -38.13       -0.00       -0.00
  -0.00000000  -0.00025921  -0.00000000           -0.00      -38.13       -0.00
  -0.00000000  -0.00000000  -0.00019776           -0.00       -0.00      -29.09


     BFGS Geometry Optimization
     Energy error            =      0.0E+00 Ry
     Gradient error          =      4.6E-03 Ry/Bohr
     Cell gradient error     =      3.8E+01 kbar

     number of scf cycles    =   1
     number of bfgs steps    =   0

     enthalpy           new  =    -993.5611105834 Ry

     new trust radius        =       0.0365835868 bohr
     new conv_thr            =       0.0000010000 Ry

     new unit-cell volume =    782.56234 a.u.^3 (   115.96377 Ang^3 )
     density =      4.58423 g/cm^3

CELL_PARAMETERS (angstrom)
   3.171551310  -0.000000307  -0.000000099
  -1.585775921   2.746644026  -0.000000227
  -0.000000414  -0.000001338  13.312151347

ATOMIC_POSITIONS (angstrom)
Mo           -0.0000007599        1.8310945250        9.9840395620
Mo            1.5857744423        0.9155476923        3.3281125374
S            -0.0000002424        1.8310959301        1.7740402473
S             1.5857752539        0.9155467869       11.5381188872
S             1.5857764590        0.9155470522        8.4300782532
S            -0.0000002267        1.8310951570        4.8820635769



     Writing config-only to output data dir ./outdir/pwscf.save/
     NEW-OLD atomic charge density approx. for the potential
     extrapolated charge   51.05773, renormalised to   52.00000

     total cpu time spent up to now is       15.1 secs

     Self-consistent Calculation

     iteration #  1     ecut=    77.00 Ry     beta= 0.20
     Davidson diagonalization with overlap
     ethr =  1.00E-06,  avg # of iterations = 10.8

     total cpu time spent up to now is       17.7 secs

     total energy              =    -992.95809957 Ry
     estimated scf accuracy    <       1.19977664 Ry

     iteration #  2     ecut=    77.00 Ry     beta= 0.20
     Davidson diagonalization with overlap
     ethr =  2.31E-03,  avg # of iterations =  4.1

     total cpu time spent up to now is       18.8 secs

     total energy              =    -993.57666132 Ry
     estimated scf accuracy    <       1.51761164 Ry

     iteration #  3     ecut=    77.00 Ry     beta= 0.20
     Davidson diagonalization with overlap
     ethr =  2.31E-03,  avg # of iterations =  1.1

     total cpu time spent up to now is       19.6 secs

     total energy              =    -993.53610188 Ry
     estimated scf accuracy    <       0.55575012 Ry

     iteration #  4     ecut=    77.00 Ry     beta= 0.20
     Davidson diagonalization with overlap
     ethr =  1.07E-03,  avg # of iterations =  2.4

     total cpu time spent up to now is       20.5 secs

     total energy              =    -993.55860452 Ry
     estimated scf accuracy    <       0.11240815 Ry

     iteration #  5     ecut=    77.00 Ry     beta= 0.20
     Davidson diagonalization with overlap
     ethr =  2.16E-04,  avg # of iterations =  3.3

     total cpu time spent up to now is       21.4 secs

     total energy              =    -993.56296520 Ry
     estimated scf accuracy    <       0.04470922 Ry

     iteration #  6     ecut=    77.00 Ry     beta= 0.20
     Davidson diagonalization with overlap
     ethr =  8.60E-05,  avg # of iterations =  2.7

     total cpu time spent up to now is       22.2 secs

     total energy              =    -993.56336146 Ry
     estimated scf accuracy    <       0.02308540 Ry

     iteration #  7     ecut=    77.00 Ry     beta= 0.20
     Davidson diagonalization with overlap
     ethr =  4.44E-05,  avg # of iterations =  2.2

     total cpu time spent up to now is       23.1 secs

     total energy              =    -993.56383868 Ry
     estimated scf accuracy    <       0.01223605 Ry

     iteration #  8     ecut=    77.00 Ry     beta= 0.20
     Davidson diagonalization with overlap
     ethr =  2.35E-05,  avg # of iterations =  1.8

     total cpu time spent up to now is       23.9 secs

     total energy              =    -993.56386222 Ry
     estimated scf accuracy    <       0.00902017 Ry

     iteration #  9     ecut=    77.00 Ry     beta= 0.20
     Davidson diagonalization with overlap
     ethr =  1.73E-05,  avg # of iterations =  1.4

     total cpu time spent up to now is       24.7 secs

     total energy              =    -993.56286247 Ry
     estimated scf accuracy    <       0.00679072 Ry

     iteration # 10     ecut=    77.00 Ry     beta= 0.20
     Davidson diagonalization with overlap
     ethr =  1.31E-05,  avg # of iterations =  3.1

     total cpu time spent up to now is       25.6 secs

     total energy              =    -993.56312510 Ry
     estimated scf accuracy    <       0.00103149 Ry

     iteration # 11     ecut=    77.00 Ry     beta= 0.20
     Davidson diagonalization with overlap
     ethr =  1.98E-06,  avg # of iterations =  4.7

     total cpu time spent up to now is       26.6 secs

     total energy              =    -993.56332088 Ry
     estimated scf accuracy    <       0.00000855 Ry

     iteration # 12     ecut=    77.00 Ry     beta= 0.20
     Davidson diagonalization with overlap
     ethr =  1.64E-08,  avg # of iterations =  4.6

     total cpu time spent up to now is       27.8 secs

     total energy              =    -993.56332712 Ry
     estimated scf accuracy    <       0.00001042 Ry

     iteration # 13     ecut=    77.00 Ry     beta= 0.20
     Davidson diagonalization with overlap
     ethr =  1.64E-08,  avg # of iterations =  1.7

     total cpu time spent up to now is       28.6 secs

     total energy              =    -993.56332181 Ry
     estimated scf accuracy    <       0.00001706 Ry

     iteration # 14     ecut=    77.00 Ry     beta= 0.20
     Davidson diagonalization with overlap
     ethr =  1.64E-08,  avg # of iterations =  2.0

     total cpu time spent up to now is       29.5 secs

     total energy              =    -993.56331979 Ry
     estimated scf accuracy    <       0.00000728 Ry

     iteration # 15     ecut=    77.00 Ry     beta= 0.20
     Davidson diagonalization with overlap
     ethr =  1.40E-08,  avg # of iterations =  2.5

     total cpu time spent up to now is       30.4 secs

     total energy              =    -993.56332045 Ry
     estimated scf accuracy    <       0.00000185 Ry

     iteration # 16     ecut=    77.00 Ry     beta= 0.20
     Davidson diagonalization with overlap
     ethr =  3.56E-09,  avg # of iterations =  3.2

     total cpu time spent up to now is       31.4 secs

     End of self-consistent calculation

          k = 0.0000 0.0000 0.0000 (  9149 PWs)   bands (ev):

   -51.7893 -51.7892 -25.9327 -25.9327 -25.7230 -25.7230 -25.7229 -25.7229
    -5.1359  -5.0434  -3.8306  -3.6693   3.1439   3.6470   6.4149   6.4149
     6.4185   6.4185   6.6654   7.5405   7.5405   7.5534   7.5534   8.0139
     8.7400   9.5188  11.8654  11.8654  11.8743  11.8743  12.1057

          k = 0.0000 0.0000 0.0599 (  9185 PWs)   bands (ev):

   -51.7893 -51.7892 -25.9327 -25.9327 -25.7230 -25.7230 -25.7229 -25.7229
    -5.1235  -5.0582  -3.8059  -3.6920   3.2078   3.5607   6.4154   6.4154
     6.4179   6.4179   6.8265   7.5423   7.5424   7.5515   7.5515   7.7177
     8.9630   9.4542  11.8663  11.8663  11.8725  11.8726  12.1142

          k =-0.0000-0.0000-0.1199 (  9118 PWs)   bands (ev):

   -51.7893 -51.7892 -25.9327 -25.9327 -25.7230 -25.7229 -25.7229 -25.7229
    -5.0921  -5.0921  -3.7480  -3.7479   3.3734   3.3734   6.4166   6.4166
     6.4167   6.4167   7.2303   7.2306   7.5469   7.5469   7.5470   7.5470
     9.2614   9.2617  11.8690  11.8691  11.8692  11.8692  12.1342

          k = 0.0000 0.2906 0.0000 (  9117 PWs)   bands (ev):

   -51.7696 -51.7696 -25.9191 -25.9191 -25.8935 -25.8934 -25.7679 -25.7678
    -4.2939  -4.2106  -3.4723  -3.3551   3.8288   4.1821   5.1627   5.2895
     5.3078   5.5962   6.5450   6.5657   7.2470   7.2671   7.5315   8.0021
     8.3014   8.3897  11.0287  11.4297  11.5037  11.6293  11.8622

          k = 0.0000 0.2906 0.0599 (  9108 PWs)   bands (ev):

   -51.7696 -51.7696 -25.9191 -25.9191 -25.8935 -25.8934 -25.7679 -25.7678
    -4.2829  -4.2243  -3.4537  -3.3711   3.8731   4.1206   5.1662   5.2240
     5.4105   5.5778   6.5480   6.5626   7.2500   7.2642   7.5843   7.9066
     8.3333   8.3858  11.1016  11.4400  11.4923  11.4944  11.9733

          k = 0.0000 0.2906-0.1199 (  9100 PWs)   bands (ev):

   -51.7696 -51.7696 -25.9191 -25.9191 -25.8935 -25.8934 -25.7679 -25.7678
    -4.2550  -4.2550  -3.4111  -3.4111   3.9886   3.9887   5.1841   5.1843
     5.5157   5.5158   6.5552   6.5552   7.2572   7.2572   7.7280   7.7282
     8.3696   8.3697  11.2819  11.2822  11.4656  11.4656  12.1228

          k = 0.0000 0.2906-0.0599 (  9108 PWs)   bands (ev):

   -51.7696 -51.7696 -25.9191 -25.9191 -25.8935 -25.8934 -25.7679 -25.7678
    -4.2829  -4.2243  -3.4537  -3.3711   3.8731   4.1207   5.1663   5.2237
     5.4106   5.5777   6.5480   6.5626   7.2500   7.2642   7.5843   7.9065
     8.3334   8.3858  11.1017  11.4400  11.4923  11.4943  11.9734

          k =-0.0000-0.5811-0.0000 (  9070 PWs)   bands (ev):

   -51.7499 -51.7498 -26.1095 -26.1095 -25.8539 -25.8539 -25.8123 -25.8123
    -3.2087  -3.1732  -3.0235  -2.9908   3.1865   3.3037   4.1895   4.2857
     4.8151   5.0992   5.8556   5.8797   7.1422   7.2304   8.0544   8.1183
     8.4065   8.4450  11.3398  11.3569  11.7984  11.9391  12.7339

          k =-0.0000-0.5811 0.0599 (  9042 PWs)   bands (ev):

   -51.7499 -51.7498 -26.1095 -26.1095 -25.8539 -25.8539 -25.8123 -25.8123
    -3.2042  -3.1794  -3.0178  -2.9949   3.2028   3.2857   4.1983   4.2637
     4.8658   5.0639   5.8591   5.8761   7.1538   7.2160   8.0638   8.1089
     8.4129   8.4400  11.3421  11.3543  11.8206  11.9200  12.7974

          k =-0.0000-0.5811-0.1199 (  9084 PWs)   bands (ev):

   -51.7499 -51.7498 -26.1095 -26.1095 -25.8539 -25.8539 -25.8123 -25.8123
    -3.1926  -3.1925  -3.0056  -3.0055   3.2433   3.2433   4.2251   4.2251
     4.9718   4.9719   5.8675   5.8676   7.1835   7.1835   8.0863   8.0863
     8.4271   8.4271  11.3480  11.3480  11.8718  11.8718  12.9695

          k = 0.2516 0.1453 0.0000 (  9117 PWs)   bands (ev):

   -51.7696 -51.7696 -25.9191 -25.9191 -25.8935 -25.8934 -25.7679 -25.7678
    -4.2939  -4.2106  -3.4723  -3.3551   3.8288   4.1821   5.1627   5.2895
     5.3078   5.5962   6.5450   6.5657   7.2470   7.2671   7.5315   8.0021
     8.3014   8.3897  11.0288  11.4297  11.5037  11.6293  11.8622

          k = 0.2516 0.1453 0.0599 (  9108 PWs)   bands (ev):

   -51.7696 -51.7696 -25.9191 -25.9191 -25.8935 -25.8934 -25.7679 -25.7678
    -4.2829  -4.2243  -3.4537  -3.3711   3.8731   4.1207   5.1663   5.2237
     5.4106   5.5777   6.5480   6.5626   7.2500   7.2642   7.5843   7.9065
     8.3334   8.3858  11.1017  11.4400  11.4923  11.4943  11.9734

          k = 0.2516 0.1453-0.1199 (  9100 PWs)   bands (ev):

   -51.7696 -51.7696 -25.9191 -25.9191 -25.8935 -25.8934 -25.7679 -25.7678
    -4.2550  -4.2550  -3.4111  -3.4111   3.9886   3.9887   5.1841   5.1843
     5.5157   5.5158   6.5552   6.5552   7.2572   7.2572   7.7280   7.7282
     8.3696   8.3697  11.2819  11.2822  11.4656  11.4656  12.1229

          k = 0.2516 0.1453-0.0599 (  9108 PWs)   bands (ev):

   -51.7696 -51.7696 -25.9191 -25.9191 -25.8935 -25.8934 -25.7679 -25.7678
    -4.2829  -4.2243  -3.4537  -3.3711   3.8731   4.1206   5.1662   5.2240
     5.4104   5.5778   6.5480   6.5626   7.2500   7.2642   7.5843   7.9066
     8.3333   8.3858  11.1017  11.4400  11.4923  11.4944  11.9733

          k = 0.2516 0.4358 0.0000 (  9066 PWs)   bands (ev):

   -51.7499 -51.7498 -26.0385 -26.0385 -25.8860 -25.8859 -25.8540 -25.8539
    -3.2413  -3.1962  -3.0081  -2.9593   3.8440   3.9516   4.0714   4.1207
     5.4147   5.4556   5.6441   5.9577   6.0849   6.1851   7.3851   7.4965
     8.5233   8.5598  11.1073  11.4185  11.8656  11.9853  12.0286

          k = 0.2516 0.4358 0.0599 (  9082 PWs)   bands (ev):

   -51.7499 -51.7498 -26.0385 -26.0385 -25.8860 -25.8859 -25.8540 -25.8539
    -3.2357  -3.2041  -2.9996  -2.9655   3.8585   3.9338   4.0805   4.1145
     5.4029   5.4176   5.7228   5.9305   6.1021   6.1723   7.3959   7.4754
     8.5291   8.5548  11.1521  11.3724  11.8684  11.9210  12.1321

          k = 0.2516 0.4358-0.1199 (  9082 PWs)   bands (ev):

   -51.7499 -51.7498 -26.0385 -26.0385 -25.8860 -25.8859 -25.8540 -25.8539
    -3.2210  -3.2210  -2.9814  -2.9814   3.8948   3.8948   4.0988   4.0988
     5.3918   5.3919   5.8459   5.8461   6.1393   6.1394   7.4305   7.4305
     8.5424   8.5424  11.2613  11.2614  11.8816  11.8817  12.2711

          k = 0.2516 0.4358-0.0599 (  9082 PWs)   bands (ev):

   -51.7499 -51.7498 -26.0385 -26.0385 -25.8860 -25.8859 -25.8540 -25.8539
    -3.2357  -3.2041  -2.9996  -2.9655   3.8585   3.9338   4.0805   4.1145
     5.4029   5.4176   5.7228   5.9305   6.1021   6.1723   7.3959   7.4754
     8.5291   8.5548  11.1521  11.3724  11.8684  11.9210  12.1321

          k = 0.2516-0.4358-0.0000 (  9066 PWs)   bands (ev):

   -51.7499 -51.7498 -26.0385 -26.0385 -25.8860 -25.8859 -25.8540 -25.8539
    -3.2413  -3.1962  -3.0081  -2.9593   3.8440   3.9516   4.0714   4.1207
     5.4147   5.4556   5.6441   5.9577   6.0849   6.1851   7.3851   7.4965
     8.5233   8.5598  11.1073  11.4185  11.8656  11.9853  12.0286

          k = 0.2516-0.4358 0.0599 (  9082 PWs)   bands (ev):

   -51.7499 -51.7498 -26.0385 -26.0385 -25.8860 -25.8859 -25.8540 -25.8539
    -3.2357  -3.2041  -2.9996  -2.9655   3.8585   3.9338   4.0805   4.1145
     5.4029   5.4176   5.7228   5.9305   6.1021   6.1723   7.3959   7.4754
     8.5291   8.5548  11.1521  11.3724  11.8684  11.9210  12.1321

          k = 0.2516-0.4358-0.1199 (  9082 PWs)   bands (ev):

   -51.7499 -51.7498 -26.0385 -26.0385 -25.8860 -25.8859 -25.8540 -25.8539
    -3.2210  -3.2210  -2.9814  -2.9814   3.8948   3.8948   4.0988   4.0988
     5.3918   5.3919   5.8459   5.8461   6.1393   6.1394   7.4305   7.4305
     8.5424   8.5424  11.2613  11.2614  11.8816  11.8817  12.2711

          k = 0.2516-0.4358-0.0599 (  9082 PWs)   bands (ev):

   -51.7499 -51.7498 -26.0385 -26.0385 -25.8860 -25.8859 -25.8540 -25.8539
    -3.2357  -3.2041  -2.9996  -2.9655   3.8585   3.9338   4.0805   4.1145
     5.4029   5.4176   5.7228   5.9305   6.1021   6.1723   7.3959   7.4754
     8.5291   8.5548  11.1521  11.3724  11.8684  11.9210  12.1321

          k = 0.2516-0.1453-0.0000 (  9117 PWs)   bands (ev):

   -51.7696 -51.7696 -25.9191 -25.9191 -25.8935 -25.8934 -25.7678 -25.7678
    -4.2939  -4.2106  -3.4723  -3.3551   3.8288   4.1821   5.1627   5.2895
     5.3078   5.5962   6.5450   6.5657   7.2470   7.2671   7.5315   8.0021
     8.3014   8.3897  11.0288  11.4297  11.5037  11.6293  11.8622

          k = 0.2516-0.1453 0.0599 (  9108 PWs)   bands (ev):

   -51.7696 -51.7696 -25.9191 -25.9191 -25.8935 -25.8934 -25.7678 -25.7678
    -4.2829  -4.2243  -3.4537  -3.3711   3.8731   4.1206   5.1662   5.2240
     5.4105   5.5778   6.5480   6.5626   7.2500   7.2642   7.5843   7.9066
     8.3333   8.3858  11.1017  11.4400  11.4923  11.4944  11.9733

          k = 0.2516-0.1453-0.1199 (  9100 PWs)   bands (ev):

   -51.7696 -51.7696 -25.9191 -25.9191 -25.8935 -25.8934 -25.7678 -25.7678
    -4.2550  -4.2550  -3.4111  -3.4111   3.9886   3.9887   5.1841   5.1843
     5.5157   5.5158   6.5552   6.5552   7.2572   7.2572   7.7280   7.7282
     8.3696   8.3697  11.2819  11.2822  11.4656  11.4656  12.1228

          k = 0.2516-0.1453-0.0599 (  9108 PWs)   bands (ev):

   -51.7696 -51.7696 -25.9191 -25.9191 -25.8935 -25.8934 -25.7678 -25.7678
    -4.2829  -4.2243  -3.4537  -3.3711   3.8731   4.1207   5.1663   5.2237
     5.4106   5.5777   6.5480   6.5626   7.2500   7.2642   7.5843   7.9065
     8.3334   8.3858  11.1017  11.4400  11.4923  11.4944  11.9734

          k =-0.5033-0.2906-0.0000 (  9070 PWs)   bands (ev):

   -51.7499 -51.7498 -26.1095 -26.1094 -25.8539 -25.8539 -25.8123 -25.8123
    -3.2087  -3.1732  -3.0235  -2.9908   3.1865   3.3037   4.1895   4.2857
     4.8151   5.0992   5.8556   5.8797   7.1422   7.2304   8.0544   8.1183
     8.4065   8.4450  11.3398  11.3569  11.7984  11.9391  12.7339

          k =-0.5033-0.2906 0.0599 (  9042 PWs)   bands (ev):

   -51.7499 -51.7498 -26.1095 -26.1094 -25.8539 -25.8539 -25.8123 -25.8123
    -3.2042  -3.1794  -3.0178  -2.9949   3.2028   3.2857   4.1983   4.2637
     4.8658   5.0639   5.8591   5.8761   7.1538   7.2160   8.0638   8.1089
     8.4129   8.4400  11.3421  11.3543  11.8206  11.9200  12.7974

          k =-0.5033-0.2906-0.1199 (  9084 PWs)   bands (ev):

   -51.7499 -51.7498 -26.1095 -26.1094 -25.8539 -25.8539 -25.8123 -25.8123
    -3.1926  -3.1925  -3.0056  -3.0055   3.2433   3.2433   4.2251   4.2251
     4.9718   4.9719   5.8675   5.8676   7.1835   7.1835   8.0863   8.0863
     8.4271   8.4271  11.3480  11.3480  11.8718  11.8718  12.9695

          k =-0.5033-0.0000-0.0000 (  9066 PWs)   bands (ev):

   -51.7499 -51.7498 -26.0385 -26.0385 -25.8860 -25.8860 -25.8540 -25.8539
    -3.2413  -3.1962  -3.0081  -2.9593   3.8440   3.9516   4.0714   4.1207
     5.4147   5.4556   5.6441   5.9577   6.0849   6.1851   7.3851   7.4965
     8.5233   8.5597  11.1073  11.4185  11.8656  11.9853  12.0286

          k =-0.5033-0.0000 0.0599 (  9082 PWs)   bands (ev):

   -51.7499 -51.7498 -26.0385 -26.0385 -25.8860 -25.8860 -25.8540 -25.8539
    -3.2357  -3.2041  -2.9996  -2.9655   3.8585   3.9338   4.0805   4.1145
     5.4029   5.4176   5.7228   5.9305   6.1021   6.1723   7.3959   7.4754
     8.5291   8.5548  11.1521  11.3724  11.8684  11.9210  12.1321

          k =-0.5033-0.0000-0.1199 (  9082 PWs)   bands (ev):

   -51.7499 -51.7498 -26.0385 -26.0385 -25.8860 -25.8860 -25.8540 -25.8539
    -3.2210  -3.2210  -2.9814  -2.9814   3.8948   3.8948   4.0988   4.0988
     5.3918   5.3919   5.8459   5.8461   6.1393   6.1393   7.4305   7.4305
     8.5424   8.5424  11.2613  11.2614  11.8816  11.8817  12.2711

          k =-0.5033-0.0000-0.0599 (  9082 PWs)   bands (ev):

   -51.7499 -51.7498 -26.0385 -26.0385 -25.8860 -25.8860 -25.8540 -25.8539
    -3.2357  -3.2041  -2.9996  -2.9655   3.8585   3.9338   4.0805   4.1145
     5.4029   5.4176   5.7228   5.9305   6.1021   6.1723   7.3959   7.4754
     8.5291   8.5548  11.1521  11.3724  11.8684  11.9210  12.1321

          k =-0.5033-0.8717-0.0000 (  9070 PWs)   bands (ev):

   -51.7499 -51.7498 -26.1095 -26.1094 -25.8539 -25.8539 -25.8123 -25.8123
    -3.2087  -3.1732  -3.0235  -2.9908   3.1865   3.3037   4.1895   4.2857
     4.8151   5.0992   5.8556   5.8797   7.1422   7.2304   8.0544   8.1183
     8.4065   8.4450  11.3398  11.3569  11.7984  11.9391  12.7339

          k =-0.5033-0.8717 0.0599 (  9042 PWs)   bands (ev):

   -51.7499 -51.7498 -26.1095 -26.1094 -25.8539 -25.8539 -25.8123 -25.8123
    -3.2042  -3.1794  -3.0178  -2.9949   3.2028   3.2857   4.1983   4.2637
     4.8658   5.0639   5.8591   5.8761   7.1538   7.2160   8.0638   8.1089
     8.4129   8.4400  11.3421  11.3543  11.8206  11.9200  12.7974

          k =-0.5033-0.8717-0.1199 (  9084 PWs)   bands (ev):

   -51.7499 -51.7498 -26.1095 -26.1094 -25.8539 -25.8539 -25.8123 -25.8123
    -3.1926  -3.1925  -3.0056  -3.0055   3.2433   3.2433   4.2251   4.2251
     4.9718   4.9719   5.8675   5.8676   7.1835   7.1835   8.0863   8.0863
     8.4271   8.4271  11.3480  11.3480  11.8718  11.8719  12.9696

     the Fermi energy is    10.1126 ev

!    total energy              =    -993.56332056 Ry
     total all-electron energy =    -19390.223743 Ry
     estimated scf accuracy    <       0.00000023 Ry
     smearing contrib. (-TS)   =      -0.00000000 Ry
     internal energy E=F+TS    =    -993.56332056 Ry

     The total energy is F=E-TS. E is the sum of the following terms:
     one-electron contribution =    -218.11671588 Ry
     hartree contribution      =     133.22696669 Ry
     xc contribution           =     -59.45554862 Ry
     ewald contribution        =    -209.78418433 Ry
     DFT-D3 Dispersion         =      -0.16223442 Ry
     one-center paw contrib.   =    -639.27160400 Ry

     convergence has been achieved in  16 iterations

     Forces acting on atoms (cartesian axes, Ry/au):

     atom    1 type  1   force =     0.00000173    0.00000177    0.00010302
     atom    2 type  1   force =     0.00000397    0.00000500   -0.00010746
     atom    3 type  2   force =    -0.00000145   -0.00000051   -0.00764749
     atom    4 type  2   force =    -0.00000141   -0.00000233    0.00765213
     atom    5 type  2   force =    -0.00000203   -0.00000469   -0.00771969
     atom    6 type  2   force =    -0.00000081    0.00000075    0.00771949
     The non-local contrib.  to forces
     atom    1 type  1   force =    -0.00000146   -0.00000251   -0.00001424
     atom    2 type  1   force =    -0.00000560   -0.00000045    0.00001529
     atom    3 type  2   force =     0.00000218   -0.00000107    0.26295553
     atom    4 type  2   force =    -0.00000824   -0.00000365   -0.26295234
     atom    5 type  2   force =    -0.00000101    0.00000119    0.26293501
     atom    6 type  2   force =    -0.00000286   -0.00000153   -0.26293627
     The ionic contribution  to forces
     atom    1 type  1   force =     0.00000683    0.00000220    0.00263086
     atom    2 type  1   force =     0.00000363   -0.00000088   -0.00264639
     atom    3 type  2   force =    -0.00000242   -0.00000260  -16.55950483
     atom    4 type  2   force =    -0.00000126    0.00000129   16.55939256
     atom    5 type  2   force =    -0.00000560   -0.00000349  -16.55819062
     atom    6 type  2   force =    -0.00000117    0.00000347   16.55831843
     The local contribution  to forces
     atom    1 type  1   force =     0.00000632    0.00001449   -0.00233656
     atom    2 type  1   force =     0.00001266    0.00002691    0.00233795
     atom    3 type  2   force =     0.00000017    0.00000711   16.29065588
     atom    4 type  2   force =     0.00001666    0.00000283  -16.29052564
     atom    5 type  2   force =     0.00000802   -0.00000470   16.28933357
     atom    6 type  2   force =     0.00000956    0.00000503  -16.28947889
     The core correction contribution to forces
     atom    1 type  1   force =     0.00000019    0.00000025    0.00000220
     atom    2 type  1   force =     0.00000036    0.00000024   -0.00000231
     atom    3 type  2   force =    -0.00000004    0.00000009   -0.00201433
     atom    4 type  2   force =     0.00000033    0.00000013    0.00201434
     atom    5 type  2   force =     0.00000006   -0.00000010   -0.00201308
     atom    6 type  2   force =     0.00000018    0.00000015    0.00201300
     The Hubbard contrib.    to forces
     atom    1 type  1   force =     0.00000000    0.00000000    0.00000000
     atom    2 type  1   force =     0.00000000    0.00000000    0.00000000
     atom    3 type  2   force =     0.00000000    0.00000000    0.00000000
     atom    4 type  2   force =     0.00000000    0.00000000    0.00000000
     atom    5 type  2   force =     0.00000000    0.00000000    0.00000000
     atom    6 type  2   force =     0.00000000    0.00000000    0.00000000
     The SCF correction term to forces
     atom    1 type  1   force =    -0.00000839   -0.00001053   -0.00017944
     atom    2 type  1   force =    -0.00000531   -0.00001869    0.00018736
     atom    3 type  2   force =     0.00000042   -0.00000190   -0.00042013
     atom    4 type  2   force =    -0.00000713   -0.00000079    0.00040276
     atom    5 type  2   force =    -0.00000174    0.00000455   -0.00046462
     atom    6 type  2   force =    -0.00000474   -0.00000423    0.00048243

     DFT-D3 dispersion contribution to forces:
     atom    1 type  1   force =    -0.00000000   -0.00000000   -0.00000021
     atom    2 type  1   force =    -0.00000000    0.00000000    0.00000021
     atom    3 type  2   force =     0.00000000    0.00000000    0.00067997
     atom    4 type  2   force =    -0.00000000   -0.00000000   -0.00067996
     atom    5 type  2   force =     0.00000000    0.00000000    0.00067962
     atom    6 type  2   force =     0.00000000   -0.00000000   -0.00067963

     Total force =     0.015370     Total SCF correction =     0.000925


     Computing stress (Cartesian axis) and pressure

          total   stress  (Ry/bohr**3)                   (kbar)     P=       -9.78
  -0.00009251  -0.00000002   0.00000002          -13.61       -0.00        0.00
  -0.00000002  -0.00009258   0.00000001           -0.00      -13.62        0.00
   0.00000002   0.00000001  -0.00001434            0.00        0.00       -2.11

     Energy error            =      2.2E-03 Ry
     Gradient error          =      7.7E-03 Ry/Bohr
     Cell gradient error     =      1.4E+01 kbar

     number of scf cycles    =   2
     number of bfgs steps    =   1

     enthalpy           old  =    -993.5611105834 Ry
     enthalpy           new  =    -993.5633205637 Ry

     CASE: enthalpy          _new < enthalpy          _old

     new trust radius        =       0.0235407633 bohr
     new conv_thr            =       0.0000000772 Ry

     new unit-cell volume =    774.93936 a.u.^3 (   114.83417 Ang^3 )
     density =      4.62933 g/cm^3

CELL_PARAMETERS (angstrom)
   3.158214219  -0.000001976   0.000001546
  -1.579108821   2.735088172  -0.000000078
   0.000006466   0.000003350  13.294082240

ATOMIC_POSITIONS (angstrom)
Mo            0.0000045824        1.8233947295        9.9705465314
Mo            1.5791096808        0.9116992765        3.3235353734
S            -0.0000012898        1.8233917797        1.7667806442
S             1.5791112305        0.9116962144       11.5273158254
S             1.5791105930        0.9116937511        8.4137280075
S             0.0000007965        1.8233928864        4.8803447394



     Writing config-only to output data dir ./outdir/pwscf.save/
     NEW-OLD atomic charge density approx. for the potential
     extrapolated charge   51.48850, renormalised to   52.00000

     total cpu time spent up to now is       33.0 secs

     Self-consistent Calculation

     iteration #  1     ecut=    77.00 Ry     beta= 0.20
     Davidson diagonalization with overlap
     ethr =  1.00E-06,  avg # of iterations =  9.7

     total cpu time spent up to now is       35.3 secs

     total energy              =    -993.39605764 Ry
     estimated scf accuracy    <       0.32893459 Ry

     iteration #  2     ecut=    77.00 Ry     beta= 0.20
     Davidson diagonalization with overlap
     ethr =  6.33E-04,  avg # of iterations =  4.2

     total cpu time spent up to now is       36.5 secs

     total energy              =    -993.56408598 Ry
     estimated scf accuracy    <       0.47188661 Ry

     iteration #  3     ecut=    77.00 Ry     beta= 0.20
     Davidson diagonalization with overlap
     ethr =  6.33E-04,  avg # of iterations =  1.1

     total cpu time spent up to now is       37.2 secs

     total energy              =    -993.55734735 Ry
     estimated scf accuracy    <       0.15585110 Ry

     iteration #  4     ecut=    77.00 Ry     beta= 0.20
     Davidson diagonalization with overlap
     ethr =  3.00E-04,  avg # of iterations =  2.7

     total cpu time spent up to now is       38.1 secs

     total energy              =    -993.56272958 Ry
     estimated scf accuracy    <       0.03715772 Ry

     iteration #  5     ecut=    77.00 Ry     beta= 0.20
     Davidson diagonalization with overlap
     ethr =  7.15E-05,  avg # of iterations =  2.7

     total cpu time spent up to now is       39.0 secs

     total energy              =    -993.56438120 Ry
     estimated scf accuracy    <       0.01492415 Ry

     iteration #  6     ecut=    77.00 Ry     beta= 0.20
     Davidson diagonalization with overlap
     ethr =  2.87E-05,  avg # of iterations =  2.6

     total cpu time spent up to now is       39.8 secs

     total energy              =    -993.56430611 Ry
     estimated scf accuracy    <       0.01038970 Ry

     iteration #  7     ecut=    77.00 Ry     beta= 0.20
     Davidson diagonalization with overlap
     ethr =  2.00E-05,  avg # of iterations =  1.3

     total cpu time spent up to now is       40.6 secs

     total energy              =    -993.56411416 Ry
     estimated scf accuracy    <       0.00674803 Ry

     iteration #  8     ecut=    77.00 Ry     beta= 0.20
     Davidson diagonalization with overlap
     ethr =  1.30E-05,  avg # of iterations =  1.7

     total cpu time spent up to now is       41.4 secs

     total energy              =    -993.56382847 Ry
     estimated scf accuracy    <       0.00409455 Ry

     iteration #  9     ecut=    77.00 Ry     beta= 0.20
     Davidson diagonalization with overlap
     ethr =  7.87E-06,  avg # of iterations =  2.3

     total cpu time spent up to now is       42.3 secs

     total energy              =    -993.56363652 Ry
     estimated scf accuracy    <       0.00144533 Ry

     iteration # 10     ecut=    77.00 Ry     beta= 0.20
     Davidson diagonalization with overlap
     ethr =  2.78E-06,  avg # of iterations =  4.6

     total cpu time spent up to now is       43.4 secs

     total energy              =    -993.56396744 Ry
     estimated scf accuracy    <       0.00005582 Ry

     iteration # 11     ecut=    77.00 Ry     beta= 0.20
     Davidson diagonalization with overlap
     ethr =  1.07E-07,  avg # of iterations =  4.2

     total cpu time spent up to now is       44.4 secs

     total energy              =    -993.56398415 Ry
     estimated scf accuracy    <       0.00000565 Ry

     iteration # 12     ecut=    77.00 Ry     beta= 0.20
     Davidson diagonalization with overlap
     ethr =  1.09E-08,  avg # of iterations =  4.5

     total cpu time spent up to now is       45.4 secs

     total energy              =    -993.56398348 Ry
     estimated scf accuracy    <       0.00000629 Ry

     iteration # 13     ecut=    77.00 Ry     beta= 0.20
     Davidson diagonalization with overlap
     ethr =  1.09E-08,  avg # of iterations =  2.4

     total cpu time spent up to now is       46.2 secs

     total energy              =    -993.56398240 Ry
     estimated scf accuracy    <       0.00000758 Ry

     iteration # 14     ecut=    77.00 Ry     beta= 0.20
     Davidson diagonalization with overlap
     ethr =  1.09E-08,  avg # of iterations =  1.0

     total cpu time spent up to now is       47.0 secs

     total energy              =    -993.56398079 Ry
     estimated scf accuracy    <       0.00000341 Ry

     iteration # 15     ecut=    77.00 Ry     beta= 0.20
     Davidson diagonalization with overlap
     ethr =  6.55E-09,  avg # of iterations =  2.0

     total cpu time spent up to now is       47.9 secs

     total energy              =    -993.56397928 Ry
     estimated scf accuracy    <       0.00000260 Ry

     iteration # 16     ecut=    77.00 Ry     beta= 0.20
     Davidson diagonalization with overlap
     ethr =  5.00E-09,  avg # of iterations =  4.9

     total cpu time spent up to now is       49.1 secs

     total energy              =    -993.56398114 Ry
     estimated scf accuracy    <       0.00000551 Ry

     iteration # 17     ecut=    77.00 Ry     beta= 0.20
     Davidson diagonalization with overlap
     ethr =  5.00E-09,  avg # of iterations =  1.0

     total cpu time spent up to now is       49.9 secs

     total energy              =    -993.56398132 Ry
     estimated scf accuracy    <       0.00000495 Ry

     iteration # 18     ecut=    77.00 Ry     beta= 0.20
     Davidson diagonalization with overlap
     ethr =  5.00E-09,  avg # of iterations =  1.0

     total cpu time spent up to now is       50.7 secs

     total energy              =    -993.56397989 Ry
     estimated scf accuracy    <       0.00000607 Ry

     iteration # 19     ecut=    77.00 Ry     beta= 0.20
     Davidson diagonalization with overlap
     ethr =  5.00E-09,  avg # of iterations =  2.7

     total cpu time spent up to now is       51.6 secs

     total energy              =    -993.56398024 Ry
     estimated scf accuracy    <       0.00000050 Ry

     iteration # 20     ecut=    77.00 Ry     beta= 0.20
     Davidson diagonalization with overlap
     ethr =  9.66E-10,  avg # of iterations =  4.5

     total cpu time spent up to now is       52.6 secs

     End of self-consistent calculation

          k = 0.0000 0.0000 0.0000 (  9149 PWs)   bands (ev):

   -51.6289 -51.6283 -25.7827 -25.7822 -25.5561 -25.5560 -25.5555 -25.5555
    -5.0346  -4.9387  -3.7311  -3.5645   3.2432   3.7562   6.5764   6.5764
     6.5800   6.5800   6.7551   7.7094   7.7094   7.7226   7.7226   8.1274
     8.8344   9.6365  12.0438  12.0438  12.0531  12.0531  12.2769

          k =-0.0000-0.0000 0.0600 (  9185 PWs)   bands (ev):

   -51.6289 -51.6283 -25.7827 -25.7822 -25.5561 -25.5560 -25.5555 -25.5555
    -5.0218  -4.9542  -3.7055  -3.5879   3.3082   3.6679   6.5769   6.5770
     6.5795   6.5795   6.9185   7.7114   7.7114   7.7207   7.7207   7.8227
     9.0662   9.5702  12.0448  12.0448  12.0512  12.0512  12.2857

          k = 0.0000 0.0000-0.1201 (  9118 PWs)   bands (ev):

   -51.6289 -51.6283 -25.7827 -25.7822 -25.5561 -25.5560 -25.5555 -25.5555
    -4.9893  -4.9893  -3.6457  -3.6456   3.4768   3.4769   6.5781   6.5782
     6.5783   6.5783   7.3277   7.3280   7.7159   7.7160   7.7161   7.7161
     9.3725   9.3728  12.0475  12.0475  12.0476  12.0477  12.3060

          k = 0.0000 0.2918-0.0000 (  9117 PWs)   bands (ev):

   -51.6081 -51.6075 -25.7608 -25.7603 -25.7416 -25.7411 -25.6029 -25.6023
    -4.1764  -4.0899  -3.3628  -3.2416   3.9409   4.3017   5.3019   5.3959
     5.4506   5.7149   6.6988   6.7198   7.4210   7.4417   7.6527   8.1279
     8.4202   8.5155  11.1636  11.5972  11.6732  11.7748  12.0340

          k = 0.0000 0.2918 0.0600 (  9108 PWs)   bands (ev):

   -51.6081 -51.6075 -25.7608 -25.7603 -25.7416 -25.7411 -25.6029 -25.6023
    -4.1651  -4.1042  -3.3435  -3.2581   3.9859   4.2385   5.3040   5.3525
     5.5336   5.6968   6.7018   6.7167   7.4241   7.4387   7.7053   8.0297
     8.4550   8.5113  11.2383  11.6077  11.6401  11.6614  12.1444

          k = 0.0000 0.2918-0.1201 (  9100 PWs)   bands (ev):

   -51.6081 -51.6075 -25.7608 -25.7603 -25.7416 -25.7411 -25.6029 -25.6023
    -4.1362  -4.1361  -3.2994  -3.2993   4.1034   4.1035   5.3191   5.3192
     5.6356   5.6356   6.7091   6.7092   7.4314   7.4315   7.8493   7.8494
     8.4938   8.4940  11.4231  11.4233  11.6339  11.6341  12.2972

          k = 0.0000 0.2918-0.0600 (  9108 PWs)   bands (ev):

   -51.6081 -51.6075 -25.7608 -25.7603 -25.7416 -25.7411 -25.6029 -25.6023
    -4.1651  -4.1042  -3.3435  -3.2581   3.9859   4.2384   5.3040   5.3526
     5.5335   5.6968   6.7018   6.7167   7.4241   7.4387   7.7053   8.0298
     8.4550   8.5113  11.2383  11.6077  11.6402  11.6614  12.1444

          k =-0.0000-0.5836 0.0000 (  9070 PWs)   bands (ev):

   -51.5872 -51.5866 -25.9594 -25.9588 -25.7002 -25.6996 -25.6492 -25.6487
    -3.0638  -3.0270  -2.8996  -2.8660   3.2849   3.4050   4.2833   4.3826
     4.9315   5.2201   6.0004   6.0250   7.2499   7.3402   8.2293   8.2953
     8.5430   8.5782  11.5348  11.5521  11.9822  12.1340  12.8926

          k =-0.0000-0.5836 0.0600 (  9042 PWs)   bands (ev):

   -51.5872 -51.5866 -25.9594 -25.9588 -25.7002 -25.6996 -25.6492 -25.6487
    -3.0593  -3.0335  -2.8935  -2.8701   3.3016   3.3865   4.2927   4.3602
     4.9827   5.1842   6.0040   6.0214   7.2617   7.3255   8.2390   8.2856
     8.5488   8.5737  11.5371  11.5494  12.0061  12.1134  12.9570

          k =-0.0000-0.5836-0.1201 (  9084 PWs)   bands (ev):

   -51.5872 -51.5866 -25.9594 -25.9588 -25.7002 -25.6996 -25.6492 -25.6487
    -3.0473  -3.0473  -2.8809  -2.8809   3.3431   3.3431   4.3205   4.3206
     5.0904   5.0905   6.0126   6.0127   7.2922   7.2922   8.2623   8.2623
     8.5618   8.5620  11.5429  11.5433  12.0612  12.0616  13.1320

          k = 0.2527 0.1459-0.0000 (  9117 PWs)   bands (ev):

   -51.6081 -51.6075 -25.7609 -25.7603 -25.7416 -25.7411 -25.6029 -25.6023
    -4.1764  -4.0899  -3.3628  -3.2416   3.9409   4.3017   5.3019   5.3959
     5.4506   5.7149   6.6988   6.7198   7.4210   7.4417   7.6527   8.1279
     8.4202   8.5155  11.1636  11.5972  11.6732  11.7748  12.0340

          k = 0.2527 0.1459 0.0600 (  9108 PWs)   bands (ev):

   -51.6081 -51.6075 -25.7609 -25.7603 -25.7416 -25.7411 -25.6029 -25.6023
    -4.1651  -4.1042  -3.3435  -3.2581   3.9859   4.2384   5.3040   5.3526
     5.5335   5.6968   6.7018   6.7167   7.4241   7.4387   7.7053   8.0298
     8.4550   8.5113  11.2383  11.6078  11.6402  11.6615  12.1444

          k = 0.2527 0.1459-0.1201 (  9100 PWs)   bands (ev):

   -51.6081 -51.6075 -25.7609 -25.7603 -25.7416 -25.7411 -25.6029 -25.6023
    -4.1362  -4.1361  -3.2994  -3.2993   4.1034   4.1035   5.3191   5.3192
     5.6356   5.6356   6.7091   6.7092   7.4315   7.4316   7.8493   7.8494
     8.4938   8.4940  11.4231  11.4233  11.6339  11.6341  12.2972

          k = 0.2527 0.1459-0.0600 (  9108 PWs)   bands (ev):

   -51.6081 -51.6075 -25.7609 -25.7603 -25.7416 -25.7411 -25.6029 -25.6023
    -4.1651  -4.1042  -3.3435  -3.2581   3.9859   4.2385   5.3040   5.3525
     5.5336   5.6968   6.7018   6.7167   7.4241   7.4387   7.7053   8.0297
     8.4550   8.5113  11.2383  11.6078  11.6401  11.6615  12.1444

          k = 0.2527 0.4377-0.0000 (  9066 PWs)   bands (ev):

   -51.5872 -51.5866 -25.8853 -25.8848 -25.7262 -25.7256 -25.7002 -25.6997
    -3.0979  -3.0508  -2.8838  -2.8333   3.9526   4.0617   4.1792   4.2296
     5.5520   5.5930   5.7509   6.0745   6.2112   6.3149   7.5061   7.6225
     8.6724   8.7118  11.2610  11.6025  12.0661  12.1281  12.2154

          k = 0.2527 0.4377 0.0600 (  9082 PWs)   bands (ev):

   -51.5872 -51.5866 -25.8853 -25.8848 -25.7262 -25.7256 -25.7002 -25.6997
    -3.0922  -3.0593  -2.8748  -2.8395   3.9673   4.0435   4.1886   4.2233
     5.5386   5.5503   5.8357   6.0477   6.2287   6.3016   7.5174   7.6006
     8.6785   8.7064  11.3088  11.5497  12.0666  12.0945  12.2935

          k = 0.2527 0.4377-0.1201 (  9082 PWs)   bands (ev):

   -51.5872 -51.5866 -25.8853 -25.8848 -25.7262 -25.7256 -25.7002 -25.6997
    -3.0771  -3.0771  -2.8558  -2.8558   4.0039   4.0040   4.2072   4.2073
     5.5248   5.5248   5.9623   5.9623   6.2674   6.2674   7.5538   7.5538
     8.6927   8.6930  11.4267  11.4270  12.0719  12.0721  12.4247

          k = 0.2527 0.4377-0.0600 (  9082 PWs)   bands (ev):

   -51.5872 -51.5866 -25.8853 -25.8848 -25.7262 -25.7256 -25.7002 -25.6997
    -3.0922  -3.0593  -2.8748  -2.8395   3.9673   4.0435   4.1886   4.2233
     5.5386   5.5503   5.8357   6.0477   6.2287   6.3016   7.5174   7.6006
     8.6785   8.7064  11.3088  11.5497  12.0666  12.0945  12.2935

          k = 0.2527-0.4377-0.0000 (  9066 PWs)   bands (ev):

   -51.5872 -51.5866 -25.8853 -25.8848 -25.7262 -25.7257 -25.7002 -25.6997
    -3.0979  -3.0508  -2.8838  -2.8333   3.9526   4.0617   4.1792   4.2296
     5.5520   5.5930   5.7509   6.0745   6.2112   6.3149   7.5061   7.6225
     8.6724   8.7118  11.2610  11.6025  12.0661  12.1281  12.2154

          k = 0.2527-0.4377 0.0600 (  9082 PWs)   bands (ev):

   -51.5872 -51.5866 -25.8853 -25.8848 -25.7262 -25.7257 -25.7002 -25.6997
    -3.0922  -3.0593  -2.8748  -2.8395   3.9673   4.0435   4.1886   4.2233
     5.5386   5.5503   5.8357   6.0477   6.2287   6.3016   7.5174   7.6006
     8.6785   8.7064  11.3088  11.5497  12.0666  12.0945  12.2935

          k = 0.2527-0.4377-0.1201 (  9082 PWs)   bands (ev):

   -51.5872 -51.5866 -25.8853 -25.8848 -25.7262 -25.7257 -25.7002 -25.6997
    -3.0771  -3.0771  -2.8558  -2.8558   4.0039   4.0040   4.2072   4.2073
     5.5248   5.5248   5.9623   5.9623   6.2674   6.2674   7.5538   7.5538
     8.6927   8.6930  11.4267  11.4270  12.0718  12.0721  12.4247

          k = 0.2527-0.4377-0.0600 (  9082 PWs)   bands (ev):

   -51.5872 -51.5866 -25.8853 -25.8848 -25.7262 -25.7257 -25.7002 -25.6997
    -3.0922  -3.0593  -2.8748  -2.8395   3.9673   4.0435   4.1886   4.2233
     5.5386   5.5503   5.8357   6.0477   6.2287   6.3016   7.5174   7.6006
     8.6785   8.7064  11.3088  11.5497  12.0666  12.0945  12.2935

          k = 0.2527-0.1459-0.0000 (  9117 PWs)   bands (ev):

   -51.6081 -51.6075 -25.7608 -25.7603 -25.7416 -25.7411 -25.6029 -25.6023
    -4.1764  -4.0899  -3.3628  -3.2416   3.9409   4.3017   5.3019   5.3959
     5.4506   5.7149   6.6988   6.7199   7.4210   7.4417   7.6527   8.1279
     8.4202   8.5155  11.1636  11.5972  11.6732  11.7748  12.0340

          k = 0.2527-0.1459 0.0600 (  9108 PWs)   bands (ev):

   -51.6081 -51.6075 -25.7608 -25.7603 -25.7416 -25.7411 -25.6029 -25.6023
    -4.1651  -4.1042  -3.3435  -3.2581   3.9859   4.2385   5.3040   5.3525
     5.5336   5.6968   6.7018   6.7167   7.4241   7.4387   7.7053   8.0297
     8.4550   8.5113  11.2383  11.6078  11.6401  11.6615  12.1444

          k = 0.2527-0.1459-0.1201 (  9100 PWs)   bands (ev):

   -51.6081 -51.6075 -25.7608 -25.7603 -25.7416 -25.7411 -25.6029 -25.6023
    -4.1362  -4.1361  -3.2994  -3.2993   4.1034   4.1035   5.3191   5.3192
     5.6355   5.6356   6.7091   6.7092   7.4315   7.4316   7.8493   7.8494
     8.4938   8.4940  11.4231  11.4233  11.6339  11.6341  12.2970

          k = 0.2527-0.1459-0.0600 (  9108 PWs)   bands (ev):

   -51.6081 -51.6075 -25.7608 -25.7603 -25.7416 -25.7411 -25.6029 -25.6023
    -4.1651  -4.1042  -3.3435  -3.2581   3.9859   4.2384   5.3040   5.3526
     5.5335   5.6968   6.7018   6.7167   7.4241   7.4387   7.7053   8.0298
     8.4550   8.5113  11.2383  11.6078  11.6402  11.6615  12.1444

          k =-0.5054-0.2918 0.0000 (  9070 PWs)   bands (ev):

   -51.5872 -51.5866 -25.9594 -25.9588 -25.7002 -25.6996 -25.6492 -25.6487
    -3.0638  -3.0270  -2.8996  -2.8660   3.2849   3.4050   4.2833   4.3826
     4.9315   5.2201   6.0005   6.0250   7.2499   7.3402   8.2293   8.2953
     8.5430   8.5782  11.5348  11.5521  11.9822  12.1340  12.8926

          k =-0.5054-0.2918 0.0600 (  9042 PWs)   bands (ev):

   -51.5872 -51.5866 -25.9594 -25.9588 -25.7002 -25.6996 -25.6492 -25.6487
    -3.0593  -3.0335  -2.8935  -2.8701   3.3016   3.3865   4.2927   4.3602
     4.9827   5.1842   6.0040   6.0214   7.2617   7.3255   8.2390   8.2856
     8.5488   8.5736  11.5371  11.5494  12.0061  12.1134  12.9571

          k =-0.5054-0.2918-0.1201 (  9084 PWs)   bands (ev):

   -51.5872 -51.5866 -25.9594 -25.9588 -25.7002 -25.6996 -25.6492 -25.6487
    -3.0473  -3.0473  -2.8809  -2.8809   3.3431   3.3431   4.3205   4.3206
     5.0904   5.0905   6.0126   6.0127   7.2922   7.2922   8.2623   8.2623
     8.5618   8.5620  11.5429  11.5433  12.0612  12.0616  13.1319

          k =-0.5054-0.0000 0.0000 (  9066 PWs)   bands (ev):

   -51.5872 -51.5866 -25.8853 -25.8848 -25.7262 -25.7257 -25.7002 -25.6997
    -3.0979  -3.0508  -2.8838  -2.8333   3.9526   4.0617   4.1792   4.2296
     5.5520   5.5930   5.7509   6.0745   6.2111   6.3149   7.5061   7.6225
     8.6724   8.7118  11.2610  11.6024  12.0660  12.1281  12.2154

          k =-0.5054-0.0000 0.0600 (  9082 PWs)   bands (ev):

   -51.5872 -51.5866 -25.8853 -25.8848 -25.7262 -25.7257 -25.7002 -25.6997
    -3.0922  -3.0593  -2.8748  -2.8395   3.9673   4.0435   4.1886   4.2233
     5.5386   5.5503   5.8357   6.0477   6.2287   6.3016   7.5174   7.6006
     8.6785   8.7064  11.3088  11.5497  12.0665  12.0945  12.2935

          k =-0.5054-0.0000-0.1201 (  9082 PWs)   bands (ev):

   -51.5872 -51.5866 -25.8853 -25.8848 -25.7262 -25.7257 -25.7002 -25.6997
    -3.0771  -3.0771  -2.8559  -2.8558   4.0039   4.0040   4.2072   4.2073
     5.5248   5.5248   5.9623   5.9623   6.2673   6.2674   7.5538   7.5538
     8.6927   8.6930  11.4267  11.4270  12.0719  12.0721  12.4247

          k =-0.5054-0.0000-0.0600 (  9082 PWs)   bands (ev):

   -51.5872 -51.5866 -25.8853 -25.8848 -25.7262 -25.7257 -25.7002 -25.6997
    -3.0922  -3.0593  -2.8748  -2.8395   3.9673   4.0435   4.1886   4.2233
     5.5386   5.5503   5.8357   6.0477   6.2287   6.3016   7.5174   7.6006
     8.6785   8.7064  11.3088  11.5497  12.0665  12.0945  12.2935

          k =-0.5054-0.8754 0.0000 (  9070 PWs)   bands (ev):

   -51.5872 -51.5866 -25.9593 -25.9588 -25.7002 -25.6996 -25.6492 -25.6487
    -3.0638  -3.0270  -2.8996  -2.8660   3.2849   3.4050   4.2833   4.3826
     4.9315   5.2201   6.0005   6.0251   7.2499   7.3402   8.2294   8.2953
     8.5430   8.5782  11.5348  11.5521  11.9822  12.1340  12.8926

          k =-0.5054-0.8754 0.0600 (  9042 PWs)   bands (ev):

   -51.5872 -51.5866 -25.9593 -25.9588 -25.7002 -25.6996 -25.6492 -25.6487
    -3.0593  -3.0335  -2.8935  -2.8701   3.3016   3.3865   4.2927   4.3602
     4.9827   5.1842   6.0040   6.0214   7.2617   7.3255   8.2390   8.2857
     8.5488   8.5736  11.5371  11.5494  12.0061  12.1134  12.9571

          k =-0.5054-0.8754-0.1201 (  9084 PWs)   bands (ev):

   -51.5872 -51.5866 -25.9593 -25.9588 -25.7002 -25.6996 -25.6492 -25.6487
    -3.0474  -3.0473  -2.8809  -2.8809   3.3431   3.3431   4.3205   4.3206
     5.0904   5.0905   6.0126   6.0127   7.2922   7.2922   8.2623   8.2623
     8.5618   8.5620  11.5429  11.5433  12.0612  12.0616  13.1318

     the Fermi energy is    10.2750 ev

!    total energy              =    -993.56398030 Ry
     total all-electron energy =    -19390.224403 Ry
     estimated scf accuracy    <       0.00000003 Ry
     smearing contrib. (-TS)   =      -0.00000000 Ry
     internal energy E=F+TS    =    -993.56398030 Ry

     The total energy is F=E-TS. E is the sum of the following terms:
     one-electron contribution =    -216.78677638 Ry
     hartree contribution      =     132.84451181 Ry
     xc contribution           =     -59.48739489 Ry
     ewald contribution        =    -210.69638576 Ry
     DFT-D3 Dispersion         =      -0.16372882 Ry
     one-center paw contrib.   =    -639.27420626 Ry

     convergence has been achieved in  20 iterations

     Forces acting on atoms (cartesian axes, Ry/au):

     atom    1 type  1   force =     0.00000077   -0.00000407   -0.00007171
     atom    2 type  1   force =    -0.00000263   -0.00000119    0.00008539
     atom    3 type  2   force =     0.00000015    0.00000089   -0.00893416
     atom    4 type  2   force =     0.00000027    0.00000101    0.00889119
     atom    5 type  2   force =     0.00000154    0.00000178   -0.00888675
     atom    6 type  2   force =    -0.00000010    0.00000159    0.00891604
     The non-local contrib.  to forces
     atom    1 type  1   force =    -0.00000020    0.00000133   -0.00000678
     atom    2 type  1   force =     0.00000091   -0.00000000    0.00000635
     atom    3 type  2   force =     0.00000279    0.00000126    0.26107724
     atom    4 type  2   force =    -0.00000207   -0.00000064   -0.26112851
     atom    5 type  2   force =    -0.00000053    0.00000274    0.26112334
     atom    6 type  2   force =     0.00000095   -0.00000114   -0.26107093
     The ionic contribution  to forces
     atom    1 type  1   force =     0.00000639   -0.00004238    0.00095450
     atom    2 type  1   force =    -0.00002568    0.00000652   -0.00092781
     atom    3 type  2   force =     0.00002557    0.00000321  -16.65381768
     atom    4 type  2   force =    -0.00001410    0.00001301   16.65363732
     atom    5 type  2   force =     0.00000757    0.00002966  -16.65236323
     atom    6 type  2   force =     0.00000025   -0.00001002   16.65251691
     The local contribution  to forces
     atom    1 type  1   force =     0.00000114    0.00003419   -0.00131495
     atom    2 type  1   force =     0.00002337   -0.00000338    0.00141789
     atom    3 type  2   force =    -0.00003101   -0.00000381   16.38497925
     atom    4 type  2   force =     0.00001945   -0.00001008  -16.38505768
     atom    5 type  2   force =    -0.00000252   -0.00003170   16.38362570
     atom    6 type  2   force =    -0.00000199    0.00001621  -16.38351875
     The core correction contribution to forces
     atom    1 type  1   force =     0.00000009   -0.00000013   -0.00000147
     atom    2 type  1   force =    -0.00000006    0.00000004    0.00000220
     atom    3 type  2   force =    -0.00000016   -0.00000004   -0.00190168
     atom    4 type  2   force =     0.00000011    0.00000001    0.00190259
     atom    5 type  2   force =     0.00000006   -0.00000013   -0.00190342
     atom    6 type  2   force =    -0.00000005    0.00000010    0.00190254
     The Hubbard contrib.    to forces
     atom    1 type  1   force =     0.00000000    0.00000000    0.00000000
     atom    2 type  1   force =     0.00000000    0.00000000    0.00000000
     atom    3 type  2   force =     0.00000000    0.00000000    0.00000000
     atom    4 type  2   force =     0.00000000    0.00000000    0.00000000
[...]

   -50.2110 -50.2110 -24.3676 -24.3676 -24.1321 -24.1321 -24.1321 -24.1321
    -3.6304  -3.6302  -2.2796  -2.2792   4.7900   4.7907   8.0327   8.0327
     8.0327   8.0327   8.6704   8.6710   9.1613   9.1613   9.1614   9.1614
    11.0334  11.0341  13.4410  13.4410  13.4410  13.4411  13.6914

          k =-0.0000 0.2924-0.0000 (  8102 PWs)   bands (ev):

   -50.1897 -50.1897 -24.3406 -24.3406 -24.3258 -24.3257 -24.1798 -24.1798
    -2.8808  -2.6071  -2.1236  -1.7570   5.0899   5.9009   6.5528   6.6403
     6.9814   7.2204   8.1064   8.1838   8.8443   8.9186   8.9537   9.6773
     9.7712   9.9077  12.5016  12.9085  13.1424  13.3716  13.4080

          k =-0.0000 0.2924 0.0653 (  8097 PWs)   bands (ev):

   -50.1897 -50.1897 -24.3406 -24.3406 -24.3258 -24.3257 -24.1798 -24.1798
    -2.8523  -2.6672  -2.0503  -1.7996   5.1751   5.7179   6.5858   6.6629
     7.0490   7.2218   8.1167   8.1713   8.8564   8.9087   9.0139   9.4822
     9.8500   9.9101  12.6119  12.9380  13.1020  13.1379  13.6207

          k = 0.0000 0.2924-0.1306 (  8118 PWs)   bands (ev):

   -50.1897 -50.1897 -24.3406 -24.3406 -24.3257 -24.3257 -24.1798 -24.1798
    -2.7729  -2.7726  -1.9124  -1.9122   5.4088   5.4093   6.6355   6.6358
     7.1749   7.1752   8.1429   8.1430   8.8836   8.8836   9.2053   9.2054
     9.8962   9.8963  12.8635  12.8636  13.0146  13.0148  13.8286

          k =-0.0000 0.2924-0.0653 (  8097 PWs)   bands (ev):

   -50.1897 -50.1897 -24.3406 -24.3406 -24.3258 -24.3257 -24.1798 -24.1798
    -2.8523  -2.6672  -2.0503  -1.7996   5.1751   5.7179   6.5856   6.6631
     7.0490   7.2218   8.1167   8.1713   8.8564   8.9087   9.0139   9.4823
     9.8499   9.9102  12.6119  12.9380  13.1020  13.1379  13.6208

          k = 0.0000-0.5849 0.0000 (  8086 PWs)   bands (ev):

   -50.1683 -50.1683 -24.5426 -24.5426 -24.2836 -24.2835 -24.2270 -24.2270
    -1.6994  -1.5772  -1.5531  -1.4453   4.5451   4.8830   5.5305   5.7772
     6.1037   6.8167   7.3990   7.4878   8.5049   8.7798   9.5741   9.7968
     9.8691  10.0028  12.9583  13.0077  13.3388  13.6319  14.1628

          k = 0.0000-0.5849 0.0653 (  8090 PWs)   bands (ev):

   -50.1683 -50.1683 -24.5426 -24.5426 -24.2836 -24.2835 -24.2270 -24.2270
    -1.6889  -1.6164  -1.5160  -1.4537   4.5882   4.8266   5.5428   5.6807
     6.2769   6.7444   7.4112   7.4740   8.5367   8.7288   9.6067   9.7641
     9.8945   9.9873  12.9642  12.9989  13.3879  13.5948  14.2624

          k = 0.0000-0.5849-0.1306 (  8116 PWs)   bands (ev):

   -50.1683 -50.1683 -24.5426 -24.5426 -24.2836 -24.2835 -24.2270 -24.2270
    -1.6594  -1.6592  -1.4782  -1.4782   4.7006   4.7008   5.5865   5.5867
     6.5441   6.5445   7.4418   7.4418   8.6234   8.6236   9.6853   9.6855
     9.9455   9.9456  12.9800  12.9801  13.4974  13.4975  14.5412

          k = 0.2533 0.1462-0.0000 (  8102 PWs)   bands (ev):

   -50.1897 -50.1897 -24.3406 -24.3406 -24.3258 -24.3257 -24.1798 -24.1798
    -2.8808  -2.6071  -2.1236  -1.7570   5.0899   5.9009   6.5528   6.6403
     6.9814   7.2204   8.1064   8.1838   8.8443   8.9186   8.9537   9.6773
     9.7712   9.9077  12.5016  12.9085  13.1424  13.3716  13.4080

          k = 0.2533 0.1462 0.0653 (  8097 PWs)   bands (ev):

   -50.1897 -50.1897 -24.3406 -24.3406 -24.3258 -24.3257 -24.1798 -24.1798
    -2.8523  -2.6672  -2.0503  -1.7996   5.1751   5.7179   6.5856   6.6631
     7.0490   7.2218   8.1167   8.1713   8.8564   8.9087   9.0139   9.4823
     9.8499   9.9101  12.6119  12.9380  13.1020  13.1379  13.6208

          k = 0.2533 0.1462-0.1306 (  8118 PWs)   bands (ev):

   -50.1897 -50.1897 -24.3406 -24.3406 -24.3257 -24.3257 -24.1798 -24.1798
    -2.7729  -2.7726  -1.9124  -1.9122   5.4088   5.4093   6.6355   6.6358
     7.1749   7.1752   8.1429   8.1430   8.8836   8.8836   9.2053   9.2054
     9.8962   9.8963  12.8635  12.8636  13.0146  13.0148  13.8286

          k = 0.2533 0.1462-0.0653 (  8097 PWs)   bands (ev):

   -50.1897 -50.1897 -24.3406 -24.3406 -24.3258 -24.3257 -24.1798 -24.1798
    -2.8523  -2.6672  -2.0503  -1.7996   5.1751   5.7179   6.5858   6.6629
     7.0490   7.2218   8.1167   8.1713   8.8564   8.9087   9.0139   9.4822
     9.8500   9.9101  12.6119  12.9380  13.1020  13.1379  13.6207

          k = 0.2533 0.4386-0.0000 (  8092 PWs)   bands (ev):

   -50.1683 -50.1683 -24.4671 -24.4671 -24.3054 -24.3054 -24.2836 -24.2836
    -1.7448  -1.5928  -1.5546  -1.3964   5.2309   5.5010   5.5215   5.6705
     6.8634   6.9313   6.9474   7.5500   7.6061   7.8290   8.7531   9.1523
    10.0532  10.1622  12.5322  13.1248  13.2883  13.4871  13.7090

          k = 0.2533 0.4386 0.0653 (  8080 PWs)   bands (ev):

   -50.1683 -50.1683 -24.4671 -24.4671 -24.3054 -24.3054 -24.2836 -24.2836
    -1.7321  -1.6422  -1.5044  -1.4100   5.2647   5.4423   5.5625   5.6531
     6.7423   6.8524   7.1713   7.5366   7.6551   7.8013   8.7806   9.0743
    10.0707  10.1476  12.6116  13.0158  13.3572  13.4755  13.7506

          k = 0.2533 0.4386-0.1306 (  8082 PWs)   bands (ev):

   -50.1683 -50.1683 -24.4671 -24.4671 -24.3054 -24.3054 -24.2836 -24.2836
    -1.6961  -1.6959  -1.4484  -1.4483   5.3493   5.3496   5.6109   5.6110
     6.7415   6.7416   7.4190   7.4192   7.7330   7.7332   8.9041   8.9044
    10.1104  10.1105  12.8061  12.8062  13.4362  13.4363  13.9018

          k = 0.2533 0.4386-0.0653 (  8080 PWs)   bands (ev):

   -50.1683 -50.1683 -24.4671 -24.4671 -24.3054 -24.3054 -24.2836 -24.2836
    -1.7321  -1.6422  -1.5044  -1.4100   5.2647   5.4423   5.5625   5.6531
     6.7423   6.8524   7.1713   7.5366   7.6551   7.8013   8.7806   9.0743
    10.0707  10.1476  12.6116  13.0158  13.3572  13.4755  13.7506

          k = 0.2533-0.4386-0.0000 (  8092 PWs)   bands (ev):

   -50.1683 -50.1683 -24.4671 -24.4671 -24.3054 -24.3054 -24.2836 -24.2836
    -1.7448  -1.5928  -1.5546  -1.3964   5.2309   5.5010   5.5215   5.6705
     6.8634   6.9313   6.9474   7.5500   7.6061   7.8290   8.7531   9.1523
    10.0532  10.1622  12.5322  13.1248  13.2883  13.4871  13.7090

          k = 0.2533-0.4386 0.0653 (  8080 PWs)   bands (ev):

   -50.1683 -50.1683 -24.4671 -24.4671 -24.3054 -24.3054 -24.2836 -24.2836
    -1.7321  -1.6422  -1.5044  -1.4100   5.2647   5.4423   5.5625   5.6531
     6.7423   6.8524   7.1713   7.5366   7.6551   7.8013   8.7806   9.0743
    10.0707  10.1476  12.6116  13.0158  13.3572  13.4756  13.7506

          k = 0.2533-0.4386-0.1306 (  8082 PWs)   bands (ev):

   -50.1683 -50.1683 -24.4671 -24.4671 -24.3054 -24.3054 -24.2836 -24.2836
    -1.6961  -1.6959  -1.4484  -1.4483   5.3493   5.3496   5.6109   5.6110
     6.7415   6.7416   7.4190   7.4192   7.7330   7.7332   8.9041   8.9044
    10.1104  10.1105  12.8061  12.8062  13.4362  13.4363  13.9018

          k = 0.2533-0.4386-0.0653 (  8080 PWs)   bands (ev):

   -50.1683 -50.1683 -24.4671 -24.4671 -24.3054 -24.3054 -24.2836 -24.2836
    -1.7321  -1.6422  -1.5044  -1.4100   5.2647   5.4423   5.5625   5.6531
     6.7423   6.8524   7.1713   7.5366   7.6551   7.8013   8.7806   9.0743
    10.0707  10.1476  12.6116  13.0158  13.3572  13.4756  13.7506

          k = 0.2533-0.1462-0.0000 (  8102 PWs)   bands (ev):

   -50.1897 -50.1897 -24.3406 -24.3406 -24.3258 -24.3257 -24.1798 -24.1798
    -2.8808  -2.6071  -2.1236  -1.7570   5.0899   5.9009   6.5528   6.6403
     6.9814   7.2204   8.1064   8.1838   8.8443   8.9185   8.9537   9.6773
     9.7712   9.9077  12.5016  12.9085  13.1424  13.3716  13.4080

          k = 0.2533-0.1462 0.0653 (  8097 PWs)   bands (ev):

   -50.1897 -50.1897 -24.3406 -24.3406 -24.3258 -24.3257 -24.1798 -24.1798
    -2.8523  -2.6672  -2.0503  -1.7996   5.1751   5.7179   6.5858   6.6629
     7.0491   7.2218   8.1167   8.1713   8.8564   8.9087   9.0139   9.4822
     9.8500   9.9101  12.6119  12.9380  13.1020  13.1379  13.6207

          k = 0.2533-0.1462-0.1306 (  8118 PWs)   bands (ev):

   -50.1897 -50.1897 -24.3406 -24.3406 -24.3257 -24.3257 -24.1798 -24.1798
    -2.7729  -2.7726  -1.9124  -1.9122   5.4088   5.4093   6.6356   6.6358
     7.1749   7.1752   8.1429   8.1430   8.8836   8.8836   9.2053   9.2054
     9.8962   9.8963  12.8635  12.8636  13.0146  13.0148  13.8285

          k = 0.2533-0.1462-0.0653 (  8097 PWs)   bands (ev):

   -50.1897 -50.1897 -24.3406 -24.3406 -24.3258 -24.3257 -24.1798 -24.1798
    -2.8523  -2.6672  -2.0503  -1.7996   5.1751   5.7179   6.5856   6.6631
     7.0490   7.2218   8.1167   8.1713   8.8564   8.9087   9.0139   9.4823
     9.8499   9.9102  12.6119  12.9380  13.1020  13.1379  13.6208

          k =-0.5065-0.2924 0.0000 (  8086 PWs)   bands (ev):

   -50.1683 -50.1683 -24.5426 -24.5426 -24.2836 -24.2835 -24.2270 -24.2270
    -1.6994  -1.5772  -1.5531  -1.4453   4.5451   4.8830   5.5305   5.7772
     6.1037   6.8167   7.3990   7.4878   8.5049   8.7797   9.5741   9.7968
     9.8691  10.0028  12.9583  13.0077  13.3388  13.6319  14.1628

          k =-0.5065-0.2924 0.0653 (  8090 PWs)   bands (ev):

   -50.1683 -50.1683 -24.5426 -24.5426 -24.2836 -24.2835 -24.2270 -24.2270
    -1.6889  -1.6164  -1.5160  -1.4537   4.5882   4.8266   5.5428   5.6807
     6.2769   6.7444   7.4112   7.4740   8.5367   8.7288   9.6067   9.7641
     9.8945   9.9873  12.9642  12.9989  13.3879  13.5948  14.2624

          k =-0.5065-0.2924-0.1306 (  8116 PWs)   bands (ev):

   -50.1683 -50.1683 -24.5426 -24.5426 -24.2836 -24.2835 -24.2270 -24.2270
    -1.6594  -1.6592  -1.4782  -1.4782   4.7006   4.7008   5.5865   5.5867
     6.5441   6.5445   7.4418   7.4418   8.6234   8.6237   9.6853   9.6855
     9.9455   9.9456  12.9800  12.9801  13.4974  13.4975  14.5412

          k =-0.5065 0.0000 0.0000 (  8092 PWs)   bands (ev):

   -50.1683 -50.1683 -24.4671 -24.4671 -24.3054 -24.3054 -24.2836 -24.2836
    -1.7448  -1.5928  -1.5546  -1.3964   5.2309   5.5010   5.5215   5.6705
     6.8634   6.9313   6.9474   7.5500   7.6061   7.8290   8.7532   9.1523
    10.0532  10.1622  12.5322  13.1248  13.2883  13.4871  13.7090

          k =-0.5065 0.0000 0.0653 (  8080 PWs)   bands (ev):

   -50.1683 -50.1683 -24.4671 -24.4671 -24.3054 -24.3054 -24.2836 -24.2836
    -1.7321  -1.6422  -1.5044  -1.4100   5.2647   5.4423   5.5625   5.6531
     6.7423   6.8524   7.1713   7.5366   7.6551   7.8013   8.7806   9.0743
    10.0707  10.1476  12.6116  13.0158  13.3572  13.4756  13.7506

          k =-0.5065 0.0000-0.1306 (  8082 PWs)   bands (ev):

   -50.1683 -50.1683 -24.4671 -24.4671 -24.3054 -24.3054 -24.2836 -24.2836
    -1.6961  -1.6959  -1.4484  -1.4483   5.3493   5.3496   5.6109   5.6110
     6.7415   6.7416   7.4190   7.4192   7.7330   7.7332   8.9041   8.9044
    10.1104  10.1105  12.8061  12.8062  13.4362  13.4363  13.9020

          k =-0.5065 0.0000-0.0653 (  8080 PWs)   bands (ev):

   -50.1683 -50.1683 -24.4671 -24.4671 -24.3054 -24.3054 -24.2836 -24.2836
    -1.7321  -1.6422  -1.5044  -1.4100   5.2647   5.4423   5.5625   5.6531
     6.7423   6.8524   7.1713   7.5366   7.6551   7.8013   8.7806   9.0743
    10.0707  10.1476  12.6116  13.0158  13.3572  13.4756  13.7506

          k =-0.5065-0.8773 0.0000 (  8086 PWs)   bands (ev):

   -50.1683 -50.1683 -24.5426 -24.5426 -24.2836 -24.2835 -24.2270 -24.2270
    -1.6994  -1.5772  -1.5531  -1.4453   4.5451   4.8830   5.5305   5.7772
     6.1037   6.8167   7.3990   7.4878   8.5049   8.7797   9.5740   9.7968
     9.8691  10.0028  12.9583  13.0077  13.3388  13.6319  14.1628

          k =-0.5065-0.8773 0.0653 (  8090 PWs)   bands (ev):

   -50.1683 -50.1683 -24.5426 -24.5426 -24.2836 -24.2835 -24.2270 -24.2270
    -1.6889  -1.6164  -1.5160  -1.4537   4.5882   4.8266   5.5428   5.6807
     6.2769   6.7444   7.4112   7.4740   8.5367   8.7288   9.6067   9.7641
     9.8945   9.9873  12.9642  12.9989  13.3879  13.5948  14.2624

          k =-0.5065-0.8773-0.1306 (  8116 PWs)   bands (ev):

   -50.1683 -50.1683 -24.5426 -24.5426 -24.2836 -24.2835 -24.2270 -24.2270
    -1.6594  -1.6592  -1.4782  -1.4782   4.7006   4.7008   5.5865   5.5867
     6.5441   6.5445   7.4417   7.4418   8.6234   8.6236   9.6853   9.6855
     9.9455   9.9456  12.9800  12.9801  13.4974  13.4975  14.5412

     the Fermi energy is    11.8824 ev

!    total energy              =    -993.56998094 Ry
     total all-electron energy =    -19390.230403 Ry
     estimated scf accuracy    <          5.6E-10 Ry
     smearing contrib. (-TS)   =      -0.00000000 Ry
     internal energy E=F+TS    =    -993.56998094 Ry

     The total energy is F=E-TS. E is the sum of the following terms:
     one-electron contribution =    -157.59173624 Ry
     hartree contribution      =     105.94135512 Ry
     xc contribution           =     -59.51347867 Ry
     ewald contribution        =    -242.95502182 Ry
     DFT-D3 Dispersion         =      -0.17716558 Ry
     one-center paw contrib.   =    -639.27393375 Ry

     convergence has been achieved in  15 iterations

     Forces acting on atoms (cartesian axes, Ry/au):

     atom    1 type  1   force =     0.00000105   -0.00000046    0.00001041
     atom    2 type  1   force =    -0.00000027    0.00000061   -0.00001187
     atom    3 type  2   force =     0.00000010   -0.00000023   -0.00000504
     atom    4 type  2   force =    -0.00000039    0.00000063    0.00000483
     atom    5 type  2   force =    -0.00000073    0.00000011   -0.00000154
     atom    6 type  2   force =     0.00000024   -0.00000067    0.00000321
     The non-local contrib.  to forces
     atom    1 type  1   force =    -0.00000029    0.00000013   -0.00000441
     atom    2 type  1   force =     0.00000016   -0.00000001    0.00000515
     atom    3 type  2   force =    -0.00000026   -0.00000048    0.26153472
     atom    4 type  2   force =     0.00000019    0.00000074   -0.26153398
     atom    5 type  2   force =    -0.00000080   -0.00000007    0.26152884
     atom    6 type  2   force =     0.00000055   -0.00000039   -0.26152890
     The ionic contribution  to forces
     atom    1 type  1   force =    -0.00000270    0.00000307    0.00992584
     atom    2 type  1   force =     0.00000644   -0.00000186   -0.00993769
     atom    3 type  2   force =     0.00001303    0.00000386  -14.01229354
     atom    4 type  2   force =    -0.00001399   -0.00000083   14.01231708
     atom    5 type  2   force =     0.00001628   -0.00000105  -14.00404465
     atom    6 type  2   force =    -0.00001906   -0.00000319   14.00403297
     The local contribution  to forces
     atom    1 type  1   force =     0.00000413   -0.00000315   -0.00991630
     atom    2 type  1   force =    -0.00000650    0.00000238    0.00992712
     atom    3 type  2   force =    -0.00001277   -0.00000343   13.75280070
     atom    4 type  2   force =     0.00001312    0.00000053  -13.75283168
     atom    5 type  2   force =    -0.00001640    0.00000123   13.74456401
     atom    6 type  2   force =     0.00001862    0.00000285  -13.74454413
     The core correction contribution to forces
     atom    1 type  1   force =     0.00000002   -0.00000000    0.00000015
     atom    2 type  1   force =    -0.00000000    0.00000000   -0.00000019
     atom    3 type  2   force =     0.00000000    0.00000001   -0.00196566
     atom    4 type  2   force =    -0.00000001   -0.00000002    0.00196557
     atom    5 type  2   force =     0.00000001    0.00000000   -0.00196547
     atom    6 type  2   force =    -0.00000001    0.00000001    0.00196554
     The Hubbard contrib.    to forces
     atom    1 type  1   force =     0.00000000    0.00000000    0.00000000
     atom    2 type  1   force =     0.00000000    0.00000000    0.00000000
     atom    3 type  2   force =     0.00000000    0.00000000    0.00000000
     atom    4 type  2   force =     0.00000000    0.00000000    0.00000000
     atom    5 type  2   force =     0.00000000    0.00000000    0.00000000
     atom    6 type  2   force =     0.00000000    0.00000000    0.00000000
     The SCF correction term to forces
     atom    1 type  1   force =    -0.00000016   -0.00000050    0.00000677
     atom    2 type  1   force =    -0.00000043    0.00000008   -0.00000791
     atom    3 type  2   force =     0.00000004   -0.00000019    0.00003368
     atom    4 type  2   force =     0.00000024    0.00000021   -0.00002708
     atom    5 type  2   force =     0.00000013   -0.00000002    0.00003178
     atom    6 type  2   force =     0.00000006    0.00000004   -0.00003833

     DFT-D3 dispersion contribution to forces:
     atom    1 type  1   force =     0.00000000   -0.00000000   -0.00000164
     atom    2 type  1   force =    -0.00000000    0.00000000    0.00000164
     atom    3 type  2   force =     0.00000000   -0.00000000   -0.00011493
     atom    4 type  2   force =    -0.00000000    0.00000000    0.00011492
     atom    5 type  2   force =    -0.00000000    0.00000000   -0.00011607
     atom    6 type  2   force =     0.00000000   -0.00000000    0.00011607

     Total force =     0.000018     Total SCF correction =     0.000067
     SCF correction compared to forces is large: reduce conv_thr to get better values


     Computing stress (Cartesian axis) and pressure

          total   stress  (Ry/bohr**3)                   (kbar)     P=       -0.25
  -0.00000183  -0.00000000  -0.00000000           -0.27       -0.00       -0.00
  -0.00000000  -0.00000183   0.00000000           -0.00       -0.27        0.00
  -0.00000000   0.00000000  -0.00000135           -0.00        0.00       -0.20


     Writing all to output data dir ./outdir/pwscf.save/
 
     init_run     :      1.14s CPU      1.23s WALL (       2 calls)
     electrons    :    258.10s CPU    264.86s WALL (      15 calls)
     update_pot   :      3.01s CPU      3.03s WALL (      13 calls)
     forces       :      4.62s CPU      4.65s WALL (      15 calls)
     force_dftd3  :      1.75s CPU      1.76s WALL (      15 calls)
     stress       :     14.09s CPU     14.30s WALL (      15 calls)
     stres_dftd3  :      1.73s CPU      1.73s WALL (      15 calls)

     Called by init_run:
     wfcinit      :      0.59s CPU      0.64s WALL (       2 calls)
     potinit      :      0.19s CPU      0.21s WALL (       2 calls)
     hinit0       :      0.26s CPU      0.27s WALL (       2 calls)

     Called by electrons:
     c_bands      :    200.75s CPU    206.09s WALL (     266 calls)
     sum_band     :     36.30s CPU     37.33s WALL (     266 calls)
     v_of_rho     :      1.02s CPU      1.03s WALL (     280 calls)
     newd         :      6.65s CPU      6.71s WALL (     280 calls)
     PAW_pot      :     13.38s CPU     13.49s WALL (     293 calls)
     mix_rho      :      0.26s CPU      0.27s WALL (     266 calls)
     energy_dftd3 :      1.08s CPU      1.08s WALL (      15 calls)

     Called by c_bands:
     init_us_2    :      1.97s CPU      2.06s WALL (   20772 calls)
     init_us_2:cp :      1.93s CPU      2.02s WALL (   20772 calls)
     cegterg      :    188.12s CPU    192.93s WALL (    9576 calls)

     Called by *egterg:
     cdiaghg      :     38.83s CPU     39.45s WALL (   39080 calls)
     h_psi        :    132.48s CPU    136.36s WALL (   39656 calls)
     s_psi        :      2.78s CPU      2.86s WALL (   39656 calls)
     g_psi        :      0.29s CPU      0.29s WALL (   30008 calls)

     Called by h_psi:
     h_psi:calbec :      6.01s CPU      6.19s WALL (   39656 calls)
     vloc_psi     :    122.44s CPU    126.02s WALL (   39656 calls)
     add_vuspsi   :      3.38s CPU      3.49s WALL (   39656 calls)

     General routines
     calbec       :      8.64s CPU      8.92s WALL (   52400 calls)
     fft          :      1.01s CPU      1.03s WALL (    3999 calls)
     ffts         :      0.07s CPU      0.07s WALL (     546 calls)
     fftw         :    136.37s CPU    140.42s WALL ( 1798138 calls)
     interpolate  :      0.14s CPU      0.14s WALL (     280 calls)
 
     Parallel routines
 
     PWSCF        :   4m42.50s CPU   4m50.10s WALL

 
   This run was terminated on:   6:33: 1  19Jul2023            

=------------------------------------------------------------------------------=
   JOB DONE.
=------------------------------------------------------------------------------=
