
     Program PWSCF v.7.3 starts on 20Apr2024 at  2:28:14 

     This program is part of the open-source Quantum ESPRESSO suite
     for quantum simulation of materials; please cite
         "P. Giannozzi et al., J. Phys.:Condens. Matter 21 395502 (2009);
         "P. Giannozzi et al., J. Phys.:Condens. Matter 29 465901 (2017);
         "P. Giannozzi et al., J. Chem. Phys. 152 154105 (2020);
          URL http://www.quantum-espresso.org", 
     in publications or presentations arising from this work. More details at
     http://www.quantum-espresso.org/quote

     Parallel version (MPI & OpenMP), running on      36 processor cores
     Number of MPI processes:                36
     Threads/MPI process:                     1

     MPI processes distributed on     1 nodes
     559785 MiB available memory on the printing compute node when the environment starts
 
     Waiting for input...
     Reading input from standard input
Warning: card &CELL ignored
Warning: card / ignored

     Current dimensions of program PWSCF are:
     Max number of different atomic species (ntypx) = 10
     Max number of k-points (npk) =  40000
     Max angular momentum in pseudopotentials (lmaxx) =  4
     file Mo.pbe-spn-kjpaw_psl.1.0.0.UPF: wavefunction(s)  4S 4D renormalized
     file S.pbe-n-kjpaw_psl.1.0.0.UPF: wavefunction(s)  3S 3P renormalized
     file Pt.pbe-spfn-kjpaw_psl.1.0.0.UPF: wavefunction(s)  5P 4F renormalized
     file Pd.pbe-spn-kjpaw_psl.1.0.0.UPF: wavefunction(s)  4S 5S 4D renormalized
 
     R & G space division:  proc/nbgrp/npool/nimage =      36
     Subspace diagonalization in iterative solution of the eigenvalue problem:
     one sub-group per band group will be used
     scalapack distributed-memory algorithm (size of sub-group:  6*  6 procs)

 
     Parallelization info
     --------------------
     sticks:   dense  smooth     PW     G-vecs:    dense   smooth      PW
     Min         585     334     89               198743    85850   11735
     Max         586     335     90               198750    85861   11748
     Sum       21073   12049   3205              7154885  3090769  422587
 
     Using Slab Decomposition
 


     bravais-lattice index     =            0
     lattice parameter (alat)  =      23.8199  a.u.
     unit-cell volume          =   33861.0370 (a.u.)^3
     number of atoms/cell      =          195
     number of atomic types    =            4
     number of electrons       =      1746.00
     number of Kohn-Sham states=         1048
     kinetic-energy cutoff     =      77.0000  Ry
     charge density cutoff     =     539.0000  Ry
     scf convergence threshold =      1.0E-06
     mixing beta               =       0.2000
     number of iterations used =            8  plain     mixing
     energy convergence thresh.=      1.0E-04
     force convergence thresh. =      1.0E-03
     Exchange-correlation= SLA  PW   PBX  PBC
                           (   1   4   3   4   0   0   0)
     nstep                     =         1000


     Effective Screening Medium Method
     =================================
     Boundary Conditions: Vacuum-Slab-Vacuum
     total charge in unit cell        =   0.0000
     grid points for fit at edges     =        4 
 

     celldm(1)=  23.819920  celldm(2)=   0.000000  celldm(3)=   0.000000
     celldm(4)=   0.000000  celldm(5)=   0.000000  celldm(6)=   0.000000

     crystal axes: (cart. coord. in units of alat)
               a(1) = (   1.000000   0.000000   0.000000 )  
               a(2) = (  -0.499999   0.866026   0.000000 )  
               a(3) = (   0.000000   0.000000   2.893000 )  

     reciprocal axes: (cart. coord. in units 2 pi/alat)
               b(1) = (  1.000000  0.577349  0.000000 )  
               b(2) = (  0.000000  1.154700  0.000000 )  
               b(3) = (  0.000000  0.000000  0.345662 )  


     PseudoPot. # 1 for Mo read from file:
     ./pseudo/Mo.pbe-spn-kjpaw_psl.1.0.0.UPF
     MD5 check sum: 317bf72632116215fd98f72de1686f13
     Pseudo is Projector augmented-wave + core cor, Zval = 14.0
     Generated using 'atomic' code by A. Dal Corso  v.7.2
     Shape of augmentation charge: PSQ
     Using radial grid of 1229 points,  6 beta functions with: 
                l(1) =   0
                l(2) =   0
                l(3) =   1
                l(4) =   1
                l(5) =   2
                l(6) =   2
     Q(r) pseudized with 0 coefficients 


     PseudoPot. # 2 for S  read from file:
     ./pseudo/S.pbe-n-kjpaw_psl.1.0.0.UPF
     MD5 check sum: 8b7b5302570d38d5e87fed6a1065abda
     Pseudo is Projector augmented-wave + core cor, Zval =  6.0
     Generated using 'atomic' code by A. Dal Corso  v.7.2
     Shape of augmentation charge: PSQ
     Using radial grid of 1151 points,  6 beta functions with: 
                l(1) =   0
                l(2) =   0
                l(3) =   1
                l(4) =   1
                l(5) =   2
                l(6) =   2
     Q(r) pseudized with 0 coefficients 


     PseudoPot. # 3 for Pt read from file:
     ./pseudo/Pt.pbe-spfn-kjpaw_psl.1.0.0.UPF
     MD5 check sum: 620096ebf4e6ebacc94de60fd67efcb5
     Pseudo is Projector augmented-wave + core cor, Zval = 32.0
     Generated using 'atomic' code by A. Dal Corso  v.7.2
     Shape of augmentation charge: PSQ
     Using radial grid of 1277 points,  8 beta functions with: 
                l(1) =   0
                l(2) =   0
                l(3) =   1
                l(4) =   1
                l(5) =   2
                l(6) =   2
                l(7) =   3
                l(8) =   3
     Q(r) pseudized with 0 coefficients 


     PseudoPot. # 4 for Pd read from file:
     ./pseudo/Pd.pbe-spn-kjpaw_psl.1.0.0.UPF
     MD5 check sum: a60571a671f2502b8a6a4569d20a6edb
     Pseudo is Projector augmented-wave + core cor, Zval = 18.0
     Generated using 'atomic' code by A. Dal Corso  v.7.2
     Shape of augmentation charge: PSQ
     Using radial grid of 1235 points,  6 beta functions with: 
                l(1) =   0
                l(2) =   0
                l(3) =   1
                l(4) =   1
                l(5) =   2
                l(6) =   2
     Q(r) pseudized with 0 coefficients 


     atomic species   valence    mass     pseudopotential
     Mo               14.00    95.95000     Mo( 1.00)
     S                 6.00    32.06000     S ( 1.00)
     Pt               32.00   195.08400     Pt( 1.00)
     Pd               18.00   106.42000     Pd( 1.00)

     No symmetry found



   Cartesian axes

     site n.     atom                  positions (alat units)
         1        Mo     tau(   1) = (   0.0000010   0.1443372  -0.7272732  )
         2        Mo     tau(   2) = (   0.1249995   0.0721706  -0.2424038  )
         3        S      tau(   3) = (   0.0000015   0.1443386  -0.3667807  )
         4        S      tau(   4) = (   0.1250010   0.0721682  -0.6030489  )
         5        S      tau(   5) = (   0.1250010   0.0721683  -0.8514963  )
         6        S      tau(   6) = (   0.0000015   0.1443389  -0.1180260  )
         7        Mo     tau(   7) = (   0.0000165   0.1443639   0.2424458  )
         8        Mo     tau(   8) = (   0.1250235   0.0717246   0.7263406  )
         9        S      tau(   9) = (   0.0005369   0.1448386   0.6015218  )
        10        S      tau(  10) = (   0.1249954   0.0721618   0.3668135  )
        11        S      tau(  11) = (   0.1250195   0.0721779   0.1180823  )
        12        S      tau(  12) = (  -0.0003270   0.1431025   0.8512079  )
        13        Mo     tau(  13) = (  -0.1249989   0.3608437  -0.7272732  )
        14        Mo     tau(  14) = (   0.0000030   0.2886752  -0.2424042  )
        15        S      tau(  15) = (  -0.1249977   0.3608450  -0.3667802  )
        16        S      tau(  16) = (   0.0000012   0.2886747  -0.6030489  )
        17        S      tau(  17) = (   0.0000012   0.2886748  -0.8514963  )
        18        S      tau(  18) = (  -0.1249977   0.3608454  -0.1180274  )
        19        Mo     tau(  19) = (  -0.1249838   0.3608611   0.2424564  )
        20        Mo     tau(  20) = (  -0.0010112   0.2875499   0.7275042  )
        21        S      tau(  21) = (  -0.1249589   0.3614723   0.6028911  )
        22        S      tau(  22) = (   0.0000229   0.2887164   0.3668462  )
        23        S      tau(  23) = (   0.0000319   0.2887039   0.1180849  )
        24        S      tau(  24) = (  -0.1254179   0.3601432   0.8519775  )
        25        Mo     tau(  25) = (  -0.2499987   0.5773502  -0.7272732  )
        26        Mo     tau(  26) = (  -0.1249977   0.5051839  -0.2424055  )
        27        S      tau(  27) = (  -0.2499981   0.5773518  -0.3667809  )
        28        S      tau(  28) = (  -0.1249986   0.5051812  -0.6030489  )
        29        S      tau(  29) = (  -0.1249986   0.5051813  -0.8514963  )
        30        S      tau(  30) = (  -0.2499979   0.5773512  -0.1180266  )
        31        Mo     tau(  31) = (  -0.2499892   0.5773423   0.2424725  )
        32        Mo     tau(  32) = (  -0.1256606   0.5052028   0.7286154  )
        33        S      tau(  33) = (  -0.2498226   0.5768374   0.6031862  )
        34        S      tau(  34) = (  -0.1249521   0.5051863   0.3668519  )
        35        S      tau(  35) = (  -0.1249975   0.5051799   0.1180722  )
        36        S      tau(  36) = (  -0.2499767   0.5778459   0.8528940  )
        37        Mo     tau(  37) = (  -0.3749985   0.7938567  -0.7272732  )
        38        Mo     tau(  38) = (  -0.2500001   0.7216874  -0.2424031  )
        39        S      tau(  39) = (  -0.3749980   0.7938584  -0.3667800  )
        40        S      tau(  40) = (  -0.2499984   0.7216877  -0.6030489  )
        41        S      tau(  41) = (  -0.2499984   0.7216878  -0.8514963  )
        42        S      tau(  42) = (  -0.3749982   0.7938585  -0.1180264  )
        43        Mo     tau(  43) = (  -0.3749918   0.7938447   0.2424454  )
        44        Mo     tau(  44) = (  -0.2499337   0.7214685   0.7273252  )
        45        S      tau(  45) = (  -0.3749119   0.7930997   0.6024017  )
        46        S      tau(  46) = (  -0.2499835   0.7216794   0.3668152  )
        47        S      tau(  47) = (  -0.2499982   0.7216718   0.1180690  )
        48        S      tau(  48) = (  -0.3745581   0.7945239   0.8516564  )
        49        Mo     tau(  49) = (   0.2500010   0.1443372  -0.7272732  )
        50        Mo     tau(  50) = (   0.3750034   0.0721723  -0.2424032  )
        51        S      tau(  51) = (   0.2500017   0.1443391  -0.3667788  )
        52        S      tau(  52) = (   0.3750010   0.0721682  -0.6030489  )
        53        S      tau(  53) = (   0.3750010   0.0721683  -0.8514963  )
        54        S      tau(  54) = (   0.2500016   0.1443391  -0.1180271  )
        55        Mo     tau(  55) = (   0.2500049   0.1443558   0.2424800  )
        56        Mo     tau(  56) = (   0.3750695   0.0717200   0.7264262  )
        57        S      tau(  57) = (   0.2500704   0.1440362   0.6019475  )
        58        S      tau(  58) = (   0.3750099   0.0721483   0.3668106  )
        59        S      tau(  59) = (   0.3749948   0.0721851   0.1180824  )
        60        S      tau(  60) = (   0.2500131   0.1413211   0.8516135  )
        61        Mo     tau(  61) = (   0.1250012   0.3608437  -0.7272732  )
        62        Mo     tau(  62) = (   0.2500029   0.2886782  -0.2424031  )
        63        S      tau(  63) = (   0.1250024   0.3608455  -0.3667794  )
        64        S      tau(  64) = (   0.2500012   0.2886747  -0.6030489  )
        65        S      tau(  65) = (   0.2500012   0.2886748  -0.8514963  )
        66        S      tau(  66) = (   0.1250021   0.3608455  -0.1180270  )
        67        Mo     tau(  67) = (   0.1250220   0.3608739   0.2424909  )
        68        Mo     tau(  68) = (   0.2500516   0.2862417   0.7284634  )
        69        S      tau(  69) = (   0.1251493   0.3619302   0.6061672  )
        70        S      tau(  70) = (   0.2500021   0.2887137   0.3669053  )
        71        S      tau(  71) = (   0.2500084   0.2886924   0.1181099  )
        72        S      tau(  72) = (   0.1241634   0.3514816   0.8558063  )
        73        Mo     tau(  73) = (   0.0000014   0.5773502  -0.7272732  )
        74        Mo     tau(  74) = (   0.1250045   0.5051840  -0.2424036  )
        75        S      tau(  75) = (   0.0000030   0.5773520  -0.3667799  )
        76        S      tau(  76) = (   0.1250014   0.5051812  -0.6030489  )
        77        S      tau(  77) = (   0.1250014   0.5051813  -0.8514963  )
        78        S      tau(  78) = (   0.0000026   0.5773517  -0.1180274  )
        79        Mo     tau(  79) = (   0.0000298   0.5773239   0.2424318  )
        80        Mo     tau(  80) = (   0.1235562   0.5053489   0.7306566  )
        81        S      tau(  81) = (   0.0009343   0.5763644   0.6059345  )
        82        S      tau(  82) = (   0.1250078   0.5051967   0.3669171  )
        83        S      tau(  83) = (   0.1250403   0.5051743   0.1180834  )
        84        S      tau(  84) = (  -0.0065880   0.5806588   0.8588888  )
        85        Mo     tau(  85) = (  -0.1249984   0.7938567  -0.7272732  )
        86        Mo     tau(  86) = (   0.0000069   0.7216896  -0.2424039  )
        87        S      tau(  87) = (  -0.1249975   0.7938582  -0.3667782  )
        88        S      tau(  88) = (   0.0000016   0.7216877  -0.6030489  )
        89        S      tau(  89) = (   0.0000016   0.7216878  -0.8514963  )
        90        S      tau(  90) = (  -0.1249973   0.7938582  -0.1180279  )
        91        Mo     tau(  91) = (  -0.1249912   0.7938418   0.2424335  )
        92        Mo     tau(  92) = (  -0.0002856   0.7221962   0.7280430  )
        93        S      tau(  93) = (  -0.1248457   0.7930650   0.6025902  )
        94        S      tau(  94) = (  -0.0000060   0.7216208   0.3667980  )
        95        S      tau(  95) = (   0.0000209   0.7216773   0.1180639  )
        96        S      tau(  96) = (  -0.1254320   0.7945446   0.8518225  )
        97        Mo     tau(  97) = (   0.5000010   0.1443372  -0.7272732  )
        98        Mo     tau(  98) = (   0.6250001   0.0721662  -0.2424040  )
        99        S      tau(  99) = (   0.5000017   0.1443386  -0.3667801  )
       100        S      tau( 100) = (   0.6250010   0.0721682  -0.6030489  )
       101        S      tau( 101) = (   0.6250010   0.0721683  -0.8514963  )
       102        S      tau( 102) = (   0.5000020   0.1443388  -0.1180261  )
       103        Mo     tau( 103) = (   0.4999955   0.1443611   0.2424567  )
       104        Mo     tau( 104) = (   0.6246463   0.0728119   0.7256413  )
       105        S      tau( 105) = (   0.4995556   0.1446831   0.6015045  )
       106        S      tau( 106) = (   0.6250311   0.0722157   0.3667721  )
       107        S      tau( 107) = (   0.6249808   0.0721636   0.1180639  )
       108        S      tau( 108) = (   0.5004658   0.1432308   0.8511310  )
       109        Mo     tau( 109) = (   0.3750012   0.3608437  -0.7272732  )
       110        Mo     tau( 110) = (   0.4999991   0.2886761  -0.2424038  )
       111        S      tau( 111) = (   0.3750012   0.3608452  -0.3667804  )
       112        S      tau( 112) = (   0.5000012   0.2886747  -0.6030489  )
       113        S      tau( 113) = (   0.5000012   0.2886748  -0.8514963  )
       114        S      tau( 114) = (   0.3750014   0.3608455  -0.1180261  )
       115        Mo     tau( 115) = (   0.3749911   0.3608734   0.2424983  )
       116        Mo     tau( 116) = (   0.5011245   0.2875246   0.7272611  )
       117        S      tau( 117) = (   0.3748808   0.3618865   0.6059605  )
       118        S      tau( 118) = (   0.4999884   0.2887132   0.3668588  )
       119        S      tau( 119) = (   0.4999854   0.2887028   0.1180988  )
       120        S      tau( 120) = (   0.3760770   0.3514537   0.8556312  )
       121        Mo     tau( 121) = (   0.2500014   0.5773502  -0.7272732  )
       122        Mo     tau( 122) = (   0.3749983   0.5051825  -0.2424043  )
       123        S      tau( 123) = (   0.2500017   0.5773519  -0.3667810  )
       124        S      tau( 124) = (   0.3750014   0.5051812  -0.6030489  )
       125        S      tau( 125) = (   0.3750014   0.5051813  -0.8514963  )
       126        S      tau( 126) = (   0.2500018   0.5773519  -0.1180256  )
       127        Mo     tau( 127) = (   0.2500077   0.5773382   0.2424971  )
       128        Mo     tau( 128) = (   0.3766993   0.5053238   0.7304272  )
       129        S      tau( 129) = (   0.2500029   0.5764488   0.6074621  )
       130        S      tau( 130) = (   0.3750022   0.5051973   0.3669226  )
       131        S      tau( 131) = (   0.3749796   0.5051747   0.1180897  )
       132        S      tau( 132) = (   0.2502086   0.5906803   0.8517598  )
       133        Mo     tau( 133) = (   0.1250016   0.7938567  -0.7272732  )
       134        Mo     tau( 134) = (   0.2499995   0.7216883  -0.2424036  )
       135        S      tau( 135) = (   0.1250024   0.7938578  -0.3667813  )
       136        S      tau( 136) = (   0.2500016   0.7216877  -0.6030489  )
       137        S      tau( 137) = (   0.2500016   0.7216878  -0.8514963  )
       138        S      tau( 138) = (   0.1250024   0.7938579  -0.1180253  )
       139        Mo     tau( 139) = (   0.1250030   0.7938506   0.2424689  )
       140        Mo     tau( 140) = (   0.2500869   0.7270239   0.7252501  )
       141        S      tau( 141) = (   0.1234110   0.7947569   0.6009716  )
       142        S      tau( 142) = (   0.2500041   0.7216753   0.3668766  )
       143        S      tau( 143) = (   0.2500092   0.7216778   0.1181077  )
       144        S      tau( 144) = (   0.1247568   0.7963642   0.8506634  )
       145        Mo     tau( 145) = (   0.7500010   0.1443372  -0.7272732  )
       146        Mo     tau( 146) = (   0.8750038   0.0721696  -0.2424038  )
       147        S      tau( 147) = (   0.7500016   0.1443382  -0.3667789  )
       148        S      tau( 148) = (   0.8750010   0.0721682  -0.6030489  )
       149        S      tau( 149) = (   0.8750010   0.0721683  -0.8514963  )
       150        S      tau( 150) = (   0.7500016   0.1443384  -0.1180279  )
       151        Mo     tau( 151) = (   0.7500056   0.1443690   0.2423906  )
       152        Mo     tau( 152) = (   0.8754762   0.0728639   0.7256129  )
       153        S      tau( 153) = (   0.7500308   0.1452012   0.6014640  )
       154        S      tau( 154) = (   0.8749862   0.0722263   0.3667681  )
       155        S      tau( 155) = (   0.8750254   0.0721591   0.1180621  )
       156        S      tau( 156) = (   0.7500441   0.1442691   0.8503988  )
       157        Mo     tau( 157) = (   0.6250012   0.3608437  -0.7272732  )
       158        Mo     tau( 158) = (   0.7500028   0.2886769  -0.2424041  )
       159        S      tau( 159) = (   0.6250015   0.3608451  -0.3667792  )
       160        S      tau( 160) = (   0.7500012   0.2886747  -0.6030489  )
       161        S      tau( 161) = (   0.7500012   0.2886748  -0.8514963  )
       162        S      tau( 162) = (   0.6250016   0.3608454  -0.1180280  )
       163        Mo     tau( 163) = (   0.6249990   0.3608612   0.2424707  )
       164        Mo     tau( 164) = (   0.7500746   0.2887820   0.7269162  )
       165        S      tau( 165) = (   0.6251905   0.3614018   0.6027475  )
       166        S      tau( 166) = (   0.7500151   0.2886908   0.3668035  )
       167        S      tau( 167) = (   0.7499992   0.2887185   0.1180565  )
       168        S      tau( 168) = (   0.6254399   0.3601689   0.8517611  )
       169        Mo     tau( 169) = (   0.5000014   0.5773502  -0.7272732  )
       170        Mo     tau( 170) = (   0.6250029   0.5051841  -0.2424047  )
       171        S      tau( 171) = (   0.5000014   0.5773518  -0.3667794  )
       172        S      tau( 172) = (   0.6250014   0.5051812  -0.6030489  )
       173        S      tau( 173) = (   0.6250014   0.5051813  -0.8514963  )
       174        S      tau( 174) = (   0.5000016   0.5773516  -0.1180277  )
       175        Mo     tau( 175) = (   0.4999861   0.5773259   0.2424414  )
       176        Mo     tau( 176) = (   0.6258514   0.5052144   0.7284022  )
       177        S      tau( 177) = (   0.4992455   0.5763364   0.6056359  )
       178        S      tau( 178) = (   0.6249791   0.5051944   0.3668559  )
       179        S      tau( 179) = (   0.6250105   0.5051778   0.1180820  )
       180        S      tau( 180) = (   0.5069392   0.5807955   0.8586037  )
       181        Mo     tau( 181) = (   0.3750016   0.7938567  -0.7272732  )
       182        Mo     tau( 182) = (   0.5000025   0.7216901  -0.2424039  )
       183        S      tau( 183) = (   0.3750019   0.7938578  -0.3667793  )
       184        S      tau( 184) = (   0.5000016   0.7216877  -0.6030489  )
       185        S      tau( 185) = (   0.5000016   0.7216878  -0.8514963  )
       186        S      tau( 186) = (   0.3750020   0.7938579  -0.1180272  )
       187        Mo     tau( 187) = (   0.3750095   0.7938535   0.2424732  )
       188        Mo     tau( 188) = (   0.5004392   0.7222160   0.7277389  )
       189        S      tau( 189) = (   0.3766340   0.7948794   0.6008559  )
       190        S      tau( 190) = (   0.5000179   0.7216263   0.3668038  )
       191        S      tau( 191) = (   0.4999965   0.7216810   0.1180753  )
       192        S      tau( 192) = (   0.3755295   0.7963504   0.8505132  )
       193        Pt     tau( 193) = (   0.1371069   0.5032381   0.9573497  )
       194        Pt     tau( 194) = (   0.3635722   0.5033563   0.9571359  )
       195        Pd     tau( 195) = (   0.1370889   0.5032147   1.1477229  )

     --------------------------------------------
     DFT-D3 Dispersion Correction (3-body terms):
     --------------------------------------------
       Reference C6 values for interpolation: 

         atom   Coordination number   C6
         S          0.000           268.01
         S          0.995           261.99
         S          1.990           251.62
         Mo         0.000          1691.79
         Mo         1.942          1004.01
         Mo        11.056           674.22
         Pd         0.000          1217.01
         Pd         1.863           573.90
         Pd         5.710           531.75
         Pt         0.000           782.29
         Pt         1.919           692.72
         Pt         6.667           673.75

       Values used:

         atom   Coordination number  R0_AB[au]  C6      C8
         Mo        10.208            3.547    674.22  77634.20
         Mo        10.221            3.547    674.22  77634.20
         S          3.858            3.128    251.62  12327.25
         S          3.859            3.128    251.62  12327.25
         S          3.758            3.128    251.62  12327.25
         S          3.859            3.128    251.62  12327.25
         Mo        10.220            3.547    674.22  77634.20
         Mo        10.265            3.547    674.22  77634.20
         S          3.854            3.128    251.62  12327.25
         S          3.861            3.128    251.62  12327.25
         S          3.859            3.128    251.62  12327.25
         S          3.824            3.128    251.62  12327.25
         Mo        10.208            3.547    674.22  77634.20
         Mo        10.221            3.547    674.22  77634.20
         S          3.858            3.128    251.62  12327.25
         S          3.859            3.128    251.62  12327.25
         S          3.758            3.128    251.62  12327.25
         S          3.859            3.128    251.62  12327.25
         Mo        10.221            3.547    674.22  77634.20
         Mo        10.226            3.547    674.22  77634.20
         S          3.865            3.128    251.62  12327.25
         S          3.857            3.128    251.62  12327.25
         S          3.859            3.128    251.62  12327.25
         S          3.769            3.128    251.62  12327.25
         Mo        10.208            3.547    674.22  77634.20
         Mo        10.221            3.547    674.22  77634.20
         S          3.858            3.128    251.62  12327.25
         S          3.859            3.128    251.62  12327.25
         S          3.758            3.128    251.62  12327.25
         S          3.859            3.128    251.62  12327.25
         Mo        10.221            3.547    674.22  77634.20
         Mo        10.240            3.547    674.22  77634.20
         S          3.856            3.128    251.62  12327.25
         S          3.856            3.128    251.62  12327.25
         S          3.859            3.128    251.62  12327.25
         S          3.825            3.128    251.62  12327.25
         Mo        10.208            3.547    674.22  77634.20
         Mo        10.221            3.547    674.22  77634.20
         S          3.858            3.128    251.62  12327.25
         S          3.859            3.128    251.62  12327.25
         S          3.758            3.128    251.62  12327.25
         S          3.859            3.128    251.62  12327.25
         Mo        10.220            3.547    674.22  77634.20
         Mo        10.248            3.547    674.22  77634.20
         S          3.856            3.128    251.62  12327.25
         S          3.859            3.128    251.62  12327.25
         S          3.859            3.128    251.62  12327.25
         S          3.817            3.128    251.62  12327.25
         Mo        10.208            3.547    674.22  77634.20
         Mo        10.221            3.547    674.22  77634.20
         S          3.858            3.128    251.62  12327.25
         S          3.859            3.128    251.62  12327.25
         S          3.758            3.128    251.62  12327.25
         S          3.859            3.128    251.62  12327.25
         Mo        10.220            3.547    674.22  77634.20
         Mo        10.264            3.547    674.22  77634.20
         S          3.844            3.128    251.62  12327.25
         S          3.861            3.128    251.62  12327.25
         S          3.859            3.128    251.62  12327.25
         S          3.845            3.128    251.62  12327.25
         Mo        10.208            3.547    674.22  77634.20
         Mo        10.221            3.547    674.22  77634.20
         S          3.858            3.128    251.62  12327.25
         S          3.859            3.128    251.62  12327.25
         S          3.758            3.128    251.62  12327.25
         S          3.859            3.128    251.62  12327.25
         Mo        10.222            3.547    674.22  77634.20
         Mo        10.162            3.547    674.22  77634.20
         S          3.858            3.128    251.62  12327.25
         S          3.852            3.128    251.62  12327.25
         S          3.859            3.128    251.62  12327.25
         S          4.681            3.128    251.62  12327.25
         Mo        10.208            3.547    674.21  77634.20
         Mo        10.221            3.547    674.22  77634.20
         S          3.858            3.128    251.62  12327.25
         S          3.859            3.128    251.62  12327.25
         S          3.758            3.128    251.62  12327.25
         S          3.859            3.128    251.62  12327.25
         Mo        10.221            3.547    674.22  77634.20
         Mo        10.840            3.547    674.22  77634.20
         S          3.845            3.128    251.62  12327.25
         S          3.850            3.128    251.62  12327.25
         S          3.859            3.128    251.62  12327.25
         S          4.634            3.128    251.62  12327.25
         Mo        10.208            3.547    674.22  77634.20
         Mo        10.221            3.547    674.21  77634.20
         S          3.858            3.128    251.62  12327.25
         S          3.859            3.128    251.62  12327.25
         S          3.758            3.128    251.62  12327.25
         S          3.859            3.128    251.62  12327.25
         Mo        10.220            3.547    674.22  77634.20
         Mo        10.227            3.547    674.22  77634.20
         S          3.858            3.128    251.62  12327.25
         S          3.859            3.128    251.62  12327.25
         S          3.859            3.128    251.62  12327.25
         S          3.813            3.128    251.62  12327.25
         Mo        10.208            3.547    674.22  77634.20
         Mo        10.221            3.547    674.22  77634.20
         S          3.858            3.128    251.62  12327.25
         S          3.859            3.128    251.62  12327.25
         S          3.758            3.128    251.62  12327.25
         S          3.859            3.128    251.62  12327.25
         Mo        10.220            3.547    674.22  77634.20
         Mo        10.291            3.547    674.22  77634.20
         S          3.855            3.128    251.62  12327.25
         S          3.864            3.128    251.62  12327.25
         S          3.859            3.128    251.62  12327.25
         S          3.824            3.128    251.62  12327.25
         Mo        10.208            3.547    674.22  77634.20
         Mo        10.221            3.547    674.22  77634.20
         S          3.858            3.128    251.62  12327.25
         S          3.859            3.128    251.62  12327.25
         S          3.758            3.128    251.62  12327.25
         S          3.859            3.128    251.62  12327.25
         Mo        10.222            3.547    674.22  77634.20
         Mo        10.225            3.547    674.22  77634.20
         S          3.856            3.128    251.62  12327.25
         S          3.857            3.128    251.62  12327.25
         S          3.859            3.128    251.62  12327.25
         S          4.678            3.128    251.62  12327.25
         Mo        10.208            3.547    674.22  77634.20
         Mo        10.221            3.547    674.22  77634.20
         S          3.858            3.128    251.62  12327.25
         S          3.859            3.128    251.62  12327.25
         S          3.758            3.128    251.62  12327.25
         S          3.859            3.128    251.62  12327.25
         Mo        10.222            3.547    674.22  77634.20
         Mo        10.839            3.547    674.22  77634.20
         S          3.873            3.128    251.62  12327.25
         S          3.850            3.128    251.62  12327.25
         S          3.859            3.128    251.62  12327.25
         S          5.682            3.128    251.62  12327.25
         Mo        10.208            3.547    674.21  77634.20
         Mo        10.221            3.547    674.22  77634.20
         S          3.858            3.128    251.62  12327.25
         S          3.859            3.128    251.62  12327.25
         S          3.758            3.128    251.62  12327.25
         S          3.859            3.128    251.62  12327.25
         Mo        10.220            3.547    674.22  77634.20
         Mo        10.170            3.547    674.22  77634.20
         S          3.838            3.128    251.62  12327.25
         S          3.855            3.128    251.62  12327.25
         S          3.859            3.128    251.62  12327.25
         S          3.839            3.128    251.62  12327.25
         Mo        10.208            3.547    674.21  77634.20
         Mo        10.221            3.547    674.22  77634.20
         S          3.858            3.128    251.62  12327.25
         S          3.859            3.128    251.62  12327.25
         S          3.758            3.128    251.62  12327.25
         S          3.859            3.128    251.62  12327.25
         Mo        10.220            3.547    674.22  77634.20
         Mo        10.292            3.547    674.22  77634.20
         S          3.857            3.128    251.62  12327.25
         S          3.864            3.128    251.62  12327.25
         S          3.859            3.128    251.62  12327.25
         S          3.796            3.128    251.62  12327.25
         Mo        10.208            3.547    674.22  77634.20
         Mo        10.220            3.547    674.22  77634.20
         S          3.858            3.128    251.62  12327.25
         S          3.859            3.128    251.62  12327.25
         S          3.758            3.128    251.62  12327.25
         S          3.859            3.128    251.62  12327.25
         Mo        10.221            3.547    674.22  77634.20
         Mo        10.259            3.547    674.22  77634.20
         S          3.864            3.128    251.62  12327.25
         S          3.861            3.128    251.62  12327.25
         S          3.859            3.128    251.62  12327.25
         S          3.771            3.128    251.62  12327.25
         Mo        10.208            3.547    674.22  77634.20
         Mo        10.221            3.547    674.22  77634.20
         S          3.858            3.128    251.62  12327.25
         S          3.859            3.128    251.62  12327.25
         S          3.758            3.128    251.62  12327.25
         S          3.859            3.128    251.62  12327.25
         Mo        10.221            3.547    674.22  77634.20
         Mo        10.240            3.547    674.22  77634.20
         S          3.842            3.128    251.62  12327.25
         S          3.856            3.128    251.62  12327.25
         S          3.859            3.128    251.62  12327.25
         S          4.635            3.128    251.62  12327.25
         Mo        10.208            3.547    674.22  77634.20
         Mo        10.221            3.547    674.22  77634.20
         S          3.858            3.128    251.62  12327.25
         S          3.859            3.128    251.62  12327.25
         S          3.758            3.128    251.62  12327.25
         S          3.859            3.128    251.62  12327.25
         Mo        10.220            3.547    674.22  77634.20
         Mo        10.227            3.547    674.22  77634.20
         S          3.837            3.128    251.62  12327.25
         S          3.859            3.128    251.62  12327.25
         S          3.859            3.128    251.62  12327.25
         S          3.842            3.128    251.62  12327.25
         Pt         5.544            3.168    673.75  70061.90
         Pt         4.605            3.168    673.75  70061.91
         Pd         1.031            3.168    670.75  61456.47

         Molecular C6 ( Ry / a.u.^6 ) =  14191672.60


     number of k points=     4  Gaussian smearing, width (Ry)=  0.0100
                       cart. coord. in units 2pi/alat
        k(    1) = (   0.0000000   0.0000000   0.0000000), wk =   0.5000000
        k(    2) = (   0.0000000  -0.5773499   0.0000000), wk =   0.5000000
        k(    3) = (  -0.5000000  -0.2886744   0.0000000), wk =   0.5000000
        k(    4) = (  -0.5000000  -0.8660242   0.0000000), wk =   0.5000000

     Dense  grid:  7154885 G-vectors     FFT dimensions: ( 180, 180, 512)

     Smooth grid:  3090769 G-vectors     FFT dimensions: ( 135, 135, 400)

     Estimated max dynamical RAM per process >       4.33 GB

     Estimated total dynamical RAM >     155.86 GB

     Atomic positions and unit cell read from directory:
     ./outdir/pwscf.save/
     Atomic positions from file used, from input discarded
 

     The initial density is read from file :
     ./outdir/pwscf.save/charge-density


     negative rho (up, down):  8.830E-04 0.000E+00
     Cannot read wfcs: file not found
     Starting wfcs are 1196 randomized atomic wfcs
     Checking if some PAW data can be deallocated... 

     total cpu time spent up to now is      181.9 secs

     Self-consistent Calculation

     iteration #  1     ecut=    77.00 Ry     beta= 0.20
     Davidson diagonalization with overlap
     c_bands:  2 eigenvalues not converged
     c_bands: 13 eigenvalues not converged
     c_bands: 12 eigenvalues not converged
     c_bands: 11 eigenvalues not converged
     ethr =  1.00E-05,  avg # of iterations =120.0

     negative rho (up, down):  8.159E-04 0.000E+00

     total cpu time spent up to now is    11362.3 secs

     total energy              =  -35638.07019526 Ry
     estimated scf accuracy    <      91.69315581 Ry

     iteration #  2     ecut=    77.00 Ry     beta= 0.20
     Davidson diagonalization with overlap
     ethr =  5.25E-03,  avg # of iterations = 11.0

     negative rho (up, down):  7.940E-04 0.000E+00

     total cpu time spent up to now is    11852.1 secs

     total energy              =  -35640.46245394 Ry
     estimated scf accuracy    <     139.75579455 Ry

     iteration #  3     ecut=    77.00 Ry     beta= 0.20
     Davidson diagonalization with overlap
     ethr =  5.25E-03,  avg # of iterations = 11.8

     negative rho (up, down):  8.435E-04 0.000E+00

     total cpu time spent up to now is    12423.3 secs

     total energy              =  -35532.44323859 Ry
     estimated scf accuracy    <   16332.64479818 Ry

     iteration #  4     ecut=    77.00 Ry     beta= 0.20
     Davidson diagonalization with overlap
     ethr =  5.25E-03,  avg # of iterations =  1.8

     negative rho (up, down):  8.788E-04 0.000E+00

     total cpu time spent up to now is    12827.0 secs

     total energy              =  -35645.25036190 Ry
     estimated scf accuracy    <     289.38906270 Ry

     iteration #  5     ecut=    77.00 Ry     beta= 0.20
     Davidson diagonalization with overlap
     ethr =  5.25E-03,  avg # of iterations =  1.8

     negative rho (up, down):  9.068E-04 0.000E+00

     total cpu time spent up to now is    13220.9 secs

     total energy              =  -35642.99294805 Ry
     estimated scf accuracy    <     474.82487364 Ry

     iteration #  6     ecut=    77.00 Ry     beta= 0.20
     Davidson diagonalization with overlap
     ethr =  5.25E-03,  avg # of iterations =  1.0

     negative rho (up, down):  9.380E-04 0.000E+00

     total cpu time spent up to now is    13596.9 secs

     total energy              =  -35650.40028963 Ry
     estimated scf accuracy    <      57.06244365 Ry

     iteration #  7     ecut=    77.00 Ry     beta= 0.20
     Davidson diagonalization with overlap
     ethr =  3.27E-03,  avg # of iterations =  1.0

     negative rho (up, down):  6.644E-04 0.000E+00

     total cpu time spent up to now is    13972.5 secs

     total energy              =  -35632.76827116 Ry
     estimated scf accuracy    <      46.79056813 Ry

     iteration #  8     ecut=    77.00 Ry     beta= 0.20
     Davidson diagonalization with overlap
     ethr =  2.68E-03,  avg # of iterations = 22.0

     negative rho (up, down):  7.010E-04 0.000E+00

     total cpu time spent up to now is    15527.6 secs

     total energy              =  -35695.56564557 Ry
     estimated scf accuracy    <    1100.14265182 Ry

     iteration #  9     ecut=    77.00 Ry     beta= 0.20
     Davidson diagonalization with overlap
     ethr =  2.68E-03,  avg # of iterations =  1.0

     negative rho (up, down):  8.031E-04 0.000E+00

     total cpu time spent up to now is    15903.3 secs

     total energy              =  -35681.88527866 Ry
     estimated scf accuracy    <     911.32015372 Ry

     iteration # 10     ecut=    77.00 Ry     beta= 0.20
     Davidson diagonalization with overlap
     ethr =  2.68E-03,  avg # of iterations =  1.0

     negative rho (up, down):  9.305E-04 0.000E+00

     total cpu time spent up to now is    16278.4 secs

     total energy              =  -35666.88846042 Ry
     estimated scf accuracy    <     706.21199777 Ry

     iteration # 11     ecut=    77.00 Ry     beta= 0.20
     Davidson diagonalization with overlap
     ethr =  2.68E-03,  avg # of iterations =  1.0

     negative rho (up, down):  1.890E-03 0.000E+00

     total cpu time spent up to now is    16655.0 secs

     total energy              =  -35664.18311669 Ry
     estimated scf accuracy    <     351.15599847 Ry

     iteration # 12     ecut=    77.00 Ry     beta= 0.20
     Davidson diagonalization with overlap
     ethr =  2.68E-03,  avg # of iterations =  1.0

     negative rho (up, down):  1.391E-02 0.000E+00

     total cpu time spent up to now is    17030.1 secs

     total energy              =  -35643.93534833 Ry
     estimated scf accuracy    <     287.61976977 Ry

     iteration # 13     ecut=    77.00 Ry     beta= 0.20
     Davidson diagonalization with overlap
     ethr =  2.68E-03,  avg # of iterations = 12.2

     negative rho (up, down):  9.836E-03 0.000E+00

     total cpu time spent up to now is    17500.8 secs

     total energy              =  -35645.76222638 Ry
     estimated scf accuracy    <     137.22347245 Ry

     iteration # 14     ecut=    77.00 Ry     beta= 0.20
     Davidson diagonalization with overlap
     ethr =  2.68E-03,  avg # of iterations =  8.8

     negative rho (up, down):  7.069E-03 0.000E+00

     total cpu time spent up to now is    17934.5 secs

     total energy              =  -35648.66739337 Ry
     estimated scf accuracy    <      23.99827910 Ry

     iteration # 15     ecut=    77.00 Ry     beta= 0.20
     Davidson diagonalization with overlap
     ethr =  1.37E-03,  avg # of iterations = 13.2

     negative rho (up, down):  8.565E-03 0.000E+00

     total cpu time spent up to now is    18573.3 secs

     total energy              =  -35655.27980627 Ry
     estimated scf accuracy    <      10.74332355 Ry

     iteration # 16     ecut=    77.00 Ry     beta= 0.20
     Davidson diagonalization with overlap
     ethr =  6.15E-04,  avg # of iterations =  2.0

     negative rho (up, down):  1.159E-02 0.000E+00

     total cpu time spent up to now is    18988.5 secs

     total energy              =  -35654.30864402 Ry
     estimated scf accuracy    <       6.50051065 Ry

     iteration # 17     ecut=    77.00 Ry     beta= 0.20
     Davidson diagonalization with overlap
     ethr =  3.72E-04,  avg # of iterations = 17.0

     negative rho (up, down):  1.268E-02 0.000E+00

     total cpu time spent up to now is    19469.6 secs

     total energy              =  -35653.96754252 Ry
     estimated scf accuracy    <       5.40121599 Ry

     iteration # 18     ecut=    77.00 Ry     beta= 0.20
     Davidson diagonalization with overlap
     ethr =  3.09E-04,  avg # of iterations =  7.0

     negative rho (up, down):  1.146E-02 0.000E+00

     total cpu time spent up to now is    19905.2 secs

     total energy              =  -35654.35038649 Ry
     estimated scf accuracy    <       1.72805039 Ry

     iteration # 19     ecut=    77.00 Ry     beta= 0.20
     Davidson diagonalization with overlap
     c_bands:  3 eigenvalues not converged
     c_bands:  5 eigenvalues not converged
     ethr =  9.90E-05,  avg # of iterations = 21.5

     negative rho (up, down):  3.368E-03 0.000E+00

     total cpu time spent up to now is    20770.4 secs

     total energy              =  -35654.75424391 Ry
     estimated scf accuracy    <       2.82678564 Ry

     iteration # 20     ecut=    77.00 Ry     beta= 0.20
     Davidson diagonalization with overlap
     ethr =  9.90E-05,  avg # of iterations =  6.2

     negative rho (up, down):  3.338E-03 0.000E+00

     total cpu time spent up to now is    21198.3 secs

     total energy              =  -35654.20785947 Ry
     estimated scf accuracy    <      12.40290479 Ry

     iteration # 21     ecut=    77.00 Ry     beta= 0.20
     Davidson diagonalization with overlap
     ethr =  9.90E-05,  avg # of iterations =  4.2

     negative rho (up, down):  1.895E-03 0.000E+00

     total cpu time spent up to now is    21617.7 secs

     total energy              =  -35654.87406004 Ry
     estimated scf accuracy    <       0.41055685 Ry

     iteration # 22     ecut=    77.00 Ry     beta= 0.20
     Davidson diagonalization with overlap
     ethr =  2.35E-05,  avg # of iterations = 54.5

     negative rho (up, down):  1.284E-03 0.000E+00

     total cpu time spent up to now is    23361.8 secs

     total energy              =  -35654.96440567 Ry
     estimated scf accuracy    <       0.30492631 Ry

     iteration # 23     ecut=    77.00 Ry     beta= 0.20
     Davidson diagonalization with overlap
     ethr =  1.75E-05,  avg # of iterations =  1.8

     negative rho (up, down):  8.730E-04 0.000E+00

     total cpu time spent up to now is    23763.0 secs

     total energy              =  -35654.91626126 Ry
     estimated scf accuracy    <       0.22416256 Ry

     iteration # 24     ecut=    77.00 Ry     beta= 0.20
     Davidson diagonalization with overlap
     ethr =  1.28E-05,  avg # of iterations =  8.5

     negative rho (up, down):  8.175E-04 0.000E+00

     total cpu time spent up to now is    24201.6 secs

     total energy              =  -35654.91455227 Ry
     estimated scf accuracy    <       0.08427566 Ry

     iteration # 25     ecut=    77.00 Ry     beta= 0.20
     Davidson diagonalization with overlap
     c_bands:  5 eigenvalues not converged
     c_bands:  4 eigenvalues not converged
     c_bands:  1 eigenvalues not converged
     c_bands:  2 eigenvalues not converged
     ethr =  4.83E-06,  avg # of iterations = 85.0

     negative rho (up, down):  8.141E-04 0.000E+00

     total cpu time spent up to now is    26588.8 secs

     total energy              =  -35654.93758558 Ry
     estimated scf accuracy    <       0.11087266 Ry

     iteration # 26     ecut=    77.00 Ry     beta= 0.20
     Davidson diagonalization with overlap
     ethr =  4.83E-06,  avg # of iterations =  2.2

     negative rho (up, down):  8.166E-04 0.000E+00

     total cpu time spent up to now is    27001.2 secs

     total energy              =  -35654.94274394 Ry
     estimated scf accuracy    <       0.02307369 Ry

     iteration # 27     ecut=    77.00 Ry     beta= 0.20
     Davidson diagonalization with overlap
     c_bands:  2 eigenvalues not converged
     c_bands:  1 eigenvalues not converged
     ethr =  1.32E-06,  avg # of iterations = 28.5

     negative rho (up, down):  8.270E-04 0.000E+00

     total cpu time spent up to now is    27779.8 secs

     total energy              =  -35654.94205637 Ry
     estimated scf accuracy    <       0.01283558 Ry

     iteration # 28     ecut=    77.00 Ry     beta= 0.20
     Davidson diagonalization with overlap
     c_bands:  1 eigenvalues not converged
     c_bands:  1 eigenvalues not converged
     c_bands:  1 eigenvalues not converged
     ethr =  7.35E-07,  avg # of iterations = 33.2

     negative rho (up, down):  8.352E-04 0.000E+00

     total cpu time spent up to now is    28733.3 secs

     total energy              =  -35654.94583053 Ry
     estimated scf accuracy    <       0.00809901 Ry

     iteration # 29     ecut=    77.00 Ry     beta= 0.20
     Davidson diagonalization with overlap
     c_bands:  1 eigenvalues not converged
     c_bands:  1 eigenvalues not converged
     c_bands:  1 eigenvalues not converged
     ethr =  4.64E-07,  avg # of iterations = 16.2

     negative rho (up, down):  8.486E-04 0.000E+00

     total cpu time spent up to now is    29193.8 secs

     total energy              =  -35654.94609466 Ry
     estimated scf accuracy    <       0.00174155 Ry

     iteration # 30     ecut=    77.00 Ry     beta= 0.20
     Davidson diagonalization with overlap
     c_bands:  1 eigenvalues not converged
     c_bands:  1 eigenvalues not converged
     ethr =  9.97E-08,  avg # of iterations = 18.2

     negative rho (up, down):  8.518E-04 0.000E+00

     total cpu time spent up to now is    30066.1 secs

     total energy              =  -35654.94808517 Ry
     estimated scf accuracy    <       0.00101307 Ry

     iteration # 31     ecut=    77.00 Ry     beta= 0.20
     Davidson diagonalization with overlap
     c_bands:  1 eigenvalues not converged
     ethr =  5.80E-08,  avg # of iterations = 12.2

     negative rho (up, down):  8.654E-04 0.000E+00

     total cpu time spent up to now is    30517.9 secs

     total energy              =  -35654.94806895 Ry
     estimated scf accuracy    <       0.00041025 Ry

     iteration # 32     ecut=    77.00 Ry     beta= 0.20
     Davidson diagonalization with overlap
     c_bands:  1 eigenvalues not converged
     c_bands:  1 eigenvalues not converged
     ethr =  2.35E-08,  avg # of iterations = 16.0

     negative rho (up, down):  8.713E-04 0.000E+00

     total cpu time spent up to now is    31305.3 secs

     total energy              =  -35654.94833221 Ry
     estimated scf accuracy    <       0.00018711 Ry

     iteration # 33     ecut=    77.00 Ry     beta= 0.20
     Davidson diagonalization with overlap
     c_bands:  1 eigenvalues not converged
     c_bands:  1 eigenvalues not converged
     ethr =  1.07E-08,  avg # of iterations = 15.2

     negative rho (up, down):  8.752E-04 0.000E+00

     total cpu time spent up to now is    31858.2 secs

     total energy              =  -35654.94835760 Ry
     estimated scf accuracy    <       0.00009785 Ry

     iteration # 34     ecut=    77.00 Ry     beta= 0.20
     Davidson diagonalization with overlap
     c_bands:  1 eigenvalues not converged
     ethr =  5.60E-09,  avg # of iterations = 14.0

     negative rho (up, down):  8.773E-04 0.000E+00

     total cpu time spent up to now is    32606.1 secs

     total energy              =  -35654.94842000 Ry
     estimated scf accuracy    <       0.00002183 Ry

     iteration # 35     ecut=    77.00 Ry     beta= 0.20
     Davidson diagonalization with overlap
     c_bands:  1 eigenvalues not converged
     c_bands:  1 eigenvalues not converged
     ethr =  1.25E-09,  avg # of iterations = 19.2

     negative rho (up, down):  8.789E-04 0.000E+00

     total cpu time spent up to now is    33689.1 secs

     total energy              =  -35654.94844672 Ry
     estimated scf accuracy    <       0.00001793 Ry

     iteration # 36     ecut=    77.00 Ry     beta= 0.20
     Davidson diagonalization with overlap
     c_bands:  1 eigenvalues not converged
     ethr =  1.03E-09,  avg # of iterations =  9.8

     negative rho (up, down):  8.815E-04 0.000E+00

     total cpu time spent up to now is    34122.2 secs

     total energy              =  -35654.94844598 Ry
     estimated scf accuracy    <       0.00000646 Ry

     iteration # 37     ecut=    77.00 Ry     beta= 0.20
     Davidson diagonalization with overlap
     c_bands:  3 eigenvalues not converged
     ethr =  3.70E-10,  avg # of iterations = 16.2

     negative rho (up, down):  8.822E-04 0.000E+00

     total cpu time spent up to now is    35040.5 secs

     total energy              =  -35654.94845164 Ry
     estimated scf accuracy    <       0.00000529 Ry

     iteration # 38     ecut=    77.00 Ry     beta= 0.20
     Davidson diagonalization with overlap
     c_bands:  3 eigenvalues not converged
     ethr =  3.03E-10,  avg # of iterations =  6.0

     negative rho (up, down):  8.829E-04 0.000E+00

     total cpu time spent up to now is    35456.7 secs

     total energy              =  -35654.94845166 Ry
     estimated scf accuracy    <       0.00000104 Ry

     iteration # 39     ecut=    77.00 Ry     beta= 0.20
     Davidson diagonalization with overlap
     ethr =  5.98E-11,  avg # of iterations = 19.0

     negative rho (up, down):  8.830E-04 0.000E+00

     total cpu time spent up to now is    36703.2 secs

     total energy              =  -35654.94845341 Ry
     estimated scf accuracy    <       0.00000155 Ry

     iteration # 40     ecut=    77.00 Ry     beta= 0.20
     Davidson diagonalization with overlap
     ethr =  5.98E-11,  avg # of iterations =  1.0

     negative rho (up, down):  8.834E-04 0.000E+00

     total cpu time spent up to now is    37075.3 secs

     End of self-consistent calculation

          k = 0.0000 0.0000 0.0000 (386245 PWs)   bands (ev):

  -103.2333-102.9875 -87.5224 -71.6442 -71.6398 -71.5719 -71.5158 -71.5063
   -71.4905 -71.4855 -71.4296 -71.4281 -71.3360 -71.2731 -71.2529 -71.2434
   -71.2362 -66.6981 -66.6433 -66.6430 -66.6422 -66.6417 -66.6327 -66.6287
   -66.6220 -66.6220 -66.6220 -66.6220 -66.6220 -66.6220 -66.6220 -66.6219
   -66.6218 -66.6216 -66.6214 -66.6214 -66.6209 -66.6209 -66.6209 -66.6209
   -66.6209 -66.6209 -66.6190 -66.6153 -66.6084 -66.6055 -66.6026 -66.6008
   -66.6007 -66.6007 -66.6007 -66.6006 -66.6006 -66.6006 -66.6006 -66.6006
   -66.6006 -66.6005 -66.6005 -66.6004 -66.6003 -66.6002 -66.6001 -66.5999
   -66.5996 -66.5995 -66.5995 -66.5995 -66.5994 -66.5994 -66.5994 -66.5994
   -66.5994 -66.5994 -66.5892 -66.5764 -66.5727 -66.5667 -66.5589 -66.5504
   -66.5460 -57.5454 -57.5242 -57.3811 -57.2629 -57.1911 -56.8708 -53.5322
   -53.4212 -52.9455 -40.9801 -40.9764 -40.9707 -40.9707 -40.9707 -40.9704
   -40.9703 -40.9702 -40.9702 -40.9702 -40.9702 -40.9589 -40.9093 -40.8963
   -40.8954 -40.8954 -40.8954 -40.8954 -40.8954 -40.8954 -40.8952 -40.8951
   -40.8950 -40.8950 -40.8948 -40.8948 -40.8948 -40.8948 -40.8948 -40.8948
   -40.8948 -40.8947 -40.8822 -40.8793 -40.8687 -40.8582 -40.8538 -40.8092
   -40.8029 -40.8026 -40.8024 -40.7921 -40.7844 -40.7814 -40.7725 -40.7695
   -40.7691 -40.7691 -40.7691 -40.7691 -40.7690 -40.7690 -40.7689 -40.7688
   -40.7687 -40.7686 -40.7685 -40.7684 -40.7683 -40.7683 -40.7683 -40.7683
   -40.7683 -40.7683 -40.7675 -40.7612 -40.7612 -40.7612 -40.7612 -40.7612
   -40.7612 -40.7612 -40.7610 -40.7610 -40.7609 -40.7607 -40.7607 -40.7607
   -40.7607 -40.7607 -40.7607 -40.7606 -40.7605 -40.7575 -40.7561 -40.7523
   -40.7508 -40.7465 -40.7438 -40.7404 -40.7340 -40.7340 -40.7340 -40.7340
   -40.7340 -40.7340 -40.7339 -40.7338 -40.7336 -40.7335 -40.7334 -40.7334
   -40.7333 -40.7333 -40.7333 -40.7332 -40.7332 -40.7332 -40.7302 -40.7283
   -40.7263 -40.7236 -40.7194 -40.7193 -40.7193 -40.7192 -40.7192 -40.7192
   -40.7192 -40.7192 -40.7192 -40.7192 -40.7192 -40.7191 -40.7190 -40.7189
   -40.7189 -40.7188 -40.7187 -40.7187 -40.7187 -40.7187 -40.7187 -40.7187
   -40.7187 -40.7187 -40.7186 -40.7186 -40.7186 -40.7184 -40.7121 -40.7075
   -40.7057 -40.7038 -40.6952 -40.6896 -40.6875 -40.6844 -40.6557 -40.6557
   -40.6557 -40.6554 -40.6553 -40.6552 -40.6549 -40.6549 -40.6549 -40.6524
   -40.6399 -40.6313 -40.6086 -40.6086 -40.6086 -40.6086 -40.6086 -40.6086
   -40.6085 -40.6083 -40.6083 -40.6081 -40.6079 -40.6079 -40.6077 -40.6077
   -40.6077 -40.6077 -40.6077 -40.6077 -40.6047 -40.6018 -40.5865 -40.5813
   -40.5775 -40.5662 -40.5610 -40.5610 -40.5606 -40.5605 -40.5600 -40.5600
   -40.5360 -40.5182 -20.4144 -20.1276 -20.0325 -19.9220 -19.8260 -19.3563
   -19.2935 -19.2773 -19.2695 -19.2656 -19.2579 -19.2513 -19.2419 -19.2280
   -19.2135 -19.2015 -19.1733 -19.1605 -19.1530 -19.1433 -19.1315 -19.1167
   -19.0682 -19.0594 -19.0566 -19.0536 -19.0492 -19.0426 -18.9374 -18.8654
   -18.7968 -18.6529 -18.6042 -18.5634 -18.5316 -18.5098 -18.5003 -18.4887
   -18.4711 -18.4464 -18.4383 -18.4209 -18.4147 -18.3809 -18.3617 -18.3311
   -18.3073 -18.3007 -18.2970 -18.2700 -18.2666 -18.2565 -18.2077 -18.2035
   -18.2023 -18.1952 -18.1933 -18.1923 -18.1522 -18.1433 -18.1418 -18.1405
   -18.1385 -18.1382 -18.1343 -18.1206 -18.1127 -18.1094 -18.1026 -18.1012
   -18.0991 -18.0957 -18.0948 -18.0935 -18.0832 -18.0723 -18.0691 -18.0679
   -18.0659 -18.0601 -18.0525 -18.0485 -18.0448 -18.0368 -18.0285 -18.0246
   -18.0220 -18.0189 -18.0152 -18.0076 -18.0052 -18.0024 -17.9801 -17.9714
   -17.9629 -17.9582 -17.9423 -17.9378 -17.9358 -17.9339 -17.9326 -17.9176
   -17.9135 -17.9116 -17.9029 -17.8937 -17.8907 -17.8867 -17.8854 -17.8844
   -17.8771 -17.8742 -17.8734 -17.8605 -17.8597 -17.8594 -17.8506 -17.8463
   -17.8440 -17.8412 -17.8398 -17.8367 -17.8166 -17.8159 -17.8149 -17.8138
   -17.8135 -17.8121 -12.4699 -12.4672 -12.0013 -11.9479 -11.8926 -11.8231
   -11.8135 -11.8105 -11.7118 -11.7073 -11.6903 -11.6642 -11.5928 -11.5759
   -11.5743 -11.5308 -11.4151 -11.3861 -11.3394 -11.3055 -11.2618 -11.2571
   -11.2547 -11.2496 -11.2469 -11.2294 -11.1915 -11.1534 -11.1512 -11.1493
   -11.1476 -11.1449 -11.1426 -11.1047 -11.0956 -11.0887 -11.0866 -11.0780
   -11.0769 -11.0724 -11.0689 -11.0675 -11.0641 -11.0551 -11.0472 -11.0194
   -11.0081 -10.9912 -10.9848 -10.9700 -10.9633 -10.9611 -10.9420 -10.9330
   -10.9224 -10.9110 -10.9087 -10.9055 -10.8959 -10.8812 -10.8698 -10.8684
   -10.8642 -10.8621 -10.8532 -10.8518 -10.8500 -10.8484 -10.8474 -10.8429
   -10.8333 -10.8255 -10.8237 -10.8226 -10.8201 -10.8189 -10.8016 -10.7995
   -10.7986 -10.7958 -10.7931 -10.7898 -10.7871 -10.7752 -10.7728 -10.7573
   -10.7569 -10.7563 -10.7552 -10.7522 -10.7506 -10.7071 -10.6859 -10.6772
   -10.6559 -10.6171 -10.6156 -10.6055 -10.6010 -10.5955 -10.5790 -10.4967
   -10.4475 -10.2631 -10.1952 -10.1673 -10.1173 -10.0301  -9.9934  -9.9779
    -9.9543  -9.8718  -9.8684  -9.8355  -9.8280  -9.8199  -9.8105  -9.8012
    -9.7953  -9.7950  -9.7901  -9.7876  -9.7847  -9.7807  -9.7788  -9.7711
    -9.7705  -9.7660  -9.7595  -9.7566  -9.7490  -9.7332  -9.7265  -9.6967
    -9.6602  -9.6580  -9.6500  -9.6458  -9.6449  -9.6427  -9.6379  -9.6373
    -9.6361  -9.6353  -9.6329  -9.6315  -9.6287  -9.6168  -9.6006  -9.5830
    -9.5612  -9.5608  -9.5606  -9.5603  -9.5600  -9.5598  -9.5570  -9.5551
    -9.5417  -9.5373  -9.5248  -9.5196  -9.5027  -9.4961  -9.4751  -9.4672
    -9.4567  -9.3944  -9.3874  -9.3806  -9.3783  -9.3752  -9.3752  -9.3523
    -9.3501  -9.3454  -9.3304  -9.3264  -9.3200  -9.2931  -9.2863  -9.2694
    -9.2581  -9.2486  -9.2401  -9.2304  -9.2147  -9.2076  -9.2022  -9.1997
    -9.1979  -9.1957  -9.1860  -9.1606  -9.1559  -9.1427  -9.1314  -9.1284
    -9.1063  -9.0968  -9.0618  -9.0025  -9.0009  -8.9991  -8.9892  -8.9842
    -8.9746  -8.9719  -8.9683  -8.9670  -8.9570  -8.9451  -8.9364  -8.9362
    -8.9339  -8.9265  -8.9205  -8.9145  -8.9049  -8.8870  -8.8818  -8.8407
    -8.8405  -8.8402  -8.8400  -8.8395  -8.8392  -8.7889  -8.7741  -8.7694
    -8.7650  -8.7553  -8.7471  -8.7043  -8.6883  -8.6850  -8.6835  -8.6772
    -8.6697  -8.6266  -8.6149  -8.6123  -8.6115  -8.6099  -8.6080  -8.5887
    -8.5785  -8.4872  -8.4804  -8.4201  -8.3854  -8.3854  -8.3803  -8.3800
    -8.3741  -8.3737  -8.3670  -8.3596  -8.3148  -8.2989  -8.2966  -8.2952
    -8.2947  -8.2945  -8.2919  -8.2821  -8.2776  -8.2723  -8.2679  -8.2675
    -8.2645  -8.2606  -8.2575  -8.2536  -8.2398  -8.2396  -8.2384  -8.2378
    -8.2371  -8.2358  -8.1314  -8.0669  -8.0211  -7.9696  -7.9446  -7.8821
    -7.8777  -7.8754  -7.8128  -7.7992  -7.7980  -7.7514  -7.7349  -7.7246
    -7.6863  -7.6751  -7.6634  -7.6589  -7.6572  -7.6491  -7.6393  -7.6305
    -7.6274  -7.6155  -7.6098  -7.6000  -7.5857  -7.5650  -7.5583  -7.5545
    -7.5538  -7.5537  -7.5528  -7.5519  -7.5445  -7.5393  -7.5286  -7.5271
    -7.5264  -7.5257  -7.5253  -7.5203  -7.5175  -7.5032  -7.5017  -7.5015
    -7.5011  -7.5007  -7.4988  -7.4943  -7.4814  -7.4669  -7.4588  -7.4487
    -7.4460  -7.4345  -7.4274  -7.4234  -7.4222  -7.4165  -7.4049  -7.4039
    -7.3802  -7.3691  -7.3544  -7.3485  -7.3347  -7.3230  -7.3196  -7.3173
    -7.3092  -7.3074  -7.3033  -7.3019  -7.2919  -7.2706  -7.2697  -7.2624
    -7.2516  -7.2496  -7.2332  -7.2323  -7.2141  -7.1942  -7.1682  -7.1574
    -7.1243  -7.1126  -7.1043  -7.0511  -7.0223  -6.9910  -6.9086  -6.8939
    -6.8850  -6.8802  -6.8584  -6.8348  -6.8144  -6.8083  -6.8031  -6.7919
    -6.7757  -6.7643  -6.7521  -6.7224  -6.7028  -6.6966  -6.6877  -6.6775
    -6.6457  -6.6441  -6.6361  -6.6341  -6.6304  -6.6223  -6.6025  -6.5894
    -6.5856  -6.5746  -6.5696  -6.5530  -6.5396  -6.5357  -6.5349  -6.5341
    -6.5313  -6.5275  -6.5253  -6.5246  -6.5224  -6.5165  -6.5163  -6.5161
    -6.5160  -6.5158  -6.5153  -6.5039  -6.4884  -6.4840  -6.4624  -6.4559
    -6.4451  -6.4317  -6.4281  -6.4248  -6.4211  -6.3828  -6.3683  -6.3575
    -6.3558  -6.3536  -6.3504  -6.3468  -6.3410  -6.3337  -6.3276  -6.3214
    -6.3107  -6.3063  -6.3026  -6.2997  -6.2951  -6.2887  -6.2732  -6.2709
    -6.2700  -6.2691  -6.2678  -6.2655  -6.2472  -6.1847  -6.0215  -5.8913
    -5.7680  -5.7210  -5.5001  -5.4786  -5.3274  -5.1942  -5.1362  -5.1155
    -5.1041  -4.5919  -3.9477  -3.8810  -3.8731  -3.8684  -3.8638  -3.8524
    -3.8502  -3.8478  -3.8445  -3.8427  -3.8410  -3.8292  -3.7961  -3.7346
    -3.7232  -3.7204  -3.7116  -3.7034  -3.7010  -3.6991  -3.6922  -3.6908
    -3.6888  -3.6258  -3.5889  -3.5539  -3.5338  -3.5292  -3.5281  -3.5142
    -3.5114  -3.5035  -3.4953  -3.4914  -3.4893  -3.4867  -3.4825  -3.4798
    -3.4772  -3.4709  -3.4672  -3.4640  -3.4609  -3.4605  -3.4600  -3.4484
    -3.4454  -3.4451  -3.4387  -3.4381  -3.4301  -3.4291  -3.4268  -3.4216
    -3.4207  -3.4181  -3.4119  -3.4079  -3.4008  -3.3911  -3.3831  -3.3771
    -3.3672  -3.3657  -3.3634  -3.3614  -3.3590  -3.3558  -3.3385  -3.3365
    -3.3327  -3.3253  -3.3085  -3.3074  -3.3026  -3.2986  -3.2935  -3.2766
    -3.2419  -3.2337  -3.2229  -3.2115  -3.2057  -3.1747  -3.1190  -3.0859
    -3.0842  -3.0811  -3.0797  -3.0769  -3.0682  -3.0655  -3.0624  -3.0547
    -3.0275  -3.0107  -3.0048  -2.9974  -2.9952  -2.9925  -2.9911  -2.9892
    -2.9872  -2.9851  -2.9812  -2.9809  -2.9757  -2.9727  -2.9710  -2.9675
    -2.9651  -2.9563  -2.9540  -2.9527  -2.9507  -2.9504  -2.9497  -2.9489
    -2.9479  -2.9463  -2.9426  -2.9372  -2.9140  -2.9100  -2.9024  -2.8978
    -2.8877  -2.8837  -2.8659  -2.8531  -2.8348  -2.8255  -2.8255  -2.8255
    -2.8255  -2.8255  -2.8254  -2.8236  -2.8228  -2.8174  -2.8062  -2.8004
    -2.7895  -2.7739  -2.7708  -2.7557  -2.7521  -2.7414  -2.7322  -2.7189
    -2.6944  -2.6840  -2.6595  -2.6576  -2.6501  -2.6436  -2.6411  -2.6384
    -2.6344  -2.6324  -2.5964  -2.5823  -2.5679  -2.5560  -2.5522  -2.5347
    -2.4776  -2.4732  -2.4644  -2.4552  -2.4521  -2.4413  -2.4192  -2.4093

          k = 0.0000-0.5773 0.0000 (386352 PWs)   bands (ev):

  -103.2333-102.9875 -87.5224 -71.6442 -71.6398 -71.5719 -71.5158 -71.5063
   -71.4905 -71.4855 -71.4296 -71.4281 -71.3360 -71.2731 -71.2529 -71.2434
   -71.2362 -66.6981 -66.6411 -66.6371 -66.6371 -66.6369 -66.6366 -66.6359
   -66.6359 -66.6337 -66.6289 -66.6265 -66.6265 -66.6261 -66.6260 -66.6253
   -66.6253 -66.6191 -66.6152 -66.6114 -66.6114 -66.6113 -66.6113 -66.6113
   -66.6112 -66.6108 -66.6106 -66.6102 -66.6102 -66.6102 -66.6102 -66.6076
   -66.6069 -66.6069 -66.6068 -66.6063 -66.6057 -66.6057 -66.6046 -66.6040
   -66.6007 -66.6007 -66.6006 -66.6006 -66.6006 -66.6004 -66.6003 -66.5996
   -66.5994 -66.5994 -66.5994 -66.5994 -66.5962 -66.5962 -66.5959 -66.5958
   -66.5950 -66.5950 -66.5889 -66.5764 -66.5728 -66.5669 -66.5589 -66.5504
   -66.5460 -57.5454 -57.5242 -57.3811 -57.2629 -57.1911 -56.8708 -53.5322
   -53.4212 -52.9455 -40.9677 -40.9603 -40.9391 -40.9391 -40.9391 -40.9391
   -40.9390 -40.9388 -40.9387 -40.9385 -40.9385 -40.9385 -40.9385 -40.9382
   -40.9364 -40.9123 -40.9123 -40.9120 -40.9117 -40.9117 -40.9117 -40.9041
   -40.9002 -40.9002 -40.8999 -40.8998 -40.8997 -40.8997 -40.8985 -40.8904
   -40.8898 -40.8805 -40.8580 -40.8495 -40.8495 -40.8495 -40.8495 -40.8492
   -40.8491 -40.8491 -40.8490 -40.8489 -40.8489 -40.8489 -40.8489 -40.8462
   -40.8378 -40.8312 -40.8206 -40.8077 -40.7919 -40.7907 -40.7907 -40.7905
   -40.7903 -40.7902 -40.7902 -40.7834 -40.7813 -40.7812 -40.7809 -40.7808
   -40.7805 -40.7805 -40.7749 -40.7699 -40.7699 -40.7696 -40.7695 -40.7693
   -40.7693 -40.7686 -40.7642 -40.7502 -40.7499 -40.7444 -40.7402 -40.7402
   -40.7402 -40.7402 -40.7402 -40.7401 -40.7400 -40.7398 -40.7397 -40.7397
   -40.7397 -40.7397 -40.7396 -40.7315 -40.7315 -40.7314 -40.7310 -40.7310
   -40.7309 -40.7307 -40.7267 -40.7198 -40.7198 -40.7194 -40.7193 -40.7193
   -40.7192 -40.7192 -40.7192 -40.7192 -40.7190 -40.7190 -40.7189 -40.7189
   -40.7186 -40.7186 -40.7186 -40.7186 -40.7184 -40.7170 -40.7131 -40.7105
   -40.7105 -40.7102 -40.7102 -40.7099 -40.7099 -40.7084 -40.7051 -40.7044
   -40.6935 -40.6895 -40.6888 -40.6888 -40.6888 -40.6888 -40.6888 -40.6887
   -40.6883 -40.6883 -40.6880 -40.6880 -40.6880 -40.6880 -40.6879 -40.6844
   -40.6599 -40.6541 -40.6541 -40.6541 -40.6541 -40.6538 -40.6537 -40.6536
   -40.6536 -40.6532 -40.6532 -40.6532 -40.6532 -40.6526 -40.6494 -40.6421
   -40.6419 -40.6419 -40.6417 -40.6413 -40.6411 -40.6411 -40.6390 -40.6278
   -40.6245 -40.6226 -40.6226 -40.6225 -40.6219 -40.6218 -40.6218 -40.6136
   -40.6056 -40.6056 -40.6053 -40.6052 -40.6048 -40.6048 -40.6036 -40.5941
   -40.5787 -40.5750 -40.5749 -40.5748 -40.5743 -40.5743 -40.5741 -40.5741
   -40.5574 -40.5214 -20.3804 -19.9039 -19.8910 -19.8407 -19.7993 -19.7503
   -19.6926 -19.6634 -19.6245 -19.4925 -19.4544 -19.4370 -19.3691 -19.3443
   -19.2654 -19.2455 -19.1829 -18.8714 -18.8425 -18.8073 -18.7668 -18.7539
   -18.7436 -18.7386 -18.7319 -18.7298 -18.7146 -18.6799 -18.6741 -18.6672
   -18.6523 -18.6399 -18.6041 -18.6035 -18.5881 -18.5714 -18.5686 -18.5651
   -18.5642 -18.5389 -18.5142 -18.5082 -18.5058 -18.4963 -18.4857 -18.4539
   -18.4320 -18.4302 -18.4218 -18.4151 -18.3919 -18.3805 -18.3485 -18.3354
   -18.3316 -18.3177 -18.2797 -18.2629 -18.2559 -18.2499 -18.2274 -18.2058
   -18.1929 -18.1835 -18.1708 -18.1413 -18.1278 -18.1254 -18.1215 -18.1191
   -18.1172 -18.1138 -18.0963 -18.0934 -18.0905 -18.0894 -18.0848 -18.0830
   -18.0811 -18.0666 -18.0645 -18.0572 -18.0555 -18.0469 -18.0316 -18.0241
   -18.0216 -18.0184 -18.0182 -18.0155 -18.0111 -18.0056 -18.0049 -17.9937
   -17.9759 -17.9550 -17.9539 -17.9507 -17.9454 -17.9368 -17.9148 -17.9064
   -17.8992 -17.8923 -17.8686 -17.8681 -17.8608 -17.8566 -17.8505 -17.8449
   -17.8385 -17.8374 -17.8367 -17.8359 -17.8344 -17.8331 -17.8229 -17.8207
   -17.8043 -17.8004 -17.7797 -17.7768 -17.7601 -17.7568 -17.7450 -17.7429
   -17.7375 -17.7372 -12.4441 -12.4337 -11.8078 -11.7482 -11.7134 -11.6853
   -11.5640 -11.5355 -11.5314 -11.5190 -11.5166 -11.5058 -11.4950 -11.4814
   -11.4627 -11.4531 -11.4332 -11.4200 -11.4116 -11.4020 -11.3642 -11.3616
   -11.3566 -11.3374 -11.3252 -11.3208 -11.3119 -11.2957 -11.2802 -11.2778
   -11.2771 -11.2741 -11.2690 -11.2323 -11.2267 -11.2204 -11.2108 -11.1990
   -11.1870 -11.1858 -11.1849 -11.1699 -11.1655 -11.1642 -11.1610 -11.1554
   -11.1356 -11.1180 -11.0982 -11.0908 -11.0845 -11.0600 -11.0247 -11.0162
   -10.9854 -10.9707 -10.9547 -10.9440 -10.9223 -10.9080 -10.8967 -10.8874
   -10.8675 -10.8599 -10.8513 -10.8506 -10.8490 -10.8337 -10.8304 -10.8296
   -10.8285 -10.8285 -10.8224 -10.8203 -10.8144 -10.8133 -10.8091 -10.8086
   -10.8021 -10.8007 -10.7985 -10.7900 -10.7779 -10.7620 -10.7611 -10.7605
   -10.7596 -10.7176 -10.6610 -10.5614 -10.5534 -10.5482 -10.5449 -10.5033
   -10.4775 -10.4074 -10.3758 -10.2832 -10.2621 -10.2447 -10.2108 -10.1767
   -10.1615 -10.1442 -10.1380 -10.1302 -10.1143 -10.1106 -10.0804 -10.0701
   -10.0658 -10.0594 -10.0493 -10.0441 -10.0362 -10.0343 -10.0262 -10.0001
    -9.9730  -9.9663  -9.9467  -9.9412  -9.9336  -9.9219  -9.9197  -9.9161
    -9.9087  -9.8991  -9.8666  -9.8489  -9.8375  -9.8232  -9.8166  -9.8022
    -9.7947  -9.7877  -9.7666  -9.7470  -9.7420  -9.7374  -9.7153  -9.6879
    -9.6836  -9.6805  -9.6506  -9.6476  -9.6320  -9.6218  -9.5962  -9.5816
    -9.5743  -9.5731  -9.5638  -9.5544  -9.5537  -9.5330  -9.5107  -9.5074
    -9.5065  -9.4994  -9.4935  -9.4791  -9.4775  -9.4759  -9.4559  -9.4506
    -9.4455  -9.4431  -9.4052  -9.3940  -9.3644  -9.3603  -9.3432  -9.3235
    -9.2928  -9.2750  -9.2424  -9.2334  -9.2302  -9.2241  -9.2076  -9.2024
    -9.1795  -9.1706  -9.1644  -9.1578  -9.1480  -9.1178  -9.1083  -9.0922
    -9.0905  -9.0777  -9.0686  -9.0598  -9.0506  -9.0466  -9.0336  -9.0137
    -9.0056  -8.9855  -8.9800  -8.9730  -8.9707  -8.9641  -8.9426  -8.9394
    -8.9286  -8.9140  -8.9112  -8.9077  -8.9050  -8.9027  -8.8995  -8.8956
    -8.8927  -8.8867  -8.8863  -8.8763  -8.8709  -8.8654  -8.8637  -8.8579
    -8.8574  -8.8437  -8.8418  -8.8230  -8.8205  -8.8119  -8.8090  -8.8021
    -8.8006  -8.7995  -8.7895  -8.7815  -8.7750  -8.7516  -8.7510  -8.7487
    -8.7451  -8.7372  -8.7240  -8.6883  -8.6757  -8.6544  -8.6473  -8.6051
    -8.5776  -8.5267  -8.5215  -8.5145  -8.4791  -8.4586  -8.4485  -8.4100
    -8.3743  -8.3725  -8.3435  -8.3248  -8.2814  -8.2259  -8.1649  -8.1462
    -8.1454  -8.1404  -8.1361  -8.1317  -8.1249  -8.1232  -8.1045  -8.0725
    -8.0660  -8.0385  -7.9983  -7.9873  -7.9816  -7.9399  -7.8696  -7.8624
    -7.8574  -7.8549  -7.8491  -7.8447  -7.8340  -7.8301  -7.8257  -7.8235
    -7.8214  -7.8187  -7.8119  -7.8094  -7.8075  -7.8054  -7.8007  -7.7992
    -7.7985  -7.7882  -7.7872  -7.7861  -7.7840  -7.7830  -7.7825  -7.7764
    -7.7761  -7.7713  -7.7632  -7.7594  -7.7534  -7.7508  -7.7420  -7.7377
    -7.7366  -7.7318  -7.7149  -7.7133  -7.7129  -7.7125  -7.6848  -7.6844
    -7.6830  -7.6826  -7.6784  -7.6661  -7.6465  -7.6350  -7.6296  -7.6282
    -7.6263  -7.6209  -7.6158  -7.6122  -7.6100  -7.6039  -7.6005  -7.5822
    -7.5811  -7.5804  -7.5751  -7.5643  -7.5607  -7.5348  -7.5115  -7.4789
    -7.4783  -7.4754  -7.4680  -7.4578  -7.4377  -7.4210  -7.3562  -7.3208
    -7.2658  -7.2240  -7.1911  -7.1857  -7.1842  -7.1779  -7.1476  -7.1447
    -7.1341  -7.1255  -7.1157  -7.1084  -7.1034  -7.0681  -7.0658  -7.0593
    -7.0454  -7.0345  -7.0220  -7.0140  -7.0013  -6.9934  -6.9865  -6.9758
    -6.9429  -6.9399  -6.9316  -6.9147  -6.9105  -6.8896  -6.8886  -6.8800
    -6.8709  -6.8611  -6.8436  -6.8267  -6.8067  -6.7776  -6.7772  -6.7717
    -6.7223  -6.6973  -6.6800  -6.6666  -6.6531  -6.6344  -6.6339  -6.6254
    -6.6249  -6.6231  -6.6213  -6.6174  -6.6082  -6.6076  -6.6043  -6.6042
    -6.5976  -6.5972  -6.5965  -6.5965  -6.5911  -6.5862  -6.5214  -6.5073
    -6.4927  -6.4722  -6.4204  -6.4071  -6.3543  -6.3464  -6.3424  -6.3368
    -6.3189  -6.3137  -6.3067  -6.2968  -6.2949  -6.2918  -6.2905  -6.2893
    -6.2833  -6.2707  -6.2652  -6.2515  -6.2413  -6.2395  -6.2311  -6.2221
    -6.2181  -6.2135  -6.2090  -6.0748  -6.0265  -6.0058  -5.9942  -5.9498
    -5.9403  -5.9078  -5.9049  -5.8920  -5.8650  -5.8597  -5.8457  -5.7190
    -5.7105  -5.6890  -5.6149  -5.6079  -5.4524  -5.3829  -5.1465  -5.1175
    -5.1091  -4.5585  -4.1145  -4.1050  -4.0999  -4.0888  -3.9936  -3.9495
    -3.9415  -3.9312  -3.9185  -3.8959  -3.8618  -3.8603  -3.8523  -3.8495
    -3.8373  -3.8312  -3.8227  -3.8162  -3.8137  -3.7907  -3.7434  -3.7160
    -3.6899  -3.6661  -3.6618  -3.6239  -3.6222  -3.6173  -3.6150  -3.6066
    -3.5826  -3.5747  -3.5660  -3.5502  -3.5454  -3.5363  -3.5305  -3.5248
    -3.5131  -3.5105  -3.5021  -3.4953  -3.4908  -3.4873  -3.4827  -3.4719
    -3.4700  -3.4651  -3.4508  -3.4450  -3.4411  -3.4327  -3.4303  -3.4209
    -3.3910  -3.3735  -3.3676  -3.3647  -3.3602  -3.3568  -3.3557  -3.3522
    -3.3420  -3.3341  -3.3175  -3.3130  -3.3038  -3.2986  -3.2965  -3.2936
    -3.2931  -3.2886  -3.2782  -3.2689  -3.2622  -3.2605  -3.2581  -3.2439
    -3.2405  -3.2320  -3.2286  -3.2270  -3.2173  -3.2124  -3.2074  -3.2036
    -3.1996  -3.1927  -3.1849  -3.1783  -3.1782  -3.1759  -3.1537  -3.1426
    -3.1323  -3.1152  -3.1046  -3.0903  -3.0853  -3.0802  -3.0746  -3.0688
    -3.0519  -3.0452  -3.0409  -3.0385  -3.0374  -3.0358  -3.0333  -3.0292
    -3.0273  -3.0262  -3.0232  -3.0149  -3.0090  -3.0061  -3.0000  -2.9954
    -2.9871  -2.9838  -2.9821  -2.9786  -2.9767  -2.9646  -2.9625  -2.9618
    -2.9562  -2.9557  -2.9489  -2.9474  -2.9432  -2.9363  -2.9192  -2.9154
    -2.8978  -2.8939  -2.8930  -2.8844  -2.8727  -2.8680  -2.8153  -2.8082
    -2.8011  -2.7907  -2.7509  -2.7403  -2.7370  -2.7307  -2.6456  -2.6289
    -2.6124  -2.6036  -2.5939  -2.5824  -2.5633  -2.5594  -2.5532  -2.5471
    -2.5423  -2.5389  -2.5291  -2.5235  -2.4834  -2.4777  -2.4461  -2.4442
    -2.4338  -2.4221  -2.3995  -2.3973  -2.3933  -2.3869  -2.3631  -2.3586

          k =-0.5000-0.2887 0.0000 (386352 PWs)   bands (ev):

  -103.2333-102.9875 -87.5224 -71.6442 -71.6398 -71.5719 -71.5158 -71.5063
   -71.4905 -71.4855 -71.4296 -71.4281 -71.3360 -71.2731 -71.2529 -71.2434
   -71.2362 -66.6981 -66.6403 -66.6371 -66.6371 -66.6368 -66.6367 -66.6363
   -66.6359 -66.6359 -66.6265 -66.6265 -66.6261 -66.6261 -66.6258 -66.6253
   -66.6253 -66.6206 -66.6146 -66.6114 -66.6114 -66.6113 -66.6113 -66.6111
   -66.6111 -66.6110 -66.6108 -66.6102 -66.6102 -66.6102 -66.6102 -66.6079
   -66.6069 -66.6069 -66.6066 -66.6065 -66.6057 -66.6057 -66.6049 -66.6038
   -66.6007 -66.6006 -66.6006 -66.6006 -66.6005 -66.6003 -66.6002 -66.6001
   -66.5994 -66.5994 -66.5994 -66.5994 -66.5962 -66.5962 -66.5958 -66.5958
   -66.5950 -66.5950 -66.5889 -66.5765 -66.5730 -66.5662 -66.5588 -66.5510
   -66.5457 -57.5454 -57.5242 -57.3811 -57.2629 -57.1911 -56.8708 -53.5322
   -53.4212 -52.9455 -40.9659 -40.9553 -40.9391 -40.9391 -40.9391 -40.9391
   -40.9389 -40.9387 -40.9386 -40.9385 -40.9385 -40.9385 -40.9385 -40.9385
   -40.9319 -40.9223 -40.9123 -40.9123 -40.9120 -40.9118 -40.9117 -40.9117
   -40.9085 -40.9049 -40.9002 -40.9002 -40.8998 -40.8998 -40.8997 -40.8997
   -40.8782 -40.8650 -40.8625 -40.8495 -40.8495 -40.8495 -40.8495 -40.8491
   -40.8491 -40.8491 -40.8491 -40.8489 -40.8489 -40.8489 -40.8489 -40.8358
   -40.8342 -40.8245 -40.8216 -40.8053 -40.7948 -40.7907 -40.7907 -40.7905
   -40.7903 -40.7902 -40.7902 -40.7834 -40.7813 -40.7812 -40.7809 -40.7808
   -40.7805 -40.7805 -40.7766 -40.7699 -40.7699 -40.7696 -40.7695 -40.7693
   -40.7693 -40.7675 -40.7600 -40.7571 -40.7546 -40.7466 -40.7402 -40.7402
   -40.7402 -40.7402 -40.7400 -40.7400 -40.7398 -40.7398 -40.7397 -40.7397
   -40.7397 -40.7397 -40.7389 -40.7319 -40.7315 -40.7315 -40.7313 -40.7311
   -40.7310 -40.7309 -40.7260 -40.7198 -40.7198 -40.7194 -40.7194 -40.7192
   -40.7192 -40.7192 -40.7192 -40.7191 -40.7190 -40.7190 -40.7189 -40.7188
   -40.7187 -40.7186 -40.7186 -40.7186 -40.7186 -40.7154 -40.7135 -40.7105
   -40.7105 -40.7102 -40.7102 -40.7099 -40.7099 -40.7090 -40.7040 -40.6999
   -40.6931 -40.6899 -40.6888 -40.6888 -40.6888 -40.6888 -40.6885 -40.6884
   -40.6884 -40.6883 -40.6880 -40.6880 -40.6880 -40.6880 -40.6843 -40.6824
   -40.6760 -40.6696 -40.6541 -40.6541 -40.6541 -40.6541 -40.6537 -40.6537
   -40.6537 -40.6536 -40.6532 -40.6532 -40.6532 -40.6532 -40.6477 -40.6420
   -40.6419 -40.6419 -40.6416 -40.6414 -40.6411 -40.6411 -40.6332 -40.6306
   -40.6226 -40.6226 -40.6224 -40.6222 -40.6222 -40.6218 -40.6218 -40.6068
   -40.6056 -40.6056 -40.6052 -40.6052 -40.6048 -40.6048 -40.6017 -40.5977
   -40.5750 -40.5749 -40.5746 -40.5745 -40.5741 -40.5741 -40.5686 -40.5655
   -40.5587 -40.5311 -20.3785 -19.9082 -19.8913 -19.8517 -19.7992 -19.7605
   -19.6891 -19.6671 -19.5958 -19.4827 -19.4544 -19.4316 -19.3702 -19.3406
   -19.2694 -19.2442 -19.1994 -18.8816 -18.8692 -18.7947 -18.7644 -18.7539
   -18.7434 -18.7387 -18.7368 -18.7192 -18.7089 -18.6846 -18.6751 -18.6636
   -18.6460 -18.6416 -18.6164 -18.6002 -18.5902 -18.5733 -18.5688 -18.5641
   -18.5513 -18.5383 -18.5355 -18.5000 -18.4959 -18.4942 -18.4878 -18.4557
   -18.4319 -18.4271 -18.4253 -18.3976 -18.3859 -18.3763 -18.3556 -18.3401
   -18.3310 -18.3105 -18.2791 -18.2681 -18.2630 -18.2510 -18.2196 -18.2079
   -18.2014 -18.1796 -18.1547 -18.1361 -18.1335 -18.1298 -18.1220 -18.1188
   -18.1164 -18.1152 -18.1062 -18.0934 -18.0905 -18.0873 -18.0843 -18.0827
   -18.0765 -18.0717 -18.0655 -18.0590 -18.0585 -18.0443 -18.0293 -18.0266
   -18.0243 -18.0191 -18.0180 -18.0154 -18.0119 -18.0069 -18.0034 -17.9957
   -17.9682 -17.9659 -17.9554 -17.9533 -17.9482 -17.9358 -17.9115 -17.9103
   -17.9028 -17.8906 -17.8698 -17.8663 -17.8621 -17.8571 -17.8478 -17.8393
   -17.8375 -17.8371 -17.8364 -17.8361 -17.8318 -17.8304 -17.8217 -17.8200
   -17.8026 -17.7993 -17.7797 -17.7765 -17.7614 -17.7575 -17.7461 -17.7441
   -17.7377 -17.7374 -12.4484 -12.3923 -11.8471 -11.7994 -11.7378 -11.7021
   -11.5832 -11.5387 -11.5263 -11.5187 -11.5171 -11.5003 -11.4940 -11.4894
   -11.4745 -11.4404 -11.4293 -11.4096 -11.4031 -11.3953 -11.3904 -11.3600
   -11.3476 -11.3377 -11.3185 -11.3080 -11.3039 -11.2914 -11.2893 -11.2802
   -11.2768 -11.2710 -11.2695 -11.2316 -11.2254 -11.2180 -11.2111 -11.2007
   -11.1905 -11.1854 -11.1847 -11.1768 -11.1658 -11.1645 -11.1497 -11.1401
   -11.1216 -11.1041 -11.0967 -11.0863 -11.0828 -11.0563 -11.0379 -11.0088
   -10.9822 -10.9606 -10.9521 -10.9339 -10.9292 -10.9207 -10.9061 -10.8891
   -10.8790 -10.8579 -10.8522 -10.8492 -10.8359 -10.8320 -10.8296 -10.8290
   -10.8281 -10.8274 -10.8197 -10.8167 -10.8133 -10.8123 -10.8104 -10.8092
   -10.8027 -10.8019 -10.7998 -10.7973 -10.7663 -10.7619 -10.7611 -10.7608
   -10.7508 -10.6500 -10.5887 -10.5596 -10.5527 -10.5448 -10.5327 -10.5036
   -10.4716 -10.4329 -10.4086 -10.3637 -10.2858 -10.2770 -10.1848 -10.1740
   -10.1585 -10.1495 -10.1332 -10.1275 -10.1170 -10.1033 -10.0747 -10.0714
   -10.0549 -10.0536 -10.0520 -10.0478 -10.0385 -10.0355 -10.0135  -9.9957
    -9.9572  -9.9512  -9.9472  -9.9351  -9.9286  -9.9147  -9.9118  -9.9095
    -9.8933  -9.8817  -9.8682  -9.8637  -9.8384  -9.8192  -9.8113  -9.7971
    -9.7870  -9.7821  -9.7643  -9.7583  -9.7430  -9.7205  -9.7069  -9.7001
    -9.6834  -9.6754  -9.6577  -9.6482  -9.6352  -9.6275  -9.6246  -9.5951
    -9.5903  -9.5808  -9.5608  -9.5537  -9.5509  -9.5440  -9.5291  -9.5129
    -9.5079  -9.4986  -9.4927  -9.4889  -9.4844  -9.4777  -9.4734  -9.4722
    -9.4526  -9.4413  -9.4357  -9.4193  -9.3852  -9.3676  -9.3213  -9.3071
    -9.2966  -9.2655  -9.2431  -9.2322  -9.2299  -9.2213  -9.2061  -9.1943
    -9.1903  -9.1767  -9.1577  -9.1522  -9.1481  -9.1325  -9.1135  -9.1086
    -9.0770  -9.0714  -9.0619  -9.0591  -9.0495  -9.0448  -9.0268  -9.0112
    -8.9992  -8.9930  -8.9756  -8.9730  -8.9680  -8.9606  -8.9567  -8.9436
    -8.9236  -8.9131  -8.9107  -8.9055  -8.9047  -8.9038  -8.8941  -8.8897
    -8.8872  -8.8851  -8.8832  -8.8770  -8.8724  -8.8714  -8.8672  -8.8580
    -8.8576  -8.8523  -8.8328  -8.8256  -8.8112  -8.8099  -8.8083  -8.8077
    -8.8026  -8.8010  -8.7971  -8.7810  -8.7786  -8.7580  -8.7512  -8.7485
    -8.7460  -8.7373  -8.7203  -8.6840  -8.6752  -8.6672  -8.6546  -8.6187
    -8.5551  -8.5263  -8.5239  -8.5019  -8.4814  -8.4517  -8.4394  -8.4105
    -8.3783  -8.3651  -8.3167  -8.3141  -8.2643  -8.2287  -8.2120  -8.1537
    -8.1455  -8.1450  -8.1364  -8.1353  -8.1251  -8.1245  -8.0882  -8.0745
    -8.0599  -8.0173  -7.9880  -7.9813  -7.9409  -7.9140  -7.8916  -7.8734
    -7.8627  -7.8543  -7.8529  -7.8442  -7.8363  -7.8298  -7.8261  -7.8207
    -7.8195  -7.8160  -7.8145  -7.8125  -7.8042  -7.8006  -7.7990  -7.7954
    -7.7911  -7.7871  -7.7849  -7.7839  -7.7828  -7.7815  -7.7795  -7.7762
    -7.7753  -7.7702  -7.7616  -7.7530  -7.7498  -7.7482  -7.7461  -7.7386
    -7.7289  -7.7159  -7.7146  -7.7140  -7.7127  -7.6926  -7.6857  -7.6844
    -7.6838  -7.6820  -7.6771  -7.6648  -7.6611  -7.6429  -7.6373  -7.6339
    -7.6262  -7.6251  -7.6202  -7.6153  -7.6110  -7.6028  -7.6015  -7.5865
    -7.5820  -7.5811  -7.5777  -7.5746  -7.5696  -7.5590  -7.5325  -7.4875
    -7.4799  -7.4769  -7.4716  -7.4513  -7.4402  -7.4153  -7.3781  -7.3231
    -7.2444  -7.2258  -7.1920  -7.1868  -7.1851  -7.1821  -7.1665  -7.1455
    -7.1384  -7.1260  -7.1210  -7.1110  -7.0966  -7.0890  -7.0714  -7.0515
    -7.0428  -7.0399  -7.0293  -7.0178  -6.9980  -6.9968  -6.9936  -6.9788
    -6.9463  -6.9335  -6.9292  -6.9093  -6.9049  -6.8886  -6.8793  -6.8760
    -6.8655  -6.8553  -6.8376  -6.8214  -6.7962  -6.7883  -6.7703  -6.7552
    -6.7237  -6.7079  -6.6919  -6.6635  -6.6575  -6.6413  -6.6295  -6.6256
    -6.6233  -6.6222  -6.6212  -6.6094  -6.6057  -6.6050  -6.6043  -6.5982
    -6.5968  -6.5967  -6.5965  -6.5934  -6.5855  -6.5623  -6.5201  -6.5086
    -6.4919  -6.4354  -6.4221  -6.3976  -6.3476  -6.3464  -6.3423  -6.3335
    -6.3215  -6.3135  -6.3038  -6.2960  -6.2947  -6.2938  -6.2912  -6.2900
    -6.2826  -6.2704  -6.2634  -6.2546  -6.2524  -6.2426  -6.2272  -6.2218
    -6.2177  -6.2155  -6.2112  -6.1044  -6.0213  -6.0095  -5.9880  -5.9555
[...]
     atom  174 type  2   force =    -0.00002264   -0.00000145    0.00004073
     atom  175 type  1   force =    -0.00000800    0.00001960   -0.00003128
     atom  176 type  1   force =    -0.00007198   -0.00007822   -0.00002471
     atom  177 type  2   force =    -0.00006073    0.00012786   -0.00045717
     atom  178 type  2   force =    -0.00001465   -0.00003221   -0.00003650
     atom  179 type  2   force =    -0.00007038   -0.00002588   -0.00000775
     atom  180 type  2   force =     0.00036650    0.00020117    0.00024814
     atom  181 type  1   force =     0.00000059    0.00000315    0.00068541
     atom  182 type  1   force =    -0.00002315   -0.00000650    0.00000489
     atom  183 type  2   force =    -0.00000049    0.00000244    0.00000257
     atom  184 type  2   force =    -0.00000103    0.00000391    0.00161438
     atom  185 type  2   force =    -0.00000137    0.00000336   -0.00236231
     atom  186 type  2   force =    -0.00002428    0.00000020    0.00003740
     atom  187 type  1   force =     0.00001488   -0.00001389   -0.00002673
     atom  188 type  1   force =     0.00019803    0.00026807    0.00018250
     atom  189 type  2   force =     0.00034707    0.00049368   -0.00011388
     atom  190 type  2   force =     0.00001278    0.00001841   -0.00004262
     atom  191 type  2   force =     0.00004540    0.00002109   -0.00003344
     atom  192 type  2   force =    -0.00022246    0.00035406    0.00023373
     atom  193 type  3   force =    -0.00007910   -0.00046785   -0.00123930
     atom  194 type  3   force =    -0.00041858   -0.00040974    0.00107190
     atom  195 type  4   force =     0.00020654   -0.00099665   -0.00007376

     Total force =     0.005002     Total SCF correction =     0.000894
     SCF correction compared to forces is large: reduce conv_thr to get better values
     Energy error            =      4.5E-05 Ry
     Gradient error          =      1.3E-03 Ry/Bohr

     number of scf cycles    =  47
     number of bfgs steps    =  46

     energy             old  =  -35654.9557787463 Ry
     energy             new  =  -35654.9558237527 Ry

     CASE: energy            _new < energy            _old

     new trust radius        =       0.0443257287 bohr
     new conv_thr            =       0.0000000100 Ry


ATOMIC_POSITIONS (angstrom)
Mo               0.0000119917        1.8193638619       -9.1672481230    0   0   0
Mo               1.5756136568        0.9097075315       -3.0554901653    0   0   0
S                0.0000188998        1.8193822938       -4.6232556019    0   0   0
S                1.5756321638        0.9096773839       -7.6014065489    0   0   0
S                1.5756326175        0.9096785128      -10.7330757790    0   0   0
S                0.0000189190        1.8193860094       -1.4877129945    0   0   0
Mo              -0.0057143687        1.8190050489        3.0593817370
Mo               1.5526236943        0.9102027967        9.1559993322
S               -0.0217817228        1.8257436398        7.5852624318
S                1.5695966129        0.9087766718        4.6267329980
S                1.5698496586        0.9090001478        1.4916149240
S               -0.0258900995        1.8106999595       10.7298443047
Mo              -1.5756053507        4.5484193819       -9.1672481230    0   0   0
Mo               0.0000378379        3.6387394919       -3.0554952701    0   0   0
S               -1.5755913433        4.5484363582       -4.6232494962    0   0   0
S                0.0000148214        3.6387329039       -7.6014065489    0   0   0
S                0.0000152751        3.6387340328      -10.7330757790    0   0   0
S               -1.5755906502        4.5484413613       -1.4877305502    0   0   0
Mo              -1.5808493394        4.5480602675        3.0592001635
Mo              -0.0357119955        3.6291160535        9.1672999012
S               -1.5947545995        4.5619675246        7.5960150562
S               -0.0054251136        3.6386586515        4.6273627790
S               -0.0050749023        3.6382602304        1.4914275549
S               -1.6044481916        4.5436022348       10.7381042096
Mo              -3.1512226931        7.2774749019       -9.1672481230    0   0   0
Mo              -1.5755910988        6.3678216792       -3.0555115988    0   0   0
S               -3.1512162438        7.2774954350       -4.6232578178    0   0   0
S               -1.5756025210        6.3677884239       -7.6014065489    0   0   0
S               -1.5756020673        6.3677895528      -10.7330757790    0   0   0
S               -3.1512127704        7.2774877076       -1.4877200710    0   0   0
Mo              -3.1564935484        7.2768142266        3.0592932427
Mo              -1.6053243490        6.3710703712        9.1821049527
S               -3.1680083272        7.2759537410        7.6008350116
S               -1.5803526925        6.3675275883        4.6270583584
S               -1.5808773970        6.3671715900        1.4911532457
S               -3.1741806558        7.2817213335       10.7485731240
Mo              -4.7268400355       10.0065304219       -9.1672481230    0   0   0
Mo              -3.1512405618        9.0968403586       -3.0554816746    0   0   0
S               -4.7268341792       10.0065523623       -4.6232463762    0   0   0
S               -3.1512198634        9.0968439439       -7.6014065489    0   0   0
S               -3.1512194097        9.0968450728      -10.7330757790    0   0   0
S               -4.7268370797       10.0065537885       -1.4877176751    0   0   0
Mo              -4.7326450095       10.0055761500        3.0590452687
Mo              -3.1731599050        9.0954447105        9.1696420610
S               -4.7485516143       10.0008096031        7.5946837786
S               -3.1568512250        9.0962205998        4.6264671896
S               -3.1566012662        9.0960246152        1.4912595745
S               -4.7439215659       10.0207748148       10.7340569670
Mo               3.1512517547        1.8193638619       -9.1672481230    0   0   0
Mo               4.7269020221        0.9097289540       -3.0554823951    0   0   0
S                3.1512612351        1.8193882564       -4.6232320683    0   0   0
S                4.7268719268        0.9096773839       -7.6014065489    0   0   0
S                4.7268723805        0.9096785128      -10.7330757790    0   0   0
S                3.1512592485        1.8193890201       -1.4877261251    0   0   0
Mo               3.1455768212        1.8186885855        3.0593517769
Mo               4.7029476492        0.9067942482        9.1577924224
S                3.1291148156        1.8252946247        7.5898154095
S                4.7210106441        0.9086234482        4.6267489518
S                4.7213820297        0.9089447172        1.4913800926
S                3.1263538765        1.7890998770       10.7387276463
Mo               1.5756344123        4.5484193819       -9.1672481230    0   0   0
Mo               3.1512756394        3.6387769522       -3.0554814834    0   0   0
S                1.5756504879        4.5484423799       -4.6232390542    0   0   0
S                3.1512545844        3.6387329039       -7.6014065489    0   0   0
S                3.1512550381        3.6387340328      -10.7330757790    0   0   0
S                1.5756466253        4.5484431864       -1.4877251801    0   0   0
Mo               1.5703490556        4.5479488012        3.0595630771
Mo               3.1278051004        3.6136904343        9.1872900794
S                1.5554870411        4.5637874783        7.6396170894
S                3.1457005010        3.6383492372        4.6276198050
S                3.1458258288        3.6379776248        1.4915544181
S                1.5324897816        4.4539029051       10.7881946522
Mo               0.0000170699        7.2774749019       -9.1672481230    0   0   0
Mo               1.5756764447        6.3678236689       -3.0554877708    0   0   0
S                0.0000381981        7.2774979204       -4.6232454413    0   0   0
S                1.5756372420        6.3677884239       -7.6014065489    0   0   0
S                1.5756376957        6.3677895528      -10.7330757790    0   0   0
S                0.0000328088        7.2774946042       -1.4877307940    0   0   0
Mo              -0.0049449621        7.2765786683        3.0587104050
Mo               1.5243237166        6.3645606177        9.2242775891
S               -0.0083482474        7.2723439490        7.6437715959
S                1.5701780522        6.3672262797        4.6278179779
S                1.5709261834        6.3668434726        1.4914789649
S               -0.1354705684        7.3443577986       10.8408265967
Mo              -1.5756002725       10.0065304219       -9.1672481230    0   0   0
Mo               0.0000873425        9.0968676911       -3.0554912329    0   0   0
S               -1.5755883952       10.0065504530       -4.6232240150    0   0   0
S                0.0000198996        9.0968439439       -7.6014065489    0   0   0
S                0.0000203533        9.0968450728      -10.7330757790    0   0   0
S               -1.5755859047       10.0065492576       -1.4877362381    0   0   0
Mo              -1.5809604009       10.0056039139        3.0589062256
Mo              -0.0230309486        9.1078474732        9.1839332340
S               -1.5942799991        9.9961275963        7.5987924855
S               -0.0055322501        9.0953078658        4.6267530722
S               -0.0050919986        9.0961022646        1.4909443463
S               -1.6082147268       10.0211070804       10.7401045009
Mo               6.3024915177        1.8193638619       -9.1672481230    0   0   0
Mo               7.8781001445        0.9096521684       -3.0554919963    0   0   0
S                6.3025008696        1.8193826232       -4.6232480596    0   0   0
S                7.8781116898        0.9096773839       -7.6014065489    0   0   0
S                7.8781121435        0.9096785128      -10.7330757790    0   0   0
S                6.3025042007        1.8193849068       -1.4877147524    0   0   0
Mo               6.2968195435        1.8185871687        3.0593288504
Mo               7.8553758558        0.9132981989        9.1531807960
S                6.2790318472        1.8151302677        7.5839641650
S                7.8725296164        0.9088920514        4.6264582397
S                7.8724949042        0.9087183631        1.4913442447
S                6.2850199628        1.8052786470       10.7272118866
Mo               4.7268741753        4.5484193819       -9.1672481230    0   0   0
Mo               6.3024679138        3.6387501714       -3.0554895197    0   0   0
S                4.7268748770        4.5484386753       -4.6232519432    0   0   0
S                6.3024943474        3.6387329039       -7.6014065489    0   0   0
S                6.3024948011        3.6387340328      -10.7330757790    0   0   0
S                4.7268770533        4.5484432419       -1.4877137856    0   0   0
Mo               4.7212494049        4.5479512005        3.0595349401
Mo               6.2950935353        3.6228151699        9.1616645684
S                4.7005413259        4.5611925735        7.6371333530
S                6.2965887716        3.6381711125        4.6273723974
S                6.2971410397        3.6381338053        1.4918888902
S                4.7279700415        4.4456357744       10.7841617722
Mo               3.1512568329        7.2774749019       -9.1672481230    0   0   0
Mo               4.7268384135        6.3678043337       -3.0554959052    0   0   0
S                3.1512606125        7.2774972547       -4.6232589675    0   0   0
S                4.7268770050        6.3677884239       -7.6014065489    0   0   0
S                4.7268774587        6.3677895528      -10.7330757790    0   0   0
S                3.1512629079        7.2774963749       -1.4877081835    0   0   0
Mo               3.1460559205        7.2763003001        3.0595854930
Mo               4.7382578241        6.3608081460        9.2188235096
S                3.1302092988        7.2595211138        7.6730735014
S                4.7213864857        6.3669708976        4.6280293768
S                4.7214797300        6.3668994705        1.4913348547
S                3.1340841483        7.3788303945       10.7298438171
Mo               1.5756394905       10.0065304219       -9.1672481230    0   0   0
Mo               3.1512330605        9.0968514907       -3.0554878870    0   0   0
S                1.5756499830       10.0065443759       -4.6232632674    0   0   0
S                3.1512596626        9.0968439439       -7.6014065489    0   0   0
S                3.1512601163        9.0968450728      -10.7330757790    0   0   0
S                1.5756503041       10.0065459699       -1.4877044377    0   0   0
Mo               1.5701691363       10.0054236020        3.0592310481
Mo               3.1308166842        9.1505674184        9.1673642826
S                1.5454663881       10.0068702972        7.5899770288
S                3.1454964553        9.0954883533        4.6276056947
S                3.1460756228        9.0957468345        1.4916510416
S                1.5500308041       10.0358444064       10.7394300243
Mo               9.4537312807        1.8193638619       -9.1672481230    0   0   0
Mo              11.0293863460        0.9096952246       -3.0554894007    0   0   0
S                9.4537395970        1.8193770750       -4.6232328036    0   0   0
S               11.0293514528        0.9096773839       -7.6014065489    0   0   0
S               11.0293519066        0.9096785128      -10.7330757790    0   0   0
S                9.4537393632        1.8193794783       -1.4877366147    0   0   0
Mo               9.4479976396        1.8188803986        3.0588633699
Mo              11.0107994732        0.9157989749        9.1529196288
S                9.4324705236        1.8255493177        7.5827150421
S               11.0232351150        0.9093432516        4.6267008296
S               11.0238178170        0.9090297902        1.4915605762
S                9.4326308251        1.8244695395       10.7215148254
Mo               7.8781139383        4.5484193819       -9.1672481230    0   0   0
Mo               9.4537539161        3.6387607911       -3.0554933032    0   0   0
S                7.8781175448        4.5484378232       -4.6232366318    0   0   0
S                9.4537341104        3.6387329039       -7.6014065489    0   0   0
S                9.4537345641        3.6387340328      -10.7330757790    0   0   0
S                7.8781194018        4.5484411585       -1.4877377057    0   0   0
Mo               7.8725251141        4.5480706624        3.0595823398
Mo               9.4337569196        3.6418172374        9.1579092415
S                7.8584772530        4.5557053024        7.5917953989
S                9.4481931933        3.6383655765        4.6265570066
S                9.4481841626        3.6384996271        1.4913916817
S                7.8628456936        4.5390719322       10.7325160044
Mo               6.3024965959        7.2774749019       -9.1672481230    0   0   0
Mo               7.8781361655        6.3678242352       -3.0555014130    0   0   0
S                6.3024973331        7.2774953556       -4.6232392528    0   0   0
S                7.8781167680        6.3677884239       -7.6014065489    0   0   0
S                7.8781172217        6.3677895528      -10.7330757790    0   0   0
S                6.3024989866        7.2774929744       -1.4877349119    0   0   0
Mo               6.2966900829        7.2764748359        3.0592023697
Mo               7.8677979716        6.3673278733        9.1751628343
S                6.2701165784        7.2656320682        7.6334664430
S                7.8723720770        6.3676013836        4.6273564808
S                7.8728722123        6.3672121331        1.4915394005
S                6.3978675138        7.3391265293       10.8283455529
Mo               4.7268792535       10.0065304219       -9.1672481230    0   0   0
Mo               6.3025111524        9.0968738021       -3.0554915260    0   0   0
S                4.7268840634       10.0065452125       -4.6232380477    0   0   0
S                6.3024994256        9.0968439439       -7.6014065489    0   0   0
S                6.3024998793        9.0968450728      -10.7330757790    0   0   0
S                4.7268847312       10.0065459141       -1.4877283294    0   0   0
Mo               4.7211583345       10.0057077534        3.0595801017
Mo               6.2834880213        9.1040344826        9.1737688742
S                4.7130772200       10.0087042955        7.5871885379
S                6.2966644821        9.0954880065        4.6270871759
S                6.2965565845        9.0959432323        1.4915093411
S                4.7161494101       10.0338299489       10.7339056978
Pt               1.6304217229        6.4358279826       12.1070633592
Pt               4.6408013834        6.4241214121       12.0949357957
Pd               3.1400124089        6.1767273424       14.1431211798



     Writing config-only to output data dir ./outdir/pwscf.save/ :
     XML data file
     NEW-OLD atomic charge density approx. for the potential

     negative rho (up, down):  9.085E-04 0.000E+00

     total cpu time spent up to now is   254822.6 secs

     Self-consistent Calculation

     iteration #  1     ecut=    77.00 Ry     beta= 0.20
     Davidson diagonalization with overlap
     ethr =  1.00E-06,  avg # of iterations = 17.8

     Threshold (ethr) on eigenvalues was too large:
     Diagonalizing with lowered threshold

     Davidson diagonalization with overlap
     ethr =  1.81E-08,  avg # of iterations = 16.5

     negative rho (up, down):  9.011E-04 0.000E+00

     total cpu time spent up to now is   256459.1 secs

     total energy              =  -35654.95598279 Ry
     estimated scf accuracy    <       0.00022997 Ry

     iteration #  2     ecut=    77.00 Ry     beta= 0.20
     Davidson diagonalization with overlap
     ethr =  1.32E-08,  avg # of iterations = 12.0

     negative rho (up, down):  8.959E-04 0.000E+00

     total cpu time spent up to now is   256909.5 secs

     total energy              =  -35654.95591821 Ry
     estimated scf accuracy    <       0.00013652 Ry

     iteration #  3     ecut=    77.00 Ry     beta= 0.20
     Davidson diagonalization with overlap
     ethr =  7.82E-09,  avg # of iterations = 13.0

     negative rho (up, down):  8.947E-04 0.000E+00

     total cpu time spent up to now is   257381.0 secs

     total energy              =  -35654.95584100 Ry
     estimated scf accuracy    <       0.00009559 Ry

     iteration #  4     ecut=    77.00 Ry     beta= 0.20
     Davidson diagonalization with overlap
     ethr =  5.47E-09,  avg # of iterations = 18.0

     negative rho (up, down):  8.897E-04 0.000E+00

     total cpu time spent up to now is   258100.9 secs

     total energy              =  -35654.95589361 Ry
     estimated scf accuracy    <       0.00003939 Ry

     iteration #  5     ecut=    77.00 Ry     beta= 0.20
     Davidson diagonalization with overlap
     ethr =  2.26E-09,  avg # of iterations =  6.2

     negative rho (up, down):  8.872E-04 0.000E+00

     total cpu time spent up to now is   258544.7 secs

     total energy              =  -35654.95588301 Ry
     estimated scf accuracy    <       0.00002685 Ry

     iteration #  6     ecut=    77.00 Ry     beta= 0.20
     Davidson diagonalization with overlap
     ethr =  1.54E-09,  avg # of iterations =  9.2

     negative rho (up, down):  8.892E-04 0.000E+00

     total cpu time spent up to now is   258988.1 secs

     total energy              =  -35654.95585929 Ry
     estimated scf accuracy    <       0.00001604 Ry

     iteration #  7     ecut=    77.00 Ry     beta= 0.20
     Davidson diagonalization with overlap
