
     Program PWSCF v.7.3 starts on 29Apr2024 at  4:24:42 

     This program is part of the open-source Quantum ESPRESSO suite
     for quantum simulation of materials; please cite
         "P. Giannozzi et al., J. Phys.:Condens. Matter 21 395502 (2009);
         "P. Giannozzi et al., J. Phys.:Condens. Matter 29 465901 (2017);
         "P. Giannozzi et al., J. Chem. Phys. 152 154105 (2020);
          URL http://www.quantum-espresso.org", 
     in publications or presentations arising from this work. More details at
     http://www.quantum-espresso.org/quote

     Parallel version (MPI & OpenMP), running on      36 processor cores
     Number of MPI processes:                36
     Threads/MPI process:                     1

     MPI processes distributed on     1 nodes
     557551 MiB available memory on the printing compute node when the environment starts
 
     Waiting for input...
     Reading input from standard input
Warning: card &CELL ignored
Warning: card / ignored

     Current dimensions of program PWSCF are:
     Max number of different atomic species (ntypx) = 10
     Max number of k-points (npk) =  40000
     Max angular momentum in pseudopotentials (lmaxx) =  4
     file Mo.pbe-spn-kjpaw_psl.1.0.0.UPF: wavefunction(s)  4S 4D renormalized
     file S.pbe-n-kjpaw_psl.1.0.0.UPF: wavefunction(s)  3S 3P renormalized
     file Pt.pbe-spfn-kjpaw_psl.1.0.0.UPF: wavefunction(s)  5P 4F renormalized
     file Pd.pbe-spn-kjpaw_psl.1.0.0.UPF: wavefunction(s)  4S 5S 4D renormalized
 
     R & G space division:  proc/nbgrp/npool/nimage =      36
     Subspace diagonalization in iterative solution of the eigenvalue problem:
     one sub-group per band group will be used
     scalapack distributed-memory algorithm (size of sub-group:  6*  6 procs)

 
     Parallelization info
     --------------------
     sticks:   dense  smooth     PW     G-vecs:    dense   smooth      PW
     Min         585     334     89               198743    85850   11735
     Max         586     335     90               198750    85861   11748
     Sum       21073   12049   3205              7154885  3090769  422587
 
     Using Slab Decomposition
 


     bravais-lattice index     =            0
     lattice parameter (alat)  =      23.8199  a.u.
     unit-cell volume          =   33861.0370 (a.u.)^3
     number of atoms/cell      =          195
     number of atomic types    =            4
     number of electrons       =      1732.00
     number of Kohn-Sham states=         1039
     kinetic-energy cutoff     =      77.0000  Ry
     charge density cutoff     =     539.0000  Ry
     scf convergence threshold =      1.0E-06
     mixing beta               =       0.2000
     number of iterations used =            8  plain     mixing
     energy convergence thresh.=      1.0E-04
     force convergence thresh. =      1.0E-03
     Exchange-correlation= SLA  PW   PBX  PBC
                           (   1   4   3   4   0   0   0)
     nstep                     =         1000


     Effective Screening Medium Method
     =================================
     Boundary Conditions: Vacuum-Slab-Vacuum
     total charge in unit cell        =   0.0000
     grid points for fit at edges     =        4 
 

     celldm(1)=  23.819920  celldm(2)=   0.000000  celldm(3)=   0.000000
     celldm(4)=   0.000000  celldm(5)=   0.000000  celldm(6)=   0.000000

     crystal axes: (cart. coord. in units of alat)
               a(1) = (   1.000000   0.000000   0.000000 )  
               a(2) = (  -0.499999   0.866026   0.000000 )  
               a(3) = (   0.000000   0.000000   2.893000 )  

     reciprocal axes: (cart. coord. in units 2 pi/alat)
               b(1) = (  1.000000  0.577349  0.000000 )  
               b(2) = (  0.000000  1.154700  0.000000 )  
               b(3) = (  0.000000  0.000000  0.345662 )  


     PseudoPot. # 1 for Mo read from file:
     ./pseudo/Mo.pbe-spn-kjpaw_psl.1.0.0.UPF
     MD5 check sum: 317bf72632116215fd98f72de1686f13
     Pseudo is Projector augmented-wave + core cor, Zval = 14.0
     Generated using 'atomic' code by A. Dal Corso  v.7.2
     Shape of augmentation charge: PSQ
     Using radial grid of 1229 points,  6 beta functions with: 
                l(1) =   0
                l(2) =   0
                l(3) =   1
                l(4) =   1
                l(5) =   2
                l(6) =   2
     Q(r) pseudized with 0 coefficients 


     PseudoPot. # 2 for S  read from file:
     ./pseudo/S.pbe-n-kjpaw_psl.1.0.0.UPF
     MD5 check sum: 8b7b5302570d38d5e87fed6a1065abda
     Pseudo is Projector augmented-wave + core cor, Zval =  6.0
     Generated using 'atomic' code by A. Dal Corso  v.7.2
     Shape of augmentation charge: PSQ
     Using radial grid of 1151 points,  6 beta functions with: 
                l(1) =   0
                l(2) =   0
                l(3) =   1
                l(4) =   1
                l(5) =   2
                l(6) =   2
     Q(r) pseudized with 0 coefficients 


     PseudoPot. # 3 for Pt read from file:
     ./pseudo/Pt.pbe-spfn-kjpaw_psl.1.0.0.UPF
     MD5 check sum: 620096ebf4e6ebacc94de60fd67efcb5
     Pseudo is Projector augmented-wave + core cor, Zval = 32.0
     Generated using 'atomic' code by A. Dal Corso  v.7.2
     Shape of augmentation charge: PSQ
     Using radial grid of 1277 points,  8 beta functions with: 
                l(1) =   0
                l(2) =   0
                l(3) =   1
                l(4) =   1
                l(5) =   2
                l(6) =   2
                l(7) =   3
                l(8) =   3
     Q(r) pseudized with 0 coefficients 


     PseudoPot. # 4 for Pd read from file:
     ./pseudo/Pd.pbe-spn-kjpaw_psl.1.0.0.UPF
     MD5 check sum: a60571a671f2502b8a6a4569d20a6edb
     Pseudo is Projector augmented-wave + core cor, Zval = 18.0
     Generated using 'atomic' code by A. Dal Corso  v.7.2
     Shape of augmentation charge: PSQ
     Using radial grid of 1235 points,  6 beta functions with: 
                l(1) =   0
                l(2) =   0
                l(3) =   1
                l(4) =   1
                l(5) =   2
                l(6) =   2
     Q(r) pseudized with 0 coefficients 


     atomic species   valence    mass     pseudopotential
     Mo               14.00    95.95000     Mo( 1.00)
     S                 6.00    32.06000     S ( 1.00)
     Pt               32.00   195.08400     Pt( 1.00)
     Pd               18.00   106.42000     Pd( 1.00)

     No symmetry found



   Cartesian axes

     site n.     atom                  positions (alat units)
         1        Mo     tau(   1) = (   0.0000010   0.1443372  -0.7272732  )
         2        Mo     tau(   2) = (   0.1249995   0.0721706  -0.2424038  )
         3        S      tau(   3) = (   0.0000015   0.1443386  -0.3667807  )
         4        S      tau(   4) = (   0.1250010   0.0721682  -0.6030489  )
         5        S      tau(   5) = (   0.1250010   0.0721683  -0.8514963  )
         6        S      tau(   6) = (   0.0000015   0.1443389  -0.1180260  )
         7        Mo     tau(   7) = (   0.0000005   0.1443381   0.2424561  )
         8        Mo     tau(   8) = (   0.1251981   0.0716023   0.7276027  )
         9        S      tau(   9) = (  -0.0003031   0.1454842   0.6052312  )
        10        S      tau(  10) = (   0.1249558   0.0721599   0.3668208  )
        11        S      tau(  11) = (   0.1250088   0.0721517   0.1180857  )
        12        S      tau(  12) = (  -0.0004157   0.1382876   0.8564685  )
        13        Mo     tau(  13) = (  -0.1249989   0.3608437  -0.7272732  )
        14        Mo     tau(  14) = (   0.0000030   0.2886752  -0.2424042  )
        15        S      tau(  15) = (  -0.1249977   0.3608450  -0.3667802  )
        16        S      tau(  16) = (   0.0000012   0.2886747  -0.6030489  )
        17        S      tau(  17) = (   0.0000012   0.2886748  -0.8514963  )
        18        S      tau(  18) = (  -0.1249977   0.3608454  -0.1180274  )
        19        Mo     tau(  19) = (  -0.1249623   0.3608201   0.2425155  )
        20        Mo     tau(  20) = (  -0.0007801   0.2872696   0.7308518  )
        21        S      tau(  21) = (  -0.1240398   0.3604107   0.6055268  )
        22        S      tau(  22) = (   0.0000411   0.2886546   0.3669163  )
        23        S      tau(  23) = (   0.0000035   0.2886726   0.1180964  )
        24        S      tau(  24) = (  -0.1315418   0.3638985   0.8543850  )
        25        Mo     tau(  25) = (  -0.2499987   0.5773502  -0.7272732  )
        26        Mo     tau(  26) = (  -0.1249977   0.5051839  -0.2424055  )
        27        S      tau(  27) = (  -0.2499981   0.5773518  -0.3667809  )
        28        S      tau(  28) = (  -0.1249986   0.5051812  -0.6030489  )
        29        S      tau(  29) = (  -0.1249986   0.5051813  -0.8514963  )
        30        S      tau(  30) = (  -0.2499979   0.5773512  -0.1180266  )
        31        Mo     tau(  31) = (  -0.2499787   0.5773156   0.2425145  )
        32        Mo     tau(  32) = (  -0.1271807   0.5060660   0.7281741  )
        33        S      tau(  33) = (  -0.2502658   0.5775034   0.6017985  )
        34        S      tau(  34) = (  -0.1249543   0.5051367   0.3669386  )
        35        S      tau(  35) = (  -0.1249864   0.5051552   0.1181399  )
        36        S      tau(  36) = (  -0.2525628   0.5785576   0.8514793  )
        37        Mo     tau(  37) = (  -0.3749985   0.7938567  -0.7272732  )
        38        Mo     tau(  38) = (  -0.2500001   0.7216874  -0.2424031  )
        39        S      tau(  39) = (  -0.3749980   0.7938584  -0.3667800  )
        40        S      tau(  40) = (  -0.2499984   0.7216877  -0.6030489  )
        41        S      tau(  41) = (  -0.2499984   0.7216878  -0.8514963  )
        42        S      tau(  42) = (  -0.3749982   0.7938585  -0.1180264  )
        43        Mo     tau(  43) = (  -0.3750043   0.7938372   0.2424536  )
        44        Mo     tau(  44) = (  -0.2503619   0.7218808   0.7263407  )
        45        S      tau(  45) = (  -0.3755748   0.7941519   0.6023691  )
        46        S      tau(  46) = (  -0.2500067   0.7216811   0.3668312  )
        47        S      tau(  47) = (  -0.2499793   0.7216445   0.1181126  )
        48        S      tau(  48) = (  -0.3746959   0.7932047   0.8515893  )
        49        Mo     tau(  49) = (   0.2500010   0.1443372  -0.7272732  )
        50        Mo     tau(  50) = (   0.3750034   0.0721723  -0.2424032  )
        51        S      tau(  51) = (   0.2500017   0.1443391  -0.3667788  )
        52        S      tau(  52) = (   0.3750010   0.0721682  -0.6030489  )
        53        S      tau(  53) = (   0.3750010   0.0721683  -0.8514963  )
        54        S      tau(  54) = (   0.2500016   0.1443391  -0.1180271  )
        55        Mo     tau(  55) = (   0.2500033   0.1443124   0.2424881  )
        56        Mo     tau(  56) = (   0.3752595   0.0716472   0.7255395  )
        57        S      tau(  57) = (   0.2498544   0.1431280   0.6011361  )
        58        S      tau(  58) = (   0.3750516   0.0721435   0.3668117  )
        59        S      tau(  59) = (   0.3750079   0.0721203   0.1180977  )
        60        S      tau(  60) = (   0.2517312   0.1427646   0.8506906  )
        61        Mo     tau(  61) = (   0.1250012   0.3608437  -0.7272732  )
        62        Mo     tau(  62) = (   0.2500029   0.2886782  -0.2424031  )
        63        S      tau(  63) = (   0.1250024   0.3608455  -0.3667794  )
        64        S      tau(  64) = (   0.2500012   0.2886747  -0.6030489  )
        65        S      tau(  65) = (   0.2500012   0.2886748  -0.8514963  )
        66        S      tau(  66) = (   0.1250021   0.3608455  -0.1180270  )
        67        Mo     tau(  67) = (   0.1249995   0.3608273   0.2424838  )
        68        Mo     tau(  68) = (   0.2535704   0.2866116   0.7259154  )
        69        S      tau(  69) = (   0.1241106   0.3617788   0.6079553  )
        70        S      tau(  70) = (   0.2499752   0.2886689   0.3668869  )
        71        S      tau(  71) = (   0.2500098   0.2886475   0.1181123  )
        72        S      tau(  72) = (   0.1336503   0.3523048   0.8541313  )
        73        Mo     tau(  73) = (   0.0000014   0.5773502  -0.7272732  )
        74        Mo     tau(  74) = (   0.1250045   0.5051840  -0.2424036  )
        75        S      tau(  75) = (   0.0000030   0.5773520  -0.3667799  )
        76        S      tau(  76) = (   0.1250014   0.5051812  -0.6030489  )
        77        S      tau(  77) = (   0.1250014   0.5051813  -0.8514963  )
        78        S      tau(  78) = (   0.0000026   0.5773517  -0.1180274  )
        79        Mo     tau(  79) = (   0.0000276   0.5772927   0.2425177  )
        80        Mo     tau(  80) = (   0.1255270   0.5059369   0.7313762  )
        81        S      tau(  81) = (   0.0011816   0.5764663   0.6064450  )
        82        S      tau(  82) = (   0.1250222   0.5051261   0.3669341  )
        83        S      tau(  83) = (   0.1249880   0.5051467   0.1180950  )
        84        S      tau(  84) = (  -0.0088763   0.5830479   0.8565830  )
        85        Mo     tau(  85) = (  -0.1249984   0.7938567  -0.7272732  )
        86        Mo     tau(  86) = (   0.0000069   0.7216896  -0.2424039  )
        87        S      tau(  87) = (  -0.1249975   0.7938582  -0.3667782  )
        88        S      tau(  88) = (   0.0000016   0.7216877  -0.6030489  )
        89        S      tau(  89) = (   0.0000016   0.7216878  -0.8514963  )
        90        S      tau(  90) = (  -0.1249973   0.7938582  -0.1180279  )
        91        Mo     tau(  91) = (  -0.1249699   0.7938095   0.2424907  )
        92        Mo     tau(  92) = (  -0.0004895   0.7231014   0.7275053  )
        93        S      tau(  93) = (  -0.1248847   0.7932555   0.6014963  )
        94        S      tau(  94) = (   0.0000405   0.7216116   0.3668908  )
        95        S      tau(  95) = (   0.0000242   0.7216332   0.1181249  )
        96        S      tau(  96) = (  -0.1259194   0.7949777   0.8510667  )
        97        Mo     tau(  97) = (   0.5000010   0.1443372  -0.7272732  )
        98        Mo     tau(  98) = (   0.6250001   0.0721662  -0.2424040  )
        99        S      tau(  99) = (   0.5000017   0.1443386  -0.3667801  )
       100        S      tau( 100) = (   0.6250010   0.0721682  -0.6030489  )
       101        S      tau( 101) = (   0.6250010   0.0721683  -0.8514963  )
       102        S      tau( 102) = (   0.5000020   0.1443388  -0.1180261  )
       103        Mo     tau( 103) = (   0.5000355   0.1442968   0.2424343  )
       104        Mo     tau( 104) = (   0.6251054   0.0720760   0.7269638  )
       105        S      tau( 105) = (   0.5007812   0.1439212   0.6015111  )
       106        S      tau( 106) = (   0.6250309   0.0721295   0.3668346  )
       107        S      tau( 107) = (   0.6250410   0.0721183   0.1180973  )
       108        S      tau( 108) = (   0.4998652   0.1442971   0.8504179  )
       109        Mo     tau( 109) = (   0.3750012   0.3608437  -0.7272732  )
       110        Mo     tau( 110) = (   0.4999991   0.2886761  -0.2424038  )
       111        S      tau( 111) = (   0.3750012   0.3608452  -0.3667804  )
       112        S      tau( 112) = (   0.5000012   0.2886747  -0.6030489  )
       113        S      tau( 113) = (   0.5000012   0.2886748  -0.8514963  )
       114        S      tau( 114) = (   0.3750014   0.3608455  -0.1180261  )
       115        Mo     tau( 115) = (   0.3749988   0.3608207   0.2424913  )
       116        Mo     tau( 116) = (   0.5005676   0.2886014   0.7258090  )
       117        S      tau( 117) = (   0.3761076   0.3615161   0.6013079  )
       118        S      tau( 118) = (   0.5000282   0.2886169   0.3668001  )
       119        S      tau( 119) = (   0.5000158   0.2886613   0.1180928  )
       120        S      tau( 120) = (   0.3768791   0.3600665   0.8508100  )
       121        Mo     tau( 121) = (   0.2500014   0.5773502  -0.7272732  )
       122        Mo     tau( 122) = (   0.3749983   0.5051825  -0.2424043  )
       123        S      tau( 123) = (   0.2500017   0.5773519  -0.3667810  )
       124        S      tau( 124) = (   0.3750014   0.5051812  -0.6030489  )
       125        S      tau( 125) = (   0.3750014   0.5051813  -0.8514963  )
       126        S      tau( 126) = (   0.2500018   0.5773519  -0.1180256  )
       127        Mo     tau( 127) = (   0.2499755   0.5773110   0.2424609  )
       128        Mo     tau( 128) = (   0.3758691   0.5051374   0.7277779  )
       129        S      tau( 129) = (   0.2483182   0.5768077   0.6062789  )
       130        S      tau( 130) = (   0.3749464   0.5051844   0.3668408  )
       131        S      tau( 131) = (   0.3749944   0.5051486   0.1180923  )
       132        S      tau( 132) = (   0.2574557   0.5818559   0.8585037  )
       133        Mo     tau( 133) = (   0.1250016   0.7938567  -0.7272732  )
       134        Mo     tau( 134) = (   0.2499995   0.7216883  -0.2424036  )
       135        S      tau( 135) = (   0.1250024   0.7938578  -0.3667813  )
       136        S      tau( 136) = (   0.2500016   0.7216877  -0.6030489  )
       137        S      tau( 137) = (   0.2500016   0.7216878  -0.8514963  )
       138        S      tau( 138) = (   0.1250024   0.7938579  -0.1180253  )
       139        Mo     tau( 139) = (   0.1250229   0.7938069   0.2425006  )
       140        Mo     tau( 140) = (   0.2504358   0.7224862   0.7284223  )
       141        S      tau( 141) = (   0.1254429   0.7935457   0.6029055  )
       142        S      tau( 142) = (   0.2500049   0.7216116   0.3668842  )
       143        S      tau( 143) = (   0.2500022   0.7216616   0.1181021  )
       144        S      tau( 144) = (   0.1246626   0.7944127   0.8519137  )
       145        Mo     tau( 145) = (   0.7500010   0.1443372  -0.7272732  )
       146        Mo     tau( 146) = (   0.8750038   0.0721696  -0.2424038  )
       147        S      tau( 147) = (   0.7500016   0.1443382  -0.3667789  )
       148        S      tau( 148) = (   0.8750010   0.0721682  -0.6030489  )
       149        S      tau( 149) = (   0.8750010   0.0721683  -0.8514963  )
       150        S      tau( 150) = (   0.7500016   0.1443384  -0.1180279  )
       151        Mo     tau( 151) = (   0.7500289   0.1443141   0.2424936  )
       152        Mo     tau( 152) = (   0.8748115   0.0715393   0.7280420  )
       153        S      tau( 153) = (   0.7503587   0.1440662   0.6027403  )
       154        S      tau( 154) = (   0.8750369   0.0721618   0.3668742  )
       155        S      tau( 155) = (   0.8750002   0.0721408   0.1181001  )
       156        S      tau( 156) = (   0.7494385   0.1444101   0.8516821  )
       157        Mo     tau( 157) = (   0.6250012   0.3608437  -0.7272732  )
       158        Mo     tau( 158) = (   0.7500028   0.2886769  -0.2424041  )
       159        S      tau( 159) = (   0.6250015   0.3608451  -0.3667792  )
       160        S      tau( 160) = (   0.7500012   0.2886747  -0.6030489  )
       161        S      tau( 161) = (   0.7500012   0.2886748  -0.8514963  )
       162        S      tau( 162) = (   0.6250016   0.3608454  -0.1180280  )
       163        Mo     tau( 163) = (   0.6250302   0.3608127   0.2424760  )
       164        Mo     tau( 164) = (   0.7487590   0.2885376   0.7272130  )
       165        S      tau( 165) = (   0.6254237   0.3608917   0.6015174  )
       166        S      tau( 166) = (   0.7500486   0.2886525   0.3668797  )
       167        S      tau( 167) = (   0.7500385   0.2886557   0.1181169  )
       168        S      tau( 168) = (   0.6239430   0.3610912   0.8510113  )
       169        Mo     tau( 169) = (   0.5000014   0.5773502  -0.7272732  )
       170        Mo     tau( 170) = (   0.6250029   0.5051841  -0.2424047  )
       171        S      tau( 171) = (   0.5000014   0.5773518  -0.3667794  )
       172        S      tau( 172) = (   0.6250014   0.5051812  -0.6030489  )
       173        S      tau( 173) = (   0.6250014   0.5051813  -0.8514963  )
       174        S      tau( 174) = (   0.5000016   0.5773516  -0.1180277  )
       175        Mo     tau( 175) = (   0.4999859   0.5773250   0.2424709  )
       176        Mo     tau( 176) = (   0.6245890   0.5053660   0.7261562  )
       177        S      tau( 177) = (   0.4993068   0.5776651   0.6022414  )
       178        S      tau( 178) = (   0.6249823   0.5051501   0.3668388  )
       179        S      tau( 179) = (   0.6250205   0.5051637   0.1181147  )
       180        S      tau( 180) = (   0.5009766   0.5773609   0.8515797  )
       181        Mo     tau( 181) = (   0.3750016   0.7938567  -0.7272732  )
       182        Mo     tau( 182) = (   0.5000025   0.7216901  -0.2424039  )
       183        S      tau( 183) = (   0.3750019   0.7938578  -0.3667793  )
       184        S      tau( 184) = (   0.5000016   0.7216877  -0.6030489  )
       185        S      tau( 185) = (   0.5000016   0.7216878  -0.8514963  )
       186        S      tau( 186) = (   0.3750020   0.7938579  -0.1180272  )
       187        Mo     tau( 187) = (   0.3749951   0.7938323   0.2424893  )
       188        Mo     tau( 188) = (   0.4998599   0.7217391   0.7271366  )
       189        S      tau( 189) = (   0.3746033   0.7939741   0.6029663  )
       190        S      tau( 190) = (   0.4999946   0.7216688   0.3668260  )
       191        S      tau( 191) = (   0.4999891   0.7216628   0.1180901  )
       192        S      tau( 192) = (   0.3755955   0.7938624   0.8526444  )
       193        Pt     tau( 193) = (   0.1194898   0.4990527   0.9549993  )
       194        Pd     tau( 194) = (   0.0026419   0.2990244   0.9662205  )
       195        Pd     tau( 195) = (   0.8748144   0.0715591   0.9834225  )

     --------------------------------------------
     DFT-D3 Dispersion Correction (3-body terms):
     --------------------------------------------
       Reference C6 values for interpolation: 

         atom   Coordination number   C6
         S          0.000           268.01
         S          0.995           261.99
         S          1.990           251.62
         Mo         0.000          1691.79
         Mo         1.942          1004.01
         Mo        11.056           674.22
         Pd         0.000          1217.01
         Pd         1.863           573.90
         Pd         5.710           531.75
         Pt         0.000           782.29
         Pt         1.919           692.72
         Pt         6.667           673.75

       Values used:

         atom   Coordination number  R0_AB[au]  C6      C8
         Mo        10.208            3.547    674.22  77634.20
         Mo        10.221            3.547    674.22  77634.20
         S          3.858            3.128    251.62  12327.25
         S          3.859            3.128    251.62  12327.25
         S          3.758            3.128    251.62  12327.25
         S          3.859            3.128    251.62  12327.25
         Mo        10.221            3.547    674.22  77634.20
         Mo        10.235            3.547    674.22  77634.20
         S          3.850            3.128    251.62  12327.25
         S          3.859            3.128    251.62  12327.25
         S          3.859            3.128    251.62  12327.25
         S          5.558            3.128    251.62  12327.25
         Mo        10.208            3.547    674.21  77634.20
         Mo        10.221            3.547    674.22  77634.20
         S          3.858            3.128    251.62  12327.25
         S          3.859            3.128    251.62  12327.25
         S          3.758            3.128    251.62  12327.25
         S          3.859            3.128    251.62  12327.25
         Mo        10.222            3.547    674.22  77634.20
         Mo        10.728            3.547    674.22  77634.20
         S          3.862            3.128    251.62  12327.25
         S          3.850            3.128    251.62  12327.25
         S          3.859            3.128    251.62  12327.25
         S          4.675            3.128    251.62  12327.25
         Mo        10.208            3.547    674.22  77634.20
         Mo        10.221            3.547    674.22  77634.20
         S          3.858            3.128    251.62  12327.25
         S          3.859            3.128    251.62  12327.25
         S          3.758            3.128    251.62  12327.25
         S          3.859            3.128    251.62  12327.25
         Mo        10.220            3.547    674.22  77634.20
         Mo        10.171            3.547    674.22  77634.20
         S          3.842            3.128    251.62  12327.25
         S          3.853            3.128    251.62  12327.25
         S          3.859            3.128    251.62  12327.25
         S          3.843            3.128    251.62  12327.25
         Mo        10.208            3.547    674.22  77634.20
         Mo        10.220            3.547    674.22  77634.20
         S          3.858            3.128    251.62  12327.25
         S          3.859            3.128    251.62  12327.25
         S          3.758            3.128    251.62  12327.25
         S          3.859            3.128    251.62  12327.25
         Mo        10.220            3.547    674.22  77634.20
         Mo        10.260            3.547    674.22  77634.20
         S          3.856            3.128    251.62  12327.25
         S          3.861            3.128    251.62  12327.25
         S          3.859            3.128    251.62  12327.25
         S          3.816            3.128    251.62  12327.25
         Mo        10.208            3.547    674.22  77634.20
         Mo        10.221            3.547    674.22  77634.20
         S          3.858            3.128    251.62  12327.25
         S          3.859            3.128    251.62  12327.25
         S          3.758            3.128    251.62  12327.25
         S          3.859            3.128    251.62  12327.25
         Mo        10.220            3.547    674.22  77634.20
         Mo        10.278            3.547    674.22  77634.20
         S          3.837            3.128    251.62  12327.25
         S          3.863            3.128    251.62  12327.25
         S          3.859            3.128    251.62  12327.25
         S          3.842            3.128    251.62  12327.25
         Mo        10.208            3.547    674.22  77634.20
         Mo        10.221            3.547    674.22  77634.20
         S          3.858            3.128    251.62  12327.25
         S          3.859            3.128    251.62  12327.25
         S          3.758            3.128    251.62  12327.25
         S          3.859            3.128    251.62  12327.25
         Mo        10.222            3.547    674.22  77634.20
         Mo        10.177            3.547    674.22  77634.20
         S          3.873            3.128    251.62  12327.25
         S          3.855            3.128    251.62  12327.25
         S          3.859            3.128    251.62  12327.25
         S          5.643            3.128    251.62  12327.25
         Mo        10.208            3.547    674.22  77634.20
         Mo        10.221            3.547    674.22  77634.20
         S          3.858            3.128    251.62  12327.25
         S          3.859            3.128    251.62  12327.25
         S          3.758            3.128    251.62  12327.25
         S          3.859            3.128    251.62  12327.25
         Mo        10.222            3.547    674.22  77634.20
         Mo        10.867            3.547    674.22  77634.20
         S          3.860            3.128    251.62  12327.25
         S          3.850            3.128    251.62  12327.25
         S          3.859            3.128    251.62  12327.25
         S          4.672            3.128    251.62  12327.25
         Mo        10.208            3.547    674.22  77634.20
         Mo        10.221            3.547    674.22  77634.20
         S          3.858            3.128    251.62  12327.25
         S          3.859            3.128    251.62  12327.25
         S          3.758            3.128    251.62  12327.25
         S          3.859            3.128    251.62  12327.25
         Mo        10.220            3.547    674.22  77634.20
         Mo        10.215            3.547    674.22  77634.20
         S          3.850            3.128    251.62  12327.25
         S          3.856            3.128    251.62  12327.25
         S          3.859            3.128    251.62  12327.25
         S          3.827            3.128    251.62  12327.25
         Mo        10.208            3.547    674.22  77634.20
         Mo        10.221            3.547    674.22  77634.20
         S          3.858            3.128    251.62  12327.25
         S          3.859            3.128    251.62  12327.25
         S          3.758            3.128    251.62  12327.25
         S          3.859            3.128    251.62  12327.25
         Mo        10.220            3.547    674.22  77634.20
         Mo        10.257            3.547    674.22  77634.20
         S          3.856            3.128    251.62  12327.25
         S          3.861            3.128    251.62  12327.25
         S          3.859            3.128    251.62  12327.25
         S          3.790            3.128    251.62  12327.25
         Mo        10.208            3.547    674.22  77634.20
         Mo        10.221            3.547    674.22  77634.20
         S          3.858            3.128    251.62  12327.25
         S          3.859            3.128    251.62  12327.25
         S          3.758            3.128    251.62  12327.25
         S          3.859            3.128    251.62  12327.25
         Mo        10.220            3.547    674.22  77634.20
         Mo        10.278            3.547    674.22  77634.20
         S          3.840            3.128    251.62  12327.25
         S          3.863            3.128    251.62  12327.25
         S          3.859            3.128    251.62  12327.25
         S          3.819            3.128    251.62  12327.25
         Mo        10.208            3.547    674.22  77634.20
         Mo        10.221            3.547    674.22  77634.20
         S          3.858            3.128    251.62  12327.25
         S          3.859            3.128    251.62  12327.25
         S          3.758            3.128    251.62  12327.25
         S          3.859            3.128    251.62  12327.25
         Mo        10.222            3.547    674.22  77634.20
         Mo        10.220            3.547    674.22  77634.20
         S          3.851            3.128    251.62  12327.25
         S          3.858            3.128    251.62  12327.25
         S          3.859            3.128    251.62  12327.25
         S          4.643            3.128    251.62  12327.25
         Mo        10.208            3.547    674.22  77634.20
         Mo        10.221            3.547    674.22  77634.20
         S          3.858            3.128    251.62  12327.25
         S          3.859            3.128    251.62  12327.25
         S          3.758            3.128    251.62  12327.25
         S          3.859            3.128    251.62  12327.25
         Mo        10.221            3.547    674.22  77634.20
         Mo        10.233            3.547    674.22  77634.20
         S          3.863            3.128    251.62  12327.25
         S          3.856            3.128    251.62  12327.25
         S          3.859            3.128    251.62  12327.25
         S          3.772            3.128    251.62  12327.25
         Mo        10.208            3.547    674.21  77634.20
         Mo        10.221            3.547    674.22  77634.20
         S          3.858            3.128    251.62  12327.25
         S          3.859            3.128    251.62  12327.25
         S          3.758            3.128    251.62  12327.25
         S          3.859            3.128    251.62  12327.25
         Mo        10.221            3.547    674.22  77634.20
         Mo        10.589            3.547    674.22  77634.20
         S          3.864            3.128    251.62  12327.25
         S          3.857            3.128    251.62  12327.25
         S          3.859            3.128    251.62  12327.25
         S          4.661            3.128    251.62  12327.25
         Mo        10.208            3.547    674.22  77634.20
         Mo        10.220            3.547    674.22  77634.20
         S          3.858            3.128    251.62  12327.25
         S          3.859            3.128    251.62  12327.25
         S          3.758            3.128    251.62  12327.25
         S          3.859            3.128    251.62  12327.25
         Mo        10.220            3.547    674.22  77634.20
         Mo        10.232            3.547    674.22  77634.20
         S          3.854            3.128    251.62  12327.25
         S          3.857            3.128    251.62  12327.25
         S          3.859            3.128    251.62  12327.25
         S          3.810            3.128    251.62  12327.25
         Mo        10.208            3.547    674.22  77634.20
         Mo        10.221            3.547    674.22  77634.20
         S          3.858            3.128    251.62  12327.25
         S          3.859            3.128    251.62  12327.25
         S          3.758            3.128    251.62  12327.25
         S          3.859            3.128    251.62  12327.25
         Mo        10.220            3.547    674.22  77634.20
         Mo        10.267            3.547    674.22  77634.20
         S          3.853            3.128    251.62  12327.25
         S          3.861            3.128    251.62  12327.25
         S          3.859            3.128    251.62  12327.25
         S          3.821            3.128    251.62  12327.25
         Mo        10.208            3.547    674.22  77634.20
         Mo        10.221            3.547    674.22  77634.20
         S          3.858            3.128    251.62  12327.25
         S          3.859            3.128    251.62  12327.25
         S          3.758            3.128    251.62  12327.25
         S          3.859            3.128    251.62  12327.25
         Mo        10.221            3.547    674.22  77634.20
         Mo        10.257            3.547    674.21  77634.20
         S          3.853            3.128    251.62  12327.25
         S          3.860            3.128    251.62  12327.25
         S          3.859            3.128    251.62  12327.25
         S          4.731            3.128    251.62  12327.25
         Pt         4.461            3.168    673.78  70065.13
         Pd         4.231            3.168    531.75  48720.73
         Pd         3.285            3.168    573.90  52583.08

         Molecular C6 ( Ry / a.u.^6 ) =  14156058.11


     number of k points=     4  Gaussian smearing, width (Ry)=  0.0100
                       cart. coord. in units 2pi/alat
        k(    1) = (   0.0000000   0.0000000   0.0000000), wk =   0.5000000
        k(    2) = (   0.0000000  -0.5773499   0.0000000), wk =   0.5000000
        k(    3) = (  -0.5000000  -0.2886744   0.0000000), wk =   0.5000000
        k(    4) = (  -0.5000000  -0.8660242   0.0000000), wk =   0.5000000

     Dense  grid:  7154885 G-vectors     FFT dimensions: ( 180, 180, 512)

     Smooth grid:  3090769 G-vectors     FFT dimensions: ( 135, 135, 400)

     Estimated max dynamical RAM per process >       4.32 GB

     Estimated total dynamical RAM >     155.52 GB

     Initial potential from superposition of free atoms

     starting charge    1731.9386, renormalised to    1732.0000

     negative rho (up, down):  1.026E-03 0.000E+00
     Starting wfcs are 1189 randomized atomic wfcs
     Checking if some PAW data can be deallocated... 

     total cpu time spent up to now is      182.1 secs

     Self-consistent Calculation

     iteration #  1     ecut=    77.00 Ry     beta= 0.20
     Davidson diagonalization with overlap
     ethr =  1.00E-02,  avg # of iterations =  2.0

     Threshold (ethr) on eigenvalues was too large:
     Diagonalizing with lowered threshold

     Davidson diagonalization with overlap
     ethr =  2.02E-04,  avg # of iterations = 16.0

     negative rho (up, down):  2.820E-04 0.000E+00

     total cpu time spent up to now is     2087.2 secs

     total energy              =  -34492.06656940 Ry
     estimated scf accuracy    <       6.54698771 Ry

     iteration #  2     ecut=    77.00 Ry     beta= 0.20
     Davidson diagonalization with overlap
     ethr =  3.78E-04,  avg # of iterations =  5.0

     negative rho (up, down):  3.565E-05 0.000E+00

     total cpu time spent up to now is     2507.5 secs

     total energy              =  -34490.94051736 Ry
     estimated scf accuracy    <       3.28570741 Ry

     iteration #  3     ecut=    77.00 Ry     beta= 0.20
     Davidson diagonalization with overlap
     ethr =  1.90E-04,  avg # of iterations = 17.2

     negative rho (up, down):  2.390E-05 0.000E+00

     total cpu time spent up to now is     3032.1 secs

     total energy              =  -34491.31418615 Ry
     estimated scf accuracy    <       1.30450739 Ry

     iteration #  4     ecut=    77.00 Ry     beta= 0.20
     Davidson diagonalization with overlap
     ethr =  7.53E-05,  avg # of iterations = 12.0

     negative rho (up, down):  1.766E-05 0.000E+00

     total cpu time spent up to now is     3814.2 secs

     total energy              =  -34491.79967170 Ry
     estimated scf accuracy    <       0.39411053 Ry

     iteration #  5     ecut=    77.00 Ry     beta= 0.20
     Davidson diagonalization with overlap
     ethr =  2.28E-05,  avg # of iterations = 15.2

     negative rho (up, down):  3.507E-05 0.000E+00

     total cpu time spent up to now is     4843.8 secs

     total energy              =  -34492.16530908 Ry
     estimated scf accuracy    <       0.18015498 Ry

     iteration #  6     ecut=    77.00 Ry     beta= 0.20
     Davidson diagonalization with overlap
     c_bands:  1 eigenvalues not converged
     c_bands:  1 eigenvalues not converged
     c_bands:  1 eigenvalues not converged
     ethr =  1.04E-05,  avg # of iterations = 19.5

     negative rho (up, down):  8.742E-05 0.000E+00

     total cpu time spent up to now is     5599.0 secs

     total energy              =  -34492.19375507 Ry
     estimated scf accuracy    <       0.12923698 Ry

     iteration #  7     ecut=    77.00 Ry     beta= 0.20
     Davidson diagonalization with overlap
     c_bands:  1 eigenvalues not converged
     c_bands:  1 eigenvalues not converged
     ethr =  7.46E-06,  avg # of iterations = 15.8

     negative rho (up, down):  7.411E-04 0.000E+00

     total cpu time spent up to now is     6070.6 secs

     total energy              =  -34492.19308992 Ry
     estimated scf accuracy    <       0.07161652 Ry

     iteration #  8     ecut=    77.00 Ry     beta= 0.20
     Davidson diagonalization with overlap
     c_bands:  3 eigenvalues not converged
     c_bands:  3 eigenvalues not converged
     c_bands:  4 eigenvalues not converged
     c_bands:  4 eigenvalues not converged
     ethr =  4.13E-06,  avg # of iterations = 30.0

     negative rho (up, down):  5.287E-04 0.000E+00

     total cpu time spent up to now is     7279.9 secs

     total energy              =  -34492.21494567 Ry
     estimated scf accuracy    <       0.08440411 Ry

     iteration #  9     ecut=    77.00 Ry     beta= 0.20
     Davidson diagonalization with overlap
     c_bands:  3 eigenvalues not converged
     c_bands:  3 eigenvalues not converged
     c_bands:  1 eigenvalues not converged
     ethr =  4.13E-06,  avg # of iterations = 15.5

     negative rho (up, down):  4.611E-04 0.000E+00

     total cpu time spent up to now is     7755.7 secs

     total energy              =  -34492.21568526 Ry
     estimated scf accuracy    <       0.01244152 Ry

     iteration # 10     ecut=    77.00 Ry     beta= 0.20
     Davidson diagonalization with overlap
     c_bands:  4 eigenvalues not converged
     ethr =  7.18E-07,  avg # of iterations = 51.5

     negative rho (up, down):  5.391E-04 0.000E+00

     total cpu time spent up to now is    10172.5 secs

     total energy              =  -34492.24055569 Ry
     estimated scf accuracy    <       0.01375527 Ry

     iteration # 11     ecut=    77.00 Ry     beta= 0.20
     Davidson diagonalization with overlap
     ethr =  7.18E-07,  avg # of iterations =  1.2

     negative rho (up, down):  7.147E-04 0.000E+00

     total cpu time spent up to now is    10555.0 secs

     total energy              =  -34492.23690651 Ry
     estimated scf accuracy    <       0.00696079 Ry

     iteration # 12     ecut=    77.00 Ry     beta= 0.20
     Davidson diagonalization with overlap
     ethr =  4.02E-07,  avg # of iterations =  5.5

     negative rho (up, down):  8.837E-04 0.000E+00

     total cpu time spent up to now is    11145.6 secs

     total energy              =  -34492.23907779 Ry
     estimated scf accuracy    <       0.00044634 Ry

     iteration # 13     ecut=    77.00 Ry     beta= 0.20
     Davidson diagonalization with overlap
     c_bands:  1 eigenvalues not converged
     ethr =  2.58E-08,  avg # of iterations = 31.2

     negative rho (up, down):  7.885E-04 0.000E+00

     total cpu time spent up to now is    14594.7 secs

     total energy              =  -34492.24068643 Ry
     estimated scf accuracy    <       0.00539533 Ry

     iteration # 14     ecut=    77.00 Ry     beta= 0.20
     Davidson diagonalization with overlap
     ethr =  2.58E-08,  avg # of iterations =  9.0

     negative rho (up, down):  8.020E-04 0.000E+00

     total cpu time spent up to now is    15407.1 secs

     total energy              =  -34492.24084527 Ry
     estimated scf accuracy    <       0.00095286 Ry

     iteration # 15     ecut=    77.00 Ry     beta= 0.20
     Davidson diagonalization with overlap
     ethr =  2.58E-08,  avg # of iterations =  6.2

     negative rho (up, down):  8.720E-04 0.000E+00

     total cpu time spent up to now is    16058.4 secs

     total energy              =  -34492.24095827 Ry
     estimated scf accuracy    <       0.00014408 Ry

     iteration # 16     ecut=    77.00 Ry     beta= 0.20
     Davidson diagonalization with overlap
     c_bands:  3 eigenvalues not converged
     ethr =  8.32E-09,  avg # of iterations = 15.0

     negative rho (up, down):  9.082E-04 0.000E+00

     total cpu time spent up to now is    17226.4 secs

     total energy              =  -34492.24113145 Ry
     estimated scf accuracy    <       0.00018189 Ry

     iteration # 17     ecut=    77.00 Ry     beta= 0.20
     Davidson diagonalization with overlap
     c_bands:  2 eigenvalues not converged
     ethr =  8.32E-09,  avg # of iterations =  7.2

     negative rho (up, down):  9.201E-04 0.000E+00

     total cpu time spent up to now is    17676.6 secs

     total energy              =  -34492.24112567 Ry
     estimated scf accuracy    <       0.00002760 Ry

     iteration # 18     ecut=    77.00 Ry     beta= 0.20
     Davidson diagonalization with overlap
     ethr =  1.59E-09,  avg # of iterations = 13.0

     negative rho (up, down):  9.300E-04 0.000E+00

     total cpu time spent up to now is    18703.8 secs

     total energy              =  -34492.24116331 Ry
     estimated scf accuracy    <       0.00001067 Ry

     iteration # 19     ecut=    77.00 Ry     beta= 0.20
     Davidson diagonalization with overlap
     ethr =  6.16E-10,  avg # of iterations = 11.2

     negative rho (up, down):  9.291E-04 0.000E+00

     total cpu time spent up to now is    19556.1 secs

     total energy              =  -34492.24115966 Ry
     estimated scf accuracy    <       0.00002274 Ry

     iteration # 20     ecut=    77.00 Ry     beta= 0.20
     Davidson diagonalization with overlap
     ethr =  6.16E-10,  avg # of iterations =  6.8

     negative rho (up, down):  9.300E-04 0.000E+00

     total cpu time spent up to now is    20003.0 secs

     total energy              =  -34492.24115564 Ry
     estimated scf accuracy    <       0.00000585 Ry

     iteration # 21     ecut=    77.00 Ry     beta= 0.20
     Davidson diagonalization with overlap
     c_bands:  2 eigenvalues not converged
     c_bands:  2 eigenvalues not converged
     ethr =  3.38E-10,  avg # of iterations = 16.8

     negative rho (up, down):  9.323E-04 0.000E+00

     total cpu time spent up to now is    21155.9 secs

     total energy              =  -34492.24116060 Ry
     estimated scf accuracy    <       0.00000864 Ry

     iteration # 22     ecut=    77.00 Ry     beta= 0.20
     Davidson diagonalization with overlap
     ethr =  3.38E-10,  avg # of iterations =  4.0

     negative rho (up, down):  9.345E-04 0.000E+00

     total cpu time spent up to now is    21564.5 secs

     total energy              =  -34492.24115803 Ry
     estimated scf accuracy    <       0.00000236 Ry

     iteration # 23     ecut=    77.00 Ry     beta= 0.20
     Davidson diagonalization with overlap
     ethr =  1.36E-10,  avg # of iterations = 10.5

     negative rho (up, down):  9.358E-04 0.000E+00

     total cpu time spent up to now is    22441.6 secs

     total energy              =  -34492.24115982 Ry
     estimated scf accuracy    <       0.00000107 Ry

     iteration # 24     ecut=    77.00 Ry     beta= 0.20
     Davidson diagonalization with overlap
     ethr =  6.16E-11,  avg # of iterations =  6.2

     negative rho (up, down):  9.348E-04 0.000E+00

     total cpu time spent up to now is    22897.3 secs

     End of self-consistent calculation

          k = 0.0000 0.0000 0.0000 (386245 PWs)   bands (ev):

  -102.8961 -88.7348 -88.0713 -71.2229 -71.2153 -71.2000 -71.1891 -71.1772
   -71.1701 -71.1597 -66.5954 -66.5954 -66.5941 -66.5908 -66.5771 -66.5747
   -66.5744 -66.5743 -66.5741 -66.5741 -66.5741 -66.5741 -66.5741 -66.5741
   -66.5741 -66.5740 -66.5740 -66.5738 -66.5728 -66.5728 -66.5728 -66.5728
   -66.5728 -66.5728 -66.5616 -66.5608 -66.5576 -66.5531 -66.5530 -66.5530
   -66.5528 -66.5528 -66.5527 -66.5527 -66.5527 -66.5527 -66.5527 -66.5527
   -66.5527 -66.5527 -66.5527 -66.5527 -66.5526 -66.5526 -66.5525 -66.5522
   -66.5514 -66.5514 -66.5514 -66.5514 -66.5514 -66.5514 -66.5514 -66.5514
   -66.5514 -66.5485 -66.5437 -66.5320 -66.5282 -66.5250 -66.5218 -66.5143
   -66.5124 -66.5029 -57.2004 -57.0910 -57.0649 -54.6167 -54.5033 -54.4538
   -53.9114 -53.8859 -53.8325 -40.9229 -40.9229 -40.9229 -40.9229 -40.9228
   -40.9227 -40.9222 -40.9222 -40.9222 -40.9119 -40.9050 -40.9006 -40.8477
   -40.8476 -40.8476 -40.8476 -40.8475 -40.8475 -40.8475 -40.8475 -40.8475
   -40.8475 -40.8474 -40.8472 -40.8469 -40.8469 -40.8469 -40.8469 -40.8468
   -40.8468 -40.8391 -40.8353 -40.8238 -40.8213 -40.8151 -40.8086 -40.7714
   -40.7551 -40.7550 -40.7544 -40.7492 -40.7260 -40.7214 -40.7213 -40.7212
   -40.7212 -40.7212 -40.7212 -40.7212 -40.7212 -40.7212 -40.7211 -40.7211
   -40.7209 -40.7204 -40.7204 -40.7204 -40.7204 -40.7204 -40.7204 -40.7201
   -40.7189 -40.7150 -40.7136 -40.7135 -40.7134 -40.7133 -40.7133 -40.7133
   -40.7133 -40.7133 -40.7133 -40.7132 -40.7132 -40.7130 -40.7127 -40.7127
   -40.7127 -40.7127 -40.7127 -40.7126 -40.7123 -40.7080 -40.7047 -40.7022
   -40.6945 -40.6902 -40.6885 -40.6864 -40.6862 -40.6862 -40.6862 -40.6862
   -40.6862 -40.6862 -40.6862 -40.6861 -40.6861 -40.6860 -40.6859 -40.6853
   -40.6853 -40.6853 -40.6853 -40.6853 -40.6853 -40.6853 -40.6801 -40.6763
   -40.6745 -40.6734 -40.6717 -40.6716 -40.6716 -40.6714 -40.6714 -40.6714
   -40.6714 -40.6714 -40.6714 -40.6714 -40.6714 -40.6713 -40.6713 -40.6713
   -40.6713 -40.6712 -40.6711 -40.6711 -40.6708 -40.6707 -40.6707 -40.6706
   -40.6706 -40.6706 -40.6706 -40.6706 -40.6706 -40.6706 -40.6696 -40.6666
   -40.6654 -40.6623 -40.6556 -40.6519 -40.6480 -40.6451 -40.6398 -40.6079
   -40.6078 -40.6078 -40.6078 -40.6078 -40.6077 -40.6069 -40.6069 -40.6069
   -40.5953 -40.5832 -40.5801 -40.5609 -40.5608 -40.5608 -40.5607 -40.5607
   -40.5607 -40.5607 -40.5607 -40.5607 -40.5606 -40.5605 -40.5604 -40.5597
   -40.5597 -40.5597 -40.5597 -40.5597 -40.5597 -40.5415 -40.5383 -40.5330
   -40.5304 -40.5296 -40.5214 -40.5131 -40.5131 -40.5130 -40.5130 -40.5121
   -40.5121 -40.4864 -40.4730 -20.1888 -20.0725 -19.9704 -19.8618 -19.6221
   -19.4053 -19.2893 -19.2526 -19.2307 -19.2221 -19.2091 -19.2068 -19.2021
   -19.1958 -19.1809 -19.1659 -19.1227 -19.1176 -19.1114 -19.1069 -19.0959
   -19.0833 -19.0179 -19.0142 -19.0112 -19.0103 -19.0061 -19.0015 -18.8967
   -18.7873 -18.7486 -18.6170 -18.5836 -18.5428 -18.5093 -18.4810 -18.4653
   -18.4534 -18.4428 -18.4080 -18.4003 -18.3884 -18.3806 -18.3647 -18.3530
   -18.3099 -18.2798 -18.2611 -18.2551 -18.2524 -18.2433 -18.2194 -18.2107
   -18.1708 -18.1561 -18.1557 -18.1528 -18.1461 -18.1456 -18.1336 -18.0953
   -18.0938 -18.0920 -18.0911 -18.0900 -18.0899 -18.0688 -18.0660 -18.0590
   -18.0581 -18.0555 -18.0498 -18.0484 -18.0477 -18.0466 -18.0388 -18.0272
   -18.0233 -18.0228 -18.0193 -18.0101 -18.0084 -18.0050 -17.9921 -17.9888
   -17.9814 -17.9793 -17.9772 -17.9734 -17.9650 -17.9626 -17.9610 -17.9334
   -17.9223 -17.9191 -17.9132 -17.9045 -17.8975 -17.8951 -17.8942 -17.8895
   -17.8705 -17.8667 -17.8620 -17.8555 -17.8514 -17.8460 -17.8440 -17.8418
   -17.8383 -17.8313 -17.8308 -17.8281 -17.8129 -17.8124 -17.8115 -17.8031
   -17.8011 -17.7978 -17.7971 -17.7949 -17.7923 -17.7690 -17.7686 -17.7677
   -17.7674 -17.7665 -17.7656 -12.2326 -12.0266 -11.9440 -11.8829 -11.7967
   -11.7712 -11.7615 -11.7590 -11.6591 -11.6531 -11.6397 -11.5899 -11.5331
   -11.5256 -11.5214 -11.4897 -11.4288 -11.3454 -11.2653 -11.2460 -11.2278
   -11.2141 -11.2120 -11.2083 -11.1884 -11.1754 -11.1549 -11.1279 -11.1139
   -11.1028 -11.1011 -11.1001 -11.0971 -11.0924 -11.0753 -11.0575 -11.0493
   -11.0451 -11.0392 -11.0322 -11.0301 -11.0247 -11.0192 -11.0094 -11.0035
   -10.9928 -10.9671 -10.9642 -10.9452 -10.9348 -10.9237 -10.9212 -10.9123
   -10.9006 -10.8873 -10.8694 -10.8647 -10.8640 -10.8625 -10.8497 -10.8412
   -10.8316 -10.8223 -10.8181 -10.8159 -10.8115 -10.8072 -10.8028 -10.8013
   -10.7994 -10.7975 -10.7926 -10.7866 -10.7842 -10.7813 -10.7773 -10.7566
   -10.7533 -10.7515 -10.7501 -10.7477 -10.7443 -10.7432 -10.7376 -10.7340
   -10.7098 -10.7093 -10.7090 -10.7088 -10.7067 -10.7060 -10.6527 -10.6395
   -10.6324 -10.6035 -10.5819 -10.5743 -10.5627 -10.5605 -10.5552 -10.5487
   -10.4539 -10.3491 -10.2469 -10.1842 -10.1265 -10.1051 -10.0349 -10.0066
    -9.9573  -9.9178  -9.8771  -9.8499  -9.8198  -9.7991  -9.7862  -9.7787
    -9.7718  -9.7560  -9.7523  -9.7472  -9.7441  -9.7391  -9.7381  -9.7362
    -9.7327  -9.7248  -9.7219  -9.7187  -9.7174  -9.7142  -9.7058  -9.7018
    -9.6785  -9.6657  -9.6419  -9.6116  -9.6109  -9.6069  -9.5997  -9.5972
    -9.5919  -9.5911  -9.5900  -9.5891  -9.5879  -9.5874  -9.5839  -9.5591
    -9.5479  -9.5394  -9.5147  -9.5135  -9.5128  -9.5127  -9.5126  -9.5123
    -9.5118  -9.5085  -9.4972  -9.4885  -9.4806  -9.4794  -9.4712  -9.4331
    -9.4295  -9.3991  -9.3640  -9.3566  -9.3429  -9.3320  -9.3286  -9.3238
    -9.3188  -9.3093  -9.3027  -9.2949  -9.2864  -9.2812  -9.2492  -9.2358
    -9.2301  -9.2096  -9.2011  -9.1969  -9.1923  -9.1709  -9.1610  -9.1563
    -9.1542  -9.1522  -9.1511  -9.1502  -9.1453  -9.1257  -9.1097  -9.0981
    -9.0857  -9.0822  -9.0429  -9.0051  -8.9788  -8.9712  -8.9540  -8.9513
    -8.9501  -8.9493  -8.9274  -8.9201  -8.9191  -8.9061  -8.8890  -8.8887
    -8.8879  -8.8843  -8.8811  -8.8754  -8.8661  -8.8611  -8.8564  -8.7931
    -8.7930  -8.7928  -8.7926  -8.7920  -8.7917  -8.7567  -8.7352  -8.7309
    -8.7228  -8.7191  -8.7108  -8.7044  -8.6497  -8.6427  -8.6404  -8.6361
    -8.6320  -8.6259  -8.5966  -8.5753  -8.5646  -8.5637  -8.5625  -8.5621
    -8.5595  -8.5462  -8.4497  -8.4334  -8.3786  -8.3526  -8.3380  -8.3378
    -8.3363  -8.3325  -8.3317  -8.3262  -8.3259  -8.3133  -8.2823  -8.2542
    -8.2473  -8.2470  -8.2468  -8.2468  -8.2455  -8.2416  -8.2244  -8.2203
    -8.2200  -8.2199  -8.2181  -8.2177  -8.2086  -8.1922  -8.1921  -8.1920
    -8.1915  -8.1911  -8.1897  -8.1054  -8.0532  -8.0183  -7.9635  -7.8460
    -7.8311  -7.8284  -7.8262  -7.7654  -7.7639  -7.7385  -7.7248  -7.7172
    -7.6767  -7.6682  -7.6300  -7.6258  -7.6179  -7.6108  -7.6049  -7.5940
    -7.5891  -7.5842  -7.5681  -7.5650  -7.5588  -7.5553  -7.5438  -7.5197
    -7.5156  -7.5059  -7.5057  -7.5054  -7.5052  -7.5047  -7.4999  -7.4940
    -7.4800  -7.4794  -7.4790  -7.4781  -7.4776  -7.4750  -7.4654  -7.4580
    -7.4540  -7.4537  -7.4535  -7.4529  -7.4512  -7.4494  -7.4274  -7.4240
    -7.4177  -7.4021  -7.4001  -7.3911  -7.3899  -7.3845  -7.3638  -7.3458
    -7.3393  -7.3279  -7.3205  -7.3165  -7.3053  -7.2857  -7.2772  -7.2736
    -7.2717  -7.2678  -7.2633  -7.2611  -7.2327  -7.2218  -7.2211  -7.2040
    -7.2032  -7.1921  -7.1849  -7.1841  -7.1704  -7.1475  -7.1389  -7.1112
    -7.0893  -7.0747  -7.0598  -6.9906  -6.9757  -6.9171  -6.8814  -6.8603
    -6.8465  -6.8398  -6.8299  -6.8038  -6.7642  -6.7520  -6.7505  -6.7494
    -6.7292  -6.7183  -6.7001  -6.6725  -6.6692  -6.6690  -6.6633  -6.6484
    -6.6279  -6.6017  -6.5943  -6.5928  -6.5921  -6.5847  -6.5495  -6.5472
    -6.5417  -6.5387  -6.5321  -6.5186  -6.5137  -6.4981  -6.4918  -6.4866
    -6.4849  -6.4826  -6.4814  -6.4805  -6.4778  -6.4726  -6.4703  -6.4687
    -6.4685  -6.4683  -6.4682  -6.4680  -6.4674  -6.4544  -6.4271  -6.4185
    -6.4132  -6.3960  -6.3815  -6.3813  -6.3785  -6.3636  -6.3390  -6.3173
    -6.3098  -6.3028  -6.3022  -6.3003  -6.3000  -6.2934  -6.2835  -6.2634
    -6.2617  -6.2600  -6.2600  -6.2556  -6.2508  -6.2288  -6.2256  -6.2246
    -6.2238  -6.2231  -6.2219  -6.2209  -6.2140  -6.1243  -6.0233  -5.9762
    -5.8987  -5.8184  -5.6673  -5.6144  -5.5574  -5.4624  -5.4089  -5.2757
    -5.2401  -5.1196  -4.2168  -4.0342  -3.8527  -3.8254  -3.8209  -3.8195
    -3.8023  -3.8009  -3.8003  -3.7981  -3.7952  -3.7928  -3.7738  -3.7608
    -3.7162  -3.6763  -3.6725  -3.6659  -3.6616  -3.6514  -3.6504  -3.6465
    -3.6432  -3.6418  -3.5519  -3.5296  -3.5115  -3.4896  -3.4879  -3.4810
    -3.4663  -3.4575  -3.4548  -3.4445  -3.4434  -3.4414  -3.4386  -3.4377
    -3.4339  -3.4285  -3.4266  -3.4166  -3.4132  -3.4129  -3.4126  -3.4063
    -3.4003  -3.3971  -3.3964  -3.3883  -3.3848  -3.3800  -3.3787  -3.3764
    -3.3730  -3.3703  -3.3670  -3.3598  -3.3583  -3.3551  -3.3298  -3.3228
    -3.3215  -3.3193  -3.3179  -3.3161  -3.3122  -3.3107  -3.3044  -3.2922
    -3.2806  -3.2740  -3.2662  -3.2581  -3.2541  -3.2512  -3.2453  -3.2417
    -3.2281  -3.2071  -3.1913  -3.1825  -3.1760  -3.1676  -3.0695  -3.0561
    -3.0407  -3.0370  -3.0326  -3.0300  -3.0269  -3.0169  -3.0148  -3.0144
    -3.0009  -2.9804  -2.9688  -2.9641  -2.9482  -2.9461  -2.9443  -2.9427
    -2.9412  -2.9388  -2.9359  -2.9333  -2.9332  -2.9304  -2.9244  -2.9240
    -2.9192  -2.9148  -2.9099  -2.9064  -2.9041  -2.9017  -2.8988  -2.8970
    -2.8967  -2.8956  -2.8939  -2.8921  -2.8859  -2.8626  -2.8600  -2.8547
    -2.8452  -2.8417  -2.8390  -2.8264  -2.8222  -2.7791  -2.7761  -2.7753
    -2.7738  -2.7727  -2.7727  -2.7722  -2.7720  -2.7716  -2.7620  -2.7570
    -2.7550  -2.7363  -2.7267  -2.7187  -2.7008  -2.6996  -2.6899  -2.6858
    -2.6399  -2.6350  -2.6105  -2.6082  -2.6067  -2.5959  -2.5946  -2.5908
    -2.5869  -2.5861  -2.5760  -2.5469  -2.5333  -2.5257  -2.5089  -2.5031
    -2.4365  -2.4110  -2.3922  -2.3860  -2.3828  -2.3767  -2.3740

          k = 0.0000-0.5773 0.0000 (386352 PWs)   bands (ev):

  -102.8961 -88.7348 -88.0713 -71.2229 -71.2153 -71.2000 -71.1891 -71.1772
   -71.1701 -71.1597 -66.5892 -66.5892 -66.5892 -66.5891 -66.5880 -66.5879
   -66.5879 -66.5844 -66.5785 -66.5785 -66.5785 -66.5785 -66.5772 -66.5772
   -66.5667 -66.5647 -66.5636 -66.5635 -66.5634 -66.5634 -66.5634 -66.5634
   -66.5633 -66.5632 -66.5621 -66.5621 -66.5621 -66.5621 -66.5611 -66.5597
   -66.5590 -66.5590 -66.5590 -66.5589 -66.5577 -66.5577 -66.5529 -66.5527
   -66.5527 -66.5527 -66.5527 -66.5527 -66.5526 -66.5525 -66.5519 -66.5514
   -66.5514 -66.5514 -66.5514 -66.5483 -66.5483 -66.5483 -66.5482 -66.5469
   -66.5469 -66.5463 -66.5449 -66.5318 -66.5287 -66.5251 -66.5214 -66.5140
   -66.5132 -66.5027 -57.2004 -57.0910 -57.0649 -54.6167 -54.5033 -54.4538
   -53.9114 -53.8859 -53.8325 -40.8913 -40.8913 -40.8913 -40.8912 -40.8912
   -40.8912 -40.8912 -40.8911 -40.8906 -40.8906 -40.8906 -40.8906 -40.8853
   -40.8774 -40.8744 -40.8644 -40.8644 -40.8644 -40.8643 -40.8641 -40.8637
   -40.8637 -40.8571 -40.8524 -40.8524 -40.8523 -40.8523 -40.8517 -40.8517
   -40.8507 -40.8211 -40.8077 -40.8017 -40.8017 -40.8017 -40.8017 -40.8016
   -40.8016 -40.8016 -40.8016 -40.8009 -40.8009 -40.8009 -40.8009 -40.7812
   -40.7735 -40.7724 -40.7681 -40.7677 -40.7496 -40.7429 -40.7429 -40.7428
   -40.7428 -40.7422 -40.7422 -40.7373 -40.7334 -40.7334 -40.7334 -40.7333
   -40.7325 -40.7325 -40.7234 -40.7220 -40.7220 -40.7220 -40.7220 -40.7213
   -40.7213 -40.7140 -40.7088 -40.7061 -40.6998 -40.6973 -40.6938 -40.6925
   -40.6925 -40.6924 -40.6924 -40.6924 -40.6924 -40.6923 -40.6922 -40.6917
   -40.6917 -40.6917 -40.6917 -40.6879 -40.6837 -40.6836 -40.6836 -40.6836
   -40.6829 -40.6829 -40.6811 -40.6755 -40.6743 -40.6719 -40.6719 -40.6719
   -40.6718 -40.6715 -40.6714 -40.6713 -40.6713 -40.6713 -40.6713 -40.6713
   -40.6712 -40.6710 -40.6710 -40.6706 -40.6706 -40.6706 -40.6706 -40.6648
   -40.6627 -40.6627 -40.6627 -40.6626 -40.6619 -40.6619 -40.6609 -40.6581
   -40.6545 -40.6493 -40.6440 -40.6410 -40.6410 -40.6410 -40.6410 -40.6410
   -40.6410 -40.6409 -40.6408 -40.6400 -40.6400 -40.6400 -40.6400 -40.6243
   -40.6207 -40.6200 -40.6153 -40.6062 -40.6062 -40.6062 -40.6062 -40.6062
   -40.6062 -40.6062 -40.6062 -40.6053 -40.6053 -40.6053 -40.6053 -40.5941
   -40.5941 -40.5941 -40.5940 -40.5931 -40.5931 -40.5859 -40.5817 -40.5781
   -40.5750 -40.5748 -40.5748 -40.5747 -40.5747 -40.5738 -40.5738 -40.5712
   -40.5578 -40.5578 -40.5578 -40.5577 -40.5568 -40.5568 -40.5549 -40.5527
   -40.5453 -40.5271 -40.5271 -40.5271 -40.5270 -40.5261 -40.5261 -40.5218
   -40.5177 -40.5023 -40.4910 -20.0472 -19.8933 -19.8397 -19.8268 -19.7423
   -19.7274 -19.6325 -19.6245 -19.5271 -19.4609 -19.4026 -19.3943 -19.3121
   -19.3004 -19.2078 -19.1993 -19.1034 -18.9481 -18.8254 -18.7774 -18.7578
   -18.7340 -18.6951 -18.6933 -18.6905 -18.6884 -18.6836 -18.6521 -18.6320
   -18.6188 -18.6156 -18.6121 -18.5805 -18.5675 -18.5484 -18.5298 -18.5249
   -18.5239 -18.5099 -18.5012 -18.4966 -18.4658 -18.4578 -18.4529 -18.4407
   -18.4333 -18.3851 -18.3808 -18.3787 -18.3723 -18.3435 -18.3333 -18.3255
   -18.3010 -18.2990 -18.2787 -18.2651 -18.2293 -18.2206 -18.2187 -18.1877
   -18.1769 -18.1608 -18.1495 -18.1449 -18.1101 -18.0997 -18.0914 -18.0827
   -18.0742 -18.0692 -18.0690 -18.0673 -18.0580 -18.0469 -18.0448 -18.0382
   -18.0358 -18.0349 -18.0284 -18.0247 -18.0219 -18.0172 -18.0117 -17.9821
   -17.9809 -17.9784 -17.9743 -17.9723 -17.9706 -17.9695 -17.9671 -17.9591
   -17.9527 -17.9234 -17.9192 -17.9116 -17.9070 -17.9062 -17.9006 -17.8678
   -17.8638 -17.8585 -17.8531 -17.8378 -17.8278 -17.8164 -17.8142 -17.8123
   -17.8090 -17.7899 -17.7896 -17.7894 -17.7890 -17.7886 -17.7881 -17.7752
   -17.7749 -17.7557 -17.7545 -17.7314 -17.7300 -17.7122 -17.7100 -17.6976
   -17.6960 -17.6899 -17.6897 -12.0978 -11.8863 -11.7832 -11.7110 -11.6843
   -11.6313 -11.5902 -11.5412 -11.5036 -11.4787 -11.4690 -11.4666 -11.4599
   -11.4552 -11.4378 -11.4257 -11.3775 -11.3623 -11.3573 -11.3535 -11.3431
   -11.3396 -11.3178 -11.2983 -11.2819 -11.2680 -11.2566 -11.2447 -11.2429
   -11.2373 -11.2333 -11.2263 -11.2226 -11.1944 -11.1822 -11.1770 -11.1680
   -11.1635 -11.1603 -11.1454 -11.1421 -11.1368 -11.1282 -11.1172 -11.1160
   -11.0947 -11.0783 -11.0747 -11.0606 -11.0475 -11.0444 -10.9946 -10.9890
   -10.9602 -10.9394 -10.9230 -10.9116 -10.9051 -10.8956 -10.8864 -10.8721
   -10.8662 -10.8437 -10.8207 -10.8103 -10.8064 -10.8026 -10.7935 -10.7826
   -10.7823 -10.7812 -10.7806 -10.7766 -10.7746 -10.7707 -10.7698 -10.7633
   -10.7625 -10.7564 -10.7553 -10.7523 -10.7522 -10.7186 -10.7143 -10.7135
   -10.7133 -10.7047 -10.6189 -10.5382 -10.5289 -10.5152 -10.5020 -10.4814
   -10.4711 -10.4222 -10.4063 -10.3573 -10.3511 -10.2522 -10.2365 -10.1600
   -10.1559 -10.1308 -10.1139 -10.1083 -10.0858 -10.0827 -10.0802 -10.0702
   -10.0381 -10.0092 -10.0079 -10.0056 -10.0050  -9.9975  -9.9915  -9.9839
    -9.9633  -9.9554  -9.9266  -9.9068  -9.9011  -9.8943  -9.8892  -9.8645
    -9.8635  -9.8525  -9.8361  -9.8313  -9.8247  -9.7989  -9.7878  -9.7768
    -9.7595  -9.7547  -9.7511  -9.7369  -9.7235  -9.6891  -9.6748  -9.6688
    -9.6602  -9.6317  -9.6276  -9.6264  -9.6025  -9.5985  -9.5846  -9.5796
    -9.5709  -9.5551  -9.5364  -9.5346  -9.5207  -9.5145  -9.5079  -9.4746
    -9.4683  -9.4633  -9.4598  -9.4538  -9.4464  -9.4381  -9.4359  -9.4329
    -9.4288  -9.4196  -9.4124  -9.3973  -9.3716  -9.3638  -9.3490  -9.3181
    -9.2689  -9.2536  -9.2220  -9.2093  -9.1939  -9.1897  -9.1792  -9.1711
    -9.1678  -9.1422  -9.1367  -9.1129  -9.1036  -9.0988  -9.0952  -9.0777
    -9.0568  -9.0390  -9.0348  -9.0272  -9.0190  -9.0151  -9.0085  -8.9724
    -8.9691  -8.9658  -8.9511  -8.9433  -8.9282  -8.9202  -8.9178  -8.9064
    -8.9005  -8.8777  -8.8659  -8.8627  -8.8598  -8.8581  -8.8577  -8.8523
    -8.8470  -8.8432  -8.8395  -8.8381  -8.8346  -8.8330  -8.8272  -8.8262
    -8.8115  -8.8105  -8.8094  -8.8084  -8.7889  -8.7640  -8.7634  -8.7612
    -8.7595  -8.7576  -8.7556  -8.7342  -8.7332  -8.7315  -8.7140  -8.7039
    -8.7031  -8.6995  -8.6949  -8.6805  -8.6365  -8.6332  -8.6258  -8.6216
    -8.5867  -8.5029  -8.4768  -8.4733  -8.4559  -8.4345  -8.4141  -8.3949
    -8.3539  -8.3322  -8.3193  -8.2992  -8.2617  -8.2351  -8.1952  -8.1724
    -8.0980  -8.0979  -8.0898  -8.0889  -8.0800  -8.0776  -8.0743  -8.0450
    -8.0411  -8.0178  -7.9983  -7.9519  -7.9382  -7.9365  -7.9147  -7.8702
    -7.8511  -7.8356  -7.8165  -7.8117  -7.8043  -7.8028  -7.7949  -7.7939
    -7.7812  -7.7778  -7.7736  -7.7712  -7.7695  -7.7640  -7.7613  -7.7585
    -7.7544  -7.7516  -7.7505  -7.7396  -7.7391  -7.7369  -7.7359  -7.7348
    -7.7328  -7.7286  -7.7284  -7.7233  -7.7166  -7.7067  -7.7005  -7.6998
    -7.6973  -7.6787  -7.6676  -7.6667  -7.6666  -7.6638  -7.6501  -7.6389
    -7.6367  -7.6361  -7.6352  -7.6290  -7.6235  -7.6201  -7.6144  -7.5902
    -7.5881  -7.5802  -7.5783  -7.5781  -7.5757  -7.5676  -7.5560  -7.5543
    -7.5469  -7.5392  -7.5343  -7.5339  -7.5334  -7.5288  -7.5099  -7.4704
    -7.4370  -7.4320  -7.4304  -7.4268  -7.4117  -7.3762  -7.3324  -7.3062
    -7.2193  -7.1874  -7.1644  -7.1469  -7.1403  -7.1354  -7.1326  -7.1205
    -7.0990  -7.0893  -7.0814  -7.0803  -7.0665  -7.0593  -7.0399  -7.0186
    -7.0022  -7.0008  -6.9929  -6.9913  -6.9507  -6.9464  -6.9379  -6.9100
    -6.8975  -6.8862  -6.8764  -6.8648  -6.8551  -6.8460  -6.8341  -6.8290
    -6.8284  -6.8172  -6.7936  -6.7660  -6.7550  -6.7293  -6.7276  -6.7193
    -6.6807  -6.6657  -6.6563  -6.6447  -6.6037  -6.5974  -6.5897  -6.5778
    -6.5757  -6.5755  -6.5741  -6.5699  -6.5617  -6.5579  -6.5568  -6.5566
    -6.5534  -6.5491  -6.5489  -6.5488  -6.5483  -6.5270  -6.4908  -6.4862
    -6.4474  -6.4383  -6.3973  -6.3783  -6.3463  -6.2987  -6.2913  -6.2886
    -6.2873  -6.2814  -6.2713  -6.2503  -6.2477  -6.2471  -6.2430  -6.2423
    -6.2382  -6.2271  -6.2246  -6.2238  -6.2187  -6.2033  -6.1898  -6.1754
    -6.1745  -6.1705  -6.1666  -6.0780  -6.0132  -5.9733  -5.9651  -5.9469
    -5.9370  -5.9139  -5.8870  -5.8778  -5.8479  -5.8200  -5.8167  -5.7687
    -5.7027  -5.6666  -5.5880  -5.5802  -5.5658  -5.5327  -5.5104  -5.4856
    -5.3516  -5.2496  -4.2604  -4.1088  -4.0658  -4.0591  -4.0354  -3.9834
    -3.9098  -3.8989  -3.8890  -3.8846  -3.8394  -3.8137  -3.8121  -3.8023
    -3.8008  -3.7903  -3.7828  -3.7768  -3.7683  -3.7668  -3.7166  -3.6983
    -3.6859  -3.6567  -3.6222  -3.6004  -3.5787  -3.5720  -3.5698  -3.5672
    -3.5260  -3.5199  -3.5189  -3.5182  -3.5121  -3.4934  -3.4888  -3.4801
    -3.4782  -3.4710  -3.4636  -3.4496  -3.4482  -3.4439  -3.4398  -3.4340
    -3.4310  -3.4274  -3.4166  -3.4107  -3.3985  -3.3883  -3.3876  -3.3787
    -3.3554  -3.3456  -3.3341  -3.3213  -3.3168  -3.3156  -3.3135  -3.3108
    -3.3051  -3.2961  -3.2719  -3.2695  -3.2615  -3.2577  -3.2490  -3.2472
    -3.2446  -3.2431  -3.2389  -3.2370  -3.2160  -3.2137  -3.2037  -3.2007
    -3.1972  -3.1883  -3.1848  -3.1800  -3.1780  -3.1756  -3.1705  -3.1555
    -3.1532  -3.1431  -3.1392  -3.1336  -3.1303  -3.1301  -3.1208  -3.1077
    -3.0847  -3.0720  -3.0653  -3.0509  -3.0497  -3.0386  -3.0342  -3.0288
    -2.9971  -2.9937  -2.9929  -2.9908  -2.9900  -2.9892  -2.9841  -2.9818
    -2.9772  -2.9767  -2.9726  -2.9685  -2.9584  -2.9560  -2.9552  -2.9489
    -2.9472  -2.9421  -2.9403  -2.9379  -2.9339  -2.9283  -2.9173  -2.9152
    -2.9119  -2.9105  -2.9019  -2.8990  -2.8896  -2.8883  -2.8714  -2.8623
    -2.8595  -2.8548  -2.8507  -2.8423  -2.8382  -2.8165  -2.7669  -2.7660
    -2.7599  -2.7575  -2.7212  -2.7121  -2.6955  -2.6835  -2.5963  -2.5800
    -2.5633  -2.5544  -2.5412  -2.5353  -2.5218  -2.5121  -2.5108  -2.5054
    -2.4998  -2.4950  -2.4931  -2.4897  -2.4135  -2.3865  -2.3823  -2.3690
    -2.3643  -2.3586  -2.3539  -2.3484  -2.3354  -2.3096  -2.3085

          k =-0.5000-0.2887 0.0000 (386352 PWs)   bands (ev):

  -102.8961 -88.7348 -88.0713 -71.2229 -71.2153 -71.2000 -71.1891 -71.1772
   -71.1701 -71.1597 -66.5892 -66.5892 -66.5892 -66.5891 -66.5879 -66.5879
   -66.5879 -66.5845 -66.5785 -66.5785 -66.5785 -66.5785 -66.5772 -66.5772
   -66.5667 -66.5645 -66.5635 -66.5634 -66.5634 -66.5634 -66.5634 -66.5634
   -66.5634 -66.5633 -66.5621 -66.5621 -66.5621 -66.5621 -66.5621 -66.5590
   -66.5590 -66.5590 -66.5589 -66.5582 -66.5577 -66.5577 -66.5528 -66.5527
   -66.5527 -66.5527 -66.5527 -66.5527 -66.5527 -66.5526 -66.5525 -66.5514
   -66.5514 -66.5514 -66.5514 -66.5483 -66.5483 -66.5483 -66.5482 -66.5469
   -66.5469 -66.5463 -66.5447 -66.5318 -66.5289 -66.5250 -66.5214 -66.5140
   -66.5132 -66.5027 -57.2004 -57.0910 -57.0649 -54.6167 -54.5033 -54.4538
   -53.9114 -53.8859 -53.8325 -40.8913 -40.8913 -40.8913 -40.8912 -40.8912
   -40.8912 -40.8912 -40.8911 -40.8906 -40.8906 -40.8906 -40.8906 -40.8788
   -40.8774 -40.8736 -40.8706 -40.8645 -40.8644 -40.8644 -40.8643 -40.8637
   -40.8637 -40.8593 -40.8524 -40.8524 -40.8523 -40.8523 -40.8517 -40.8517
   -40.8500 -40.8268 -40.8018 -40.8017 -40.8017 -40.8017 -40.8017 -40.8017
   -40.8016 -40.8016 -40.8016 -40.8009 -40.8009 -40.8009 -40.8009 -40.7850
   -40.7732 -40.7703 -40.7688 -40.7633 -40.7446 -40.7429 -40.7429 -40.7428
   -40.7428 -40.7425 -40.7422 -40.7422 -40.7334 -40.7334 -40.7334 -40.7333
   -40.7325 -40.7325 -40.7262 -40.7220 -40.7220 -40.7220 -40.7220 -40.7213
   -40.7213 -40.7095 -40.7085 -40.7040 -40.7005 -40.6968 -40.6964 -40.6924
   -40.6924 -40.6924 -40.6924 -40.6924 -40.6924 -40.6923 -40.6923 -40.6917
   -40.6917 -40.6917 -40.6917 -40.6908 -40.6837 -40.6836 -40.6836 -40.6836
   -40.6829 -40.6829 -40.6788 -40.6783 -40.6719 -40.6719 -40.6719 -40.6718
   -40.6715 -40.6714 -40.6713 -40.6713 -40.6713 -40.6713 -40.6713 -40.6711
   -40.6710 -40.6710 -40.6706 -40.6706 -40.6706 -40.6706 -40.6703 -40.6662
   -40.6627 -40.6627 -40.6627 -40.6626 -40.6622 -40.6619 -40.6619 -40.6568
   -40.6531 -40.6492 -40.6442 -40.6410 -40.6410 -40.6410 -40.6410 -40.6410
   -40.6410 -40.6409 -40.6408 -40.6400 -40.6400 -40.6400 -40.6400 -40.6278
   -40.6235 -40.6193 -40.6118 -40.6062 -40.6062 -40.6062 -40.6062 -40.6062
   -40.6062 -40.6062 -40.6061 -40.6053 -40.6053 -40.6053 -40.6053 -40.5941
   -40.5941 -40.5941 -40.5940 -40.5931 -40.5931 -40.5903 -40.5816 -40.5795
   -40.5748 -40.5748 -40.5747 -40.5746 -40.5738 -40.5738 -40.5725 -40.5659
   -40.5607 -40.5578 -40.5578 -40.5578 -40.5577 -40.5568 -40.5568 -40.5538
   -40.5403 -40.5271 -40.5271 -40.5271 -40.5270 -40.5261 -40.5261 -40.5257
   -40.5131 -40.5000 -40.4947 -20.0481 -19.8928 -19.8397 -19.8266 -19.7422
   -19.7273 -19.6325 -19.6245 -19.5287 -19.4535 -19.4025 -19.3925 -19.3120
   -19.2993 -19.2092 -19.1991 -19.1403 -18.8915 -18.8297 -18.8146 -18.7450
   -18.7296 -18.6960 -18.6931 -18.6913 -18.6894 -18.6695 -18.6541 -18.6299
   -18.6223 -18.6147 -18.6113 -18.5776 -18.5705 -18.5571 -18.5287 -18.5275
   -18.5245 -18.5110 -18.5026 -18.4968 -18.4787 -18.4564 -18.4503 -18.4415
   -18.4302 -18.3844 -18.3827 -18.3773 -18.3729 -18.3550 -18.3332 -18.3157
   -18.3017 -18.2988 -18.2677 -18.2514 -18.2335 -18.2207 -18.2151 -18.1959
   -18.1789 -18.1578 -18.1537 -18.1496 -18.1121 -18.0996 -18.0889 -18.0826
   -18.0734 -18.0693 -18.0691 -18.0667 -18.0588 -18.0469 -18.0427 -18.0384
   -18.0373 -18.0349 -18.0286 -18.0248 -18.0196 -18.0173 -18.0135 -17.9820
   -17.9811 -17.9781 -17.9755 -17.9725 -17.9703 -17.9690 -17.9665 -17.9589
   -17.9538 -17.9236 -17.9190 -17.9126 -17.9072 -17.9060 -17.9000 -17.8669
   -17.8641 -17.8590 -17.8529 -17.8347 -17.8307 -17.8168 -17.8138 -17.8132
   -17.8073 -17.7899 -17.7898 -17.7892 -17.7890 -17.7887 -17.7876 -17.7754
   -17.7748 -17.7559 -17.7544 -17.7315 -17.7299 -17.7123 -17.7100 -17.6976
   -17.6961 -17.6899 -17.6897 -12.1152 -11.8695 -11.7609 -11.7092 -11.6950
   -11.6325 -11.5967 -11.5355 -11.5062 -11.4750 -11.4684 -11.4666 -11.4634
   -11.4513 -11.4377 -11.4210 -11.3844 -11.3635 -11.3576 -11.3514 -11.3367
   -11.3330 -11.3143 -11.3022 -11.2863 -11.2678 -11.2602 -11.2430 -11.2414
   -11.2388 -11.2328 -11.2256 -11.2232 -11.1951 -11.1844 -11.1751 -11.1720
   -11.1637 -11.1510 -11.1473 -11.1413 -11.1402 -11.1287 -11.1179 -11.1170
   -11.0985 -11.0804 -11.0643 -11.0639 -11.0570 -11.0401 -11.0079 -10.9913
   -10.9505 -10.9397 -10.9248 -10.9155 -10.9103 -10.8954 -10.8821 -10.8787
   -10.8630 -10.8437 -10.8307 -10.8078 -10.8064 -10.8033 -10.7932 -10.7848
   -10.7817 -10.7812 -10.7808 -10.7800 -10.7762 -10.7742 -10.7696 -10.7633
   -10.7630 -10.7558 -10.7539 -10.7527 -10.7524 -10.7159 -10.7138 -10.7137
   -10.7134 -10.6915 -10.6618 -10.5333 -10.5189 -10.5147 -10.5003 -10.4806
   -10.4548 -10.4160 -10.3976 -10.3514 -10.3483 -10.2447 -10.2372 -10.1929
   -10.1620 -10.1224 -10.1180 -10.1007 -10.0920 -10.0793 -10.0767 -10.0698
   -10.0339 -10.0162 -10.0077 -10.0057 -10.0032  -9.9976  -9.9921  -9.9781
    -9.9675  -9.9453  -9.9203  -9.9181  -9.9066  -9.8941  -9.8845  -9.8677
    -9.8644  -9.8539  -9.8355  -9.8336  -9.8181  -9.7971  -9.7955  -9.7837
    -9.7603  -9.7563  -9.7490  -9.7344  -9.7171  -9.7009  -9.6790  -9.6669
    -9.6587  -9.6554  -9.6266  -9.6155  -9.6004  -9.5973  -9.5785  -9.5753
    -9.5682  -9.5517  -9.5444  -9.5235  -9.5184  -9.5163  -9.5030  -9.4701
    -9.4631  -9.4608  -9.4583  -9.4500  -9.4428  -9.4410  -9.4339  -9.4281
    -9.4249  -9.4179  -9.4015  -9.3947  -9.3673  -9.3632  -9.3451  -9.3126
    -9.2816  -9.2437  -9.2372  -9.2215  -9.2005  -9.1858  -9.1801  -9.1752
    -9.1547  -9.1449  -9.1374  -9.1124  -9.1067  -9.0937  -9.0918  -9.0727
    -9.0688  -9.0563  -9.0313  -9.0275  -9.0183  -9.0137  -9.0080  -8.9826
    -8.9717  -8.9650  -8.9572  -8.9404  -8.9286  -8.9221  -8.9162  -8.9081
    -8.9002  -8.8709  -8.8643  -8.8617  -8.8606  -8.8595  -8.8575  -8.8546
    -8.8481  -8.8428  -8.8395  -8.8382  -8.8319  -8.8306  -8.8288  -8.8251
    -8.8150  -8.8104  -8.8098  -8.8071  -8.7933  -8.7648  -8.7636  -8.7624
    -8.7599  -8.7582  -8.7550  -8.7345  -8.7329  -8.7312  -8.7093  -8.7036
    -8.7033  -8.6989  -8.6930  -8.6825  -8.6407  -8.6289  -8.6239  -8.6201
    -8.5925  -8.4846  -8.4759  -8.4745  -8.4550  -8.4279  -8.4191  -8.4031
    -8.3629  -8.3382  -8.3277  -8.2969  -8.2632  -8.2548  -8.1702  -8.1471
    -8.0980  -8.0979  -8.0895  -8.0890  -8.0813  -8.0776  -8.0765  -8.0555
    -8.0389  -8.0207  -8.0183  -7.9743  -7.9396  -7.9366  -7.8856  -7.8732
    -7.8424  -7.8272  -7.8139  -7.8121  -7.8023  -7.7987  -7.7934  -7.7904
    -7.7817  -7.7811  -7.7776  -7.7725  -7.7691  -7.7681  -7.7626  -7.7575
    -7.7554  -7.7516  -7.7498  -7.7396  -7.7391  -7.7373  -7.7353  -7.7350
    -7.7327  -7.7286  -7.7284  -7.7281  -7.7178  -7.7048  -7.7010  -7.6994
    -7.6984  -7.6751  -7.6674  -7.6671  -7.6664  -7.6632  -7.6466  -7.6383
    -7.6368  -7.6366  -7.6352  -7.6279  -7.6235  -7.6189  -7.6097  -7.5975
    -7.5888  -7.5798  -7.5783  -7.5763  -7.5734  -7.5688  -7.5557  -7.5546
    -7.5418  -7.5391  -7.5343  -7.5341  -7.5304  -7.5260  -7.5115  -7.4624
    -7.4388  -7.4348  -7.4306  -7.4280  -7.4124  -7.3749  -7.3380  -7.3176
    -7.2511  -7.2158  -7.1527  -7.1444  -7.1382  -7.1364  -7.1317  -7.1074
    -7.0927  -7.0857  -7.0823  -7.0792  -7.0505  -7.0439  -7.0289  -7.0138
    -7.0007  -6.9979  -6.9887  -6.9812  -6.9643  -6.9466  -6.9455  -6.9364
    -6.8941  -6.8859  -6.8738  -6.8667  -6.8591  -6.8530  -6.8459  -6.8299
    -6.8286  -6.8189  -6.7980  -6.7760  -6.7498  -6.7276  -6.7240  -6.6919
    -6.6742  -6.6585  -6.6562  -6.6333  -6.6167  -6.6002  -6.5922  -6.5783
    -6.5758  -6.5754  -6.5743  -6.5679  -6.5584  -6.5577  -6.5567  -6.5557
    -6.5493  -6.5490  -6.5490  -6.5488  -6.5457  -6.5201  -6.5127  -6.4745
    -6.4405  -6.4221  -6.4052  -6.3876  -6.3597  -6.2991  -6.2931  -6.2901
    -6.2873  -6.2809  -6.2728  -6.2559  -6.2473  -6.2469  -6.2440  -6.2424
    -6.2418  -6.2281  -6.2254  -6.2220  -6.2193  -6.2119  -6.1937  -6.1759
    -6.1744  -6.1721  -6.1674  -6.0980  -6.0139  -5.9696  -5.9601  -5.9438
    -5.9326  -5.9020  -5.8825  -5.8639  -5.8370  -5.8192  -5.8112  -5.7780
    -5.6981  -5.6849  -5.5922  -5.5819  -5.5678  -5.5379  -5.4861  -5.4827
    -5.3584  -5.2568  -4.2497  -4.1108  -4.0621  -4.0602  -4.0333  -3.9921
    -3.9044  -3.8950  -3.8912  -3.8892  -3.8365  -3.8153  -3.8120  -3.8070
    -3.8019  -3.7934  -3.7833  -3.7778  -3.7684  -3.7669  -3.7229  -3.6969
    -3.6806  -3.6615  -3.6258  -3.6092  -3.5766  -3.5720  -3.5691  -3.5670
    -3.5332  -3.5245  -3.5190  -3.5122  -3.5078  -3.4936  -3.4897  -3.4807
    -3.4781  -3.4711  -3.4641  -3.4522  -3.4477  -3.4424  -3.4413  -3.4333
    -3.4318  -3.4242  -3.4152  -3.4095  -3.3956  -3.3899  -3.3865  -3.3799
    -3.3591  -3.3410  -3.3311  -3.3232  -3.3175  -3.3147  -3.3133  -3.3120
    -3.3055  -3.2970  -3.2779  -3.2641  -3.2617  -3.2544  -3.2507  -3.2473
    -3.2454  -3.2438  -3.2390  -3.2335  -3.2163  -3.2108  -3.2076  -3.2016
    -3.1966  -3.1943  -3.1804  -3.1798  -3.1777  -3.1705  -3.1635  -3.1579
    -3.1541  -3.1458  -3.1401  -3.1316  -3.1302  -3.1301  -3.1266  -3.1131
    -3.0750  -3.0710  -3.0601  -3.0537  -3.0443  -3.0411  -3.0336  -3.0281
    -2.9955  -2.9944  -2.9920  -2.9908  -2.9904  -2.9893  -2.9844  -2.9787
    -2.9764  -2.9757  -2.9738  -2.9668  -2.9574  -2.9569  -2.9526  -2.9501
    -2.9464  -2.9431  -2.9383  -2.9370  -2.9333  -2.9286  -2.9168  -2.9153
    -2.9114  -2.9103  -2.9016  -2.8984  -2.8889  -2.8798  -2.8730  -2.8648
    -2.8632  -2.8521  -2.8461  -2.8447  -2.8379  -2.8250  -2.7686  -2.7655
    -2.7600  -2.7563  -2.7185  -2.7095  -2.6973  -2.6909  -2.5932  -2.5807
    -2.5611  -2.5538  -2.5377  -2.5341  -2.5263  -2.5158  -2.5137  -2.5085
    -2.4979  -2.4963  -2.4944  -2.4851  -2.4328  -2.3913  -2.3766  -2.3728
    -2.3655  -2.3560  -2.3545  -2.3467  -2.3371  -2.3101  -2.3097

          k =-0.5000-0.8660 0.0000 (386352 PWs)   bands (ev):

  -102.8961 -88.7348 -88.0713 -71.2229 -71.2153 -71.2000 -71.1891 -71.1772
   -71.1701 -71.1597 -66.5902 -66.5893 -66.5892 -66.5892 -66.5891 -66.5879
   -66.5879 -66.5785 -66.5785 -66.5785 -66.5785 -66.5774 -66.5772 -66.5772
   -66.5749 -66.5650 -66.5637 -66.5636 -66.5634 -66.5634 -66.5634 -66.5634
   -66.5632 -66.5631 -66.5621 -66.5621 -66.5621 -66.5621 -66.5610 -66.5590
   -66.5590 -66.5590 -66.5589 -66.5577 -66.5577 -66.5546 -66.5530 -66.5528
   -66.5527 -66.5527 -66.5527 -66.5527 -66.5526 -66.5523 -66.5517 -66.5514
   -66.5514 -66.5514 -66.5514 -66.5483 -66.5483 -66.5483 -66.5482 -66.5482
   -66.5469 -66.5469 -66.5444 -66.5313 -66.5290 -66.5252 -66.5223 -66.5142
   -66.5123 -66.5029 -57.2004 -57.0910 -57.0649 -54.6167 -54.5033 -54.4538
   -53.9114 -53.8859 -53.8325 -40.8999 -40.8914 -40.8913 -40.8913 -40.8913
   -40.8912 -40.8912 -40.8911 -40.8909 -40.8906 -40.8906 -40.8906 -40.8906
   -40.8778 -40.8645 -40.8644 -40.8644 -40.8643 -40.8638 -40.8637 -40.8631
   -40.8584 -40.8524 -40.8524 -40.8523 -40.8523 -40.8517 -40.8517 -40.8429
   -40.8372 -40.8320 -40.8217 -40.8017 -40.8017 -40.8017 -40.8017 -40.8017
   -40.8016 -40.8016 -40.8016 -40.8009 -40.8009 -40.8009 -40.8009 -40.7888
   -40.7831 -40.7725 -40.7687 -40.7665 -40.7508 -40.7430 -40.7429 -40.7428
   -40.7427 -40.7422 -40.7422 -40.7334 -40.7334 -40.7334 -40.7333 -40.7325
   -40.7325 -40.7325 -40.7262 -40.7220 -40.7220 -40.7220 -40.7220 -40.7213
   -40.7213 -40.7162 -40.7069 -40.7002 -40.6988 -40.6968 -40.6926 -40.6926
   -40.6924 -40.6924 -40.6924 -40.6924 -40.6922 -40.6921 -40.6917 -40.6917
   -40.6917 -40.6917 -40.6897 -40.6853 -40.6838 -40.6836 -40.6836 -40.6835
   -40.6834 -40.6829 -40.6829 -40.6812 -40.6719 -40.6719 -40.6719 -40.6718
   -40.6716 -40.6715 -40.6714 -40.6714 -40.6713 -40.6713 -40.6713 -40.6710
   -40.6710 -40.6708 -40.6706 -40.6706 -40.6706 -40.6706 -40.6684 -40.6672
   -40.6639 -40.6627 -40.6627 -40.6627 -40.6626 -40.6619 -40.6619 -40.6551
   -40.6521 -40.6449 -40.6439 -40.6413 -40.6410 -40.6410 -40.6410 -40.6410
   -40.6408 -40.6408 -40.6407 -40.6401 -40.6400 -40.6400 -40.6400 -40.6330
   -40.6257 -40.6089 -40.6062 -40.6062 -40.6062 -40.6062 -40.6062 -40.6062
   -40.6062 -40.6061 -40.6053 -40.6053 -40.6053 -40.6053 -40.5999 -40.5941
   -40.5941 -40.5941 -40.5940 -40.5931 -40.5931 -40.5923 -40.5850 -40.5789
   -40.5756 -40.5749 -40.5748 -40.5748 -40.5745 -40.5738 -40.5738 -40.5697
   -40.5580 -40.5578 -40.5578 -40.5577 -40.5577 -40.5568 -40.5568 -40.5498
   -40.5410 -40.5325 -40.5278 -40.5271 -40.5271 -40.5271 -40.5270 -40.5261
   -40.5261 -40.5076 -40.4770 -20.0673 -19.8636 -19.8396 -19.8069 -19.7418
   -19.7138 -19.6340 -19.6198 -19.5861 -19.4705 -19.4038 -19.3961 -19.3132
   -19.3024 -19.2076 -19.2004 -19.1005 -18.8935 -18.8238 -18.8005 -18.7584
   -18.7165 -18.6969 -18.6932 -18.6913 -18.6860 -18.6825 -18.6519 -18.6289
   -18.6209 -18.6161 -18.6034 -18.5731 -18.5612 -18.5568 -18.5296 -18.5245
   -18.5196 -18.5182 -18.5125 -18.4897 -18.4705 -18.4605 -18.4501 -18.4408
   -18.4378 -18.4090 -18.3844 -18.3811 -18.3700 -18.3493 -18.3334 -18.3235
   -18.3128 -18.3000 -18.2847 -18.2506 -18.2383 -18.2313 -18.2092 -18.2074
   -18.1848 -18.1521 -18.1464 -18.1341 -18.1323 -18.1064 -18.0837 -18.0726
   -18.0721 -18.0703 -18.0686 -18.0491 -18.0470 -18.0455 -18.0440 -18.0404
   -18.0387 -18.0352 -18.0327 -18.0257 -18.0150 -18.0076 -18.0038 -17.9864
   -17.9782 -17.9757 -17.9743 -17.9723 -17.9697 -17.9662 -17.9618 -17.9596
   -17.9489 -17.9339 -17.9113 -17.9071 -17.9039 -17.8988 -17.8946 -17.8801
   -17.8679 -17.8590 -17.8510 -17.8480 -17.8391 -17.8208 -17.8137 -17.8101
   -17.8096 -17.7909 -17.7895 -17.7892 -17.7888 -17.7877 -17.7875 -17.7760
   -17.7747 -17.7567 -17.7541 -17.7320 -17.7298 -17.7127 -17.7100 -17.6977
   -17.6962 -17.6899 -17.6897 -12.1634 -11.9188 -11.7199 -11.6999 -11.6481
   -11.5733 -11.5428 -11.5031 -11.4854 -11.4845 -11.4708 -11.4583 -11.4552
   -11.4532 -11.4287 -11.4206 -11.4099 -11.3801 -11.3660 -11.3580 -11.3379
   -11.3210 -11.3128 -11.3044 -11.3005 -11.2724 -11.2635 -11.2617 -11.2450
   -11.2389 -11.2317 -11.2310 -11.2264 -11.2255 -11.1795 -11.1784 -11.1726
   -11.1680 -11.1511 -11.1436 -11.1411 -11.1318 -11.1272 -11.1212 -11.1191
   -11.1076 -11.0909 -11.0854 -11.0511 -11.0437 -11.0393 -11.0257 -10.9778
   -10.9623 -10.9454 -10.9319 -10.9177 -10.9078 -10.9015 -10.8792 -10.8712
   -10.8675 -10.8344 -10.8264 -10.8111 -10.8077 -10.8046 -10.8020 -10.7841
   -10.7824 -10.7816 -10.7808 -10.7785 -10.7755 -10.7723 -10.7688 -10.7632
   -10.7621 -10.7609 -10.7543 -10.7520 -10.7513 -10.7448 -10.7143 -10.7136
   -10.7132 -10.7122 -10.6414 -10.5400 -10.5261 -10.5125 -10.5056 -10.4958
   -10.4651 -10.4302 -10.3748 -10.3375 -10.2967 -10.2548 -10.2232 -10.1917
   -10.1794 -10.1387 -10.1290 -10.0932 -10.0921 -10.0829 -10.0732 -10.0533
[...]
     atom  172 type  2   force =    -0.00000323   -0.00000180    0.00161516
     atom  173 type  2   force =    -0.00000335   -0.00000226   -0.00235955
     atom  174 type  2   force =    -0.00000545   -0.00000431    0.00001076
     atom  175 type  1   force =    -0.00000204   -0.00000224   -0.00000241
     atom  176 type  1   force =    -0.00009911    0.00002757    0.00006426
     atom  177 type  2   force =    -0.00000134    0.00008744    0.00006321
     atom  178 type  2   force =    -0.00003028   -0.00001027    0.00002133
     atom  179 type  2   force =     0.00000494    0.00000718    0.00002838
     atom  180 type  2   force =    -0.00004557   -0.00025209    0.00025581
     atom  181 type  1   force =    -0.00000161   -0.00000266    0.00068784
     atom  182 type  1   force =    -0.00001049   -0.00001307    0.00000254
     atom  183 type  2   force =    -0.00000509   -0.00000370    0.00000519
     atom  184 type  2   force =    -0.00000316   -0.00000183    0.00161514
     atom  185 type  2   force =    -0.00000332   -0.00000228   -0.00235957
     atom  186 type  2   force =    -0.00000513   -0.00000655    0.00001796
     atom  187 type  1   force =     0.00000543   -0.00004122    0.00000330
     atom  188 type  1   force =     0.00024294    0.00001962    0.00024926
     atom  189 type  2   force =     0.00002557    0.00086521    0.00062890
     atom  190 type  2   force =     0.00000563   -0.00000303    0.00005453
     atom  191 type  2   force =    -0.00000800    0.00000140    0.00001332
     atom  192 type  2   force =    -0.00000775    0.00056272    0.00024328
     atom  193 type  3   force =     0.00070664    0.00045145   -0.00030035
     atom  194 type  4   force =    -0.00038179   -0.00085195   -0.00043494
     atom  195 type  4   force =     0.00063857    0.00024056   -0.00094608

     Total force =     0.003664     Total SCF correction =     0.000789
     SCF correction compared to forces is large: reduce conv_thr to get better values
     Energy error            =      3.4E-05 Ry
     Gradient error          =      9.5E-04 Ry/Bohr

     bfgs converged in  22 scf cycles and  21 bfgs steps
     (criteria: energy <  1.0E-04 Ry, force <  1.0E-03 Ry/Bohr)

     End of BFGS Geometry Optimization

     Final energy             =  -34492.2546110144 Ry

     File ./outdir/pwscf.bfgs deleted, as requested
Begin final coordinates

ATOMIC_POSITIONS (angstrom)
Mo               0.0000119917        1.8193638619       -9.1672481230    0   0   0
Mo               1.5756136568        0.9097075315       -3.0554901653    0   0   0
S                0.0000188998        1.8193822938       -4.6232556019    0   0   0
S                1.5756321638        0.9096773839       -7.6014065489    0   0   0
S                1.5756326175        0.9096785128      -10.7330757790    0   0   0
S                0.0000189190        1.8193860094       -1.4877129945    0   0   0
Mo              -0.0000769934        1.8190986089        3.0576779988
Mo               1.6005272747        0.8950257388        9.1575191470
S               -0.0196471037        1.8104731333        7.6444474095
S                1.5752462696        0.9094285798        4.6251117643
S                1.5757266238        0.9095061390        1.4898134437
S                0.1052386911        1.8015103791       10.7914680954
Mo              -1.5756053507        4.5484193819       -9.1672481230    0   0   0
Mo               0.0000378379        3.6387394919       -3.0554952701    0   0   0
S               -1.5755913433        4.5484363582       -4.6232494962    0   0   0
S                0.0000148214        3.6387329039       -7.6014065489    0   0   0
S                0.0000152751        3.6387340328      -10.7330757790    0   0   0
S               -1.5755906502        4.5484413613       -1.4877305502    0   0   0
Mo              -1.5751250478        4.5478968149        3.0585947609
Mo              -0.0007795463        3.6292297660        9.1887858526
S               -1.5731670067        4.5466943591        7.6204104711
S                0.0006147644        3.6380731901        4.6268015988
S               -0.0000176954        3.6385510434        1.4902305020
S               -1.6299099888        4.5753494182       10.7575856473
Mo              -3.1512226931        7.2774749019       -9.1672481230    0   0   0
Mo              -1.5755910988        6.3678216792       -3.0555115988    0   0   0
S               -3.1512162438        7.2774954350       -4.6232578178    0   0   0
S               -1.5756025210        6.3677884239       -7.6014065489    0   0   0
S               -1.5756020673        6.3677895528      -10.7330757790    0   0   0
S               -3.1512127704        7.2774877076       -1.4877200710    0   0   0
Mo              -3.1508549089        7.2769658989        3.0574555806
Mo              -1.6007058812        6.3759827156        9.1748377418
S               -3.1526883595        7.2753770161        7.5809060951
S               -1.5748846221        6.3675818481        4.6258874774
S               -1.5752741500        6.3668899099        1.4900544860
S               -3.1807093121        7.2881398647       10.7281057843
Mo              -4.7268400355       10.0065304219       -9.1672481230    0   0   0
Mo              -3.1512405618        9.0968403586       -3.0554816746    0   0   0
S               -4.7268341792       10.0065523623       -4.6232463762    0   0   0
S               -3.1512198634        9.0968439439       -7.6014065489    0   0   0
S               -3.1512194097        9.0968450728      -10.7330757790    0   0   0
S               -4.7268370797       10.0065537885       -1.4877176751    0   0   0
Mo              -4.7268976499       10.0062200617        3.0573929030
Mo              -3.1507971866        9.0947086250        9.1509971083
S               -4.7324464972        9.9987805324        7.5876688741
S               -3.1508279954        9.0965115137        4.6244374436
S               -3.1511497808        9.0963547434        1.4894949207
S               -4.7132516669        9.9991037411       10.7276255702
Mo               3.1512517547        1.8193638619       -9.1672481230    0   0   0
Mo               4.7269020221        0.9097289540       -3.0554823951    0   0   0
S                3.1512612351        1.8193882564       -4.6232320683    0   0   0
S                4.7268719268        0.9096773839       -7.6014065489    0   0   0
S                4.7268723805        0.9096785128      -10.7330757790    0   0   0
S                3.1512592485        1.8193890201       -1.4877261251    0   0   0
Mo               3.1514361172        1.8190330366        3.0576802986
Mo               4.7332509583        0.9038768887        9.1362574866
S                3.1573152150        1.8075707838        7.5649601880
S                4.7278970958        0.9088956423        4.6243456944
S                4.7270623219        0.9093133543        1.4894596653
S                3.1856147695        1.7982624014       10.7151986608
Mo               1.5756344123        4.5484193819       -9.1672481230    0   0   0
Mo               3.1512756394        3.6387769522       -3.0554814834    0   0   0
S                1.5756504879        4.5484423799       -4.6232390542    0   0   0
S                3.1512545844        3.6387329039       -7.6014065489    0   0   0
S                3.1512550381        3.6387340328      -10.7330757790    0   0   0
S                1.5756466253        4.5484431864       -1.4877251801    0   0   0
Mo               1.5755942382        4.5482302124        3.0578485186
Mo               3.1929173197        3.6159774237        9.1472301757
S                1.5726526024        4.5645596377        7.6466856686
S                3.1512275442        3.6388276955        4.6252995792
S                3.1511514523        3.6384154182        1.4898406143
S                1.6608782480        4.4257504292       10.7676058425
Mo               0.0000170699        7.2774749019       -9.1672481230    0   0   0
Mo               1.5756764447        6.3678236689       -3.0554877708    0   0   0
S                0.0000381981        7.2774979204       -4.6232454413    0   0   0
S                1.5756372420        6.3677884239       -7.6014065489    0   0   0
S                1.5756376957        6.3677895528      -10.7330757790    0   0   0
S                0.0000328088        7.2774946042       -1.4877307940    0   0   0
Mo               0.0004837540        7.2768264786        3.0575330692
Mo               1.5790816946        6.3700736153        9.2183172759
S                0.0168910473        7.2675963447        7.6418210894
S                1.5757897231        6.3674972328        4.6260521697
S                1.5756487120        6.3672077374        1.4895613514
S               -0.1163721917        7.3470574852       10.7969329720
Mo              -1.5756002725       10.0065304219       -9.1672481230    0   0   0
Mo               0.0000873425        9.0968676911       -3.0554912329    0   0   0
S               -1.5755883952       10.0065504530       -4.6232240150    0   0   0
S                0.0000198996        9.0968439439       -7.6014065489    0   0   0
S                0.0000203533        9.0968450728      -10.7330757790    0   0   0
S               -1.5755859047       10.0065492576       -1.4877362381    0   0   0
Mo              -1.5750048534       10.0058334072        3.0569855803
Mo              -0.0043409830        9.1131758341        9.1718652615
S               -1.5676824550        9.9948881746        7.5772669418
S                0.0006451975        9.0958825759        4.6252702360
S                0.0007596647        9.0961992656        1.4896094078
S               -1.5870886049       10.0218309157       10.7228221144
Mo               6.3024915177        1.8193638619       -9.1672481230    0   0   0
Mo               7.8781001445        0.9096521684       -3.0554919963    0   0   0
S                6.3025008696        1.8193826232       -4.6232480596    0   0   0
S                7.8781116898        0.9096773839       -7.6014065489    0   0   0
S                7.8781121435        0.9096785128      -10.7330757790    0   0   0
S                6.3025042007        1.8193849068       -1.4877147524    0   0   0
Mo               6.3032219690        1.8187629552        3.0569074359
Mo               7.8663119455        0.9084062653        9.1691934007
S                6.3164240030        1.8170897518        7.5778505852
S                7.8790073097        0.9092315329        4.6252718277
S                7.8788445804        0.9089344219        1.4896032591
S                6.2874066665        1.8219153238       10.7202206307
Mo               4.7268741753        4.5484193819       -9.1672481230    0   0   0
Mo               6.3024679138        3.6387501714       -3.0554895197    0   0   0
S                4.7268748770        4.5484386753       -4.6232519432    0   0   0
S                6.3024943474        3.6387329039       -7.6014065489    0   0   0
S                6.3024948011        3.6387340328      -10.7330757790    0   0   0
S                4.7268770533        4.5484432419       -1.4877137856    0   0   0
Mo               4.7269358781        4.5482355974        3.0573380347
Mo               6.3068787586        3.6395654154        9.1484389895
S                4.7393592179        4.5605625422        7.5796367576
S                6.3027593196        3.6380386483        4.6243060215
S                6.3029071629        3.6385081127        1.4894876288
S                4.7451462419        4.5366057269       10.7252824394
Mo               3.1512568329        7.2774749019       -9.1672481230    0   0   0
Mo               4.7268384135        6.3678043337       -3.0554959052    0   0   0
S                3.1512606125        7.2774972547       -4.6232589675    0   0   0
S                4.7268770050        6.3677884239       -7.6014065489    0   0   0
S                4.7268774587        6.3677895528      -10.7330757790    0   0   0
S                3.1512629079        7.2774963749       -1.4877081835    0   0   0
Mo               3.1510300814        7.2771472947        3.0572854418
Mo               4.7340403997        6.3660862639        9.1773050153
S                3.1267880962        7.2725558537        7.6467523715
S                4.7262100679        6.3678812478        4.6249158749
S                4.7268494470        6.3675618218        1.4894726207
S                3.2303249484        7.3141407589       10.8285360922
Mo               1.5756394905       10.0065304219       -9.1672481230    0   0   0
Mo               3.1512330605        9.0968514907       -3.0554878870    0   0   0
S                1.5756499830       10.0065443759       -4.6232632674    0   0   0
S                3.1512596626        9.0968439439       -7.6014065489    0   0   0
S                3.1512601163        9.0968450728      -10.7330757790    0   0   0
S                1.5756503041       10.0065459699       -1.4877044377    0   0   0
Mo               1.5762300380       10.0059200191        3.0578994743
Mo               3.1518397306        9.0964363332        9.1987353366
S                1.5866996307       10.0007583588        7.6063823747
S                3.1518112489        9.0961032626        4.6259915872
S                3.1512899375        9.0965080292        1.4896250032
S                1.5673556591       10.0144743667       10.7442048249
Mo               9.4537312807        1.8193638619       -9.1672481230    0   0   0
Mo              11.0293863460        0.9096952246       -3.0554894007    0   0   0
S                9.4537395970        1.8193770750       -4.6232328036    0   0   0
S               11.0293514528        0.9096773839       -7.6014065489    0   0   0
S               11.0293519066        0.9096785128      -10.7330757790    0   0   0
S                9.4537393632        1.8193794783       -1.4877366147    0   0   0
Mo               9.4543232399        1.8188673429        3.0575084704
Mo              11.0283570104        0.9020166537        9.2246532865
S                9.4710415543        1.8077722598        7.6339923990
S               11.0294911891        0.9091919497        4.6258093776
S               11.0296516103        0.9094874297        1.4895605241
S                9.3606360619        1.8732409683       10.7770813817
Mo               7.8781139383        4.5484193819       -9.1672481230    0   0   0
Mo               9.4537539161        3.6387607911       -3.0554933032    0   0   0
S                7.8781175448        4.5484378232       -4.6232366318    0   0   0
S                9.4537341104        3.6387329039       -7.6014065489    0   0   0
S                9.4537345641        3.6387340328      -10.7330757790    0   0   0
S                7.8781194018        4.5484411585       -1.4877377057    0   0   0
Mo               7.8785830703        4.5479716014        3.0575295364
Mo               9.4337803112        3.6508962991        9.1695189830
S                7.8801361101        4.5501387330        7.5792439511
S                9.4541193445        3.6378276793        4.6258995952
S                9.4544800382        3.6385561911        1.4900870582
S                7.8583843079        4.5627975558       10.7267972673
Mo               6.3024965959        7.2774749019       -9.1672481230    0   0   0
Mo               7.8781361655        6.3678242352       -3.0555014130    0   0   0
S                6.3024973331        7.2774953556       -4.6232392528    0   0   0
S                7.8781167680        6.3677884239       -7.6014065489    0   0   0
S                7.8781172217        6.3677895528      -10.7330757790    0   0   0
S                6.3024989866        7.2774929744       -1.4877349119    0   0   0
Mo               6.3023346872        7.2772986651        3.0574001692
Mo               7.8709020378        6.3709399749        9.1493441969
S                6.2882498352        7.2840761900        7.5924263966
S                7.8781243549        6.3676069602        4.6248634313
S                7.8782660336        6.3673934186        1.4897220764
S                6.3179851761        7.2686201558       10.7379754459
Mo               4.7268792535       10.0065304219       -9.1672481230    0   0   0
Mo               6.3025111524        9.0968738021       -3.0554915260    0   0   0
S                4.7268840634       10.0065452125       -4.6232380477    0   0   0
S                6.3024994256        9.0968439439       -7.6014065489    0   0   0
S                6.3024998793        9.0968450728      -10.7330757790    0   0   0
S                4.7268847312       10.0065459141       -1.4877283294    0   0   0
Mo               4.7268173400       10.0063772003        3.0573566034
Mo               6.3052540776        9.0900110534        9.1754419868
S                4.7177308774       10.0220981629        7.6416047618
S                6.3019425803        9.0968566949        4.6250832379
S                6.3025091377        9.0965933902        1.4895365841
S                4.7360042465        9.9319158952       10.8062906223
Pt               1.4779074882        6.2638132831       12.0415583833
Pd               0.0046609529        3.7254633877       12.2572448185
Pd              11.0453312281        1.0140709255       12.1432763996
End final coordinates



     Writing all to output data dir ./outdir/pwscf.save/ :
     XML data file, charge density, pseudopotentials, collected wavefunctions
 
     init_run     :    177.73s CPU    181.09s WALL (       1 calls)
     electrons    : 168923.13s CPU 171006.85s WALL (      22 calls)
     update_pot   :     35.45s CPU     36.58s WALL (      21 calls)
     forces       :   2839.28s CPU   2889.96s WALL (      22 calls)
     force_dftd3  :     15.15s CPU     15.83s WALL (      22 calls)

     Called by init_run:
     wfcinit      :    153.81s CPU    155.62s WALL (       1 calls)
     potinit      :      1.30s CPU      1.40s WALL (       1 calls)
     hinit0       :     12.89s CPU     12.97s WALL (       1 calls)

     Called by electrons:
     c_bands      : 149445.12s CPU 150838.90s WALL (     273 calls)
     sum_band     :  17421.25s CPU  17776.22s WALL (     273 calls)
     v_of_rho     :     98.89s CPU    111.04s WALL (     276 calls)
     newd         :   1738.89s CPU   2067.19s WALL (     276 calls)
     PAW_pot      :    260.31s CPU    262.80s WALL (     297 calls)
     mix_rho      :     25.88s CPU     30.01s WALL (     273 calls)
     energy_dftd3 :      8.81s CPU      8.85s WALL (      22 calls)

     Called by c_bands:
     init_us_2    :    597.26s CPU    599.95s WALL (    2360 calls)
     init_us_2:cp :    597.24s CPU    599.93s WALL (    2360 calls)
     cegterg      : 146867.17s CPU 148245.65s WALL (    1113 calls)

     Called by *egterg:
     cdiaghg      :   8756.88s CPU   9062.36s WALL (   13500 calls)
     h_psi        :  74326.12s CPU  74780.05s WALL (   13669 calls)
     s_psi        :  17323.95s CPU  17427.36s WALL (   13669 calls)
     g_psi        :    133.84s CPU    134.50s WALL (   12552 calls)

     Called by h_psi:
     h_psi:calbec :  16677.11s CPU  16729.59s WALL (   13669 calls)
     vloc_psi     :  39903.96s CPU  40094.81s WALL (   13669 calls)
     add_vuspsi   :  17440.00s CPU  17547.10s WALL (   13669 calls)

     General routines
     calbec       :  24027.40s CPU  24103.00s WALL (   15197 calls)
     fft          :     80.05s CPU     90.73s WALL (    3826 calls)
     ffts         :      4.90s CPU      5.30s WALL (     549 calls)
     fftw         :  30101.28s CPU  30246.42s WALL ( 7895042 calls)
     interpolate  :      8.58s CPU      9.38s WALL (     276 calls)
 
     Parallel routines
 
     PWSCF        :   2d 0h 0m CPU   2d 0h38m WALL

 
   This run was terminated on:   5: 2:43   1May2024            

=------------------------------------------------------------------------------=
   JOB DONE.
=------------------------------------------------------------------------------=
