
     Program PWSCF v.7.3 starts on 20Apr2024 at  8:36:14 

     This program is part of the open-source Quantum ESPRESSO suite
     for quantum simulation of materials; please cite
         "P. Giannozzi et al., J. Phys.:Condens. Matter 21 395502 (2009);
         "P. Giannozzi et al., J. Phys.:Condens. Matter 29 465901 (2017);
         "P. Giannozzi et al., J. Chem. Phys. 152 154105 (2020);
          URL http://www.quantum-espresso.org", 
     in publications or presentations arising from this work. More details at
     http://www.quantum-espresso.org/quote

     Parallel version (MPI & OpenMP), running on      36 processor cores
     Number of MPI processes:                36
     Threads/MPI process:                     1

     MPI processes distributed on     1 nodes
     558477 MiB available memory on the printing compute node when the environment starts
 
     Waiting for input...
     Reading input from standard input
Warning: card &CELL ignored
Warning: card / ignored

     Current dimensions of program PWSCF are:
     Max number of different atomic species (ntypx) = 10
     Max number of k-points (npk) =  40000
     Max angular momentum in pseudopotentials (lmaxx) =  4
     file Mo.pbe-spn-kjpaw_psl.1.0.0.UPF: wavefunction(s)  4S 4D renormalized
     file S.pbe-n-kjpaw_psl.1.0.0.UPF: wavefunction(s)  3S 3P renormalized
     file Pd.pbe-spn-kjpaw_psl.1.0.0.UPF: wavefunction(s)  4S 5S 4D renormalized
     file Pt.pbe-spfn-kjpaw_psl.1.0.0.UPF: wavefunction(s)  5P 4F renormalized
 
     R & G space division:  proc/nbgrp/npool/nimage =      36
     Subspace diagonalization in iterative solution of the eigenvalue problem:
     one sub-group per band group will be used
     scalapack distributed-memory algorithm (size of sub-group:  6*  6 procs)

 
     Parallelization info
     --------------------
     sticks:   dense  smooth     PW     G-vecs:    dense   smooth      PW
     Min         585     334     89               198743    85850   11735
     Max         586     335     90               198750    85861   11748
     Sum       21073   12049   3205              7154885  3090769  422587
 
     Using Slab Decomposition
 


     bravais-lattice index     =            0
     lattice parameter (alat)  =      23.8199  a.u.
     unit-cell volume          =   33861.0370 (a.u.)^3
     number of atoms/cell      =          195
     number of atomic types    =            4
     number of electrons       =      1732.00
     number of Kohn-Sham states=         1039
     kinetic-energy cutoff     =      77.0000  Ry
     charge density cutoff     =     539.0000  Ry
     scf convergence threshold =      1.0E-06
     mixing beta               =       0.2000
     number of iterations used =            8  plain     mixing
     energy convergence thresh.=      1.0E-04
     force convergence thresh. =      1.0E-03
     Exchange-correlation= SLA  PW   PBX  PBC
                           (   1   4   3   4   0   0   0)
     nstep                     =         1000


     Effective Screening Medium Method
     =================================
     Boundary Conditions: Vacuum-Slab-Vacuum
     total charge in unit cell        =   0.0000
     grid points for fit at edges     =        4 
 

     celldm(1)=  23.819920  celldm(2)=   0.000000  celldm(3)=   0.000000
     celldm(4)=   0.000000  celldm(5)=   0.000000  celldm(6)=   0.000000

     crystal axes: (cart. coord. in units of alat)
               a(1) = (   1.000000   0.000000   0.000000 )  
               a(2) = (  -0.499999   0.866026   0.000000 )  
               a(3) = (   0.000000   0.000000   2.893000 )  

     reciprocal axes: (cart. coord. in units 2 pi/alat)
               b(1) = (  1.000000  0.577349  0.000000 )  
               b(2) = (  0.000000  1.154700  0.000000 )  
               b(3) = (  0.000000  0.000000  0.345662 )  


     PseudoPot. # 1 for Mo read from file:
     ./pseudo/Mo.pbe-spn-kjpaw_psl.1.0.0.UPF
     MD5 check sum: 317bf72632116215fd98f72de1686f13
     Pseudo is Projector augmented-wave + core cor, Zval = 14.0
     Generated using 'atomic' code by A. Dal Corso  v.7.2
     Shape of augmentation charge: PSQ
     Using radial grid of 1229 points,  6 beta functions with: 
                l(1) =   0
                l(2) =   0
                l(3) =   1
                l(4) =   1
                l(5) =   2
                l(6) =   2
     Q(r) pseudized with 0 coefficients 


     PseudoPot. # 2 for S  read from file:
     ./pseudo/S.pbe-n-kjpaw_psl.1.0.0.UPF
     MD5 check sum: 8b7b5302570d38d5e87fed6a1065abda
     Pseudo is Projector augmented-wave + core cor, Zval =  6.0
     Generated using 'atomic' code by A. Dal Corso  v.7.2
     Shape of augmentation charge: PSQ
     Using radial grid of 1151 points,  6 beta functions with: 
                l(1) =   0
                l(2) =   0
                l(3) =   1
                l(4) =   1
                l(5) =   2
                l(6) =   2
     Q(r) pseudized with 0 coefficients 


     PseudoPot. # 3 for Pd read from file:
     ./pseudo/Pd.pbe-spn-kjpaw_psl.1.0.0.UPF
     MD5 check sum: a60571a671f2502b8a6a4569d20a6edb
     Pseudo is Projector augmented-wave + core cor, Zval = 18.0
     Generated using 'atomic' code by A. Dal Corso  v.7.2
     Shape of augmentation charge: PSQ
     Using radial grid of 1235 points,  6 beta functions with: 
                l(1) =   0
                l(2) =   0
                l(3) =   1
                l(4) =   1
                l(5) =   2
                l(6) =   2
     Q(r) pseudized with 0 coefficients 


     PseudoPot. # 4 for Pt read from file:
     ./pseudo/Pt.pbe-spfn-kjpaw_psl.1.0.0.UPF
     MD5 check sum: 620096ebf4e6ebacc94de60fd67efcb5
     Pseudo is Projector augmented-wave + core cor, Zval = 32.0
     Generated using 'atomic' code by A. Dal Corso  v.7.2
     Shape of augmentation charge: PSQ
     Using radial grid of 1277 points,  8 beta functions with: 
                l(1) =   0
                l(2) =   0
                l(3) =   1
                l(4) =   1
                l(5) =   2
                l(6) =   2
                l(7) =   3
                l(8) =   3
     Q(r) pseudized with 0 coefficients 


     atomic species   valence    mass     pseudopotential
     Mo               14.00    95.95000     Mo( 1.00)
     S                 6.00    32.06000     S ( 1.00)
     Pd               18.00   106.42000     Pd( 1.00)
     Pt               32.00   195.08400     Pt( 1.00)

     No symmetry found



   Cartesian axes

     site n.     atom                  positions (alat units)
         1        Mo     tau(   1) = (   0.0000010   0.1443372  -0.7272732  )
         2        Mo     tau(   2) = (   0.1249995   0.0721706  -0.2424038  )
         3        S      tau(   3) = (   0.0000015   0.1443386  -0.3667807  )
         4        S      tau(   4) = (   0.1250010   0.0721682  -0.6030489  )
         5        S      tau(   5) = (   0.1250010   0.0721683  -0.8514963  )
         6        S      tau(   6) = (   0.0000015   0.1443389  -0.1180260  )
         7        Mo     tau(   7) = (   0.0000222   0.1444187   0.2425595  )
         8        Mo     tau(   8) = (   0.1245966   0.0727010   0.7278826  )
         9        S      tau(   9) = (   0.0000166   0.1448419   0.6020343  )
        10        S      tau(  10) = (   0.1250561   0.0722903   0.3669179  )
        11        S      tau(  11) = (   0.1250140   0.0722444   0.1181576  )
        12        S      tau(  12) = (  -0.0013476   0.1442175   0.8515296  )
        13        Mo     tau(  13) = (  -0.1249989   0.3608437  -0.7272732  )
        14        Mo     tau(  14) = (   0.0000030   0.2886752  -0.2424042  )
        15        S      tau(  15) = (  -0.1249977   0.3608450  -0.3667802  )
        16        S      tau(  16) = (   0.0000012   0.2886747  -0.6030489  )
        17        S      tau(  17) = (   0.0000012   0.2886748  -0.8514963  )
        18        S      tau(  18) = (  -0.1249977   0.3608454  -0.1180274  )
        19        Mo     tau(  19) = (  -0.1249777   0.3609089   0.2425603  )
        20        Mo     tau(  20) = (  -0.0029637   0.2882853   0.7270120  )
        21        S      tau(  21) = (  -0.1256983   0.3625185   0.6019747  )
        22        S      tau(  22) = (   0.0000591   0.2887797   0.3669668  )
        23        S      tau(  23) = (   0.0000075   0.2887346   0.1181682  )
        24        S      tau(  24) = (  -0.1270233   0.3617098   0.8514678  )
        25        Mo     tau(  25) = (  -0.2499987   0.5773502  -0.7272732  )
        26        Mo     tau(  26) = (  -0.1249977   0.5051839  -0.2424055  )
        27        S      tau(  27) = (  -0.2499981   0.5773518  -0.3667809  )
        28        S      tau(  28) = (  -0.1249986   0.5051812  -0.6030489  )
        29        S      tau(  29) = (  -0.1249986   0.5051813  -0.8514963  )
        30        S      tau(  30) = (  -0.2499979   0.5773512  -0.1180266  )
        31        Mo     tau(  31) = (  -0.2499821   0.5774144   0.2425369  )
        32        Mo     tau(  32) = (  -0.1258229   0.5064885   0.7278520  )
        33        S      tau(  33) = (  -0.2493952   0.5788088   0.6023234  )
        34        S      tau(  34) = (  -0.1249462   0.5052707   0.3669162  )
        35        S      tau(  35) = (  -0.1249880   0.5052329   0.1181602  )
        36        S      tau(  36) = (  -0.2509230   0.5788413   0.8515814  )
        37        Mo     tau(  37) = (  -0.3749985   0.7938567  -0.7272732  )
        38        Mo     tau(  38) = (  -0.2500001   0.7216874  -0.2424031  )
        39        S      tau(  39) = (  -0.3749980   0.7938584  -0.3667800  )
        40        S      tau(  40) = (  -0.2499984   0.7216877  -0.6030489  )
        41        S      tau(  41) = (  -0.2499984   0.7216878  -0.8514963  )
        42        S      tau(  42) = (  -0.3749982   0.7938585  -0.1180264  )
        43        Mo     tau(  43) = (  -0.3749910   0.7939458   0.2425394  )
        44        Mo     tau(  44) = (  -0.2499391   0.7230231   0.7269923  )
        45        S      tau(  45) = (  -0.3746478   0.7955125   0.6023635  )
        46        S      tau(  46) = (  -0.2500018   0.7217675   0.3668983  )
        47        S      tau(  47) = (  -0.2499845   0.7217593   0.1181709  )
        48        S      tau(  48) = (  -0.3753625   0.7942039   0.8516391  )
        49        Mo     tau(  49) = (   0.2500010   0.1443372  -0.7272732  )
        50        Mo     tau(  50) = (   0.3750034   0.0721723  -0.2424032  )
        51        S      tau(  51) = (   0.2500017   0.1443391  -0.3667788  )
        52        S      tau(  52) = (   0.3750010   0.0721682  -0.6030489  )
        53        S      tau(  53) = (   0.3750010   0.0721683  -0.8514963  )
        54        S      tau(  54) = (   0.2500016   0.1443391  -0.1180271  )
        55        Mo     tau(  55) = (   0.2500120   0.1444423   0.2425270  )
        56        Mo     tau(  56) = (   0.3753385   0.0727176   0.7280385  )
        57        S      tau(  57) = (   0.2501061   0.1471948   0.6059873  )
        58        S      tau(  58) = (   0.3749665   0.0722824   0.3669588  )
        59        S      tau(  59) = (   0.3750194   0.0722259   0.1181828  )
        60        S      tau(  60) = (   0.2503224   0.1381707   0.8567863  )
        61        Mo     tau(  61) = (   0.1250012   0.3608437  -0.7272732  )
        62        Mo     tau(  62) = (   0.2500029   0.2886782  -0.2424031  )
        63        S      tau(  63) = (   0.1250024   0.3608455  -0.3667794  )
        64        S      tau(  64) = (   0.2500012   0.2886747  -0.6030489  )
        65        S      tau(  65) = (   0.2500012   0.2886748  -0.8514963  )
        66        S      tau(  66) = (   0.1250021   0.3608455  -0.1180270  )
        67        Mo     tau(  67) = (   0.1250146   0.3609220   0.2425310  )
        68        Mo     tau(  68) = (   0.2504060   0.2889449   0.7322230  )
        69        S      tau(  69) = (   0.1260377   0.3627995   0.6088284  )
        70        S      tau(  70) = (   0.2499668   0.2887692   0.3669710  )
        71        S      tau(  71) = (   0.2500114   0.2887581   0.1181457  )
        72        S      tau(  72) = (   0.1159817   0.3569446   0.8558923  )
        73        Mo     tau(  73) = (   0.0000014   0.5773502  -0.7272732  )
        74        Mo     tau(  74) = (   0.1250045   0.5051840  -0.2424036  )
        75        S      tau(  75) = (   0.0000030   0.5773520  -0.3667799  )
        76        S      tau(  76) = (   0.1250014   0.5051812  -0.6030489  )
        77        S      tau(  77) = (   0.1250014   0.5051813  -0.8514963  )
        78        S      tau(  78) = (   0.0000026   0.5773517  -0.1180274  )
        79        Mo     tau(  79) = (   0.0000277   0.5774027   0.2425352  )
        80        Mo     tau(  80) = (   0.1244123   0.5073284   0.7323387  )
        81        S      tau(  81) = (   0.0015839   0.5778224   0.6060731  )
        82        S      tau(  82) = (   0.1249885   0.5052105   0.3669878  )
        83        S      tau(  83) = (   0.1250163   0.5052440   0.1181546  )
        84        S      tau(  84) = (  -0.0063306   0.5826378   0.8568465  )
        85        Mo     tau(  85) = (  -0.1249984   0.7938567  -0.7272732  )
        86        Mo     tau(  86) = (   0.0000069   0.7216896  -0.2424039  )
        87        S      tau(  87) = (  -0.1249975   0.7938582  -0.3667782  )
        88        S      tau(  88) = (   0.0000016   0.7216877  -0.6030489  )
        89        S      tau(  89) = (   0.0000016   0.7216878  -0.8514963  )
        90        S      tau(  90) = (  -0.1249973   0.7938582  -0.1180279  )
        91        Mo     tau(  91) = (  -0.1249896   0.7939312   0.2425787  )
        92        Mo     tau(  92) = (  -0.0004661   0.7235602   0.7280479  )
        93        S      tau(  93) = (  -0.1246539   0.7952907   0.6028036  )
        94        S      tau(  94) = (   0.0000057   0.7217075   0.3669682  )
        95        S      tau(  95) = (  -0.0000058   0.7217536   0.1181837  )
        96        S      tau(  96) = (  -0.1254262   0.7948489   0.8523899  )
        97        Mo     tau(  97) = (   0.5000010   0.1443372  -0.7272732  )
        98        Mo     tau(  98) = (   0.6250001   0.0721662  -0.2424040  )
        99        S      tau(  99) = (   0.5000017   0.1443386  -0.3667801  )
       100        S      tau( 100) = (   0.6250010   0.0721682  -0.6030489  )
       101        S      tau( 101) = (   0.6250010   0.0721683  -0.8514963  )
       102        S      tau( 102) = (   0.5000020   0.1443388  -0.1180261  )
       103        Mo     tau( 103) = (   0.4999896   0.1444085   0.2425760  )
       104        Mo     tau( 104) = (   0.6249106   0.0734024   0.7271439  )
       105        S      tau( 105) = (   0.4997403   0.1454705   0.6028629  )
       106        S      tau( 106) = (   0.6250025   0.0722337   0.3669107  )
       107        S      tau( 107) = (   0.6249747   0.0722025   0.1181744  )
       108        S      tau( 108) = (   0.5004717   0.1456393   0.8518204  )
       109        Mo     tau( 109) = (   0.3750012   0.3608437  -0.7272732  )
       110        Mo     tau( 110) = (   0.4999991   0.2886761  -0.2424038  )
       111        S      tau( 111) = (   0.3750012   0.3608452  -0.3667804  )
       112        S      tau( 112) = (   0.5000012   0.2886747  -0.6030489  )
       113        S      tau( 113) = (   0.5000012   0.2886748  -0.8514963  )
       114        S      tau( 114) = (   0.3750014   0.3608455  -0.1180261  )
       115        Mo     tau( 115) = (   0.3749750   0.3609148   0.2425684  )
       116        Mo     tau( 116) = (   0.5011524   0.2898551   0.7275448  )
       117        S      tau( 117) = (   0.3735446   0.3613798   0.6062215  )
       118        S      tau( 118) = (   0.4999580   0.2887676   0.3669508  )
       119        S      tau( 119) = (   0.4999841   0.2887256   0.1181818  )
       120        S      tau( 120) = (   0.3822446   0.3659056   0.8554316  )
       121        Mo     tau( 121) = (   0.2500014   0.5773502  -0.7272732  )
       122        Mo     tau( 122) = (   0.3749983   0.5051825  -0.2424043  )
       123        S      tau( 123) = (   0.2500017   0.5773519  -0.3667810  )
       124        S      tau( 124) = (   0.3750014   0.5051812  -0.6030489  )
       125        S      tau( 125) = (   0.3750014   0.5051813  -0.8514963  )
       126        S      tau( 126) = (   0.2500018   0.5773519  -0.1180256  )
       127        Mo     tau( 127) = (   0.2499849   0.5773839   0.2425825  )
       128        Mo     tau( 128) = (   0.3768766   0.5074715   0.7281761  )
       129        S      tau( 129) = (   0.2486635   0.5776965   0.6062935  )
       130        S      tau( 130) = (   0.3749671   0.5052274   0.3670086  )
       131        S      tau( 131) = (   0.3749970   0.5052445   0.1181960  )
       132        S      tau( 132) = (   0.2571816   0.5830870   0.8554758  )
       133        Mo     tau( 133) = (   0.1250016   0.7938567  -0.7272732  )
       134        Mo     tau( 134) = (   0.2499995   0.7216883  -0.2424036  )
       135        S      tau( 135) = (   0.1250024   0.7938578  -0.3667813  )
       136        S      tau( 136) = (   0.2500016   0.7216877  -0.6030489  )
       137        S      tau( 137) = (   0.2500016   0.7216878  -0.8514963  )
       138        S      tau( 138) = (   0.1250024   0.7938579  -0.1180253  )
       139        Mo     tau( 139) = (   0.1249925   0.7938982   0.2425783  )
       140        Mo     tau( 140) = (   0.2504874   0.7240318   0.7276005  )
       141        S      tau( 141) = (   0.1247502   0.7949264   0.6029133  )
       142        S      tau( 142) = (   0.2499928   0.7217086   0.3669584  )
       143        S      tau( 143) = (   0.2499817   0.7217168   0.1181890  )
       144        S      tau( 144) = (   0.1251679   0.7955203   0.8518202  )
       145        Mo     tau( 145) = (   0.7500010   0.1443372  -0.7272732  )
       146        Mo     tau( 146) = (   0.8750038   0.0721696  -0.2424038  )
       147        S      tau( 147) = (   0.7500016   0.1443382  -0.3667789  )
       148        S      tau( 148) = (   0.8750010   0.0721682  -0.6030489  )
       149        S      tau( 149) = (   0.8750010   0.0721683  -0.8514963  )
       150        S      tau( 150) = (   0.7500016   0.1443384  -0.1180279  )
       151        Mo     tau( 151) = (   0.7499969   0.1443861   0.2425090  )
       152        Mo     tau( 152) = (   0.8747528   0.0730779   0.7263799  )
       153        S      tau( 153) = (   0.7495020   0.1453181   0.6020842  )
       154        S      tau( 154) = (   0.8749912   0.0722441   0.3668818  )
       155        S      tau( 155) = (   0.8750227   0.0722127   0.1181591  )
       156        S      tau( 156) = (   0.7499182   0.1456588   0.8509527  )
       157        Mo     tau( 157) = (   0.6250012   0.3608437  -0.7272732  )
       158        Mo     tau( 158) = (   0.7500028   0.2886769  -0.2424041  )
       159        S      tau( 159) = (   0.6250015   0.3608451  -0.3667792  )
       160        S      tau( 160) = (   0.7500012   0.2886747  -0.6030489  )
       161        S      tau( 161) = (   0.7500012   0.2886748  -0.8514963  )
       162        S      tau( 162) = (   0.6250016   0.3608454  -0.1180280  )
       163        Mo     tau( 163) = (   0.6249910   0.3608952   0.2425431  )
       164        Mo     tau( 164) = (   0.7494837   0.2899696   0.7262894  )
       165        S      tau( 165) = (   0.6246231   0.3621365   0.6018551  )
       166        S      tau( 166) = (   0.7500034   0.2887135   0.3668814  )
       167        S      tau( 167) = (   0.7500079   0.2887338   0.1181595  )
       168        S      tau( 168) = (   0.6260048   0.3625460   0.8512927  )
       169        Mo     tau( 169) = (   0.5000014   0.5773502  -0.7272732  )
       170        Mo     tau( 170) = (   0.6250029   0.5051841  -0.2424047  )
       171        S      tau( 171) = (   0.5000014   0.5773518  -0.3667794  )
       172        S      tau( 172) = (   0.6250014   0.5051812  -0.6030489  )
       173        S      tau( 173) = (   0.6250014   0.5051813  -0.8514963  )
       174        S      tau( 174) = (   0.5000016   0.5773516  -0.1180277  )
       175        Mo     tau( 175) = (   0.4999891   0.5774067   0.2425764  )
       176        Mo     tau( 176) = (   0.6253058   0.5066864   0.7263366  )
       177        S      tau( 177) = (   0.5001147   0.5786992   0.6018768  )
       178        S      tau( 178) = (   0.6250219   0.5052389   0.3668960  )
       179        S      tau( 179) = (   0.6249897   0.5052360   0.1181749  )
       180        S      tau( 180) = (   0.5022411   0.5798745   0.8515808  )
       181        Mo     tau( 181) = (   0.3750016   0.7938567  -0.7272732  )
       182        Mo     tau( 182) = (   0.5000025   0.7216901  -0.2424039  )
       183        S      tau( 183) = (   0.3750019   0.7938578  -0.3667793  )
       184        S      tau( 184) = (   0.5000016   0.7216877  -0.6030489  )
       185        S      tau( 185) = (   0.5000016   0.7216878  -0.8514963  )
       186        S      tau( 186) = (   0.3750020   0.7938579  -0.1180272  )
       187        Mo     tau( 187) = (   0.3749890   0.7939067   0.2425443  )
       188        Mo     tau( 188) = (   0.5002702   0.7230996   0.7264112  )
       189        S      tau( 189) = (   0.3747820   0.7948530   0.6019718  )
       190        S      tau( 190) = (   0.5000014   0.7217825   0.3669010  )
       191        S      tau( 191) = (   0.5000049   0.7217309   0.1181759  )
       192        S      tau( 192) = (   0.3757788   0.7958654   0.8513800  )
       193        Pd     tau( 193) = (   0.1298567   0.5028633   0.9631584  )
       194        Pd     tau( 194) = (   0.2489715   0.2959876   0.9631435  )
       195        Pt     tau( 195) = (   0.1298695   0.5028973   1.1535936  )

     --------------------------------------------
     DFT-D3 Dispersion Correction (3-body terms):
     --------------------------------------------
       Reference C6 values for interpolation: 

         atom   Coordination number   C6
         S          0.000           268.01
         S          0.995           261.99
         S          1.990           251.62
         Mo         0.000          1691.79
         Mo         1.942          1004.01
         Mo        11.056           674.22
         Pd         0.000          1217.01
         Pd         1.863           573.90
         Pd         5.710           531.75
         Pt         0.000           782.29
         Pt         1.919           692.72
         Pt         6.667           673.75

       Values used:

         atom   Coordination number  R0_AB[au]  C6      C8
         Mo        10.208            3.547    674.22  77634.20
         Mo        10.221            3.547    674.22  77634.20
         S          3.858            3.128    251.62  12327.25
         S          3.859            3.128    251.62  12327.25
         S          3.758            3.128    251.62  12327.25
         S          3.859            3.128    251.62  12327.25
         Mo        10.220            3.547    674.22  77634.20
         Mo        10.221            3.547    674.22  77634.20
         S          3.841            3.128    251.62  12327.25
         S          3.858            3.128    251.62  12327.25
         S          3.858            3.128    251.62  12327.25
         S          3.815            3.128    251.62  12327.25
         Mo        10.208            3.547    674.22  77634.20
         Mo        10.221            3.547    674.22  77634.20
         S          3.858            3.128    251.62  12327.25
         S          3.859            3.128    251.62  12327.25
         S          3.758            3.128    251.62  12327.25
         S          3.859            3.128    251.62  12327.25
         Mo        10.220            3.547    674.22  77634.20
         Mo        10.181            3.547    674.22  77634.20
         S          3.842            3.128    251.62  12327.25
         S          3.854            3.128    251.62  12327.25
         S          3.858            3.128    251.62  12327.25
         S          3.816            3.128    251.62  12327.25
         Mo        10.208            3.547    674.22  77634.20
         Mo        10.221            3.547    674.22  77634.20
         S          3.858            3.128    251.62  12327.25
         S          3.859            3.128    251.62  12327.25
         S          3.758            3.128    251.62  12327.25
         S          3.859            3.128    251.62  12327.25
         Mo        10.219            3.547    674.22  77634.20
         Mo        10.223            3.547    674.22  77634.20
         S          3.850            3.128    251.62  12327.25
         S          3.858            3.128    251.62  12327.25
         S          3.858            3.128    251.62  12327.25
         S          3.817            3.128    251.62  12327.25
         Mo        10.208            3.547    674.22  77634.20
         Mo        10.220            3.547    674.22  77634.20
         S          3.858            3.128    251.62  12327.25
         S          3.859            3.128    251.62  12327.25
         S          3.758            3.128    251.62  12327.25
         S          3.859            3.128    251.62  12327.25
         Mo        10.219            3.547    674.22  77634.20
         Mo        10.251            3.547    674.22  77634.20
         S          3.850            3.128    251.62  12327.25
         S          3.860            3.128    251.62  12327.25
         S          3.859            3.128    251.62  12327.25
         S          3.815            3.128    251.62  12327.25
         Mo        10.208            3.547    674.22  77634.20
         Mo        10.221            3.547    674.22  77634.20
         S          3.858            3.128    251.62  12327.25
         S          3.859            3.128    251.62  12327.25
         S          3.758            3.128    251.62  12327.25
         S          3.859            3.128    251.62  12327.25
         Mo        10.221            3.547    674.22  77634.20
         Mo        10.228            3.547    674.22  77634.20
         S          3.853            3.128    251.62  12327.25
         S          3.856            3.128    251.62  12327.25
         S          3.859            3.128    251.62  12327.25
         S          4.644            3.128    251.62  12327.25
         Mo        10.208            3.547    674.22  77634.20
         Mo        10.221            3.547    674.22  77634.20
         S          3.858            3.128    251.62  12327.25
         S          3.859            3.128    251.62  12327.25
         S          3.758            3.128    251.62  12327.25
         S          3.859            3.128    251.62  12327.25
         Mo        10.222            3.547    674.22  77634.20
         Mo        10.783            3.547    674.22  77634.20
         S          3.877            3.128    251.62  12327.25
         S          3.850            3.128    251.62  12327.25
         S          3.859            3.128    251.62  12327.25
         S          5.613            3.128    251.62  12327.25
         Mo        10.208            3.547    674.22  77634.20
         Mo        10.221            3.547    674.22  77634.20
         S          3.858            3.128    251.62  12327.25
         S          3.859            3.128    251.62  12327.25
         S          3.758            3.128    251.62  12327.25
         S          3.859            3.128    251.62  12327.25
         Mo        10.221            3.547    674.22  77634.20
         Mo        10.785            3.547    674.22  77634.20
         S          3.854            3.128    251.62  12327.25
         S          3.849            3.128    251.62  12327.25
         S          3.859            3.128    251.62  12327.25
         S          4.650            3.128    251.62  12327.25
         Mo        10.208            3.547    674.22  77634.20
         Mo        10.221            3.547    674.22  77634.20
         S          3.858            3.128    251.62  12327.25
         S          3.859            3.128    251.62  12327.25
         S          3.758            3.128    251.62  12327.25
         S          3.859            3.128    251.62  12327.25
         Mo        10.220            3.547    674.22  77634.20
         Mo        10.229            3.547    674.22  77634.20
         S          3.847            3.128    251.62  12327.25
         S          3.855            3.128    251.62  12327.25
         S          3.859            3.128    251.62  12327.25
         S          3.827            3.128    251.62  12327.25
         Mo        10.208            3.547    674.22  77634.20
         Mo        10.221            3.547    674.22  77634.20
         S          3.858            3.128    251.62  12327.25
         S          3.859            3.128    251.62  12327.25
         S          3.758            3.128    251.62  12327.25
         S          3.859            3.128    251.62  12327.25
         Mo        10.221            3.547    674.22  77634.20
         Mo        10.242            3.547    674.22  77634.20
         S          3.860            3.128    251.62  12327.25
         S          3.860            3.128    251.62  12327.25
         S          3.859            3.128    251.62  12327.25
         S          3.765            3.128    251.62  12327.25
         Mo        10.208            3.547    674.22  77634.20
         Mo        10.221            3.547    674.22  77634.20
         S          3.858            3.128    251.62  12327.25
         S          3.859            3.128    251.62  12327.25
         S          3.758            3.128    251.62  12327.25
         S          3.859            3.128    251.62  12327.25
         Mo        10.222            3.547    674.22  77634.20
         Mo        10.216            3.547    674.22  77634.20
         S          3.862            3.128    251.62  12327.25
         S          3.856            3.128    251.62  12327.25
         S          3.859            3.128    251.62  12327.25
         S          4.667            3.128    251.62  12327.25
         Mo        10.208            3.547    674.21  77634.20
         Mo        10.221            3.547    674.22  77634.20
         S          3.858            3.128    251.62  12327.25
         S          3.859            3.128    251.62  12327.25
         S          3.758            3.128    251.62  12327.25
         S          3.859            3.128    251.62  12327.25
         Mo        10.222            3.547    674.22  77634.20
         Mo        10.177            3.547    674.22  77634.20
         S          3.863            3.128    251.62  12327.25
         S          3.852            3.128    251.62  12327.25
         S          3.859            3.128    251.62  12327.25
         S          4.673            3.128    251.62  12327.25
         Mo        10.208            3.547    674.21  77634.20
         Mo        10.221            3.547    674.22  77634.20
         S          3.858            3.128    251.62  12327.25
         S          3.859            3.128    251.62  12327.25
         S          3.758            3.128    251.62  12327.25
         S          3.859            3.128    251.62  12327.25
         Mo        10.221            3.547    674.22  77634.20
         Mo        10.215            3.547    674.22  77634.20
         S          3.860            3.128    251.62  12327.25
         S          3.856            3.128    251.62  12327.25
         S          3.859            3.128    251.62  12327.25
         S          3.765            3.128    251.62  12327.25
         Mo        10.208            3.547    674.22  77634.20
         Mo        10.221            3.547    674.22  77634.20
         S          3.858            3.128    251.62  12327.25
         S          3.859            3.128    251.62  12327.25
         S          3.758            3.128    251.62  12327.25
         S          3.859            3.128    251.62  12327.25
         Mo        10.220            3.547    674.22  77634.20
         Mo        10.267            3.547    674.22  77634.20
         S          3.858            3.128    251.62  12327.25
         S          3.861            3.128    251.62  12327.25
         S          3.858            3.128    251.62  12327.25
         S          3.781            3.128    251.62  12327.25
         Mo        10.208            3.547    674.22  77634.20
         Mo        10.220            3.547    674.22  77634.20
         S          3.858            3.128    251.62  12327.25
         S          3.859            3.128    251.62  12327.25
         S          3.758            3.128    251.62  12327.25
         S          3.859            3.128    251.62  12327.25
         Mo        10.220            3.547    674.22  77634.20
         Mo        10.268            3.547    674.22  77634.20
         S          3.850            3.128    251.62  12327.25
         S          3.862            3.128    251.62  12327.25
         S          3.858            3.128    251.62  12327.25
         S          3.813            3.128    251.62  12327.25
         Mo        10.208            3.547    674.22  77634.20
         Mo        10.221            3.547    674.22  77634.20
         S          3.858            3.128    251.62  12327.25
         S          3.859            3.128    251.62  12327.25
         S          3.758            3.128    251.62  12327.25
         S          3.859            3.128    251.62  12327.25
         Mo        10.220            3.547    674.22  77634.20
         Mo        10.263            3.547    674.22  77634.20
         S          3.838            3.128    251.62  12327.25
         S          3.861            3.128    251.62  12327.25
         S          3.859            3.128    251.62  12327.25
         S          3.841            3.128    251.62  12327.25
         Mo        10.208            3.547    674.22  77634.20
         Mo        10.221            3.547    674.22  77634.20
         S          3.858            3.128    251.62  12327.25
         S          3.859            3.128    251.62  12327.25
         S          3.758            3.128    251.62  12327.25
         S          3.859            3.128    251.62  12327.25
         Mo        10.220            3.547    674.22  77634.20
         Mo        10.262            3.547    674.22  77634.20
         S          3.850            3.128    251.62  12327.25
         S          3.861            3.128    251.62  12327.25
         S          3.859            3.128    251.62  12327.25
         S          3.812            3.128    251.62  12327.25
         Pd         5.018            3.168    531.75  48720.73
         Pd         4.066            3.168    531.76  48721.40
         Pt         1.023            3.168    716.00  74455.40

         Molecular C6 ( Ry / a.u.^6 ) =  14155599.45


     number of k points=     4  Gaussian smearing, width (Ry)=  0.0100
                       cart. coord. in units 2pi/alat
        k(    1) = (   0.0000000   0.0000000   0.0000000), wk =   0.5000000
        k(    2) = (   0.0000000  -0.5773499   0.0000000), wk =   0.5000000
        k(    3) = (  -0.5000000  -0.2886744   0.0000000), wk =   0.5000000
        k(    4) = (  -0.5000000  -0.8660242   0.0000000), wk =   0.5000000

     Dense  grid:  7154885 G-vectors     FFT dimensions: ( 180, 180, 512)

     Smooth grid:  3090769 G-vectors     FFT dimensions: ( 135, 135, 400)

     Estimated max dynamical RAM per process >       4.32 GB

     Estimated total dynamical RAM >     155.52 GB

     Atomic positions and unit cell read from directory:
     ./outdir/pwscf.save/
     Atomic positions from file used, from input discarded
 

     The initial density is read from file :
     ./outdir/pwscf.save/charge-density


     negative rho (up, down):  8.290E-04 0.000E+00
     Cannot read wfcs: file not found
     Starting wfcs are 1189 randomized atomic wfcs
     Checking if some PAW data can be deallocated... 

     total cpu time spent up to now is      177.4 secs

     Self-consistent Calculation

     iteration #  1     ecut=    77.00 Ry     beta= 0.20
     Davidson diagonalization with overlap
     c_bands:  3 eigenvalues not converged
     c_bands:  5 eigenvalues not converged
     c_bands:  5 eigenvalues not converged
     c_bands:  6 eigenvalues not converged
     ethr =  1.00E-05,  avg # of iterations =120.0

     negative rho (up, down):  7.608E-04 0.000E+00

     total cpu time spent up to now is    11335.7 secs

     total energy              =  -34497.44331283 Ry
     estimated scf accuracy    <      45.03485144 Ry

     iteration #  2     ecut=    77.00 Ry     beta= 0.20
     Davidson diagonalization with overlap
     ethr =  2.60E-03,  avg # of iterations =  5.0

     negative rho (up, down):  7.346E-04 0.000E+00

     total cpu time spent up to now is    11759.7 secs

     total energy              =  -34488.03853156 Ry
     estimated scf accuracy    <      29.45473092 Ry

     iteration #  3     ecut=    77.00 Ry     beta= 0.20
     Davidson diagonalization with overlap
     ethr =  1.70E-03,  avg # of iterations = 62.0

     negative rho (up, down):  4.156E-04 0.000E+00

     total cpu time spent up to now is    14249.6 secs

     total energy              =  -34379.29635884 Ry
     estimated scf accuracy    <   21454.53045211 Ry

     iteration #  4     ecut=    77.00 Ry     beta= 0.20
     Davidson diagonalization with overlap
     ethr =  1.70E-03,  avg # of iterations = 15.8

     negative rho (up, down):  5.685E-02 0.000E+00

     total cpu time spent up to now is    14795.9 secs

     total energy              =  -34473.83571741 Ry
     estimated scf accuracy    <     580.16294380 Ry

     iteration #  5     ecut=    77.00 Ry     beta= 0.20
     Davidson diagonalization with overlap
     ethr =  1.70E-03,  avg # of iterations = 51.2

     negative rho (up, down):  6.375E-02 0.000E+00

     total cpu time spent up to now is    16321.3 secs

     total energy              =  -34486.27860035 Ry
     estimated scf accuracy    <      67.39737787 Ry

     iteration #  6     ecut=    77.00 Ry     beta= 0.20
     Davidson diagonalization with overlap
     ethr =  1.70E-03,  avg # of iterations =  7.0

     negative rho (up, down):  1.041E-01 0.000E+00

     total cpu time spent up to now is    16751.3 secs

     total energy              =  -34486.78092450 Ry
     estimated scf accuracy    <      75.38360086 Ry

     iteration #  7     ecut=    77.00 Ry     beta= 0.20
     Davidson diagonalization with overlap
     ethr =  1.70E-03,  avg # of iterations = 16.5

     negative rho (up, down):  6.499E-02 0.000E+00

     total cpu time spent up to now is    17416.7 secs

     total energy              =  -34491.15805013 Ry
     estimated scf accuracy    <      14.27725234 Ry

     iteration #  8     ecut=    77.00 Ry     beta= 0.20
     Davidson diagonalization with overlap
     c_bands:  3 eigenvalues not converged
     ethr =  8.24E-04,  avg # of iterations = 10.2

     negative rho (up, down):  4.879E-02 0.000E+00

     total cpu time spent up to now is    17864.1 secs

     total energy              =  -34491.38101878 Ry
     estimated scf accuracy    <       3.34781724 Ry

     iteration #  9     ecut=    77.00 Ry     beta= 0.20
     Davidson diagonalization with overlap
     ethr =  1.93E-04,  avg # of iterations = 30.5

     negative rho (up, down):  5.361E-03 0.000E+00

     total cpu time spent up to now is    19074.0 secs

     total energy              =  -34491.91847639 Ry
     estimated scf accuracy    <       4.08548731 Ry

     iteration # 10     ecut=    77.00 Ry     beta= 0.20
     Davidson diagonalization with overlap
     ethr =  1.93E-04,  avg # of iterations =  6.5

     negative rho (up, down):  7.748E-03 0.000E+00

     total cpu time spent up to now is    19499.8 secs

     total energy              =  -34492.06886965 Ry
     estimated scf accuracy    <       3.32101470 Ry

     iteration # 11     ecut=    77.00 Ry     beta= 0.20
     Davidson diagonalization with overlap
     ethr =  1.92E-04,  avg # of iterations =  1.5

     negative rho (up, down):  4.130E-05 0.000E+00

     total cpu time spent up to now is    19886.3 secs

     total energy              =  -34492.05337920 Ry
     estimated scf accuracy    <       0.53923806 Ry

     iteration # 12     ecut=    77.00 Ry     beta= 0.20
     Davidson diagonalization with overlap
     c_bands:  2 eigenvalues not converged
     ethr =  3.11E-05,  avg # of iterations = 82.0

     negative rho (up, down):  8.630E-04 0.000E+00

     total cpu time spent up to now is    22977.0 secs

     total energy              =  -34491.91546831 Ry
     estimated scf accuracy    <      23.46806664 Ry

     iteration # 13     ecut=    77.00 Ry     beta= 0.20
     Davidson diagonalization with overlap
     c_bands:  2 eigenvalues not converged
     ethr =  3.11E-05,  avg # of iterations = 26.0

     negative rho (up, down):  1.953E-04 0.000E+00

     total cpu time spent up to now is    23823.4 secs

     total energy              =  -34492.17058366 Ry
     estimated scf accuracy    <       0.32015658 Ry

     iteration # 14     ecut=    77.00 Ry     beta= 0.20
     Davidson diagonalization with overlap
     c_bands:  1 eigenvalues not converged
     c_bands:  1 eigenvalues not converged
     ethr =  1.85E-05,  avg # of iterations = 22.2

     negative rho (up, down):  2.711E-04 0.000E+00

     total cpu time spent up to now is    24393.5 secs

     total energy              =  -34492.15806044 Ry
     estimated scf accuracy    <       0.20430330 Ry

     iteration # 15     ecut=    77.00 Ry     beta= 0.20
     Davidson diagonalization with overlap
     ethr =  1.18E-05,  avg # of iterations = 10.2

     negative rho (up, down):  4.340E-04 0.000E+00

     total cpu time spent up to now is    24925.7 secs

     total energy              =  -34492.14620107 Ry
     estimated scf accuracy    <       0.13989953 Ry

     iteration # 16     ecut=    77.00 Ry     beta= 0.20
     Davidson diagonalization with overlap
     c_bands:  5 eigenvalues not converged
     c_bands:  1 eigenvalues not converged
     ethr =  8.08E-06,  avg # of iterations = 18.5

     negative rho (up, down):  4.988E-04 0.000E+00

     total cpu time spent up to now is    25482.1 secs

     total energy              =  -34492.13809656 Ry
     estimated scf accuracy    <       0.05958703 Ry

     iteration # 17     ecut=    77.00 Ry     beta= 0.20
     Davidson diagonalization with overlap
     c_bands: 16 eigenvalues not converged
     c_bands:  2 eigenvalues not converged
     c_bands: 15 eigenvalues not converged
     ethr =  3.44E-06,  avg # of iterations =115.5

     negative rho (up, down):  4.807E-04 0.000E+00

     total cpu time spent up to now is    28340.9 secs

     total energy              =  -34492.15734456 Ry
     estimated scf accuracy    <       0.27336633 Ry

     iteration # 18     ecut=    77.00 Ry     beta= 0.20
     Davidson diagonalization with overlap
     c_bands:  3 eigenvalues not converged
     ethr =  3.44E-06,  avg # of iterations = 13.5

     negative rho (up, down):  4.418E-04 0.000E+00

     total cpu time spent up to now is    28803.9 secs

     total energy              =  -34492.16338851 Ry
     estimated scf accuracy    <       0.01394402 Ry

     iteration # 19     ecut=    77.00 Ry     beta= 0.20
     Davidson diagonalization with overlap
     c_bands:  3 eigenvalues not converged
     ethr =  8.05E-07,  avg # of iterations = 23.5

     negative rho (up, down):  4.628E-04 0.000E+00

     total cpu time spent up to now is    29480.3 secs

     total energy              =  -34492.16400555 Ry
     estimated scf accuracy    <       0.00530916 Ry

     iteration # 20     ecut=    77.00 Ry     beta= 0.20
     Davidson diagonalization with overlap
     ethr =  3.07E-07,  avg # of iterations = 10.8

     negative rho (up, down):  5.017E-04 0.000E+00

     total cpu time spent up to now is    30152.5 secs

     total energy              =  -34492.16664425 Ry
     estimated scf accuracy    <       0.00292724 Ry

     iteration # 21     ecut=    77.00 Ry     beta= 0.20
     Davidson diagonalization with overlap
     ethr =  1.69E-07,  avg # of iterations = 13.0

     negative rho (up, down):  5.842E-04 0.000E+00

     total cpu time spent up to now is    30604.8 secs

     total energy              =  -34492.16657558 Ry
     estimated scf accuracy    <       0.00107419 Ry

     iteration # 22     ecut=    77.00 Ry     beta= 0.20
     Davidson diagonalization with overlap
     ethr =  6.20E-08,  avg # of iterations = 10.8

     negative rho (up, down):  6.077E-04 0.000E+00

     total cpu time spent up to now is    31372.0 secs

     total energy              =  -34492.16738215 Ry
     estimated scf accuracy    <       0.00027713 Ry

     iteration # 23     ecut=    77.00 Ry     beta= 0.20
     Davidson diagonalization with overlap
     c_bands:  5 eigenvalues not converged
     ethr =  1.60E-08,  avg # of iterations = 17.0

     negative rho (up, down):  6.322E-04 0.000E+00

     total cpu time spent up to now is    32287.5 secs

     total energy              =  -34492.16757773 Ry
     estimated scf accuracy    <       0.00021417 Ry

     iteration # 24     ecut=    77.00 Ry     beta= 0.20
     Davidson diagonalization with overlap
     c_bands:  1 eigenvalues not converged
     ethr =  1.24E-08,  avg # of iterations = 11.8

     negative rho (up, down):  6.974E-04 0.000E+00

     total cpu time spent up to now is    32728.6 secs

     total energy              =  -34492.16754051 Ry
     estimated scf accuracy    <       0.00012106 Ry

     iteration # 25     ecut=    77.00 Ry     beta= 0.20
     Davidson diagonalization with overlap
     ethr =  6.99E-09,  avg # of iterations = 12.8

     negative rho (up, down):  7.506E-04 0.000E+00

     total cpu time spent up to now is    33237.2 secs

     total energy              =  -34492.16755808 Ry
     estimated scf accuracy    <       0.00005011 Ry

     iteration # 26     ecut=    77.00 Ry     beta= 0.20
     Davidson diagonalization with overlap
     ethr =  2.89E-09,  avg # of iterations = 10.5

     negative rho (up, down):  7.614E-04 0.000E+00

     total cpu time spent up to now is    34057.0 secs

     total energy              =  -34492.16760321 Ry
     estimated scf accuracy    <       0.00002448 Ry

     iteration # 27     ecut=    77.00 Ry     beta= 0.20
     Davidson diagonalization with overlap
     ethr =  1.41E-09,  avg # of iterations = 11.5

     negative rho (up, down):  7.798E-04 0.000E+00

     total cpu time spent up to now is    34516.1 secs

     total energy              =  -34492.16760157 Ry
     estimated scf accuracy    <       0.00001103 Ry

     iteration # 28     ecut=    77.00 Ry     beta= 0.20
     Davidson diagonalization with overlap
     ethr =  6.37E-10,  avg # of iterations = 17.2

     negative rho (up, down):  7.994E-04 0.000E+00

     total cpu time spent up to now is    35324.9 secs

     total energy              =  -34492.16760604 Ry
     estimated scf accuracy    <       0.00000366 Ry

     iteration # 29     ecut=    77.00 Ry     beta= 0.20
     Davidson diagonalization with overlap
     c_bands:  2 eigenvalues not converged
     ethr =  2.11E-10,  avg # of iterations = 18.8

     negative rho (up, down):  8.216E-04 0.000E+00

     total cpu time spent up to now is    36271.6 secs

     total energy              =  -34492.16760404 Ry
     estimated scf accuracy    <       0.00000209 Ry

     iteration # 30     ecut=    77.00 Ry     beta= 0.20
     Davidson diagonalization with overlap
     ethr =  1.21E-10,  avg # of iterations = 12.0

     negative rho (up, down):  8.348E-04 0.000E+00

     total cpu time spent up to now is    36754.3 secs

     End of self-consistent calculation

          k = 0.0000 0.0000 0.0000 (386245 PWs)   bands (ev):

  -101.1864 -89.1461 -88.7301 -69.6697 -69.6688 -69.5742 -69.5500 -69.5304
   -69.5079 -69.5036 -66.9308 -66.9128 -66.9022 -66.9018 -66.9014 -66.8992
   -66.8953 -66.8814 -66.8813 -66.8812 -66.8811 -66.8808 -66.8805 -66.8803
   -66.8801 -66.8801 -66.8801 -66.8801 -66.8801 -66.8801 -66.8779 -66.8779
   -66.8779 -66.8778 -66.8778 -66.8778 -66.8753 -66.8693 -66.8652 -66.8608
   -66.8602 -66.8599 -66.8597 -66.8597 -66.8594 -66.8594 -66.8593 -66.8589
   -66.8587 -66.8587 -66.8587 -66.8587 -66.8587 -66.8587 -66.8587 -66.8587
   -66.8586 -66.8586 -66.8565 -66.8565 -66.8564 -66.8564 -66.8564 -66.8564
   -66.8564 -66.8564 -66.8564 -66.8519 -66.8457 -66.8446 -66.8357 -66.8246
   -66.8202 -66.8152 -55.6178 -55.3501 -55.0970 -55.0436 -55.0084 -54.7430
   -54.6635 -54.5274 -54.1975 -41.2343 -41.2298 -41.2296 -41.2294 -41.2288
   -41.2288 -41.2288 -41.2272 -41.2272 -41.2272 -41.2266 -41.2237 -41.1615
   -41.1561 -41.1546 -41.1546 -41.1543 -41.1542 -41.1540 -41.1539 -41.1535
   -41.1535 -41.1535 -41.1535 -41.1535 -41.1535 -41.1518 -41.1518 -41.1518
   -41.1518 -41.1518 -41.1518 -41.1482 -41.1444 -41.1396 -41.1353 -41.0918
   -41.0757 -41.0657 -41.0618 -41.0610 -41.0594 -41.0464 -41.0416 -41.0314
   -41.0283 -41.0282 -41.0282 -41.0280 -41.0279 -41.0276 -41.0276 -41.0272
   -41.0272 -41.0271 -41.0271 -41.0271 -41.0271 -41.0254 -41.0254 -41.0254
   -41.0254 -41.0253 -41.0253 -41.0222 -41.0205 -41.0203 -41.0202 -41.0200
   -41.0198 -41.0196 -41.0193 -41.0193 -41.0193 -41.0193 -41.0193 -41.0193
   -41.0177 -41.0177 -41.0177 -41.0177 -41.0177 -41.0177 -41.0171 -41.0163
   -41.0121 -41.0115 -41.0090 -41.0005 -40.9986 -40.9960 -40.9933 -40.9931
   -40.9930 -40.9928 -40.9926 -40.9925 -40.9925 -40.9921 -40.9921 -40.9921
   -40.9921 -40.9921 -40.9921 -40.9903 -40.9903 -40.9903 -40.9903 -40.9903
   -40.9903 -40.9860 -40.9810 -40.9789 -40.9785 -40.9783 -40.9783 -40.9782
   -40.9780 -40.9780 -40.9779 -40.9777 -40.9774 -40.9774 -40.9774 -40.9774
   -40.9773 -40.9773 -40.9773 -40.9773 -40.9773 -40.9772 -40.9767 -40.9757
   -40.9757 -40.9757 -40.9757 -40.9757 -40.9756 -40.9756 -40.9756 -40.9756
   -40.9749 -40.9721 -40.9674 -40.9645 -40.9591 -40.9521 -40.9481 -40.9147
   -40.9145 -40.9144 -40.9138 -40.9138 -40.9138 -40.9119 -40.9119 -40.9119
   -40.9059 -40.9027 -40.8958 -40.8678 -40.8677 -40.8676 -40.8673 -40.8671
   -40.8670 -40.8667 -40.8667 -40.8667 -40.8666 -40.8666 -40.8666 -40.8647
   -40.8647 -40.8647 -40.8647 -40.8647 -40.8647 -40.8643 -40.8638 -40.8585
   -40.8539 -40.8428 -40.8321 -40.8198 -40.8198 -40.8190 -40.8190 -40.8171
   -40.8171 -40.8020 -40.7981 -20.4435 -20.3714 -20.2712 -20.1663 -19.9109
   -19.5425 -19.5278 -19.5271 -19.5261 -19.5248 -19.5144 -19.4932 -19.4708
   -19.4669 -19.4639 -19.4598 -19.4275 -19.4066 -19.3881 -19.3814 -19.3769
   -19.3709 -19.3225 -19.3135 -19.3071 -19.3039 -19.3016 -19.2980 -19.1778
   -19.0711 -18.9800 -18.8799 -18.7924 -18.7683 -18.7602 -18.7557 -18.7485
   -18.7471 -18.7179 -18.6826 -18.6638 -18.6544 -18.6454 -18.6401 -18.5983
   -18.5573 -18.5493 -18.5416 -18.5343 -18.5273 -18.5112 -18.4648 -18.4599
   -18.4575 -18.4549 -18.4515 -18.4497 -18.4227 -18.4013 -18.3992 -18.3990
   -18.3983 -18.3962 -18.3936 -18.3722 -18.3687 -18.3654 -18.3642 -18.3593
   -18.3565 -18.3552 -18.3530 -18.3515 -18.3336 -18.3289 -18.3251 -18.3251
   -18.3162 -18.3142 -18.3112 -18.3013 -18.2989 -18.2919 -18.2861 -18.2816
   -18.2759 -18.2687 -18.2651 -18.2629 -18.2556 -18.2537 -18.2522 -18.2243
   -18.2205 -18.2128 -18.1993 -18.1961 -18.1891 -18.1876 -18.1847 -18.1837
   -18.1757 -18.1670 -18.1632 -18.1591 -18.1519 -18.1440 -18.1398 -18.1380
   -18.1353 -18.1327 -18.1307 -18.1292 -18.1188 -18.1174 -18.1169 -18.1087
   -18.1044 -18.0986 -18.0952 -18.0930 -18.0908 -18.0750 -18.0740 -18.0723
   -18.0710 -18.0703 -18.0685 -12.3414 -12.2361 -12.2091 -12.1122 -12.0903
   -12.0723 -12.0459 -12.0280 -11.9538 -11.9478 -11.9258 -11.8686 -11.8353
   -11.8264 -11.8194 -11.6264 -11.6043 -11.5271 -11.5190 -11.5152 -11.5144
   -11.5115 -11.4958 -11.4639 -11.4198 -11.4174 -11.4116 -11.4078 -11.4047
   -11.4013 -11.3776 -11.3595 -11.3537 -11.3455 -11.3424 -11.3391 -11.3369
   -11.3349 -11.3305 -11.3291 -11.3161 -11.3107 -11.2920 -11.2803 -11.2628
   -11.2579 -11.2369 -11.2250 -11.2144 -11.2061 -11.1980 -11.1947 -11.1815
   -11.1717 -11.1594 -11.1513 -11.1441 -11.1338 -11.1311 -11.1270 -11.1264
   -11.1208 -11.1094 -11.1090 -11.1025 -11.1015 -11.0962 -11.0936 -11.0896
   -11.0879 -11.0810 -11.0795 -11.0739 -11.0734 -11.0693 -11.0689 -11.0551
   -11.0511 -11.0505 -11.0433 -11.0415 -11.0408 -11.0256 -11.0218 -11.0209
   -11.0145 -11.0138 -11.0130 -11.0102 -11.0080 -11.0053 -10.9395 -10.9309
   -10.9283 -10.8987 -10.8636 -10.8598 -10.8518 -10.8494 -10.8471 -10.7386
   -10.5474 -10.4795 -10.4320 -10.4052 -10.2867 -10.2667 -10.2203 -10.1884
   -10.1349 -10.0948 -10.0834 -10.0785 -10.0721 -10.0671 -10.0598 -10.0539
   -10.0509 -10.0486 -10.0443 -10.0416 -10.0394 -10.0350 -10.0317 -10.0278
   -10.0232 -10.0206 -10.0039 -10.0031  -9.9776  -9.9581  -9.9379  -9.9374
    -9.9208  -9.9058  -9.9056  -9.9031  -9.9012  -9.8998  -9.8965  -9.8954
    -9.8947  -9.8919  -9.8913  -9.8882  -9.8795  -9.8575  -9.8454  -9.8309
    -9.8181  -9.8175  -9.8175  -9.8174  -9.8171  -9.8169  -9.8102  -9.8013
    -9.7969  -9.7933  -9.7866  -9.7749  -9.7734  -9.7386  -9.7316  -9.7227
    -9.7171  -9.6558  -9.6330  -9.6298  -9.6223  -9.6156  -9.6100  -9.6042
    -9.5968  -9.5940  -9.5899  -9.5792  -9.5750  -9.5522  -9.5278  -9.5063
    -9.5040  -9.4895  -9.4822  -9.4685  -9.4628  -9.4594  -9.4577  -9.4530
    -9.4473  -9.4418  -9.4153  -9.4033  -9.3936  -9.3895  -9.3801  -9.3565
    -9.3439  -9.2996  -9.2649  -9.2590  -9.2586  -9.2580  -9.2359  -9.2321
    -9.2298  -9.2177  -9.2127  -9.2050  -9.2000  -9.1964  -9.1930  -9.1928
    -9.1885  -9.1746  -9.1670  -9.1614  -9.1487  -9.1309  -9.1200  -9.0980
    -9.0975  -9.0973  -9.0971  -9.0967  -9.0964  -9.0286  -9.0206  -9.0197
    -9.0125  -9.0083  -8.9991  -8.9426  -8.9402  -8.9376  -8.9311  -8.9257
    -8.9139  -8.8706  -8.8698  -8.8689  -8.8671  -8.8651  -8.8609  -8.8462
    -8.7423  -8.6976  -8.6449  -8.6430  -8.6427  -8.6387  -8.6382  -8.6323
    -8.6321  -8.6200  -8.5945  -8.5780  -8.5681  -8.5553  -8.5548  -8.5530
    -8.5522  -8.5509  -8.5488  -8.5338  -8.5312  -8.5271  -8.5254  -8.5238
    -8.5217  -8.5087  -8.5027  -8.4988  -8.4977  -8.4971  -8.4963  -8.4917
    -8.4821  -8.4511  -8.3145  -8.2531  -8.1860  -8.1508  -8.1380  -8.1293
    -8.1224  -8.0650  -8.0522  -8.0403  -7.9956  -7.9792  -7.9703  -7.9404
    -7.9294  -7.9213  -7.9180  -7.9128  -7.9064  -7.8997  -7.8876  -7.8719
    -7.8700  -7.8569  -7.8484  -7.8385  -7.8269  -7.8144  -7.8129  -7.8126
    -7.8116  -7.8112  -7.8091  -7.8002  -7.7905  -7.7873  -7.7866  -7.7850
    -7.7845  -7.7821  -7.7778  -7.7652  -7.7615  -7.7604  -7.7598  -7.7590
    -7.7588  -7.7550  -7.7486  -7.7379  -7.7216  -7.7124  -7.7001  -7.6958
    -7.6883  -7.6860  -7.6830  -7.6785  -7.6751  -7.6740  -7.6689  -7.6379
    -7.6254  -7.6132  -7.5948  -7.5836  -7.5785  -7.5741  -7.5711  -7.5708
    -7.5624  -7.5587  -7.5546  -7.5484  -7.5295  -7.5280  -7.5170  -7.5110
    -7.5044  -7.4943  -7.4900  -7.4870  -7.4177  -7.4120  -7.3976  -7.3691
    -7.3608  -7.3512  -7.2823  -7.2714  -7.2233  -7.2046  -7.1636  -7.1390
    -7.1326  -7.1174  -7.1081  -7.0814  -7.0753  -7.0577  -7.0537  -7.0383
    -7.0181  -7.0026  -6.9753  -6.9701  -6.9591  -6.9251  -6.9067  -6.9009
    -6.8961  -6.8953  -6.8926  -6.8834  -6.8704  -6.8601  -6.8429  -6.8340
    -6.8268  -6.8210  -6.8088  -6.7978  -6.7963  -6.7935  -6.7900  -6.7891
    -6.7854  -6.7827  -6.7822  -6.7806  -6.7747  -6.7744  -6.7741  -6.7740
    -6.7738  -6.7735  -6.7685  -6.7581  -6.7437  -6.7324  -6.7201  -6.7077
    -6.6926  -6.6868  -6.6841  -6.6764  -6.6470  -6.6349  -6.6202  -6.6164
    -6.6115  -6.6091  -6.6071  -6.6022  -6.5957  -6.5911  -6.5770  -6.5716
    -6.5670  -6.5624  -6.5607  -6.5562  -6.5434  -6.5347  -6.5300  -6.5285
    -6.5282  -6.5269  -6.5235  -6.5114  -6.4834  -6.3780  -6.3418  -6.2277
    -6.0796  -5.9710  -5.8449  -5.6466  -5.4703  -5.4166  -5.2162  -5.1618
    -5.1283  -5.1200  -4.9184  -4.2057  -4.1544  -4.1340  -4.1287  -4.1252
    -4.1143  -4.1101  -4.1079  -4.1035  -4.1012  -4.0990  -4.0864  -4.0394
    -4.0105  -3.9882  -3.9774  -3.9685  -3.9650  -3.9606  -3.9577  -3.9524
    -3.9478  -3.9408  -3.9022  -3.8442  -3.8164  -3.7993  -3.7867  -3.7789
    -3.7732  -3.7623  -3.7601  -3.7538  -3.7489  -3.7456  -3.7450  -3.7418
    -3.7390  -3.7382  -3.7307  -3.7290  -3.7211  -3.7191  -3.7188  -3.7181
    -3.7070  -3.7052  -3.7021  -3.6978  -3.6964  -3.6908  -3.6876  -3.6839
    -3.6827  -3.6814  -3.6762  -3.6750  -3.6694  -3.6648  -3.6617  -3.6368
    -3.6275  -3.6266  -3.6235  -3.6194  -3.6155  -3.6124  -3.6049  -3.6028
    -3.5904  -3.5887  -3.5845  -3.5659  -3.5619  -3.5568  -3.5475  -3.5439
    -3.5400  -3.5043  -3.4950  -3.4871  -3.4836  -3.4752  -3.4646  -3.3480
    -3.3456  -3.3415  -3.3397  -3.3344  -3.3324  -3.3251  -3.3217  -3.3185
    -3.2897  -3.2735  -3.2693  -3.2622  -3.2561  -3.2550  -3.2524  -3.2515
    -3.2476  -3.2461  -3.2417  -3.2398  -3.2396  -3.2331  -3.2307  -3.2280
    -3.2246  -3.2186  -3.2169  -3.2139  -3.2112  -3.2091  -3.2090  -3.2085
    -3.2082  -3.2077  -3.2063  -3.2055  -3.1995  -3.1596  -3.1577  -3.1526
    -3.1498  -3.1464  -3.1254  -3.1179  -3.1004  -3.0838  -3.0823  -3.0822
    -3.0820  -3.0817  -3.0816  -3.0811  -3.0804  -3.0799  -3.0773  -3.0651
    -3.0515  -3.0499  -3.0267  -3.0183  -3.0082  -3.0080  -2.9990  -2.9933
    -2.9849  -2.9528  -2.9379  -2.9152  -2.9126  -2.9044  -2.9008  -2.8976
    -2.8958  -2.8929  -2.8851  -2.8535  -2.8413  -2.8249  -2.8114  -2.8069
    -2.7970  -2.7332  -2.7296  -2.7257  -2.7212  -2.7185  -2.7156

          k = 0.0000-0.5773 0.0000 (386352 PWs)   bands (ev):

  -101.1864 -89.1461 -88.7301 -69.6697 -69.6688 -69.5742 -69.5501 -69.5304
   -69.5079 -69.5036 -66.9307 -66.9127 -66.9028 -66.8960 -66.8959 -66.8952
   -66.8952 -66.8947 -66.8929 -66.8929 -66.8853 -66.8853 -66.8845 -66.8845
   -66.8823 -66.8823 -66.8796 -66.8773 -66.8711 -66.8705 -66.8705 -66.8700
   -66.8698 -66.8694 -66.8694 -66.8694 -66.8694 -66.8672 -66.8672 -66.8672
   -66.8671 -66.8658 -66.8657 -66.8650 -66.8650 -66.8627 -66.8627 -66.8621
   -66.8605 -66.8599 -66.8596 -66.8592 -66.8591 -66.8587 -66.8587 -66.8587
   -66.8587 -66.8564 -66.8564 -66.8564 -66.8564 -66.8550 -66.8550 -66.8543
   -66.8543 -66.8531 -66.8520 -66.8520 -66.8465 -66.8434 -66.8363 -66.8238
   -66.8210 -66.8151 -55.6178 -55.3501 -55.0970 -55.0436 -55.0084 -54.7430
   -54.6635 -54.5274 -54.1975 -41.2166 -41.2040 -41.1982 -41.1980 -41.1979
   -41.1977 -41.1972 -41.1972 -41.1972 -41.1971 -41.1956 -41.1955 -41.1955
   -41.1955 -41.1854 -41.1798 -41.1758 -41.1712 -41.1711 -41.1704 -41.1704
   -41.1687 -41.1687 -41.1612 -41.1591 -41.1591 -41.1583 -41.1583 -41.1567
   -41.1567 -41.1537 -41.1415 -41.1148 -41.1085 -41.1084 -41.1084 -41.1083
   -41.1076 -41.1076 -41.1076 -41.1076 -41.1059 -41.1059 -41.1059 -41.1059
   -41.1028 -41.1019 -41.0961 -41.0838 -41.0691 -41.0630 -41.0497 -41.0496
   -41.0488 -41.0488 -41.0472 -41.0472 -41.0446 -41.0402 -41.0401 -41.0396
   -41.0393 -41.0393 -41.0375 -41.0375 -41.0288 -41.0287 -41.0280 -41.0280
   -41.0263 -41.0263 -41.0260 -41.0200 -41.0180 -41.0125 -40.9994 -40.9994
   -40.9989 -40.9989 -40.9984 -40.9984 -40.9983 -40.9983 -40.9967 -40.9967
   -40.9967 -40.9967 -40.9955 -40.9913 -40.9905 -40.9903 -40.9896 -40.9896
   -40.9879 -40.9879 -40.9857 -40.9829 -40.9787 -40.9786 -40.9786 -40.9784
   -40.9782 -40.9779 -40.9779 -40.9778 -40.9778 -40.9773 -40.9773 -40.9773
   -40.9773 -40.9760 -40.9760 -40.9756 -40.9756 -40.9756 -40.9756 -40.9735
   -40.9701 -40.9694 -40.9694 -40.9686 -40.9686 -40.9669 -40.9669 -40.9664
   -40.9594 -40.9581 -40.9537 -40.9484 -40.9480 -40.9477 -40.9476 -40.9475
   -40.9469 -40.9469 -40.9469 -40.9469 -40.9466 -40.9450 -40.9450 -40.9450
   -40.9450 -40.9374 -40.9309 -40.9135 -40.9130 -40.9130 -40.9129 -40.9128
   -40.9122 -40.9122 -40.9122 -40.9122 -40.9103 -40.9103 -40.9103 -40.9103
   -40.9021 -40.9009 -40.9007 -40.9000 -40.9000 -40.8997 -40.8981 -40.8981
   -40.8934 -40.8872 -40.8843 -40.8816 -40.8814 -40.8807 -40.8807 -40.8788
   -40.8788 -40.8685 -40.8645 -40.8644 -40.8637 -40.8637 -40.8618 -40.8618
   -40.8617 -40.8426 -40.8361 -40.8339 -40.8337 -40.8331 -40.8330 -40.8311
   -40.8311 -40.8225 -40.8063 -20.3152 -20.1619 -20.1444 -20.0964 -20.0470
   -20.0041 -19.9373 -19.9202 -19.7851 -19.7256 -19.7054 -19.6669 -19.6152
   -19.5806 -19.5114 -19.4965 -19.3537 -19.0755 -19.0472 -19.0211 -19.0099
   -19.0064 -19.0002 -18.9857 -18.9644 -18.9552 -18.9478 -18.9362 -18.9189
   -18.9100 -18.8891 -18.8787 -18.8548 -18.8479 -18.8342 -18.8225 -18.8178
   -18.8136 -18.8003 -18.7924 -18.7656 -18.7530 -18.7446 -18.7411 -18.7278
   -18.7059 -18.6856 -18.6819 -18.6765 -18.6416 -18.6234 -18.6163 -18.6042
   -18.5844 -18.5519 -18.5342 -18.5220 -18.5159 -18.5051 -18.5034 -18.4691
   -18.4464 -18.4275 -18.4263 -18.4046 -18.3839 -18.3803 -18.3795 -18.3785
   -18.3772 -18.3692 -18.3620 -18.3529 -18.3485 -18.3447 -18.3408 -18.3401
   -18.3374 -18.3278 -18.3149 -18.3131 -18.3099 -18.3038 -18.2975 -18.2831
   -18.2807 -18.2781 -18.2765 -18.2693 -18.2675 -18.2620 -18.2609 -18.2544
   -18.2474 -18.2140 -18.2120 -18.2103 -18.2061 -18.1931 -18.1918 -18.1632
   -18.1601 -18.1545 -18.1480 -18.1223 -18.1207 -18.1189 -18.1121 -18.0968
   -18.0960 -18.0954 -18.0950 -18.0946 -18.0925 -18.0846 -18.0813 -18.0716
   -18.0627 -18.0531 -18.0431 -18.0352 -18.0326 -18.0194 -18.0138 -18.0045
   -18.0016 -17.9951 -17.9949 -12.2648 -12.0691 -11.9932 -11.9698 -11.8543
   -11.8236 -11.7929 -11.7876 -11.7718 -11.7628 -11.7588 -11.7510 -11.7382
   -11.7220 -11.7157 -11.6831 -11.6673 -11.6497 -11.6467 -11.6270 -11.6156
   -11.6019 -11.5944 -11.5700 -11.5685 -11.5474 -11.5437 -11.5427 -11.5384
   -11.5335 -11.5254 -11.5229 -11.5218 -11.4846 -11.4760 -11.4648 -11.4591
   -11.4487 -11.4431 -11.4418 -11.4389 -11.4221 -11.4207 -11.4181 -11.3903
   -11.3837 -11.3526 -11.3391 -11.3337 -11.3274 -11.2969 -11.2446 -11.2318
   -11.2103 -11.2053 -11.1932 -11.1812 -11.1670 -11.1506 -11.1431 -11.1337
   -11.1196 -11.1093 -11.1049 -11.0957 -11.0907 -11.0889 -11.0873 -11.0867
   -11.0848 -11.0789 -11.0743 -11.0708 -11.0681 -11.0674 -11.0664 -11.0634
   -11.0631 -11.0575 -11.0545 -11.0488 -11.0407 -11.0185 -11.0182 -11.0177
   -11.0166 -10.9001 -10.8258 -10.8126 -10.7971 -10.7908 -10.7659 -10.7511
   -10.6793 -10.6642 -10.5952 -10.5453 -10.5205 -10.4633 -10.4266 -10.4134
   -10.4051 -10.3878 -10.3744 -10.3657 -10.3593 -10.3354 -10.3319 -10.3305
   -10.3129 -10.3071 -10.3021 -10.2941 -10.2915 -10.2795 -10.2628 -10.2280
   -10.2086 -10.2019 -10.1976 -10.1915 -10.1792 -10.1763 -10.1703 -10.1635
   -10.1418 -10.1212 -10.1126 -10.1108 -10.0911 -10.0679 -10.0633 -10.0469
   -10.0338 -10.0317 -10.0295  -9.9957  -9.9938  -9.9724  -9.9605  -9.9494
    -9.9483  -9.9271  -9.9185  -9.8927  -9.8842  -9.8803  -9.8638  -9.8479
    -9.8314  -9.8275  -9.8124  -9.8046  -9.8019  -9.8010  -9.7778  -9.7673
    -9.7603  -9.7488  -9.7440  -9.7406  -9.7320  -9.7309  -9.7242  -9.7217
    -9.7033  -9.6934  -9.6916  -9.6380  -9.6310  -9.6129  -9.5750  -9.5414
    -9.5274  -9.5157  -9.4856  -9.4765  -9.4721  -9.4624  -9.4485  -9.4399
    -9.4376  -9.4105  -9.4028  -9.3944  -9.3808  -9.3688  -9.3532  -9.3469
    -9.3288  -9.3104  -9.3060  -9.3033  -9.2982  -9.2957  -9.2939  -9.2503
    -9.2461  -9.2362  -9.2320  -9.2265  -9.2199  -9.2101  -9.2006  -9.1870
    -9.1690  -9.1665  -9.1631  -9.1614  -9.1541  -9.1512  -9.1468  -9.1464
    -9.1442  -9.1390  -9.1328  -9.1264  -9.1233  -9.1162  -9.1157  -9.1096
    -9.1055  -9.1027  -9.0774  -9.0758  -9.0726  -9.0625  -9.0617  -9.0595
    -9.0544  -9.0530  -9.0502  -9.0335  -9.0284  -9.0085  -9.0070  -8.9995
    -8.9980  -8.9838  -8.9659  -8.9281  -8.9261  -8.9153  -8.8824  -8.8436
    -8.8311  -8.7798  -8.7756  -8.7273  -8.7140  -8.6728  -8.6454  -8.6262
    -8.6152  -8.5438  -8.5393  -8.4515  -8.4137  -8.4036  -8.4034  -8.3967
    -8.3949  -8.3909  -8.3837  -8.3827  -8.3745  -8.3327  -8.3309  -8.3128
    -8.2637  -8.2447  -8.2393  -8.1955  -8.1490  -8.1341  -8.1243  -8.1199
    -8.1149  -8.1121  -8.1000  -8.0941  -8.0888  -8.0871  -8.0850  -8.0772
    -8.0731  -8.0714  -8.0702  -8.0689  -8.0640  -8.0581  -8.0578  -8.0487
    -8.0464  -8.0460  -8.0439  -8.0409  -8.0402  -8.0376  -8.0347  -8.0337
    -8.0280  -8.0210  -8.0120  -8.0090  -8.0067  -7.9995  -7.9899  -7.9893
    -7.9759  -7.9725  -7.9711  -7.9693  -7.9668  -7.9418  -7.9412  -7.9402
    -7.9387  -7.9298  -7.9237  -7.9173  -7.9048  -7.8882  -7.8842  -7.8824
    -7.8802  -7.8730  -7.8717  -7.8696  -7.8656  -7.8610  -7.8557  -7.8444
    -7.8399  -7.8369  -7.8344  -7.8227  -7.8204  -7.8078  -7.7526  -7.7367
    -7.7306  -7.7282  -7.7247  -7.7167  -7.6750  -7.6018  -7.5621  -7.5230
    -7.4570  -7.4469  -7.4454  -7.4444  -7.4311  -7.4056  -7.3991  -7.3920
    -7.3882  -7.3744  -7.3742  -7.3442  -7.3257  -7.3176  -7.3092  -7.2991
    -7.2933  -7.2774  -7.2733  -7.2639  -7.2545  -7.2446  -7.2337  -7.2054
    -7.1897  -7.1805  -7.1699  -7.1562  -7.1455  -7.1399  -7.1331  -7.1261
    -7.1096  -7.1017  -7.0822  -7.0628  -7.0362  -7.0240  -7.0065  -6.9896
    -6.9515  -6.9396  -6.9123  -6.9050  -6.8959  -6.8877  -6.8828  -6.8820
    -6.8802  -6.8772  -6.8650  -6.8646  -6.8634  -6.8615  -6.8549  -6.8548
    -6.8547  -6.8544  -6.8458  -6.8338  -6.8013  -6.7690  -6.7595  -6.7567
    -6.7221  -6.6865  -6.6759  -6.6551  -6.6038  -6.5993  -6.5970  -6.5909
    -6.5754  -6.5632  -6.5569  -6.5533  -6.5523  -6.5480  -6.5476  -6.5465
    -6.5312  -6.5259  -6.5101  -6.5045  -6.4999  -6.4963  -6.4801  -6.4789
    -6.4750  -6.4720  -6.3914  -6.3568  -6.3041  -6.2749  -6.2647  -6.2352
    -6.2044  -6.1789  -6.1408  -6.1309  -6.1254  -6.1189  -6.0809  -6.0649
    -5.9581  -5.9473  -5.8754  -5.8684  -5.8466  -5.4478  -5.2160  -5.1604
    -5.1269  -5.1188  -4.8986  -4.3862  -4.3715  -4.3615  -4.3474  -4.2351
    -4.2256  -4.2139  -4.1947  -4.1810  -4.1531  -4.1462  -4.1180  -4.1127
    -4.1041  -4.0919  -4.0878  -4.0793  -4.0751  -4.0740  -4.0564  -3.9900
    -3.9660  -3.9508  -3.9162  -3.9098  -3.8880  -3.8769  -3.8726  -3.8722
    -3.8658  -3.8414  -3.8248  -3.8216  -3.8055  -3.8037  -3.7873  -3.7861
    -3.7835  -3.7686  -3.7608  -3.7575  -3.7513  -3.7473  -3.7456  -3.7365
    -3.7267  -3.7253  -3.7223  -3.7097  -3.7012  -3.6952  -3.6898  -3.6848
    -3.6814  -3.6456  -3.6378  -3.6303  -3.6254  -3.6222  -3.6197  -3.6162
    -3.6116  -3.5969  -3.5934  -3.5880  -3.5788  -3.5672  -3.5585  -3.5573
    -3.5513  -3.5501  -3.5474  -3.5396  -3.5355  -3.5253  -3.5175  -3.5128
    -3.5011  -3.4976  -3.4924  -3.4869  -3.4835  -3.4822  -3.4681  -3.4653
    -3.4582  -3.4522  -3.4497  -3.4470  -3.4354  -3.4352  -3.4299  -3.4263
    -3.4196  -3.3829  -3.3724  -3.3584  -3.3446  -3.3413  -3.3399  -3.3341
    -3.3305  -3.3095  -3.3045  -3.3016  -3.2968  -3.2964  -3.2939  -3.2913
    -3.2890  -3.2862  -3.2825  -3.2773  -3.2748  -3.2677  -3.2659  -3.2516
    -3.2504  -3.2473  -3.2449  -3.2401  -3.2328  -3.2308  -3.2286  -3.2222
    -3.2211  -3.2166  -3.2162  -3.2097  -3.2045  -3.1946  -3.1925  -3.1686
    -3.1672  -3.1588  -3.1549  -3.1500  -3.1442  -3.1346  -3.1131  -3.0688
    -3.0650  -3.0596  -3.0572  -3.0028  -2.9923  -2.9877  -2.9814  -2.8950
    -2.8846  -2.8623  -2.8497  -2.8414  -2.8308  -2.8215  -2.8188  -2.8114
    -2.8067  -2.8001  -2.7950  -2.7935  -2.7886  -2.7239  -2.7178  -2.7097
    -2.7053  -2.6689  -2.6645  -2.6505  -2.6476  -2.6392  -2.6261

          k =-0.5000-0.2887 0.0000 (386352 PWs)   bands (ev):

  -101.1864 -89.1461 -88.7301 -69.6697 -69.6688 -69.5742 -69.5501 -69.5304
   -69.5079 -69.5036 -66.9307 -66.9128 -66.9023 -66.8962 -66.8957 -66.8952
   -66.8952 -66.8950 -66.8929 -66.8929 -66.8854 -66.8852 -66.8845 -66.8845
   -66.8823 -66.8823 -66.8808 -66.8770 -66.8706 -66.8705 -66.8700 -66.8696
   -66.8694 -66.8694 -66.8694 -66.8694 -66.8678 -66.8672 -66.8672 -66.8672
   -66.8671 -66.8660 -66.8656 -66.8655 -66.8650 -66.8650 -66.8627 -66.8627
   -66.8603 -66.8601 -66.8596 -66.8595 -66.8587 -66.8587 -66.8587 -66.8587
   -66.8586 -66.8564 -66.8564 -66.8564 -66.8564 -66.8551 -66.8549 -66.8543
   -66.8543 -66.8522 -66.8520 -66.8520 -66.8468 -66.8433 -66.8360 -66.8248
   -66.8201 -66.8152 -55.6178 -55.3501 -55.0970 -55.0436 -55.0084 -54.7430
   -54.6635 -54.5274 -54.1975 -41.2101 -41.2047 -41.1983 -41.1981 -41.1980
   -41.1975 -41.1972 -41.1972 -41.1972 -41.1972 -41.1956 -41.1956 -41.1955
   -41.1955 -41.1951 -41.1859 -41.1714 -41.1710 -41.1704 -41.1704 -41.1703
   -41.1687 -41.1687 -41.1600 -41.1592 -41.1590 -41.1583 -41.1583 -41.1567
   -41.1567 -41.1525 -41.1411 -41.1085 -41.1085 -41.1083 -41.1083 -41.1081
   -41.1076 -41.1076 -41.1076 -41.1076 -41.1059 -41.1059 -41.1059 -41.1059
   -41.1033 -41.1017 -41.0936 -41.0888 -41.0701 -41.0657 -41.0498 -41.0494
   -41.0488 -41.0488 -41.0472 -41.0472 -41.0418 -41.0402 -41.0400 -41.0393
   -41.0393 -41.0375 -41.0375 -41.0357 -41.0289 -41.0288 -41.0287 -41.0280
   -41.0280 -41.0263 -41.0263 -41.0228 -41.0205 -41.0049 -41.0013 -40.9995
   -40.9995 -40.9989 -40.9987 -40.9984 -40.9984 -40.9983 -40.9983 -40.9967
   -40.9967 -40.9967 -40.9967 -40.9906 -40.9902 -40.9902 -40.9896 -40.9896
   -40.9879 -40.9879 -40.9873 -40.9824 -40.9788 -40.9787 -40.9785 -40.9784
   -40.9781 -40.9780 -40.9779 -40.9778 -40.9775 -40.9773 -40.9773 -40.9773
   -40.9773 -40.9760 -40.9760 -40.9756 -40.9756 -40.9756 -40.9756 -40.9752
   -40.9696 -40.9695 -40.9693 -40.9686 -40.9686 -40.9670 -40.9669 -40.9669
   -40.9637 -40.9605 -40.9528 -40.9488 -40.9482 -40.9480 -40.9475 -40.9471
   -40.9470 -40.9469 -40.9469 -40.9469 -40.9469 -40.9450 -40.9450 -40.9450
   -40.9450 -40.9296 -40.9196 -40.9135 -40.9131 -40.9130 -40.9129 -40.9128
   -40.9122 -40.9122 -40.9122 -40.9122 -40.9103 -40.9103 -40.9103 -40.9103
   -40.9086 -40.9019 -40.9010 -40.9006 -40.9000 -40.9000 -40.8981 -40.8981
   -40.8948 -40.8907 -40.8819 -40.8811 -40.8807 -40.8807 -40.8806 -40.8788
   -40.8788 -40.8715 -40.8646 -40.8644 -40.8637 -40.8637 -40.8618 -40.8618
   -40.8502 -40.8464 -40.8415 -40.8341 -40.8335 -40.8330 -40.8330 -40.8311
   -40.8311 -40.8249 -40.8031 -20.3179 -20.1614 -20.1442 -20.0935 -20.0463
   -19.9995 -19.9368 -19.9183 -19.7938 -19.7267 -19.7063 -19.6692 -19.6160
   -19.5823 -19.5115 -19.4969 -19.3441 -19.0718 -19.0575 -19.0208 -19.0082
   -19.0063 -19.0000 -18.9874 -18.9599 -18.9544 -18.9479 -18.9316 -18.9251
   -18.9015 -18.8855 -18.8794 -18.8549 -18.8522 -18.8344 -18.8262 -18.8160
   -18.8139 -18.8014 -18.7859 -18.7675 -18.7540 -18.7491 -18.7452 -18.7258
   -18.7063 -18.6871 -18.6787 -18.6735 -18.6439 -18.6357 -18.6189 -18.6015
   -18.5784 -18.5738 -18.5278 -18.5186 -18.5139 -18.5028 -18.4998 -18.4693
   -18.4405 -18.4233 -18.4203 -18.4044 -18.3906 -18.3794 -18.3790 -18.3776
   -18.3764 -18.3730 -18.3521 -18.3505 -18.3464 -18.3440 -18.3418 -18.3393
   -18.3376 -18.3302 -18.3205 -18.3083 -18.3069 -18.3048 -18.2995 -18.2854
   -18.2794 -18.2778 -18.2750 -18.2734 -18.2659 -18.2636 -18.2625 -18.2566
   -18.2453 -18.2279 -18.2121 -18.2071 -18.1989 -18.1958 -18.1921 -18.1715
   -18.1530 -18.1519 -18.1490 -18.1264 -18.1176 -18.1146 -18.1134 -18.0973
   -18.0965 -18.0955 -18.0947 -18.0931 -18.0930 -18.0862 -18.0828 -18.0702
   -18.0644 -18.0528 -18.0445 -18.0371 -18.0329 -18.0191 -18.0131 -18.0040
   -17.9999 -17.9951 -17.9947 -12.2604 -12.1163 -11.9940 -11.9703 -11.8313
   -11.7992 -11.7926 -11.7910 -11.7753 -11.7610 -11.7581 -11.7528 -11.7227
   -11.7191 -11.7109 -11.6828 -11.6669 -11.6619 -11.6317 -11.6129 -11.6109
   -11.6032 -11.5952 -11.5766 -11.5712 -11.5515 -11.5468 -11.5397 -11.5349
   -11.5323 -11.5312 -11.5199 -11.5114 -11.4808 -11.4757 -11.4613 -11.4593
   -11.4467 -11.4433 -11.4428 -11.4391 -11.4216 -11.4191 -11.4125 -11.3935
   -11.3871 -11.3501 -11.3466 -11.3352 -11.3318 -11.2690 -11.2558 -11.2362
   -11.2307 -11.2014 -11.1914 -11.1811 -11.1731 -11.1674 -11.1419 -11.1217
   -11.1127 -11.1066 -11.1023 -11.0954 -11.0948 -11.0888 -11.0873 -11.0858
   -11.0834 -11.0826 -11.0748 -11.0712 -11.0687 -11.0666 -11.0653 -11.0648
   -11.0639 -11.0569 -11.0525 -11.0494 -11.0409 -11.0184 -11.0182 -11.0174
   -11.0164 -10.9035 -10.8403 -10.8126 -10.8015 -10.7898 -10.7780 -10.7556
   -10.7101 -10.6579 -10.6164 -10.5318 -10.5214 -10.4294 -10.4222 -10.4157
   -10.4073 -10.3939 -10.3761 -10.3655 -10.3613 -10.3433 -10.3328 -10.3279
   -10.3123 -10.3042 -10.2995 -10.2940 -10.2884 -10.2813 -10.2496 -10.2190
   -10.2137 -10.2112 -10.2028 -10.1931 -10.1830 -10.1767 -10.1728 -10.1689
   -10.1438 -10.1419 -10.1227 -10.0996 -10.0864 -10.0709 -10.0649 -10.0543
   -10.0429 -10.0337 -10.0134 -10.0088  -9.9904  -9.9869  -9.9637  -9.9503
    -9.9362  -9.9301  -9.9221  -9.8962  -9.8890  -9.8705  -9.8673  -9.8386
    -9.8251  -9.8192  -9.8125  -9.8112  -9.8064  -9.7972  -9.7794  -9.7670
    -9.7597  -9.7506  -9.7472  -9.7375  -9.7327  -9.7309  -9.7283  -9.7031
    -9.7004  -9.6965  -9.6938  -9.6331  -9.6311  -9.5848  -9.5691  -9.5460
    -9.5322  -9.4950  -9.4853  -9.4769  -9.4745  -9.4591  -9.4522  -9.4446
    -9.4327  -9.4146  -9.4063  -9.3987  -9.3816  -9.3597  -9.3449  -9.3363
    -9.3290  -9.3197  -9.3054  -9.3047  -9.2990  -9.2904  -9.2864  -9.2547
    -9.2483  -9.2383  -9.2347  -9.2272  -9.2212  -9.2123  -9.1908  -9.1871
    -9.1728  -9.1649  -9.1630  -9.1613  -9.1568  -9.1479  -9.1464  -9.1443
    -9.1398  -9.1362  -9.1329  -9.1286  -9.1229  -9.1160  -9.1155  -9.1102
    -9.1018  -9.0916  -9.0840  -9.0799  -9.0735  -9.0638  -9.0611  -9.0599
    -9.0565  -9.0554  -9.0516  -9.0364  -9.0294  -9.0090  -9.0064  -8.9989
    -8.9966  -8.9867  -8.9671  -8.9282  -8.9247  -8.9196  -8.8678  -8.8229
    -8.8166  -8.7749  -8.7741  -8.7139  -8.7087  -8.6918  -8.6594  -8.6274
    -8.6217  -8.5348  -8.5317  -8.4943  -8.4492  -8.4041  -8.4033  -8.3964
    -8.3944  -8.3851  -8.3833  -8.3769  -8.3725  -8.3469  -8.3352  -8.2817
    -8.2508  -8.2448  -8.2327  -8.2036  -8.1812  -8.1501  -8.1216  -8.1167
    -8.1151  -8.1069  -8.0963  -8.0923  -8.0890  -8.0825  -8.0773  -8.0756
    -8.0723  -8.0680  -8.0660  -8.0586  -8.0583  -8.0577  -8.0516  -8.0462
    -8.0458  -8.0444  -8.0419  -8.0410  -8.0396  -8.0374  -8.0347  -8.0340
    -8.0277  -8.0229  -8.0110  -8.0090  -8.0033  -7.9994  -7.9962  -7.9834
    -7.9763  -7.9741  -7.9725  -7.9711  -7.9609  -7.9463  -7.9419  -7.9408
    -7.9399  -7.9386  -7.9350  -7.9212  -7.9155  -7.8878  -7.8859  -7.8849
    -7.8837  -7.8715  -7.8685  -7.8666  -7.8612  -7.8511  -7.8449  -7.8430
    -7.8399  -7.8342  -7.8307  -7.8280  -7.8182  -7.8142  -7.7574  -7.7400
    -7.7313  -7.7250  -7.7190  -7.7053  -7.6862  -7.6338  -7.5619  -7.5200
    -7.4889  -7.4531  -7.4429  -7.4410  -7.4375  -7.4169  -7.4106  -7.3916
    -7.3840  -7.3770  -7.3738  -7.3572  -7.3449  -7.3150  -7.3041  -7.2977
    -7.2974  -7.2890  -7.2638  -7.2521  -7.2323  -7.2207  -7.2129  -7.2022
    -7.1906  -7.1751  -7.1613  -7.1575  -7.1507  -7.1359  -7.1324  -7.1253
    -7.1102  -7.1004  -7.0576  -7.0526  -7.0317  -7.0195  -6.9826  -6.9670
    -6.9565  -6.9480  -6.9228  -6.9056  -6.9014  -6.8888  -6.8866  -6.8824
    -6.8805  -6.8795  -6.8728  -6.8646  -6.8637  -6.8627  -6.8593  -6.8548
    -6.8546  -6.8545  -6.8541  -6.8336  -6.8149  -6.7986  -6.7750  -6.7494
    -6.6958  -6.6822  -6.6627  -6.6336  -6.6049  -6.5998  -6.5951  -6.5902
    -6.5810  -6.5690  -6.5621  -6.5537  -6.5528  -6.5479  -6.5477  -6.5443
    -6.5391  -6.5250  -6.5221  -6.4961  -6.4938  -6.4895  -6.4793  -6.4783
    -6.4705  -6.4679  -6.4393  -6.3897  -6.3098  -6.2707  -6.2638  -6.2278
    -6.2029  -6.1849  -6.1383  -6.1374  -6.1278  -6.1035  -6.0943  -6.0507
    -5.9577  -5.9388  -5.8712  -5.8643  -5.8377  -5.4471  -5.2179  -5.1549
    -5.1286  -5.1208  -4.8968  -4.3805  -4.3637  -4.3586  -4.3510  -4.2337
    -4.2202  -4.2113  -4.1863  -4.1752  -4.1625  -4.1324  -4.1273  -4.1126
    -4.1111  -4.0937  -4.0912  -4.0791  -4.0750  -4.0725  -4.0614  -3.9887
    -3.9659  -3.9400  -3.9335  -3.9157  -3.8877  -3.8797  -3.8778  -3.8716
    -3.8700  -3.8427  -3.8292  -3.8243  -3.8114  -3.8019  -3.7870  -3.7833
    -3.7812  -3.7706  -3.7672  -3.7620  -3.7492  -3.7469  -3.7404  -3.7359
    -3.7334  -3.7267  -3.7215  -3.7143  -3.7037  -3.7012  -3.6905  -3.6828
    -3.6757  -3.6563  -3.6334  -3.6286  -3.6245  -3.6229  -3.6168  -3.6140
    -3.6110  -3.6099  -3.5943  -3.5825  -3.5686  -3.5649  -3.5603  -3.5549
    -3.5531  -3.5523  -3.5490  -3.5397  -3.5278  -3.5241  -3.5207  -3.5055
    -3.5035  -3.5001  -3.4909  -3.4860  -3.4838  -3.4781  -3.4722  -3.4683
    -3.4567  -3.4494  -3.4465  -3.4441  -3.4387  -3.4352  -3.4350  -3.4294
    -3.4121  -3.3756  -3.3694  -3.3508  -3.3469  -3.3428  -3.3370  -3.3358
    -3.3321  -3.3071  -3.3012  -3.2988  -3.2978  -3.2961  -3.2944  -3.2905
    -3.2860  -3.2854  -3.2813  -3.2774  -3.2712  -3.2673  -3.2602  -3.2562
    -3.2533  -3.2453  -3.2410  -3.2371  -3.2345  -3.2314  -3.2290  -3.2217
    -3.2214  -3.2187  -3.2150  -3.2104  -3.2060  -3.2015  -3.1927  -3.1731
    -3.1694  -3.1571  -3.1533  -3.1477  -3.1457  -3.1349  -3.1203  -3.0690
    -3.0642  -3.0585  -3.0524  -3.0019  -2.9948  -2.9880  -2.9791  -2.8918
    -2.8846  -2.8594  -2.8540  -2.8458  -2.8373  -2.8216  -2.8165  -2.8095
    -2.8027  -2.8006  -2.7988  -2.7962  -2.7837  -2.7262  -2.7201  -2.7073
    -2.7040  -2.6857  -2.6672  -2.6605  -2.6517  -2.6298  -2.6146

          k =-0.5000-0.8660 0.0000 (386352 PWs)   bands (ev):

  -101.1864 -89.1461 -88.7301 -69.6697 -69.6688 -69.5742 -69.5501 -69.5304
   -69.5079 -69.5036 -66.9306 -66.9130 -66.9021 -66.8960 -66.8959 -66.8952
   -66.8952 -66.8951 -66.8929 -66.8929 -66.8853 -66.8853 -66.8845 -66.8845
   -66.8823 -66.8823 -66.8801 -66.8781 -66.8703 -66.8702 -66.8702 -66.8701
   -66.8694 -66.8694 -66.8694 -66.8694 -66.8686 -66.8672 -66.8672 -66.8672
   -66.8672 -66.8658 -66.8657 -66.8650 -66.8650 -66.8628 -66.8627 -66.8627
   -66.8615 -66.8595 -66.8595 -66.8594 -66.8594 -66.8587 -66.8587 -66.8587
   -66.8587 -66.8564 -66.8564 -66.8564 -66.8564 -66.8550 -66.8550 -66.8543
   -66.8543 -66.8529 -66.8520 -66.8520 -66.8454 -66.8445 -66.8363 -66.8235
   -66.8212 -66.8151 -55.6178 -55.3501 -55.0970 -55.0436 -55.0084 -54.7430
   -54.6635 -54.5274 -54.1975 -41.2088 -41.2019 -41.1981 -41.1980 -41.1979
   -41.1978 -41.1972 -41.1972 -41.1972 -41.1972 -41.1956 -41.1956 -41.1955
   -41.1955 -41.1943 -41.1883 -41.1790 -41.1712 -41.1711 -41.1704 -41.1704
   -41.1687 -41.1687 -41.1611 -41.1591 -41.1591 -41.1583 -41.1583 -41.1567
   -41.1567 -41.1531 -41.1353 -41.1085 -41.1084 -41.1084 -41.1083 -41.1076
   -41.1076 -41.1076 -41.1076 -41.1066 -41.1059 -41.1059 -41.1059 -41.1059
   -41.1019 -41.0993 -41.0963 -41.0842 -41.0694 -41.0637 -41.0497 -41.0495
   -41.0488 -41.0488 -41.0472 -41.0472 -41.0443 -41.0401 -41.0401 -41.0393
   -41.0393 -41.0375 -41.0375 -41.0370 -41.0322 -41.0288 -41.0287 -41.0280
   -41.0280 -41.0263 -41.0263 -41.0258 -41.0197 -41.0047 -40.9992 -40.9992
   -40.9991 -40.9990 -40.9983 -40.9983 -40.9983 -40.9983 -40.9978 -40.9967
   -40.9967 -40.9967 -40.9967 -40.9946 -40.9905 -40.9903 -40.9896 -40.9896
   -40.9879 -40.9879 -40.9849 -40.9826 -40.9787 -40.9786 -40.9783 -40.9781
   -40.9780 -40.9779 -40.9779 -40.9778 -40.9776 -40.9773 -40.9773 -40.9773
   -40.9773 -40.9760 -40.9760 -40.9756 -40.9756 -40.9756 -40.9756 -40.9741
   -40.9710 -40.9694 -40.9694 -40.9690 -40.9686 -40.9686 -40.9669 -40.9669
   -40.9610 -40.9580 -40.9542 -40.9538 -40.9478 -40.9477 -40.9477 -40.9476
   -40.9469 -40.9469 -40.9469 -40.9469 -40.9468 -40.9450 -40.9450 -40.9450
   -40.9450 -40.9274 -40.9218 -40.9130 -40.9130 -40.9129 -40.9129 -40.9127
   -40.9122 -40.9122 -40.9122 -40.9122 -40.9103 -40.9103 -40.9103 -40.9103
   -40.9075 -40.9068 -40.9009 -40.9007 -40.9000 -40.9000 -40.8994 -40.8981
   -40.8981 -40.8817 -40.8816 -40.8814 -40.8807 -40.8807 -40.8804 -40.8788
   -40.8788 -40.8750 -40.8645 -40.8644 -40.8637 -40.8637 -40.8618 -40.8618
   -40.8507 -40.8428 -40.8365 -40.8339 -40.8338 -40.8331 -40.8330 -40.8311
[...]
     atom  177 type  2   force =     0.00047580   -0.00020793   -0.00005444
     atom  178 type  2   force =     0.00000281    0.00013978    0.00012206
     atom  179 type  2   force =     0.00003455    0.00004810   -0.00001580
     atom  180 type  2   force =     0.00019879    0.00065674   -0.00046389
     atom  181 type  1   force =     0.00000064    0.00000079    0.00068292
     atom  182 type  1   force =    -0.00001038    0.00000108    0.00000054
     atom  183 type  2   force =    -0.00000270   -0.00000278    0.00000146
     atom  184 type  2   force =    -0.00000103    0.00000075    0.00161340
     atom  185 type  2   force =    -0.00000129    0.00000026   -0.00236344
     atom  186 type  2   force =    -0.00000379    0.00001269    0.00002074
     atom  187 type  1   force =    -0.00004988    0.00006856    0.00006235
     atom  188 type  1   force =     0.00002050    0.00029612   -0.00085460
     atom  189 type  2   force =    -0.00126293    0.00074903    0.00024476
     atom  190 type  2   force =    -0.00001770    0.00002890    0.00009585
     atom  191 type  2   force =     0.00004516    0.00012289   -0.00005703
     atom  192 type  2   force =    -0.00055744   -0.00021068   -0.00093297
     atom  193 type  3   force =    -0.00185160   -0.00168692    0.00164845
     atom  194 type  3   force =     0.00245332    0.00337919   -0.00446903
     atom  195 type  4   force =     0.00332007   -0.00180395    0.00468868

     Total force =     0.019562     Total SCF correction =     0.001120
     Energy error            =      5.3E-04 Ry
     Gradient error          =      9.1E-03 Ry/Bohr

     number of scf cycles    =  28
     number of bfgs steps    =  26

     energy             old  =  -34492.2248021262 Ry
     energy             new  =  -34492.2253358951 Ry

     CASE: energy            _new < energy            _old

     new trust radius        =       0.0344234870 bohr
     new conv_thr            =       0.0000000534 Ry


ATOMIC_POSITIONS (angstrom)
Mo               0.0000119917        1.8193638619       -9.1672481230    0   0   0
Mo               1.5756136568        0.9097075315       -3.0554901653    0   0   0
S                0.0000188998        1.8193822938       -4.6232556019    0   0   0
S                1.5756321638        0.9096773839       -7.6014065489    0   0   0
S                1.5756326175        0.9096785128      -10.7330757790    0   0   0
S                0.0000189190        1.8193860094       -1.4877129945    0   0   0
Mo               0.0004317585        1.8238824761        3.0581375944
Mo               1.5652090194        0.9431474515        9.1872835499
S                0.0004085880        1.8435833351        7.6015344999
S                1.5764126169        0.9148012155        4.6253783570
S                1.5757189442        0.9137593786        1.4898783263
S               -0.0175795099        1.8406229270       10.7520629366
Mo              -1.5756053507        4.5484193819       -9.1672481230    0   0   0
Mo               0.0000378379        3.6387394919       -3.0554952701    0   0   0
S               -1.5755913433        4.5484363582       -4.6232494962    0   0   0
S                0.0000148214        3.6387329039       -7.6014065489    0   0   0
S                0.0000152751        3.6387340328      -10.7330757790    0   0   0
S               -1.5755906502        4.5484413613       -1.4877305502    0   0   0
Mo              -1.5755302274        4.5528370714        3.0584852710
Mo              -0.0509560965        3.6507426533        9.1682720461
S               -1.5919634363        4.5863024787        7.5969237304
S                0.0010255048        3.6437657109        4.6266789206
S               -0.0002821271        3.6428255685        1.4903936747
S               -1.6112209868        4.5857301861       10.7395256159
Mo              -3.1512226931        7.2774749019       -9.1672481230    0   0   0
Mo              -1.5755910988        6.3678216792       -3.0555115988    0   0   0
S               -3.1512162438        7.2774954350       -4.6232578178    0   0   0
S               -1.5756025210        6.3677884239       -7.6014065489    0   0   0
S               -1.5756020673        6.3677895528      -10.7330757790    0   0   0
S               -3.1512127704        7.2774877076       -1.4877200710    0   0   0
Mo              -3.1515111456        7.2819450037        3.0581744728
Mo              -1.5973604296        6.4062726492        9.1733057211
S               -3.1643397144        7.3160918560        7.5949787361
S               -1.5753788949        6.3728387138        4.6257927596
S               -1.5760212670        6.3719770855        1.4903325420
S               -3.1763395008        7.3197148158       10.7328099739
Mo              -4.7268400355       10.0065304219       -9.1672481230    0   0   0
Mo              -3.1512405618        9.0968403586       -3.0554816746    0   0   0
S               -4.7268341792       10.0065523623       -4.6232463762    0   0   0
S               -3.1512198634        9.0968439439       -7.6014065489    0   0   0
S               -3.1512194097        9.0968450728      -10.7330757790    0   0   0
S               -4.7268370797       10.0065537885       -1.4877176751    0   0   0
Mo              -4.7267948856       10.0111135606        3.0579245623
Mo              -3.1576166684        9.1393645179        9.1641957099
S               -4.7354807314       10.0524991508        7.6046891101
S               -3.1514285569        9.1018365351        4.6256024524
S               -3.1511531564        9.1011169108        1.4905382510
S               -4.7315359436       10.0288404058       10.7442699874
Mo               3.1512517547        1.8193638619       -9.1672481230    0   0   0
Mo               4.7269020221        0.9097289540       -3.0554823951    0   0   0
S                3.1512612351        1.8193882564       -4.6232320683    0   0   0
S                4.7268719268        0.9096773839       -7.6014065489    0   0   0
S                4.7268723805        0.9096785128      -10.7330757790    0   0   0
S                3.1512592485        1.8193890201       -1.4877261251    0   0   0
Mo               3.1511837923        1.8246695784        3.0572692686
Mo               4.7289813653        0.9482546765        9.1783916895
S                3.1434647977        1.8797849453        7.6420842816
S                4.7264666488        0.9156265717        4.6253773842
S                4.7271093005        0.9141204019        1.4900455969
S                3.1501759941        1.7429916391       10.8141197519
Mo               1.5756344123        4.5484193819       -9.1672481230    0   0   0
Mo               3.1512756394        3.6387769522       -3.0554814834    0   0   0
S                1.5756504879        4.5484423799       -4.6232390542    0   0   0
S                3.1512545844        3.6387329039       -7.6014065489    0   0   0
S                3.1512550381        3.6387340328      -10.7330757790    0   0   0
S                1.5756466253        4.5484431864       -1.4877251801    0   0   0
Mo               1.5756898192        4.5534751313        3.0575399256
Mo               3.1545691227        3.6606409926        9.2399881957
S                1.5869373827        4.6045017128        7.6857235672
S                3.1502882382        3.6441546223        4.6260660830
S                3.1515057892        3.6435329013        1.4896025472
S                1.4810274614        4.5530875043       10.7291428268
Mo               0.0000170699        7.2774749019       -9.1672481230    0   0   0
Mo               1.5756764447        6.3678236689       -3.0554877708    0   0   0
S                0.0000381981        7.2774979204       -4.6232454413    0   0   0
S                1.5756372420        6.3677884239       -7.6014065489    0   0   0
S                1.5756376957        6.3677895528      -10.7330757790    0   0   0
S                0.0000328088        7.2774946042       -1.4877307940    0   0   0
Mo               0.0001578159        7.2819319537        3.0578742891
Mo               1.5520492730        6.4420533171        9.2376948511
S               -0.0008912008        7.3159700151        7.6363588100
S                1.5750897416        6.3719924393        4.6268140845
S                1.5756027200        6.3725919203        1.4899799784
S               -0.1202063553        7.3909656650       10.8028330323
Mo              -1.5756002725       10.0065304219       -9.1672481230    0   0   0
Mo               0.0000873425        9.0968676911       -3.0554912329    0   0   0
S               -1.5755883952       10.0065504530       -4.6232240150    0   0   0
S                0.0000198996        9.0968439439       -7.6014065489    0   0   0
S                0.0000203533        9.0968450728      -10.7330757790    0   0   0
S               -1.5755859047       10.0065492576       -1.4877362381    0   0   0
Mo              -1.5756984204       10.0114273136        3.0582466413
Mo              -0.0154986795        9.1521390652        9.1699298220
S               -1.5828161763       10.0609798468        7.5947299450
S               -0.0004965358        9.1011960478        4.6263573348
S                0.0001716492        9.1016648098        1.4906421473
S               -1.5868339013       10.0482052057       10.7424342677
Mo               6.3024915177        1.8193638619       -9.1672481230    0   0   0
Mo               7.8781001445        0.9096521684       -3.0554919963    0   0   0
S                6.3025008696        1.8193826232       -4.6232480596    0   0   0
S                7.8781116898        0.9096773839       -7.6014065489    0   0   0
S                7.8781121435        0.9096785128      -10.7330757790    0   0   0
S                6.3025042007        1.8193849068       -1.4877147524    0   0   0
Mo               6.3025061650        1.8241273553        3.0580340641
Mo               7.8765158346        0.9486890043        9.1697603711
S                6.2989998561        1.8581415683        7.6028462175
S                7.8781979450        0.9148413439        4.6257887885
S                7.8781399096        0.9132786807        1.4907865659
S                6.3093411783        1.8562932232       10.7455655055
Mo               4.7268741753        4.5484193819       -9.1672481230    0   0   0
Mo               6.3024679138        3.6387501714       -3.0554895197    0   0   0
S                4.7268748770        4.5484386753       -4.6232519432    0   0   0
S                6.3024943474        3.6387329039       -7.6014065489    0   0   0
S                6.3024948011        3.6387340328      -10.7330757790    0   0   0
S                4.7268770533        4.5484432419       -1.4877137856    0   0   0
Mo               4.7264435208        4.5529533561        3.0582184408
Mo               6.3089402049        3.6723228744        9.1769716590
S                4.7036170458        4.5793073149        7.6484822302
S                6.3020015679        3.6435217691        4.6261321132
S                6.3022190441        3.6429799264        1.4902349633
S                4.7880083655        4.6077688175       10.7884695071
Mo               3.1512568329        7.2774749019       -9.1672481230    0   0   0
Mo               4.7268384135        6.3678043337       -3.0554959052    0   0   0
S                3.1512606125        7.2774972547       -4.6232589675    0   0   0
S                4.7268770050        6.3677884239       -7.6014065489    0   0   0
S                4.7268774587        6.3677895528      -10.7330757790    0   0   0
S                3.1512629079        7.2774963749       -1.4877081835    0   0   0
Mo               3.1506841299        7.2815945750        3.0584944153
Mo               4.7343956308        6.4126674712        9.1966455976
S                3.1352414377        7.3084477603        7.6495787260
S                4.7260262022        6.3721597231        4.6265934199
S                4.7267626899        6.3721451733        1.4904811080
S                3.2099549746        7.3783297061       10.7849225619
Mo               1.5756394905       10.0065304219       -9.1672481230    0   0   0
Mo               3.1512330605        9.0968514907       -3.0554878870    0   0   0
S                1.5756499830       10.0065443759       -4.6232632674    0   0   0
S                3.1512596626        9.0968439439       -7.6014065489    0   0   0
S                3.1512601163        9.0968450728      -10.7330757790    0   0   0
S                1.5756503041       10.0065459699       -1.4877044377    0   0   0
Mo               1.5756767927       10.0108475233        3.0590497641
Mo               3.1528859165        9.1523273556        9.1736813379
S                1.5707950949       10.0471058690        7.5999691617
S                3.1514376037        9.1007226877        4.6267129677
S                3.1511683913        9.1010695418        1.4908615333
S                1.5685318575       10.0512839932       10.7376536267
Mo               9.4537312807        1.8193638619       -9.1672481230    0   0   0
Mo              11.0293863460        0.9096952246       -3.0554894007    0   0   0
S                9.4537395970        1.8193770750       -4.6232328036    0   0   0
S               11.0293514528        0.9096773839       -7.6014065489    0   0   0
S               11.0293519066        0.9096785128      -10.7330757790    0   0   0
S                9.4537393632        1.8193794783       -1.4877366147    0   0   0
Mo               9.4539105086        1.8236063069        3.0577478013
Mo              11.0274187158        0.9381376968        9.1721308249
S                9.4552000276        1.8497668108        7.5988195776
S               11.0296084588        0.9144059623        4.6253984776
S               11.0298325367        0.9134064482        1.4903951197
S                9.4515780899        1.8530978245       10.7391694820
Mo               7.8781139383        4.5484193819       -9.1672481230    0   0   0
Mo               9.4537539161        3.6387607911       -3.0554933032    0   0   0
S                7.8781175448        4.5484378232       -4.6232366318    0   0   0
S                9.4537341104        3.6387329039       -7.6014065489    0   0   0
S                9.4537345641        3.6387340328      -10.7330757790    0   0   0
S                7.8781194018        4.5484411585       -1.4877377057    0   0   0
Mo               7.8778662815        4.5525666059        3.0578311592
Mo               9.4394878604        3.6727130495        9.1657604800
S                7.8661965621        4.5795371230        7.5944536888
S                9.4534309573        3.6429001628        4.6253571421
S                9.4540219219        3.6428610926        1.4902004652
S                7.8792152411        4.5873349861       10.7422101182
Mo               6.3024965959        7.2774749019       -9.1672481230    0   0   0
Mo               7.8781361655        6.3678242352       -3.0555014130    0   0   0
S                6.3024973331        7.2774953556       -4.6232392528    0   0   0
S                7.8781167680        6.3677884239       -7.6014065489    0   0   0
S                7.8781172217        6.3677895528      -10.7330757790    0   0   0
S                6.3024989866        7.2774929744       -1.4877349119    0   0   0
Mo               6.3021145333        7.2817033985        3.0582695036
Mo               7.8665189033        6.4017802516        9.1643802842
S                6.2836755550        7.3106574188        7.6050577157
S                7.8776020956        6.3718461602        4.6254848559
S                7.8777648129        6.3719322191        1.4903326950
S                6.3158655847        7.3209528111       10.7523527302
Mo               4.7268792535       10.0065304219       -9.1672481230    0   0   0
Mo               6.3025111524        9.0968738021       -3.0554915260    0   0   0
S                4.7268840634       10.0065452125       -4.6232380477    0   0   0
S                6.3024994256        9.0968439439       -7.6014065489    0   0   0
S                6.3024998793        9.0968450728      -10.7330757790    0   0   0
S                4.7268847312       10.0065459141       -1.4877283294    0   0   0
Mo               4.7269584994       10.0106931306        3.0584223372
Mo               6.2983317341        9.1315922629        9.1736199041
S                4.7287114914       10.0402488839        7.5984186220
S                6.3028323183        9.1013476075        4.6256799440
S                6.3023297462        9.1007600524        1.4905424579
S                4.7314081771       10.0469356276       10.7482746712
Pd               1.5148147917        6.3404350405       12.1362410368
Pd               2.9662032062        3.6670412712       12.1956494577
Pt               2.3323105539        5.1082679845       14.1758768493



     Writing config-only to output data dir ./outdir/pwscf.save/ :
     XML data file
     NEW-OLD atomic charge density approx. for the potential

     negative rho (up, down):  8.956E-04 0.000E+00

     total cpu time spent up to now is   254455.3 secs

     Self-consistent Calculation

     iteration #  1     ecut=    77.00 Ry     beta= 0.20
     Davidson diagonalization with overlap
     ethr =  1.00E-06,  avg # of iterations = 18.0

     negative rho (up, down):  8.948E-04 0.000E+00

     total cpu time spent up to now is   255477.2 secs

     total energy              =  -34492.22556651 Ry
     estimated scf accuracy    <       0.00914609 Ry

     iteration #  2     ecut=    77.00 Ry     beta= 0.20
     Davidson diagonalization with overlap
     ethr =  5.28E-07,  avg # of iterations = 18.0

     negative rho (up, down):  8.927E-04 0.000E+00

     total cpu time spent up to now is   255957.2 secs

     total energy              =  -34492.22222463 Ry
     estimated scf accuracy    <       0.16240575 Ry

     iteration #  3     ecut=    77.00 Ry     beta= 0.20
     Davidson diagonalization with overlap
     ethr =  5.28E-07,  avg # of iterations = 12.5

     negative rho (up, down):  8.910E-04 0.000E+00

     total cpu time spent up to now is   256402.3 secs

     total energy              =  -34492.22676391 Ry
     estimated scf accuracy    <       0.00033118 Ry

     iteration #  4     ecut=    77.00 Ry     beta= 0.20
     Davidson diagonalization with overlap
     c_bands:  3 eigenvalues not converged
     c_bands:  3 eigenvalues not converged
     c_bands:  3 eigenvalues not converged
     ethr =  1.91E-08,  avg # of iterations = 20.0

     negative rho (up, down):  8.909E-04 0.000E+00

     total cpu time spent up to now is   257415.8 secs

     total energy              =  -34492.22721650 Ry
     estimated scf accuracy    <       0.00039633 Ry

     iteration #  5     ecut=    77.00 Ry     beta= 0.20
     Davidson diagonalization with overlap
     ethr =  1.91E-08,  avg # of iterations =  5.0

     negative rho (up, down):  8.909E-04 0.000E+00

     total cpu time spent up to now is   257833.9 secs

     total energy              =  -34492.22688035 Ry
     estimated scf accuracy    <       0.00027552 Ry

     iteration #  6     ecut=    77.00 Ry     beta= 0.20
     Davidson diagonalization with overlap
     ethr =  1.59E-08,  avg # of iterations =  4.8

     negative rho (up, down):  8.902E-04 0.000E+00

     total cpu time spent up to now is   258250.6 secs

     total energy              =  -34492.22626338 Ry
     estimated scf accuracy    <       0.00021485 Ry

     iteration #  7     ecut=    77.00 Ry     beta= 0.20
     Davidson diagonalization with overlap
     ethr =  1.24E-08,  avg # of iterations =  8.8

     negative rho (up, down):  8.901E-04 0.000E+00

     total cpu time spent up to now is   258697.4 secs

     total energy              =  -34492.22613797 Ry
     estimated scf accuracy    <       0.00007310 Ry

     iteration #  8     ecut=    77.00 Ry     beta= 0.20
     Davidson diagonalization with overlap
