
     Program PWSCF v.7.2 starts on 28Oct2023 at 11: 2:11 

     This program is part of the open-source Quantum ESPRESSO suite
     for quantum simulation of materials; please cite
         "P. Giannozzi et al., J. Phys.:Condens. Matter 21 395502 (2009);
         "P. Giannozzi et al., J. Phys.:Condens. Matter 29 465901 (2017);
         "P. Giannozzi et al., J. Chem. Phys. 152 154105 (2020);
          URL http://www.quantum-espresso.org", 
     in publications or presentations arising from this work. More details at
     http://www.quantum-espresso.org/quote

     Parallel version (MPI), running on    36 processors

     MPI processes distributed on     1 nodes
     769335 MiB available memory on the printing compute node when the environment starts
 
     Waiting for input...
     Reading input from standard input
Warning: card &CELL ignored
Warning: card / ignored

     Current dimensions of program PWSCF are:
     Max number of different atomic species (ntypx) = 10
     Max number of k-points (npk) =  40000
     Max angular momentum in pseudopotentials (lmaxx) =  4
     file Mo.pbe-spn-kjpaw_psl.1.0.0.UPF: wavefunction(s)  4S 4D renormalized
     file S.pbe-n-kjpaw_psl.1.0.0.UPF: wavefunction(s)  3S 3P renormalized
     file Pd.pbe-spn-kjpaw_psl.1.0.0.UPF: wavefunction(s)  4S 5S 4D renormalized
 
     R & G space division:  proc/nbgrp/npool/nimage =      36
     Subspace diagonalization in iterative solution of the eigenvalue problem:
     one sub-group per band group will be used
     custom distributed-memory algorithm (size of sub-group:  6*  6 procs)

 
     Parallelization info
     --------------------
     sticks:   dense  smooth     PW     G-vecs:    dense   smooth      PW
     Min         585     334     89               198743    85850   11735
     Max         586     335     90               198750    85861   11748
     Sum       21073   12049   3205              7154885  3090769  422587
 
     Using Slab Decomposition
 


     bravais-lattice index     =            0
     lattice parameter (alat)  =      23.8199  a.u.
     unit-cell volume          =   33861.0370 (a.u.)^3
     number of atoms/cell      =          194
     number of atomic types    =            3
     number of electrons       =      1700.00
     number of Kohn-Sham states=         1020
     kinetic-energy cutoff     =      77.0000  Ry
     charge density cutoff     =     539.0000  Ry
     scf convergence threshold =      1.0E-06
     mixing beta               =       0.2000
     number of iterations used =            8  plain     mixing
     energy convergence thresh.=      1.0E-04
     force convergence thresh. =      1.0E-03
     Exchange-correlation= SLA  PW   PBX  PBC
                           (   1   4   3   4   0   0   0)
     nstep                     =         1000


     Effective Screening Medium Method
     =================================
     Boundary Conditions: Vacuum-Slab-Vacuum
     total charge in unit cell        =   0.0000
     grid points for fit at edges     =        4 
 

     celldm(1)=  23.819920  celldm(2)=   0.000000  celldm(3)=   0.000000
     celldm(4)=   0.000000  celldm(5)=   0.000000  celldm(6)=   0.000000

     crystal axes: (cart. coord. in units of alat)
               a(1) = (   1.000000   0.000000   0.000000 )  
               a(2) = (  -0.499999   0.866026   0.000000 )  
               a(3) = (   0.000000   0.000000   2.893000 )  

     reciprocal axes: (cart. coord. in units 2 pi/alat)
               b(1) = (  1.000000  0.577349  0.000000 )  
               b(2) = (  0.000000  1.154700  0.000000 )  
               b(3) = (  0.000000  0.000000  0.345662 )  


     PseudoPot. # 1 for Mo read from file:
     ./pseudo/Mo.pbe-spn-kjpaw_psl.1.0.0.UPF
     MD5 check sum: 317bf72632116215fd98f72de1686f13
     Pseudo is Projector augmented-wave + core cor, Zval = 14.0
     Generated using 'atomic' code by A. Dal Corso  v.7.2
     Shape of augmentation charge: PSQ
     Using radial grid of 1229 points,  6 beta functions with: 
                l(1) =   0
                l(2) =   0
                l(3) =   1
                l(4) =   1
                l(5) =   2
                l(6) =   2
     Q(r) pseudized with 0 coefficients 


     PseudoPot. # 2 for S  read from file:
     ./pseudo/S.pbe-n-kjpaw_psl.1.0.0.UPF
     MD5 check sum: 8b7b5302570d38d5e87fed6a1065abda
     Pseudo is Projector augmented-wave + core cor, Zval =  6.0
     Generated using 'atomic' code by A. Dal Corso  v.7.2
     Shape of augmentation charge: PSQ
     Using radial grid of 1151 points,  6 beta functions with: 
                l(1) =   0
                l(2) =   0
                l(3) =   1
                l(4) =   1
                l(5) =   2
                l(6) =   2
     Q(r) pseudized with 0 coefficients 


     PseudoPot. # 3 for Pd read from file:
     ./pseudo/Pd.pbe-spn-kjpaw_psl.1.0.0.UPF
     MD5 check sum: a60571a671f2502b8a6a4569d20a6edb
     Pseudo is Projector augmented-wave + core cor, Zval = 18.0
     Generated using 'atomic' code by A. Dal Corso  v.7.2
     Shape of augmentation charge: PSQ
     Using radial grid of 1235 points,  6 beta functions with: 
                l(1) =   0
                l(2) =   0
                l(3) =   1
                l(4) =   1
                l(5) =   2
                l(6) =   2
     Q(r) pseudized with 0 coefficients 


     atomic species   valence    mass     pseudopotential
        Mo            14.00    95.95000     Mo( 1.00)
        S              6.00    32.06000     S ( 1.00)
        Pd            18.00   106.42000     Pd( 1.00)

     No symmetry found



   Cartesian axes

     site n.     atom                  positions (alat units)
         1           Mo  tau(   1) = (   0.0000010   0.1443372  -0.7272732  )
         2           Mo  tau(   2) = (   0.1249995   0.0721706  -0.2424038  )
         3           S   tau(   3) = (   0.0000015   0.1443386  -0.3667807  )
         4           S   tau(   4) = (   0.1250010   0.0721682  -0.6030489  )
         5           S   tau(   5) = (   0.1250010   0.0721683  -0.8514963  )
         6           S   tau(   6) = (   0.0000015   0.1443389  -0.1180260  )
         7           Mo  tau(   7) = (   0.0000007   0.1443589   0.2424205  )
         8           Mo  tau(   8) = (   0.1250041   0.0720322   0.7266168  )
         9           S   tau(   9) = (   0.0000742   0.1444871   0.6020949  )
        10           S   tau(  10) = (   0.1250024   0.0721701   0.3667478  )
        11           S   tau(  11) = (   0.1250035   0.0721876   0.1180348  )
        12           S   tau(  12) = (  -0.0004118   0.1430864   0.8514340  )
        13           Mo  tau(  13) = (  -0.1249989   0.3608437  -0.7272732  )
        14           Mo  tau(  14) = (   0.0000030   0.2886752  -0.2424042  )
        15           S   tau(  15) = (  -0.1249977   0.3608450  -0.3667802  )
        16           S   tau(  16) = (   0.0000012   0.2886747  -0.6030489  )
        17           S   tau(  17) = (   0.0000012   0.2886748  -0.8514963  )
        18           S   tau(  18) = (  -0.1249977   0.3608454  -0.1180274  )
        19           Mo  tau(  19) = (  -0.1249729   0.3608584   0.2424608  )
        20           Mo  tau(  20) = (  -0.0007193   0.2876626   0.7275440  )
        21           S   tau(  21) = (  -0.1251115   0.3607789   0.6027257  )
        22           S   tau(  22) = (   0.0000621   0.2887099   0.3668377  )
        23           S   tau(  23) = (  -0.0000096   0.2886902   0.1180527  )
        24           S   tau(  24) = (  -0.1254673   0.3605734   0.8517408  )
        25           Mo  tau(  25) = (  -0.2499987   0.5773502  -0.7272732  )
        26           Mo  tau(  26) = (  -0.1249977   0.5051839  -0.2424055  )
        27           S   tau(  27) = (  -0.2499981   0.5773518  -0.3667809  )
        28           S   tau(  28) = (  -0.1249986   0.5051812  -0.6030489  )
        29           S   tau(  29) = (  -0.1249986   0.5051813  -0.8514963  )
        30           S   tau(  30) = (  -0.2499979   0.5773512  -0.1180266  )
        31           Mo  tau(  31) = (  -0.2499795   0.5773389   0.2424205  )
        32           Mo  tau(  32) = (  -0.1262356   0.5050639   0.7275441  )
        33           S   tau(  33) = (  -0.2498323   0.5773390   0.6020948  )
        34           S   tau(  34) = (  -0.1249376   0.5052159   0.3668377  )
        35           S   tau(  35) = (  -0.1249905   0.5051638   0.1180531  )
        36           S   tau(  36) = (  -0.2512883   0.5776183   0.8514340  )
        37           Mo  tau(  37) = (  -0.3749985   0.7938567  -0.7272732  )
        38           Mo  tau(  38) = (  -0.2500001   0.7216874  -0.2424031  )
        39           S   tau(  39) = (  -0.3749980   0.7938584  -0.3667800  )
        40           S   tau(  40) = (  -0.2499984   0.7216877  -0.6030489  )
        41           S   tau(  41) = (  -0.2499984   0.7216878  -0.8514963  )
        42           S   tau(  42) = (  -0.3749982   0.7938585  -0.1180264  )
        43           Mo  tau(  43) = (  -0.3749962   0.7938568   0.2423838  )
        44           Mo  tau(  44) = (  -0.2501148   0.7217588   0.7266170  )
        45           S   tau(  45) = (  -0.3749945   0.7938590   0.6021274  )
        46           S   tau(  46) = (  -0.2499958   0.7216877   0.3667488  )
        47           S   tau(  47) = (  -0.2499810   0.7216794   0.1180323  )
        48           S   tau(  48) = (  -0.3749953   0.7938585   0.8511588  )
        49           Mo  tau(  49) = (   0.2500010   0.1443372  -0.7272732  )
        50           Mo  tau(  50) = (   0.3750034   0.0721723  -0.2424032  )
        51           S   tau(  51) = (   0.2500017   0.1443391  -0.3667788  )
        52           S   tau(  52) = (   0.3750010   0.0721682  -0.6030489  )
        53           S   tau(  53) = (   0.3750010   0.0721683  -0.8514963  )
        54           S   tau(  54) = (   0.2500016   0.1443391  -0.1180271  )
        55           Mo  tau(  55) = (   0.2500054   0.1443594   0.2424211  )
        56           Mo  tau(  56) = (   0.3749279   0.0721263   0.7263991  )
        57           S   tau(  57) = (   0.2499344   0.1444864   0.6020948  )
        58           S   tau(  58) = (   0.3750316   0.0721860   0.3667597  )
        59           S   tau(  59) = (   0.3749924   0.0721644   0.1180346  )
        60           S   tau(  60) = (   0.2504199   0.1430865   0.8514340  )
        61           Mo  tau(  61) = (   0.1250012   0.3608437  -0.7272732  )
        62           Mo  tau(  62) = (   0.2500029   0.2886782  -0.2424031  )
        63           S   tau(  63) = (   0.1250024   0.3608455  -0.3667794  )
        64           S   tau(  64) = (   0.2500012   0.2886747  -0.6030489  )
        65           S   tau(  65) = (   0.2500012   0.2886748  -0.8514963  )
        66           S   tau(  66) = (   0.1250021   0.3608455  -0.1180270  )
        67           Mo  tau(  67) = (   0.1250038   0.3608653   0.2423963  )
        68           Mo  tau(  68) = (   0.2507284   0.2876625   0.7275438  )
        69           S   tau(  69) = (   0.1250046   0.3627170   0.6061948  )
        70           S   tau(  70) = (   0.2499461   0.2887116   0.3668373  )
        71           S   tau(  71) = (   0.2500171   0.2886900   0.1180543  )
        72           S   tau(  72) = (   0.1250046   0.3519103   0.8557806  )
        73           Mo  tau(  73) = (   0.0000014   0.5773502  -0.7272732  )
        74           Mo  tau(  74) = (   0.1250045   0.5051840  -0.2424036  )
        75           S   tau(  75) = (   0.0000030   0.5773520  -0.3667799  )
        76           S   tau(  76) = (   0.1250014   0.5051812  -0.6030489  )
        77           S   tau(  77) = (   0.1250014   0.5051813  -0.8514963  )
        78           S   tau(  78) = (   0.0000026   0.5773517  -0.1180274  )
        79           Mo  tau(  79) = (   0.0000222   0.5773400   0.2423964  )
        80           Mo  tau(  80) = (   0.1250047   0.5051836   0.7321380  )
        81           S   tau(  81) = (   0.0016251   0.5764170   0.6061946  )
        82           S   tau(  82) = (   0.1250047   0.5051815   0.3667777  )
        83           S   tau(  83) = (   0.1250048   0.5051819   0.1179962  )
        84           S   tau(  84) = (  -0.0077335   0.5818202   0.8557807  )
        85           Mo  tau(  85) = (  -0.1249984   0.7938567  -0.7272732  )
        86           Mo  tau(  86) = (   0.0000069   0.7216896  -0.2424039  )
        87           S   tau(  87) = (  -0.1249975   0.7938582  -0.3667782  )
        88           S   tau(  88) = (   0.0000016   0.7216877  -0.6030489  )
        89           S   tau(  89) = (   0.0000016   0.7216878  -0.8514963  )
        90           S   tau(  90) = (  -0.1249973   0.7938582  -0.1180279  )
        91           Mo  tau(  91) = (  -0.1249774   0.7938494   0.2424207  )
        92           Mo  tau(  92) = (  -0.0005116   0.7228241   0.7275438  )
        93           S   tau(  93) = (  -0.1249026   0.7937246   0.6020948  )
        94           S   tau(  94) = (   0.0000043   0.7216209   0.3668361  )
        95           S   tau(  95) = (   0.0000226   0.7216928   0.1180549  )
        96           S   tau(  96) = (  -0.1258721   0.7948451   0.8514341  )
        97           Mo  tau(  97) = (   0.5000010   0.1443372  -0.7272732  )
        98           Mo  tau(  98) = (   0.6250001   0.0721662  -0.2424040  )
        99           S   tau(  99) = (   0.5000017   0.1443386  -0.3667801  )
       100           S   tau( 100) = (   0.6250010   0.0721682  -0.6030489  )
       101           S   tau( 101) = (   0.6250010   0.0721683  -0.8514963  )
       102           S   tau( 102) = (   0.5000020   0.1443388  -0.1180261  )
       103           Mo  tau( 103) = (   0.5000075   0.1443411   0.2423793  )
       104           Mo  tau( 104) = (   0.6250042   0.0723339   0.7270464  )
       105           S   tau( 105) = (   0.5002366   0.1444733   0.6023595  )
       106           S   tau( 106) = (   0.6250029   0.0721787   0.3667562  )
       107           S   tau( 107) = (   0.6250040   0.0721260   0.1180315  )
       108           S   tau( 108) = (   0.4998752   0.1442648   0.8512770  )
       109           Mo  tau( 109) = (   0.3750012   0.3608437  -0.7272732  )
       110           Mo  tau( 110) = (   0.4999991   0.2886761  -0.2424038  )
       111           S   tau( 111) = (   0.3750012   0.3608452  -0.3667804  )
       112           S   tau( 112) = (   0.5000012   0.2886747  -0.6030489  )
       113           S   tau( 113) = (   0.5000012   0.2886748  -0.8514963  )
       114           S   tau( 114) = (   0.3750014   0.3608455  -0.1180261  )
       115           Mo  tau( 115) = (   0.3749795   0.3608597   0.2424601  )
       116           Mo  tau( 116) = (   0.5001461   0.2885951   0.7270464  )
       117           S   tau( 117) = (   0.3751205   0.3607791   0.6027254  )
       118           S   tau( 118) = (   0.5000105   0.2886721   0.3667569  )
       119           S   tau( 119) = (   0.4999655   0.2886989   0.1180297  )
       120           S   tau( 120) = (   0.3754765   0.3605739   0.8517402  )
       121           Mo  tau( 121) = (   0.2500014   0.5773502  -0.7272732  )
       122           Mo  tau( 122) = (   0.3749983   0.5051825  -0.2424043  )
       123           S   tau( 123) = (   0.2500017   0.5773519  -0.3667810  )
       124           S   tau( 124) = (   0.3750014   0.5051812  -0.6030489  )
       125           S   tau( 125) = (   0.3750014   0.5051813  -0.8514963  )
       126           S   tau( 126) = (   0.2500018   0.5773519  -0.1180256  )
       127           Mo  tau( 127) = (   0.2499863   0.5773402   0.2423965  )
       128           Mo  tau( 128) = (   0.3762454   0.5050642   0.7275433  )
       129           S   tau( 129) = (   0.2483844   0.5764169   0.6061944  )
       130           S   tau( 130) = (   0.3749442   0.5052158   0.3668400  )
       131           S   tau( 131) = (   0.3749972   0.5051650   0.1180510  )
       132           S   tau( 132) = (   0.2577438   0.5818204   0.8557797  )
       133           Mo  tau( 133) = (   0.1250016   0.7938567  -0.7272732  )
       134           Mo  tau( 134) = (   0.2499995   0.7216883  -0.2424036  )
       135           S   tau( 135) = (   0.1250024   0.7938578  -0.3667813  )
       136           S   tau( 136) = (   0.2500016   0.7216877  -0.6030489  )
       137           S   tau( 137) = (   0.2500016   0.7216878  -0.8514963  )
       138           S   tau( 138) = (   0.1250024   0.7938579  -0.1180253  )
       139           Mo  tau( 139) = (   0.1250047   0.7938294   0.2424606  )
       140           Mo  tau( 140) = (   0.2505220   0.7228241   0.7275433  )
       141           S   tau( 141) = (   0.1250053   0.7939926   0.6027252  )
       142           S   tau( 142) = (   0.2500048   0.7216200   0.3668387  )
       143           S   tau( 143) = (   0.2499864   0.7216915   0.1180524  )
       144           S   tau( 144) = (   0.1250054   0.7944033   0.8517402  )
       145           Mo  tau( 145) = (   0.7500010   0.1443372  -0.7272732  )
       146           Mo  tau( 146) = (   0.8750038   0.0721696  -0.2424038  )
       147           S   tau( 147) = (   0.7500016   0.1443382  -0.3667789  )
       148           S   tau( 148) = (   0.8750010   0.0721682  -0.6030489  )
       149           S   tau( 149) = (   0.8750010   0.0721683  -0.8514963  )
       150           S   tau( 150) = (   0.7500016   0.1443384  -0.1180279  )
       151           Mo  tau( 151) = (   0.7499986   0.1443409   0.2423802  )
       152           Mo  tau( 152) = (   0.8750804   0.0721266   0.7263988  )
       153           S   tau( 153) = (   0.7497713   0.1444738   0.6023592  )
       154           S   tau( 154) = (   0.8749758   0.0721848   0.3667595  )
       155           S   tau( 155) = (   0.8750127   0.0721632   0.1180342  )
       156           S   tau( 156) = (   0.7501331   0.1442647   0.8512770  )
       157           Mo  tau( 157) = (   0.6250012   0.3608437  -0.7272732  )
       158           Mo  tau( 158) = (   0.7500028   0.2886769  -0.2424041  )
       159           S   tau( 159) = (   0.6250015   0.3608451  -0.3667792  )
       160           S   tau( 160) = (   0.7500012   0.2886747  -0.6030489  )
       161           S   tau( 161) = (   0.7500012   0.2886748  -0.8514963  )
       162           S   tau( 162) = (   0.6250016   0.3608454  -0.1180280  )
       163           Mo  tau( 163) = (   0.6250032   0.3608391   0.2423797  )
       164           Mo  tau( 164) = (   0.7498627   0.2885951   0.7270467  )
       165           S   tau( 165) = (   0.6250046   0.3605769   0.6023590  )
       166           S   tau( 166) = (   0.7499943   0.2886711   0.3667569  )
       167           S   tau( 167) = (   0.7500399   0.2886970   0.1180318  )
       168           S   tau( 168) = (   0.6250043   0.3609947   0.8512770  )
       169           Mo  tau( 169) = (   0.5000014   0.5773502  -0.7272732  )
       170           Mo  tau( 170) = (   0.6250029   0.5051841  -0.2424047  )
       171           S   tau( 171) = (   0.5000014   0.5773518  -0.3667794  )
       172           S   tau( 172) = (   0.6250014   0.5051812  -0.6030489  )
       173           S   tau( 173) = (   0.6250014   0.5051813  -0.8514963  )
       174           S   tau( 174) = (   0.5000016   0.5773516  -0.1180277  )
       175           Mo  tau( 175) = (   0.4999855   0.5773383   0.2424207  )
       176           Mo  tau( 176) = (   0.6250049   0.5052713   0.7263986  )
       177           S   tau( 177) = (   0.4998428   0.5773389   0.6020941  )
       178           S   tau( 178) = (   0.6250030   0.5051500   0.3667588  )
       179           S   tau( 179) = (   0.6250025   0.5051935   0.1180351  )
       180           S   tau( 180) = (   0.5012979   0.5776190   0.8514332  )
       181           Mo  tau( 181) = (   0.3750016   0.7938567  -0.7272732  )
       182           Mo  tau( 182) = (   0.5000025   0.7216901  -0.2424039  )
       183           S   tau( 183) = (   0.3750019   0.7938578  -0.3667793  )
       184           S   tau( 184) = (   0.5000016   0.7216877  -0.6030489  )
       185           S   tau( 185) = (   0.5000016   0.7216878  -0.8514963  )
       186           S   tau( 186) = (   0.3750020   0.7938579  -0.1180272  )
       187           Mo  tau( 187) = (   0.3749848   0.7938487   0.2424206  )
       188           Mo  tau( 188) = (   0.5001249   0.7217591   0.7266160  )
       189           S   tau( 189) = (   0.3749125   0.7937251   0.6020942  )
       190           S   tau( 190) = (   0.5000021   0.7216868   0.3667472  )
       191           S   tau( 191) = (   0.4999874   0.7216780   0.1180346  )
       192           S   tau( 192) = (   0.3758826   0.7948451   0.8514332  )
       193           Pd  tau( 193) = (   0.1250063   0.5051842   0.9601361  )
       194           Pd  tau( 194) = (   0.1877436   0.2475216   0.9884602  )

     --------------------------------------------
     DFT-D3 Dispersion Correction (3-body terms):
     --------------------------------------------
       Reference C6 values for interpolation: 

         atom   Coordination number   C6
         S          0.000           268.01
         S          0.995           261.99
         S          1.990           251.62
         Mo         0.000          1691.79
         Mo         1.942          1004.01
         Mo        11.056           674.22
         Pd         0.000          1217.01
         Pd         1.863           573.90
         Pd         5.710           531.75

       Values used:

         atom   Coordination number  R0_AB[au]  C6      C8
         Mo        10.208            3.547    674.22  77634.20
         Mo        10.221            3.547    674.22  77634.20
         S          3.858            3.128    251.62  12327.25
         S          3.859            3.128    251.62  12327.25
         S          3.758            3.128    251.62  12327.25
         S          3.859            3.128    251.62  12327.25
         Mo        10.220            3.547    674.22  77634.20
         Mo        10.256            3.547    674.21  77634.20
         S          3.847            3.128    251.62  12327.25
         S          3.861            3.128    251.62  12327.25
         S          3.859            3.128    251.62  12327.25
         S          3.917            3.128    251.62  12327.25
         Mo        10.208            3.547    674.22  77634.20
         Mo        10.221            3.547    674.22  77634.20
         S          3.858            3.128    251.62  12327.25
         S          3.859            3.128    251.62  12327.25
         S          3.758            3.128    251.62  12327.25
         S          3.859            3.128    251.62  12327.25
         Mo        10.221            3.547    674.22  77634.20
         Mo        10.211            3.547    674.22  77634.20
         S          3.855            3.128    251.62  12327.25
         S          3.856            3.128    251.62  12327.25
         S          3.859            3.128    251.62  12327.25
         S          3.758            3.128    251.62  12327.25
         Mo        10.208            3.547    674.22  77634.20
         Mo        10.221            3.547    674.22  77634.20
         S          3.858            3.128    251.62  12327.25
         S          3.859            3.128    251.62  12327.25
         S          3.758            3.128    251.62  12327.25
         S          3.859            3.128    251.62  12327.25
         Mo        10.220            3.547    674.22  77634.20
         Mo        10.191            3.547    674.22  77634.20
         S          3.847            3.128    251.62  12327.25
         S          3.856            3.128    251.62  12327.25
         S          3.859            3.128    251.62  12327.25
         S          3.805            3.128    251.62  12327.25
         Mo        10.208            3.547    674.22  77634.20
         Mo        10.221            3.547    674.22  77634.20
         S          3.858            3.128    251.62  12327.25
         S          3.859            3.128    251.62  12327.25
         S          3.758            3.128    251.62  12327.25
         S          3.859            3.128    251.62  12327.25
         Mo        10.219            3.547    674.22  77634.20
         Mo        10.234            3.547    674.22  77634.20
         S          3.856            3.128    251.62  12327.25
         S          3.861            3.128    251.62  12327.25
         S          3.859            3.128    251.62  12327.25
         S          3.784            3.128    251.62  12327.25
         Mo        10.208            3.547    674.22  77634.20
         Mo        10.221            3.547    674.22  77634.20
         S          3.858            3.128    251.62  12327.25
         S          3.859            3.128    251.62  12327.25
         S          3.758            3.128    251.62  12327.25
         S          3.859            3.128    251.62  12327.25
         Mo        10.220            3.547    674.22  77634.20
         Mo        10.248            3.547    674.22  77634.20
         S          3.847            3.128    251.62  12327.25
         S          3.860            3.128    251.62  12327.25
         S          3.859            3.128    251.62  12327.25
         S          4.772            3.128    251.62  12327.25
         Mo        10.208            3.547    674.22  77634.20
         Mo        10.221            3.547    674.22  77634.20
         S          3.858            3.128    251.62  12327.25
         S          3.859            3.128    251.62  12327.25
         S          3.758            3.128    251.62  12327.25
         S          3.859            3.128    251.62  12327.25
         Mo        10.222            3.547    674.22  77634.20
         Mo        10.368            3.547    674.22  77634.20
         S          3.866            3.128    251.62  12327.25
         S          3.856            3.128    251.62  12327.25
         S          3.859            3.128    251.62  12327.25
         S          5.629            3.128    251.62  12327.25
         Mo        10.208            3.547    674.22  77634.20
         Mo        10.221            3.547    674.22  77634.20
         S          3.858            3.128    251.62  12327.25
         S          3.859            3.128    251.62  12327.25
         S          3.758            3.128    251.62  12327.25
         S          3.859            3.128    251.62  12327.25
         Mo        10.222            3.547    674.22  77634.20
         Mo        10.826            3.547    674.22  77634.20
         S          3.865            3.128    251.62  12327.25
         S          3.853            3.128    251.62  12327.25
         S          3.859            3.128    251.62  12327.25
         S          4.653            3.128    251.62  12327.25
         Mo        10.208            3.547    674.22  77634.20
         Mo        10.221            3.547    674.22  77634.20
         S          3.858            3.128    251.62  12327.25
         S          3.859            3.128    251.62  12327.25
         S          3.758            3.128    251.62  12327.25
         S          3.859            3.128    251.62  12327.25
         Mo        10.220            3.547    674.22  77634.20
         Mo        10.191            3.547    674.22  77634.20
         S          3.847            3.128    251.62  12327.25
         S          3.856            3.128    251.62  12327.25
         S          3.859            3.128    251.62  12327.25
         S          3.806            3.128    251.62  12327.25
         Mo        10.208            3.547    674.21  77634.20
         Mo        10.221            3.547    674.22  77634.20
         S          3.858            3.128    251.62  12327.25
         S          3.859            3.128    251.62  12327.25
         S          3.758            3.128    251.62  12327.25
         S          3.859            3.128    251.62  12327.25
         Mo        10.220            3.547    674.22  77634.20
         Mo        10.230            3.547    674.22  77634.20
         S          3.862            3.128    251.62  12327.25
         S          3.860            3.128    251.62  12327.25
         S          3.859            3.128    251.62  12327.25
         S          3.767            3.128    251.62  12327.25
         Mo        10.208            3.547    674.22  77634.20
         Mo        10.221            3.547    674.22  77634.20
         S          3.858            3.128    251.62  12327.25
         S          3.859            3.128    251.62  12327.25
         S          3.758            3.128    251.62  12327.25
         S          3.859            3.128    251.62  12327.25
         Mo        10.221            3.547    674.22  77634.20
         Mo        10.231            3.547    674.22  77634.20
         S          3.855            3.128    251.62  12327.25
         S          3.860            3.128    251.62  12327.25
         S          3.859            3.128    251.62  12327.25
         S          3.852            3.128    251.62  12327.25
         Mo        10.208            3.547    674.22  77634.20
         Mo        10.221            3.547    674.22  77634.20
         S          3.858            3.128    251.62  12327.25
         S          3.859            3.128    251.62  12327.25
         S          3.758            3.128    251.62  12327.25
         S          3.859            3.128    251.62  12327.25
         Mo        10.222            3.547    674.22  77634.20
         Mo        10.192            3.547    674.22  77634.20
         S          3.865            3.128    251.62  12327.25
         S          3.856            3.128    251.62  12327.25
         S          3.859            3.128    251.62  12327.25
         S          4.654            3.128    251.62  12327.25
         Mo        10.208            3.547    674.22  77634.20
         Mo        10.221            3.547    674.22  77634.20
         S          3.858            3.128    251.62  12327.25
         S          3.859            3.128    251.62  12327.25
         S          3.758            3.128    251.62  12327.25
         S          3.859            3.128    251.62  12327.25
         Mo        10.221            3.547    674.22  77634.20
         Mo        10.191            3.547    674.22  77634.20
         S          3.855            3.128    251.62  12327.25
         S          3.856            3.128    251.62  12327.25
         S          3.859            3.128    251.62  12327.25
         S          3.756            3.128    251.62  12327.25
         Mo        10.208            3.547    674.21  77634.20
         Mo        10.221            3.547    674.22  77634.20
         S          3.858            3.128    251.62  12327.25
         S          3.859            3.128    251.62  12327.25
         S          3.758            3.128    251.62  12327.25
         S          3.859            3.128    251.62  12327.25
         Mo        10.220            3.547    674.22  77634.20
         Mo        10.244            3.547    674.22  77634.20
         S          3.862            3.128    251.62  12327.25
         S          3.860            3.128    251.62  12327.25
         S          3.859            3.128    251.62  12327.25
         S          3.765            3.128    251.62  12327.25
         Mo        10.208            3.547    674.22  77634.20
         Mo        10.220            3.547    674.22  77634.20
         S          3.858            3.128    251.62  12327.25
         S          3.859            3.128    251.62  12327.25
         S          3.758            3.128    251.62  12327.25
         S          3.859            3.128    251.62  12327.25
         Mo        10.220            3.547    674.22  77634.20
         Mo        10.230            3.547    674.22  77634.20
         S          3.862            3.128    251.62  12327.25
         S          3.860            3.128    251.62  12327.25
         S          3.859            3.128    251.62  12327.25
         S          3.765            3.128    251.62  12327.25
         Mo        10.208            3.547    674.22  77634.20
         Mo        10.221            3.547    674.22  77634.20
         S          3.858            3.128    251.62  12327.25
         S          3.859            3.128    251.62  12327.25
         S          3.758            3.128    251.62  12327.25
         S          3.859            3.128    251.62  12327.25
         Mo        10.220            3.547    674.22  77634.20
         Mo        10.244            3.547    674.22  77634.20
         S          3.847            3.128    251.62  12327.25
         S          3.860            3.128    251.62  12327.25
         S          3.859            3.128    251.62  12327.25
         S          3.805            3.128    251.62  12327.25
         Mo        10.208            3.547    674.22  77634.20
         Mo        10.221            3.547    674.22  77634.20
         S          3.858            3.128    251.62  12327.25
         S          3.859            3.128    251.62  12327.25
         S          3.758            3.128    251.62  12327.25
         S          3.859            3.128    251.62  12327.25
         Mo        10.220            3.547    674.22  77634.20
         Mo        10.234            3.547    674.22  77634.20
         S          3.847            3.128    251.62  12327.25
         S          3.861            3.128    251.62  12327.25
         S          3.859            3.128    251.62  12327.25
         S          3.805            3.128    251.62  12327.25
         Pd         3.858            3.168    535.75  49087.18
         Pd         2.499            3.168    573.90  52583.08

         Molecular C6 ( Ry / a.u.^6 ) =  13962268.79


     number of k points=     4  Gaussian smearing, width (Ry)=  0.0100
                       cart. coord. in units 2pi/alat
        k(    1) = (   0.0000000   0.0000000   0.0000000), wk =   0.5000000
        k(    2) = (   0.0000000  -0.5773499   0.0000000), wk =   0.5000000
        k(    3) = (  -0.5000000  -0.2886744   0.0000000), wk =   0.5000000
        k(    4) = (  -0.5000000  -0.8660242   0.0000000), wk =   0.5000000

     Dense  grid:  7154885 G-vectors     FFT dimensions: ( 180, 180, 512)

     Smooth grid:  3090769 G-vectors     FFT dimensions: ( 135, 135, 400)

     Estimated max dynamical RAM per process >       3.19 GB

     Estimated total dynamical RAM >     114.77 GB

     Atomic positions and unit cell read from directory:
     ./outdir/pwscf.save/
     Atomic positions from file used, from input discarded
 

     The initial density is read from file :
     ./outdir/pwscf.save/charge-density


     negative rho (up, down):  9.639E-04 0.000E+00
     Cannot read wfcs: file not found
     Starting wfcs are 1172 randomized atomic wfcs
     Checking if some PAW data can be deallocated... 

     total cpu time spent up to now is      200.4 secs

     Self-consistent Calculation

     iteration #  1     ecut=    77.00 Ry     beta= 0.20
     Davidson diagonalization with overlap
     c_bands:  1 eigenvalues not converged
     c_bands: 14 eigenvalues not converged
     c_bands:  6 eigenvalues not converged
     c_bands: 10 eigenvalues not converged
     ethr =  1.00E-05,  avg # of iterations =115.0

     negative rho (up, down):  8.906E-04 0.000E+00

     total cpu time spent up to now is    12007.0 secs

     total energy              =  -32817.57433593 Ry
     estimated scf accuracy    <       1.12031341 Ry

     iteration #  2     ecut=    77.00 Ry     beta= 0.20
     Davidson diagonalization with overlap
     ethr =  6.59E-05,  avg # of iterations =  5.5

     negative rho (up, down):  8.514E-04 0.000E+00

     total cpu time spent up to now is    12481.2 secs

     total energy              =  -32817.57966869 Ry
     estimated scf accuracy    <       0.47132995 Ry

     iteration #  3     ecut=    77.00 Ry     beta= 0.20
     Davidson diagonalization with overlap
     ethr =  2.77E-05,  avg # of iterations =  6.8

     negative rho (up, down):  7.993E-04 0.000E+00

     total cpu time spent up to now is    12952.3 secs

     total energy              =  -32817.56610201 Ry
     estimated scf accuracy    <       0.15093461 Ry

     iteration #  4     ecut=    77.00 Ry     beta= 0.20
     Davidson diagonalization with overlap
     ethr =  8.88E-06,  avg # of iterations = 13.0

     negative rho (up, down):  7.910E-04 0.000E+00

     total cpu time spent up to now is    13554.2 secs

     total energy              =  -32817.60399357 Ry
     estimated scf accuracy    <       0.02905044 Ry

     iteration #  5     ecut=    77.00 Ry     beta= 0.20
     Davidson diagonalization with overlap
     c_bands:  4 eigenvalues not converged
     c_bands:  3 eigenvalues not converged
     c_bands:  5 eigenvalues not converged
     ethr =  1.71E-06,  avg # of iterations = 38.2

     negative rho (up, down):  8.015E-04 0.000E+00

     total cpu time spent up to now is    14688.1 secs

     total energy              =  -32817.60974707 Ry
     estimated scf accuracy    <       0.01400878 Ry

     iteration #  6     ecut=    77.00 Ry     beta= 0.20
     Davidson diagonalization with overlap
     ethr =  8.24E-07,  avg # of iterations =  9.2

     negative rho (up, down):  8.183E-04 0.000E+00

     total cpu time spent up to now is    15233.6 secs

     total energy              =  -32817.61194727 Ry
     estimated scf accuracy    <       0.00499991 Ry

     iteration #  7     ecut=    77.00 Ry     beta= 0.20
     Davidson diagonalization with overlap
     ethr =  2.94E-07,  avg # of iterations = 12.8

     negative rho (up, down):  8.468E-04 0.000E+00

     total cpu time spent up to now is    16021.9 secs

     total energy              =  -32817.61528564 Ry
     estimated scf accuracy    <       0.00146238 Ry

     iteration #  8     ecut=    77.00 Ry     beta= 0.20
     Davidson diagonalization with overlap
     ethr =  8.60E-08,  avg # of iterations = 13.0

     negative rho (up, down):  8.915E-04 0.000E+00

     total cpu time spent up to now is    16885.8 secs

     total energy              =  -32817.61604236 Ry
     estimated scf accuracy    <       0.00100334 Ry

     iteration #  9     ecut=    77.00 Ry     beta= 0.20
     Davidson diagonalization with overlap
     ethr =  5.90E-08,  avg # of iterations =  5.0

     negative rho (up, down):  9.403E-04 0.000E+00

     total cpu time spent up to now is    17347.5 secs

     total energy              =  -32817.61592855 Ry
     estimated scf accuracy    <       0.00037911 Ry

     iteration # 10     ecut=    77.00 Ry     beta= 0.20
     Davidson diagonalization with overlap
     ethr =  2.23E-08,  avg # of iterations = 16.0

     negative rho (up, down):  9.316E-04 0.000E+00

     total cpu time spent up to now is    18286.7 secs

     total energy              =  -32817.61632016 Ry
     estimated scf accuracy    <       0.00018814 Ry

     iteration # 11     ecut=    77.00 Ry     beta= 0.20
     Davidson diagonalization with overlap
     ethr =  1.11E-08,  avg # of iterations =  9.8

     negative rho (up, down):  9.371E-04 0.000E+00

     total cpu time spent up to now is    18790.0 secs

     total energy              =  -32817.61631111 Ry
     estimated scf accuracy    <       0.00007985 Ry

     iteration # 12     ecut=    77.00 Ry     beta= 0.20
     Davidson diagonalization with overlap
     ethr =  4.70E-09,  avg # of iterations = 15.2

     negative rho (up, down):  9.492E-04 0.000E+00

     total cpu time spent up to now is    19785.4 secs

     total energy              =  -32817.61639192 Ry
     estimated scf accuracy    <       0.00002757 Ry

     iteration # 13     ecut=    77.00 Ry     beta= 0.20
     Davidson diagonalization with overlap
     ethr =  1.62E-09,  avg # of iterations = 14.8

     negative rho (up, down):  9.545E-04 0.000E+00

     total cpu time spent up to now is    20599.6 secs

     total energy              =  -32817.61640470 Ry
     estimated scf accuracy    <       0.00000697 Ry

     iteration # 14     ecut=    77.00 Ry     beta= 0.20
     Davidson diagonalization with overlap
     ethr =  4.10E-10,  avg # of iterations = 18.0

     negative rho (up, down):  9.567E-04 0.000E+00

     total cpu time spent up to now is    21688.3 secs

     total energy              =  -32817.61641053 Ry
     estimated scf accuracy    <       0.00000346 Ry

     iteration # 15     ecut=    77.00 Ry     beta= 0.20
     Davidson diagonalization with overlap
     ethr =  2.04E-10,  avg # of iterations = 10.2

     negative rho (up, down):  9.585E-04 0.000E+00

     total cpu time spent up to now is    22362.9 secs

     total energy              =  -32817.61641062 Ry
     estimated scf accuracy    <       0.00000111 Ry

     iteration # 16     ecut=    77.00 Ry     beta= 0.20
     Davidson diagonalization with overlap
     ethr =  6.56E-11,  avg # of iterations = 17.8

     negative rho (up, down):  9.615E-04 0.000E+00

     total cpu time spent up to now is    23567.3 secs

     End of self-consistent calculation

          k = 0.0000 0.0000 0.0000 (386245 PWs)   bands (ev):

   -88.8117 -88.4565 -66.6022 -66.6020 -66.6009 -66.5964 -66.5830 -66.5811
   -66.5810 -66.5810 -66.5809 -66.5809 -66.5809 -66.5809 -66.5809 -66.5809
   -66.5807 -66.5806 -66.5804 -66.5796 -66.5796 -66.5796 -66.5796 -66.5796
   -66.5795 -66.5783 -66.5750 -66.5705 -66.5669 -66.5632 -66.5622 -66.5598
   -66.5597 -66.5596 -66.5596 -66.5596 -66.5596 -66.5595 -66.5595 -66.5595
   -66.5595 -66.5595 -66.5595 -66.5594 -66.5594 -66.5593 -66.5592 -66.5591
   -66.5587 -66.5582 -66.5582 -66.5582 -66.5582 -66.5582 -66.5582 -66.5581
   -66.5581 -66.5581 -66.5519 -66.5469 -66.5461 -66.5418 -66.5410 -66.5399
   -66.5353 -66.5266 -54.6552 -54.6061 -54.5668 -54.3188 -54.2348 -54.2110
   -40.9296 -40.9296 -40.9296 -40.9294 -40.9293 -40.9292 -40.9289 -40.9289
   -40.9289 -40.9193 -40.9167 -40.9142 -40.8543 -40.8543 -40.8543 -40.8543
   -40.8543 -40.8543 -40.8542 -40.8541 -40.8541 -40.8540 -40.8539 -40.8537
   -40.8536 -40.8536 -40.8536 -40.8536 -40.8535 -40.8535 -40.8476 -40.8440
   -40.8377 -40.8354 -40.8317 -40.8299 -40.7676 -40.7618 -40.7616 -40.7611
   -40.7445 -40.7280 -40.7280 -40.7280 -40.7279 -40.7279 -40.7279 -40.7279
   -40.7277 -40.7277 -40.7276 -40.7276 -40.7274 -40.7271 -40.7271 -40.7271
   -40.7271 -40.7271 -40.7271 -40.7268 -40.7247 -40.7225 -40.7204 -40.7202
   -40.7201 -40.7201 -40.7201 -40.7201 -40.7201 -40.7200 -40.7200 -40.7200
   -40.7198 -40.7198 -40.7197 -40.7196 -40.7194 -40.7194 -40.7194 -40.7194
   -40.7193 -40.7193 -40.7193 -40.7167 -40.7143 -40.7106 -40.7053 -40.6969
   -40.6930 -40.6929 -40.6929 -40.6929 -40.6929 -40.6929 -40.6929 -40.6927
   -40.6926 -40.6926 -40.6926 -40.6924 -40.6920 -40.6920 -40.6920 -40.6920
   -40.6920 -40.6920 -40.6900 -40.6871 -40.6862 -40.6835 -40.6808 -40.6797
   -40.6784 -40.6782 -40.6782 -40.6782 -40.6781 -40.6781 -40.6781 -40.6781
   -40.6781 -40.6781 -40.6780 -40.6780 -40.6780 -40.6779 -40.6779 -40.6778
   -40.6777 -40.6777 -40.6774 -40.6774 -40.6774 -40.6774 -40.6774 -40.6774
   -40.6773 -40.6773 -40.6773 -40.6773 -40.6773 -40.6760 -40.6732 -40.6686
   -40.6667 -40.6657 -40.6641 -40.6633 -40.6146 -40.6146 -40.6146 -40.6144
   -40.6143 -40.6142 -40.6136 -40.6136 -40.6136 -40.6027 -40.5993 -40.5988
   -40.5675 -40.5675 -40.5675 -40.5675 -40.5675 -40.5674 -40.5674 -40.5673
   -40.5672 -40.5672 -40.5671 -40.5669 -40.5664 -40.5664 -40.5664 -40.5664
   -40.5664 -40.5664 -40.5539 -40.5528 -40.5493 -40.5488 -40.5464 -40.5435
   -40.5199 -40.5199 -40.5196 -40.5196 -40.5188 -40.5188 -40.5018 -40.4969
   -20.1180 -20.0615 -19.9631 -19.8629 -19.4394 -19.2599 -19.2536 -19.2287
   -19.2280 -19.2251 -19.2138 -19.2023 -19.2006 -19.1742 -19.1723 -19.1631
   -19.1255 -19.1121 -19.1110 -19.0923 -19.0898 -19.0779 -19.0218 -19.0153
   -19.0149 -19.0089 -19.0077 -19.0018 -18.8780 -18.7630 -18.6582 -18.5927
   -18.5056 -18.4990 -18.4769 -18.4676 -18.4547 -18.4457 -18.4202 -18.3915
   -18.3872 -18.3750 -18.3635 -18.3408 -18.3049 -18.2799 -18.2583 -18.2578
   -18.2492 -18.2325 -18.2144 -18.2098 -18.1640 -18.1613 -18.1594 -18.1540
   -18.1510 -18.1502 -18.1055 -18.1009 -18.0990 -18.0986 -18.0974 -18.0965
   -18.0914 -18.0753 -18.0678 -18.0653 -18.0626 -18.0593 -18.0589 -18.0541
   -18.0539 -18.0514 -18.0387 -18.0283 -18.0277 -18.0248 -18.0239 -18.0200
   -18.0110 -18.0066 -18.0058 -17.9931 -17.9863 -17.9813 -17.9805 -17.9773
   -17.9756 -17.9646 -17.9628 -17.9607 -17.9333 -17.9269 -17.9178 -17.9066
   -17.8982 -17.8968 -17.8932 -17.8928 -17.8914 -17.8736 -17.8701 -17.8669
   -17.8572 -17.8543 -17.8479 -17.8456 -17.8432 -17.8408 -17.8363 -17.8359
   -17.8336 -17.8189 -17.8186 -17.8174 -17.8073 -17.8071 -17.8032 -17.8008
   -17.7997 -17.7966 -17.7750 -17.7748 -17.7738 -17.7731 -17.7725 -17.7710
   -11.9712 -11.9261 -11.8636 -11.8192 -11.7721 -11.7717 -11.7486 -11.7381
   -11.6521 -11.6448 -11.6331 -11.5347 -11.5336 -11.5277 -11.4520 -11.2998
   -11.2805 -11.2349 -11.2257 -11.2153 -11.2142 -11.2102 -11.1987 -11.1798
   -11.1377 -11.1203 -11.1136 -11.1082 -11.1048 -11.1003 -11.0978 -11.0785
   -11.0641 -11.0594 -11.0489 -11.0471 -11.0417 -11.0372 -11.0351 -11.0323
   -11.0177 -11.0147 -11.0036 -10.9958 -10.9871 -10.9636 -10.9437 -10.9359
   -10.9282 -10.9159 -10.9150 -10.9022 -10.8911 -10.8735 -10.8665 -10.8568
   -10.8565 -10.8498 -10.8396 -10.8337 -10.8274 -10.8261 -10.8166 -10.8136
   -10.8081 -10.8064 -10.8053 -10.8049 -10.8021 -10.7978 -10.7867 -10.7858
   -10.7836 -10.7806 -10.7799 -10.7766 -10.7560 -10.7555 -10.7541 -10.7506
   -10.7479 -10.7466 -10.7385 -10.7300 -10.7294 -10.7151 -10.7148 -10.7144
   -10.7133 -10.7110 -10.7105 -10.6416 -10.6359 -10.6328 -10.5905 -10.5705
   -10.5677 -10.5599 -10.5565 -10.5541 -10.4719 -10.3178 -10.2272 -10.1392
   -10.1124 -10.0719 -10.0079  -9.9321  -9.9031  -9.8846  -9.8157  -9.7938
    -9.7844  -9.7810  -9.7764  -9.7737  -9.7610  -9.7520  -9.7489  -9.7473
    -9.7459  -9.7423  -9.7382  -9.7369  -9.7327  -9.7279  -9.7238  -9.7204
    -9.7112  -9.7062  -9.6873  -9.6781  -9.6461  -9.6366  -9.6087  -9.6072
    -9.6032  -9.6029  -9.6000  -9.5968  -9.5954  -9.5941  -9.5934  -9.5928
    -9.5878  -9.5865  -9.5783  -9.5669  -9.5484  -9.5245  -9.5193  -9.5192
    -9.5191  -9.5187  -9.5186  -9.5170  -9.5094  -9.5062  -9.4926  -9.4901
    -9.4789  -9.4748  -9.4549  -9.4436  -9.4292  -9.4248  -9.3512  -9.3406
    -9.3361  -9.3276  -9.3237  -9.3180  -9.3144  -9.3071  -9.3058  -9.2999
    -9.2887  -9.2862  -9.2584  -9.2238  -9.2152  -9.2107  -9.2053  -9.1967
    -9.1753  -9.1665  -9.1606  -9.1593  -9.1582  -9.1550  -9.1512  -9.1454
    -9.1362  -9.1067  -9.0993  -9.0886  -9.0797  -9.0500  -9.0255  -9.0019
    -8.9696  -8.9600  -8.9591  -8.9557  -8.9364  -8.9316  -8.9275  -8.9238
    -8.9155  -8.9121  -8.9054  -8.8946  -8.8943  -8.8930  -8.8844  -8.8739
    -8.8679  -8.8576  -8.8455  -8.8424  -8.7992  -8.7989  -8.7986  -8.7984
    -8.7981  -8.7978  -8.7294  -8.7280  -8.7260  -8.7203  -8.7128  -8.7040
    -8.6471  -8.6439  -8.6403  -8.6378  -8.6320  -8.6233  -8.5867  -8.5721
    -8.5702  -8.5688  -8.5675  -8.5669  -8.5651  -8.4976  -8.4700  -8.3662
    -8.3442  -8.3442  -8.3393  -8.3387  -8.3381  -8.3325  -8.3324  -8.3202
    -8.3149  -8.3068  -8.2727  -8.2568  -8.2533  -8.2531  -8.2529  -8.2528
    -8.2502  -8.2388  -8.2265  -8.2263  -8.2259  -8.2254  -8.2224  -8.2154
    -8.1987  -8.1984  -8.1983  -8.1980  -8.1968  -8.1946  -8.1367  -8.0708
    -8.0559  -7.9373  -7.8807  -7.8400  -7.8347  -7.8325  -7.7681  -7.7517
    -7.7432  -7.6937  -7.6843  -7.6741  -7.6626  -7.6226  -7.6217  -7.6201
    -7.6028  -7.5971  -7.5963  -7.5850  -7.5768  -7.5736  -7.5469  -7.5381
    -7.5364  -7.5305  -7.5229  -7.5195  -7.5146  -7.5119  -7.5111  -7.5101
    -7.5097  -7.5075  -7.4923  -7.4854  -7.4850  -7.4834  -7.4829  -7.4814
    -7.4692  -7.4635  -7.4619  -7.4597  -7.4594  -7.4589  -7.4576  -7.4532
    -7.4487  -7.4383  -7.4221  -7.4034  -7.3989  -7.3933  -7.3922  -7.3904
    -7.3865  -7.3852  -7.3788  -7.3350  -7.3283  -7.3234  -7.3018  -7.2906
    -7.2876  -7.2835  -7.2797  -7.2727  -7.2699  -7.2682  -7.2665  -7.2498
    -7.2438  -7.2276  -7.2276  -7.2111  -7.2088  -7.2026  -7.1910  -7.1903
    -7.1528  -7.1292  -7.1027  -7.0896  -7.0811  -7.0553  -7.0467  -7.0106
    -6.9383  -6.9221  -6.8974  -6.8594  -6.8444  -6.8320  -6.8230  -6.7846
    -6.7699  -6.7561  -6.7556  -6.7513  -6.7161  -6.6767  -6.6758  -6.6743
    -6.6708  -6.6492  -6.6124  -6.6077  -6.6012  -6.5986  -6.5951  -6.5911
    -6.5864  -6.5519  -6.5474  -6.5403  -6.5336  -6.5311  -6.5188  -6.5108
    -6.4959  -6.4938  -6.4917  -6.4904  -6.4870  -6.4862  -6.4848  -6.4834
    -6.4825  -6.4753  -6.4749  -6.4749  -6.4748  -6.4747  -6.4741  -6.4506
    -6.4486  -6.4342  -6.4169  -6.4095  -6.4008  -6.3873  -6.3857  -6.3834
    -6.3499  -6.3306  -6.3196  -6.3183  -6.3113  -6.3100  -6.3069  -6.3034
    -6.3015  -6.2935  -6.2776  -6.2725  -6.2665  -6.2653  -6.2632  -6.2579
    -6.2447  -6.2352  -6.2307  -6.2300  -6.2291  -6.2277  -6.2234  -6.2125
    -6.1723  -6.0231  -5.9081  -5.8506  -5.6294  -5.5810  -5.4520  -5.4374
    -5.2829  -5.1285  -3.9871  -3.8669  -3.8306  -3.8280  -3.8257  -3.8246
    -3.8076  -3.8043  -3.8030  -3.8014  -3.7995  -3.7989  -3.7663  -3.7272
    -3.6774  -3.6746  -3.6682  -3.6640  -3.6613  -3.6573  -3.6545  -3.6527
    -3.6520  -3.6502  -3.5373  -3.5140  -3.4888  -3.4871  -3.4815  -3.4739
    -3.4699  -3.4594  -3.4580  -3.4506  -3.4491  -3.4477  -3.4461  -3.4420
    -3.4377  -3.4320  -3.4278  -3.4267  -3.4200  -3.4196  -3.4194  -3.4126
    -3.4057  -3.4043  -3.4033  -3.3938  -3.3928  -3.3875  -3.3868  -3.3831
    -3.3813  -3.3796  -3.3773  -3.3719  -3.3685  -3.3652  -3.3340  -3.3260
    -3.3245  -3.3236  -3.3204  -3.3196  -3.3187  -3.3129  -3.3107  -3.3031
    -3.2960  -3.2836  -3.2645  -3.2628  -3.2612  -3.2557  -3.2474  -3.2464
    -3.2364  -3.2009  -3.1985  -3.1848  -3.1807  -3.1764  -3.0529  -3.0475
    -3.0409  -3.0388  -3.0378  -3.0353  -3.0240  -3.0225  -3.0196  -3.0101
    -2.9776  -2.9677  -2.9602  -2.9534  -2.9525  -2.9499  -2.9486  -2.9465
    -2.9452  -2.9410  -2.9407  -2.9399  -2.9398  -2.9311  -2.9305  -2.9274
    -2.9260  -2.9153  -2.9146  -2.9136  -2.9106  -2.9096  -2.9091  -2.9076
    -2.9066  -2.9056  -2.9006  -2.8987  -2.8759  -2.8611  -2.8579  -2.8521
    -2.8436  -2.8429  -2.8265  -2.8203  -2.8177  -2.7835  -2.7833  -2.7831
    -2.7829  -2.7827  -2.7823  -2.7815  -2.7808  -2.7799  -2.7660  -2.7635
    -2.7507  -2.7327  -2.7272  -2.7167  -2.7122  -2.7036  -2.6978  -2.6935
    -2.6469  -2.6429  -2.6144  -2.6131  -2.6068  -2.6024  -2.6002  -2.5975
    -2.5949  -2.5944  -2.5616  -2.5382  -2.5306  -2.5196  -2.5146  -2.5130
    -2.4329  -2.4211  -2.4120  -2.4039

          k = 0.0000-0.5773 0.0000 (386352 PWs)   bands (ev):

   -88.8117 -88.4565 -66.5960 -66.5960 -66.5959 -66.5957 -66.5947 -66.5946
   -66.5928 -66.5901 -66.5854 -66.5853 -66.5852 -66.5851 -66.5840 -66.5840
   -66.5769 -66.5736 -66.5703 -66.5702 -66.5702 -66.5702 -66.5702 -66.5701
   -66.5700 -66.5700 -66.5689 -66.5689 -66.5689 -66.5689 -66.5688 -66.5670
   -66.5664 -66.5658 -66.5658 -66.5657 -66.5655 -66.5645 -66.5644 -66.5596
   -66.5596 -66.5595 -66.5595 -66.5595 -66.5593 -66.5592 -66.5592 -66.5582
   -66.5582 -66.5582 -66.5582 -66.5581 -66.5551 -66.5551 -66.5549 -66.5549
   -66.5537 -66.5537 -66.5526 -66.5476 -66.5450 -66.5437 -66.5410 -66.5397
   -66.5353 -66.5264 -54.6552 -54.6061 -54.5668 -54.3188 -54.2348 -54.2110
   -40.8980 -40.8980 -40.8980 -40.8980 -40.8978 -40.8977 -40.8976 -40.8975
   -40.8973 -40.8973 -40.8973 -40.8972 -40.8939 -40.8894 -40.8812 -40.8748
   -40.8712 -40.8712 -40.8709 -40.8708 -40.8705 -40.8704 -40.8648 -40.8631
   -40.8591 -40.8591 -40.8588 -40.8588 -40.8584 -40.8584 -40.8423 -40.8262
   -40.8084 -40.8084 -40.8084 -40.8084 -40.8082 -40.8082 -40.8081 -40.8081
   -40.8076 -40.8076 -40.8076 -40.8076 -40.7947 -40.7903 -40.7879 -40.7860
   -40.7601 -40.7526 -40.7496 -40.7496 -40.7494 -40.7494 -40.7490 -40.7489
   -40.7402 -40.7401 -40.7399 -40.7398 -40.7398 -40.7392 -40.7392 -40.7287
   -40.7287 -40.7286 -40.7285 -40.7281 -40.7280 -40.7280 -40.7260 -40.7185
   -40.7162 -40.7050 -40.6992 -40.6991 -40.6991 -40.6991 -40.6991 -40.6990
   -40.6990 -40.6989 -40.6988 -40.6984 -40.6984 -40.6984 -40.6984 -40.6973
   -40.6932 -40.6904 -40.6904 -40.6903 -40.6902 -40.6897 -40.6896 -40.6876
   -40.6793 -40.6787 -40.6787 -40.6787 -40.6784 -40.6783 -40.6781 -40.6781
   -40.6781 -40.6781 -40.6780 -40.6779 -40.6779 -40.6778 -40.6777 -40.6777
   -40.6774 -40.6773 -40.6773 -40.6773 -40.6768 -40.6724 -40.6694 -40.6694
   -40.6692 -40.6692 -40.6686 -40.6686 -40.6683 -40.6673 -40.6606 -40.6603
   -40.6477 -40.6477 -40.6477 -40.6477 -40.6477 -40.6475 -40.6473 -40.6473
   -40.6468 -40.6468 -40.6467 -40.6467 -40.6354 -40.6334 -40.6316 -40.6312
   -40.6130 -40.6130 -40.6130 -40.6130 -40.6127 -40.6127 -40.6127 -40.6126
   -40.6120 -40.6120 -40.6120 -40.6120 -40.6008 -40.6008 -40.6006 -40.6005
   -40.5998 -40.5998 -40.5986 -40.5945 -40.5936 -40.5928 -40.5896 -40.5815
   -40.5815 -40.5814 -40.5811 -40.5805 -40.5805 -40.5758 -40.5674 -40.5645
   -40.5645 -40.5643 -40.5642 -40.5635 -40.5635 -40.5603 -40.5452 -40.5396
   -40.5339 -40.5338 -40.5337 -40.5335 -40.5328 -40.5328 -40.5203 -40.5097
   -19.9221 -19.8645 -19.8385 -19.8048 -19.7385 -19.7137 -19.6329 -19.6237
   -19.4536 -19.4325 -19.3979 -19.3820 -19.3062 -19.2940 -19.2065 -19.2011
   -18.9821 -18.7968 -18.7642 -18.7416 -18.7158 -18.7127 -18.7000 -18.6928
   -18.6851 -18.6801 -18.6547 -18.6367 -18.6257 -18.6180 -18.6044 -18.5945
   -18.5623 -18.5531 -18.5427 -18.5292 -18.5260 -18.5223 -18.5036 -18.4918
   -18.4866 -18.4540 -18.4509 -18.4481 -18.4432 -18.4123 -18.3867 -18.3852
   -18.3795 -18.3536 -18.3365 -18.3281 -18.3094 -18.2939 -18.2785 -18.2532
   -18.2268 -18.2248 -18.2162 -18.2063 -18.1745 -18.1610 -18.1511 -18.1346
   -18.1092 -18.0964 -18.0907 -18.0867 -18.0784 -18.0780 -18.0744 -18.0727
   -18.0593 -18.0493 -18.0488 -18.0440 -18.0423 -18.0414 -18.0317 -18.0270
   -18.0249 -18.0184 -18.0134 -18.0067 -17.9853 -17.9843 -17.9801 -17.9779
   -17.9757 -17.9736 -17.9697 -17.9647 -17.9629 -17.9543 -17.9221 -17.9172
   -17.9126 -17.9106 -17.9032 -17.8956 -17.8686 -17.8637 -17.8584 -17.8538
   -17.8257 -17.8224 -17.8208 -17.8192 -17.8053 -17.7984 -17.7962 -17.7957
   -17.7953 -17.7951 -17.7928 -17.7889 -17.7808 -17.7788 -17.7619 -17.7596
   -17.7376 -17.7360 -17.7180 -17.7159 -17.7033 -17.7017 -17.6962 -17.6959
   -11.7595 -11.7287 -11.6927 -11.6593 -11.5687 -11.5218 -11.4990 -11.4917
   -11.4724 -11.4693 -11.4653 -11.4559 -11.4454 -11.4334 -11.4222 -11.3812
   -11.3669 -11.3551 -11.3490 -11.3339 -11.3192 -11.3037 -11.2951 -11.2885
   -11.2686 -11.2527 -11.2478 -11.2464 -11.2362 -11.2357 -11.2276 -11.2215
   -11.2173 -11.1844 -11.1785 -11.1664 -11.1653 -11.1521 -11.1467 -11.1432
   -11.1420 -11.1324 -11.1221 -11.1216 -11.0998 -11.0912 -11.0550 -11.0483
   -11.0371 -11.0328 -11.0015 -10.9556 -10.9467 -10.9182 -10.9052 -10.9002
   -10.8969 -10.8838 -10.8737 -10.8639 -10.8593 -10.8313 -10.8217 -10.8122
   -10.8083 -10.8011 -10.7924 -10.7891 -10.7879 -10.7869 -10.7856 -10.7793
   -10.7762 -10.7737 -10.7708 -10.7704 -10.7682 -10.7676 -10.7596 -10.7590
   -10.7571 -10.7493 -10.7203 -10.7199 -10.7194 -10.7185 -10.6042 -10.5327
   -10.5126 -10.5059 -10.4982 -10.4727 -10.4529 -10.4011 -10.3744 -10.3612
   -10.2836 -10.2423 -10.2018 -10.1616 -10.1281 -10.1134 -10.1060 -10.0981
   -10.0834 -10.0770 -10.0600 -10.0508 -10.0297 -10.0209 -10.0073 -10.0060
   -10.0048 -10.0024  -9.9899  -9.9803  -9.9551  -9.9407  -9.9045  -9.9027
    -9.9009  -9.8827  -9.8796  -9.8733  -9.8664  -9.8522  -9.8340  -9.8238
    -9.8201  -9.8113  -9.7746  -9.7705  -9.7521  -9.7441  -9.7381  -9.7368
    -9.7096  -9.7051  -9.6737  -9.6700  -9.6580  -9.6573  -9.6271  -9.6235
    -9.5945  -9.5918  -9.5853  -9.5790  -9.5445  -9.5407  -9.5296  -9.5230
    -9.5136  -9.5119  -9.5062  -9.4907  -9.4667  -9.4642  -9.4539  -9.4482
    -9.4462  -9.4415  -9.4352  -9.4315  -9.4304  -9.4091  -9.4073  -9.4001
    -9.3547  -9.3319  -9.3100  -9.2950  -9.2482  -9.2445  -9.2297  -9.1920
    -9.1851  -9.1787  -9.1703  -9.1617  -9.1568  -9.1425  -9.1263  -9.1129
    -9.1023  -9.0885  -9.0803  -9.0723  -9.0520  -9.0349  -9.0276  -9.0170
    -9.0128  -9.0084  -9.0060  -9.0014  -8.9598  -8.9547  -8.9511  -8.9398
    -8.9292  -8.9229  -8.9162  -8.9099  -8.9001  -8.8706  -8.8669  -8.8634
    -8.8627  -8.8621  -8.8565  -8.8501  -8.8495  -8.8465  -8.8443  -8.8377
    -8.8341  -8.8323  -8.8243  -8.8234  -8.8176  -8.8162  -8.8157  -8.8056
    -8.7880  -8.7845  -8.7687  -8.7673  -8.7652  -8.7609  -8.7602  -8.7593
    -8.7385  -8.7367  -8.7104  -8.7094  -8.7054  -8.7031  -8.6887  -8.6757
    -8.6610  -8.6312  -8.6233  -8.6010  -8.5676  -8.5497  -8.4804  -8.4784
    -8.4254  -8.4215  -8.4074  -8.3559  -8.3314  -8.3173  -8.3097  -8.2541
    -8.2360  -8.1768  -8.1172  -8.1046  -8.1042  -8.0990  -8.0949  -8.0917
    -8.0838  -8.0826  -8.0511  -8.0353  -8.0171  -7.9853  -7.9492  -7.9458
    -7.9166  -7.8791  -7.8577  -7.8225  -7.8192  -7.8168  -7.8086  -7.8073
    -7.7970  -7.7917  -7.7885  -7.7850  -7.7778  -7.7764  -7.7740  -7.7717
    -7.7678  -7.7661  -7.7611  -7.7587  -7.7571  -7.7498  -7.7483  -7.7454
    -7.7434  -7.7413  -7.7404  -7.7379  -7.7347  -7.7338  -7.7324  -7.7225
    -7.7132  -7.7115  -7.7043  -7.7013  -7.6965  -7.6930  -7.6731  -7.6726
    -7.6720  -7.6715  -7.6439  -7.6431  -7.6425  -7.6411  -7.6326  -7.6289
    -7.6249  -7.6046  -7.5933  -7.5879  -7.5851  -7.5840  -7.5825  -7.5770
    -7.5744  -7.5741  -7.5613  -7.5588  -7.5476  -7.5405  -7.5394  -7.5322
    -7.5264  -7.5228  -7.5036  -7.4592  -7.4381  -7.4354  -7.4313  -7.4263
    -7.4111  -7.3801  -7.3187  -7.2609  -7.1776  -7.1646  -7.1494  -7.1464
    -7.1431  -7.1336  -7.1091  -7.1019  -7.0948  -7.0889  -7.0761  -7.0711
    -7.0356  -7.0236  -7.0195  -7.0115  -6.9979  -6.9894  -6.9754  -6.9647
    -6.9555  -6.9522  -6.9423  -6.9070  -6.8912  -6.8828  -6.8701  -6.8595
    -6.8558  -6.8456  -6.8362  -6.8331  -6.8088  -6.8040  -6.7841  -6.7451
    -6.7428  -6.7272  -6.7121  -6.6936  -6.6595  -6.6536  -6.6216  -6.6151
    -6.5990  -6.5956  -6.5841  -6.5825  -6.5816  -6.5798  -6.5749  -6.5650
    -6.5640  -6.5631  -6.5623  -6.5557  -6.5555  -6.5554  -6.5551  -6.5223
    -6.5155  -6.4946  -6.4809  -6.4641  -6.4275  -6.4033  -6.3900  -6.3530
    -6.3030  -6.2998  -6.2949  -6.2921  -6.2802  -6.2730  -6.2542  -6.2538
    -6.2527  -6.2494  -6.2489  -6.2470  -6.2324  -6.2272  -6.2250  -6.2143
    -6.2030  -6.1912  -6.1817  -6.1794  -6.1726  -6.1704  -6.0549  -6.0163
    -5.9773  -5.9624  -5.9471  -5.9213  -5.8952  -5.8844  -5.8365  -5.8294
    -5.8198  -5.7443  -5.7381  -5.6694  -5.6330  -5.5789  -5.5720  -5.5464
    -5.4248  -5.3554  -4.0903  -4.0701  -4.0651  -4.0629  -3.9871  -3.9209
    -3.9027  -3.8991  -3.8888  -3.8857  -3.8209  -3.8184  -3.8155  -3.8073
    -3.7999  -3.7891  -3.7837  -3.7747  -3.7737  -3.7713  -3.7011  -3.6764
    -3.6639  -3.6606  -3.6143  -3.5903  -3.5798  -3.5773  -3.5742  -3.5723
    -3.5295  -3.5259  -3.5216  -3.5131  -3.4989  -3.4976  -3.4903  -3.4861
    -3.4800  -3.4671  -3.4591  -3.4557  -3.4503  -3.4479  -3.4473  -3.4406
    -3.4325  -3.4238  -3.4173  -3.4100  -3.3987  -3.3957  -3.3899  -3.3821
    -3.3500  -3.3441  -3.3300  -3.3241  -3.3213  -3.3195  -3.3189  -3.3163
    -3.3116  -3.2852  -3.2788  -3.2714  -3.2646  -3.2611  -3.2562  -3.2539
    -3.2519  -3.2507  -3.2464  -3.2305  -3.2203  -3.2179  -3.2107  -3.2073
    -3.2024  -3.1961  -3.1879  -3.1857  -3.1843  -3.1765  -3.1679  -3.1589
    -3.1550  -3.1463  -3.1448  -3.1385  -3.1369  -3.1368  -3.1303  -3.1265
    -3.0821  -3.0776  -3.0623  -3.0487  -3.0446  -3.0427  -3.0395  -3.0353
    -2.9999  -2.9986  -2.9980  -2.9973  -2.9960  -2.9957  -2.9864  -2.9861
    -2.9848  -2.9825  -2.9778  -2.9717  -2.9657  -2.9609  -2.9571  -2.9510
    -2.9484  -2.9467  -2.9447  -2.9429  -2.9360  -2.9341  -2.9257  -2.9221
    -2.9200  -2.9150  -2.9104  -2.9057  -2.8986  -2.8904  -2.8774  -2.8676
    -2.8622  -2.8599  -2.8535  -2.8496  -2.8423  -2.8270  -2.7738  -2.7689
    -2.7656  -2.7611  -2.7123  -2.7092  -2.6886  -2.6878  -2.5901  -2.5856
    -2.5596  -2.5498  -2.5355  -2.5264  -2.5196  -2.5149  -2.5137  -2.5085
    -2.5005  -2.4999  -2.4963  -2.4950  -2.3872  -2.3771  -2.3718  -2.3662
    -2.3531  -2.3435  -2.3247  -2.3206

          k =-0.5000-0.2887 0.0000 (386352 PWs)   bands (ev):

   -88.8117 -88.4565 -66.5960 -66.5960 -66.5959 -66.5957 -66.5947 -66.5946
   -66.5945 -66.5861 -66.5854 -66.5853 -66.5852 -66.5852 -66.5840 -66.5840
   -66.5790 -66.5764 -66.5703 -66.5703 -66.5703 -66.5703 -66.5702 -66.5702
   -66.5702 -66.5698 -66.5698 -66.5689 -66.5689 -66.5689 -66.5689 -66.5658
   -66.5658 -66.5657 -66.5655 -66.5645 -66.5644 -66.5643 -66.5631 -66.5598
   -66.5596 -66.5596 -66.5596 -66.5595 -66.5595 -66.5594 -66.5593 -66.5589
   -66.5582 -66.5582 -66.5582 -66.5581 -66.5551 -66.5551 -66.5549 -66.5549
   -66.5537 -66.5537 -66.5524 -66.5482 -66.5464 -66.5426 -66.5411 -66.5399
   -66.5347 -66.5265 -54.6552 -54.6061 -54.5668 -54.3188 -54.2348 -54.2110
   -40.9025 -40.8980 -40.8980 -40.8980 -40.8980 -40.8980 -40.8977 -40.8977
   -40.8974 -40.8973 -40.8973 -40.8973 -40.8972 -40.8871 -40.8773 -40.8712
   -40.8712 -40.8710 -40.8707 -40.8705 -40.8704 -40.8689 -40.8622 -40.8591
   -40.8591 -40.8588 -40.8588 -40.8584 -40.8584 -40.8579 -40.8439 -40.8350
   -40.8084 -40.8084 -40.8084 -40.8084 -40.8082 -40.8081 -40.8081 -40.8081
   -40.8076 -40.8076 -40.8076 -40.8076 -40.7957 -40.7935 -40.7896 -40.7861
   -40.7602 -40.7531 -40.7496 -40.7496 -40.7496 -40.7492 -40.7489 -40.7489
   -40.7402 -40.7401 -40.7399 -40.7398 -40.7392 -40.7392 -40.7371 -40.7308
   -40.7287 -40.7287 -40.7286 -40.7285 -40.7280 -40.7280 -40.7223 -40.7174
   -40.7160 -40.7065 -40.7014 -40.6992 -40.6992 -40.6991 -40.6991 -40.6991
   -40.6991 -40.6987 -40.6987 -40.6984 -40.6984 -40.6984 -40.6984 -40.6928
   -40.6911 -40.6904 -40.6904 -40.6904 -40.6900 -40.6897 -40.6896 -40.6859
   -40.6839 -40.6797 -40.6787 -40.6787 -40.6784 -40.6784 -40.6783 -40.6781
   -40.6781 -40.6781 -40.6780 -40.6780 -40.6779 -40.6777 -40.6777 -40.6774
   -40.6774 -40.6773 -40.6773 -40.6773 -40.6768 -40.6739 -40.6694 -40.6694
   -40.6692 -40.6692 -40.6686 -40.6686 -40.6649 -40.6639 -40.6625 -40.6588
   -40.6478 -40.6477 -40.6477 -40.6477 -40.6477 -40.6475 -40.6474 -40.6471
   -40.6468 -40.6468 -40.6467 -40.6467 -40.6391 -40.6356 -40.6289 -40.6246
   -40.6130 -40.6130 -40.6130 -40.6130 -40.6128 -40.6127 -40.6127 -40.6126
   -40.6120 -40.6120 -40.6120 -40.6120 -40.6009 -40.6008 -40.6007 -40.6005
   -40.5999 -40.5998 -40.5998 -40.5958 -40.5940 -40.5934 -40.5912 -40.5815
   -40.5815 -40.5814 -40.5811 -40.5805 -40.5805 -40.5710 -40.5668 -40.5645
   -40.5645 -40.5642 -40.5642 -40.5635 -40.5635 -40.5629 -40.5467 -40.5459
   -40.5339 -40.5338 -40.5337 -40.5335 -40.5328 -40.5328 -40.5214 -40.5040
   -19.9269 -19.8626 -19.8391 -19.8006 -19.7388 -19.7099 -19.6329 -19.6224
   -19.4569 -19.4344 -19.3990 -19.3838 -19.3068 -19.2948 -19.2066 -19.2013
   -18.9806 -18.7889 -18.7616 -18.7429 -18.7179 -18.7122 -18.7000 -18.6923
   -18.6863 -18.6774 -18.6624 -18.6340 -18.6262 -18.6169 -18.6099 -18.5936
   -18.5582 -18.5547 -18.5408 -18.5285 -18.5223 -18.5216 -18.5134 -18.4915
   -18.4691 -18.4577 -18.4538 -18.4529 -18.4425 -18.4099 -18.3877 -18.3828
   -18.3757 -18.3548 -18.3487 -18.3287 -18.3053 -18.2895 -18.2819 -18.2621
   -18.2329 -18.2213 -18.2106 -18.2053 -18.1799 -18.1624 -18.1413 -18.1374
   -18.1197 -18.0992 -18.0894 -18.0849 -18.0785 -18.0777 -18.0755 -18.0730
   -18.0506 -18.0497 -18.0484 -18.0471 -18.0435 -18.0410 -18.0345 -18.0262
   -18.0236 -18.0160 -18.0086 -18.0066 -17.9887 -17.9833 -17.9792 -17.9766
   -17.9763 -17.9730 -17.9677 -17.9651 -17.9627 -17.9526 -17.9309 -17.9136
   -17.9122 -17.9100 -17.9012 -17.8951 -17.8709 -17.8622 -17.8556 -17.8522
   -17.8258 -17.8243 -17.8176 -17.8166 -17.8059 -17.8011 -17.7967 -17.7955
   -17.7945 -17.7943 -17.7932 -17.7917 -17.7800 -17.7790 -17.7600 -17.7589
   -17.7372 -17.7362 -17.7190 -17.7176 -17.7043 -17.7036 -17.6963 -17.6962
   -11.7904 -11.7528 -11.6943 -11.6490 -11.5372 -11.5113 -11.4933 -11.4913
   -11.4752 -11.4677 -11.4588 -11.4547 -11.4294 -11.4194 -11.4168 -11.3744
   -11.3655 -11.3623 -11.3471 -11.3203 -11.3150 -11.3086 -11.3028 -11.2900
   -11.2635 -11.2603 -11.2503 -11.2401 -11.2364 -11.2349 -11.2327 -11.2294
   -11.2230 -11.1814 -11.1805 -11.1698 -11.1639 -11.1498 -11.1456 -11.1441
   -11.1425 -11.1255 -11.1240 -11.1215 -11.1040 -11.0955 -11.0550 -11.0521
   -11.0421 -11.0387 -10.9865 -10.9708 -10.9441 -10.9295 -10.9101 -10.9006
   -10.8979 -10.8890 -10.8680 -10.8575 -10.8403 -10.8325 -10.8153 -10.8110
   -10.8080 -10.8052 -10.7978 -10.7883 -10.7873 -10.7870 -10.7865 -10.7798
   -10.7738 -10.7724 -10.7710 -10.7687 -10.7680 -10.7672 -10.7598 -10.7586
   -10.7556 -10.7445 -10.7205 -10.7197 -10.7193 -10.7179 -10.6604 -10.5438
   -10.5125 -10.5085 -10.5025 -10.4871 -10.4535 -10.4153 -10.3611 -10.3368
   -10.2809 -10.2250 -10.1657 -10.1529 -10.1338 -10.1241 -10.1155 -10.0944
   -10.0855 -10.0742 -10.0684 -10.0356 -10.0282 -10.0182 -10.0094 -10.0068
    -9.9995  -9.9929  -9.9889  -9.9814  -9.9488  -9.9447  -9.9141  -9.9116
    -9.8915  -9.8897  -9.8842  -9.8795  -9.8727  -9.8682  -9.8505  -9.8262
    -9.8178  -9.7920  -9.7852  -9.7699  -9.7642  -9.7495  -9.7466  -9.7296
    -9.7180  -9.6995  -9.6963  -9.6757  -9.6615  -9.6466  -9.6319  -9.6304
    -9.6009  -9.5973  -9.5865  -9.5776  -9.5500  -9.5321  -9.5263  -9.5207
    -9.5199  -9.5122  -9.5042  -9.4867  -9.4677  -9.4634  -9.4548  -9.4507
    -9.4489  -9.4384  -9.4339  -9.4328  -9.4114  -9.4069  -9.4036  -9.4020
    -9.3410  -9.3382  -9.2818  -9.2670  -9.2555  -9.2529  -9.2050  -9.1908
    -9.1888  -9.1745  -9.1721  -9.1589  -9.1529  -9.1413  -9.1181  -9.1133
    -9.1013  -9.0954  -9.0730  -9.0632  -9.0581  -9.0324  -9.0274  -9.0202
    -9.0128  -9.0105  -9.0012  -8.9984  -8.9698  -8.9657  -8.9488  -8.9318
    -8.9287  -8.9231  -8.9213  -8.9136  -8.8960  -8.8845  -8.8674  -8.8658
    -8.8634  -8.8585  -8.8530  -8.8528  -8.8509  -8.8472  -8.8451  -8.8400
    -8.8394  -8.8338  -8.8203  -8.8187  -8.8171  -8.8165  -8.8137  -8.7990
    -8.7965  -8.7811  -8.7697  -8.7668  -8.7639  -8.7601  -8.7589  -8.7581
    -8.7393  -8.7340  -8.7098  -8.7077  -8.7029  -8.7021  -8.6914  -8.6751
    -8.6594  -8.6293  -8.6289  -8.5902  -8.5740  -8.5489  -8.4792  -8.4786
    -8.4214  -8.4167  -8.3922  -8.3568  -8.3341  -8.3290  -8.2632  -8.2605
    -8.2469  -8.2140  -8.1381  -8.1051  -8.1041  -8.0994  -8.0944  -8.0908
    -8.0834  -8.0822  -8.0626  -8.0416  -7.9919  -7.9833  -7.9635  -7.9461
    -7.9419  -7.9072  -7.8580  -7.8265  -7.8181  -7.8170  -7.8118  -7.8036
    -7.7955  -7.7920  -7.7883  -7.7799  -7.7788  -7.7757  -7.7700  -7.7670
    -7.7663  -7.7617  -7.7606  -7.7573  -7.7568  -7.7493  -7.7457  -7.7454
    -7.7428  -7.7417  -7.7409  -7.7353  -7.7348  -7.7336  -7.7272  -7.7143
    -7.7129  -7.7115  -7.7082  -7.7001  -7.6991  -7.6902  -7.6834  -7.6736
    -7.6718  -7.6708  -7.6690  -7.6432  -7.6425  -7.6410  -7.6410  -7.6356
    -7.6232  -7.6144  -7.5955  -7.5871  -7.5847  -7.5825  -7.5794  -7.5736
    -7.5712  -7.5689  -7.5620  -7.5584  -7.5406  -7.5394  -7.5316  -7.5315
    -7.5233  -7.5208  -7.5154  -7.4389  -7.4371  -7.4335  -7.4288  -7.4226
    -7.3910  -7.3719  -7.3261  -7.2490  -7.2014  -7.1658  -7.1458  -7.1435
    -7.1424  -7.1370  -7.1222  -7.0961  -7.0883  -7.0828  -7.0815  -7.0727
    -7.0553  -7.0206  -7.0092  -7.0020  -7.0003  -6.9972  -6.9765  -6.9533
    -6.9457  -6.9293  -6.9253  -6.9083  -6.8913  -6.8865  -6.8658  -6.8601
    -6.8532  -6.8409  -6.8361  -6.8270  -6.8249  -6.8116  -6.7896  -6.7553
    -6.7335  -6.7279  -6.7203  -6.6758  -6.6538  -6.6390  -6.6271  -6.6126
    -6.5986  -6.5939  -6.5863  -6.5827  -6.5823  -6.5801  -6.5795  -6.5662
    -6.5649  -6.5635  -6.5629  -6.5568  -6.5560  -6.5555  -6.5553  -6.5548
    -6.5448  -6.5093  -6.4826  -6.4637  -6.4172  -6.3932  -6.3536  -6.3097
    -6.3022  -6.3004  -6.2945  -6.2901  -6.2845  -6.2777  -6.2639  -6.2550
    -6.2526  -6.2512  -6.2490  -6.2482  -6.2431  -6.2348  -6.2260  -6.2075
    -6.2037  -6.1978  -6.1851  -6.1800  -6.1749  -6.1726  -6.1411  -6.0711
    -5.9676  -5.9659  -5.9299  -5.9084  -5.8982  -5.8471  -5.8408  -5.8235
    -5.8102  -5.7462  -5.7366  -5.6481  -5.6239  -5.5732  -5.5645  -5.5415
    -5.4216  -5.3562  -4.0888  -4.0729  -4.0629  -4.0613  -3.9666  -3.9316
    -3.9041  -3.8984  -3.8855  -3.8817  -3.8239  -3.8186  -3.8117  -3.8054
    -3.7948  -3.7894  -3.7820  -3.7768  -3.7733  -3.7707  -3.7116  -3.6765
    -3.6593  -3.6534  -3.6037  -3.5931  -3.5822  -3.5817  -3.5738  -3.5735
    -3.5305  -3.5265  -3.5243  -3.5176  -3.5080  -3.4992  -3.4900  -3.4880
    -3.4845  -3.4622  -3.4601  -3.4568  -3.4503  -3.4484  -3.4465  -3.4421
    -3.4261  -3.4251  -3.4213  -3.4103  -3.4078  -3.3995  -3.3917  -3.3862
    -3.3734  -3.3386  -3.3280  -3.3255  -3.3214  -3.3182  -3.3151  -3.3137
    -3.3116  -3.2963  -3.2846  -3.2688  -3.2607  -3.2577  -3.2546  -3.2534
    -3.2530  -3.2506  -3.2498  -3.2284  -3.2182  -3.2171  -3.2134  -3.2055
    -3.2008  -3.1992  -3.1920  -3.1862  -3.1857  -3.1761  -3.1652  -3.1623
    -3.1531  -3.1493  -3.1470  -3.1394  -3.1369  -3.1369  -3.1341  -3.1189
    -3.0785  -3.0749  -3.0536  -3.0502  -3.0489  -3.0417  -3.0410  -3.0341
    -3.0028  -3.0002  -2.9988  -2.9965  -2.9956  -2.9949  -2.9896  -2.9884
    -2.9823  -2.9787  -2.9774  -2.9699  -2.9652  -2.9648  -2.9603  -2.9567
    -2.9507  -2.9444  -2.9423  -2.9393  -2.9379  -2.9367  -2.9233  -2.9221
    -2.9197  -2.9159  -2.9133  -2.9055  -2.9030  -2.8832  -2.8782  -2.8736
    -2.8585  -2.8543  -2.8524  -2.8465  -2.8408  -2.8293  -2.7742  -2.7700
    -2.7613  -2.7598  -2.7092  -2.6988  -2.6933  -2.6905  -2.5918  -2.5845
    -2.5623  -2.5480  -2.5401  -2.5292  -2.5193  -2.5163  -2.5070  -2.5032
    -2.5004  -2.4996  -2.4977  -2.4878  -2.3893  -2.3748  -2.3685  -2.3654
    -2.3559  -2.3549  -2.3180  -2.3172

          k =-0.5000-0.8660 0.0000 (386352 PWs)   bands (ev):

   -88.8117 -88.4565 -66.5960 -66.5960 -66.5959 -66.5957 -66.5947 -66.5947
   -66.5922 -66.5909 -66.5854 -66.5853 -66.5852 -66.5851 -66.5840 -66.5840
   -66.5768 -66.5733 -66.5703 -66.5702 -66.5702 -66.5702 -66.5702 -66.5701
   -66.5700 -66.5700 -66.5689 -66.5689 -66.5689 -66.5689 -66.5683 -66.5681
   -66.5658 -66.5658 -66.5658 -66.5658 -66.5655 -66.5645 -66.5644 -66.5596
   -66.5596 -66.5595 -66.5595 -66.5595 -66.5594 -66.5592 -66.5591 -66.5585
   -66.5582 -66.5582 -66.5582 -66.5582 -66.5551 -66.5551 -66.5550 -66.5548
   -66.5537 -66.5537 -66.5528 -66.5467 -66.5459 -66.5438 -66.5403 -66.5397
   -66.5356 -66.5264 -54.6552 -54.6061 -54.5668 -54.3188 -54.2348 -54.2110
   -40.8980 -40.8980 -40.8980 -40.8980 -40.8978 -40.8977 -40.8976 -40.8975
   -40.8973 -40.8973 -40.8973 -40.8973 -40.8933 -40.8899 -40.8794 -40.8776
   -40.8712 -40.8712 -40.8710 -40.8707 -40.8705 -40.8704 -40.8647 -40.8625
   -40.8591 -40.8591 -40.8589 -40.8587 -40.8584 -40.8584 -40.8426 -40.8252
   -40.8084 -40.8084 -40.8084 -40.8084 -40.8082 -40.8082 -40.8081 -40.8081
   -40.8076 -40.8076 -40.8076 -40.8076 -40.7959 -40.7889 -40.7883 -40.7856
   -40.7609 -40.7503 -40.7496 -40.7496 -40.7495 -40.7493 -40.7489 -40.7489
   -40.7417 -40.7402 -40.7401 -40.7399 -40.7398 -40.7392 -40.7392 -40.7296
   -40.7287 -40.7287 -40.7286 -40.7285 -40.7280 -40.7280 -40.7254 -40.7193
   -40.7130 -40.7062 -40.6991 -40.6991 -40.6991 -40.6991 -40.6990 -40.6989
   -40.6989 -40.6989 -40.6987 -40.6984 -40.6984 -40.6984 -40.6984 -40.6981
   -40.6943 -40.6904 -40.6904 -40.6903 -40.6901 -40.6897 -40.6896 -40.6874
   -40.6805 -40.6787 -40.6787 -40.6784 -40.6784 -40.6781 -40.6781 -40.6781
   -40.6781 -40.6781 -40.6780 -40.6778 -40.6777 -40.6777 -40.6777 -40.6773
   -40.6773 -40.6773 -40.6773 -40.6771 -40.6757 -40.6727 -40.6694 -40.6694
   -40.6692 -40.6692 -40.6690 -40.6686 -40.6686 -40.6670 -40.6611 -40.6604
   -40.6478 -40.6477 -40.6477 -40.6477 -40.6477 -40.6475 -40.6474 -40.6472
   -40.6468 -40.6468 -40.6467 -40.6467 -40.6349 -40.6337 -40.6319 -40.6299
   -40.6130 -40.6130 -40.6130 -40.6130 -40.6128 -40.6127 -40.6127 -40.6126
   -40.6120 -40.6120 -40.6120 -40.6120 -40.6008 -40.6008 -40.6007 -40.6004
   -40.5998 -40.5998 -40.5991 -40.5960 -40.5949 -40.5913 -40.5887 -40.5815
   -40.5815 -40.5814 -40.5811 -40.5805 -40.5805 -40.5760 -40.5685 -40.5645
   -40.5645 -40.5643 -40.5642 -40.5635 -40.5635 -40.5577 -40.5453 -40.5398
   -40.5339 -40.5338 -40.5337 -40.5335 -40.5328 -40.5328 -40.5193 -40.5111
   -19.9226 -19.8641 -19.8386 -19.8042 -19.7386 -19.7132 -19.6329 -19.6235
   -19.4564 -19.4320 -19.3990 -19.3811 -19.3071 -19.2930 -19.2068 -19.2007
   -18.9747 -18.8024 -18.7694 -18.7344 -18.7196 -18.7110 -18.7001 -18.6936
   -18.6858 -18.6760 -18.6571 -18.6362 -18.6273 -18.6170 -18.6066 -18.5933
   -18.5652 -18.5515 -18.5434 -18.5292 -18.5268 -18.5218 -18.5033 -18.4910
   -18.4889 -18.4539 -18.4493 -18.4492 -18.4428 -18.4125 -18.3871 -18.3835
   -18.3809 -18.3538 -18.3409 -18.3248 -18.3082 -18.2948 -18.2771 -18.2478
   -18.2273 -18.2238 -18.2177 -18.2064 -18.1734 -18.1593 -18.1562 -18.1323
   -18.1093 -18.0971 -18.0876 -18.0864 -18.0793 -18.0775 -18.0746 -18.0719
   -18.0625 -18.0490 -18.0474 -18.0459 -18.0432 -18.0391 -18.0318 -18.0264
   -18.0249 -18.0199 -18.0145 -18.0060 -17.9858 -17.9830 -17.9813 -17.9775
   -17.9754 -17.9739 -17.9706 -17.9640 -17.9638 -17.9541 -17.9217 -17.9176
   -17.9127 -17.9112 -17.9043 -17.8949 -17.8675 -17.8648 -17.8594 -17.8524
   -17.8253 -17.8232 -17.8205 -17.8171 -17.8046 -17.7986 -17.7961 -17.7957
   -17.7954 -17.7946 -17.7932 -17.7903 -17.7803 -17.7791 -17.7621 -17.7592
   -17.7385 -17.7353 -17.7194 -17.7150 -17.7041 -17.7011 -17.6963 -17.6957
   -11.7633 -11.7269 -11.6931 -11.6586 -11.5528 -11.5261 -11.5013 -11.4924
   -11.4737 -11.4681 -11.4658 -11.4561 -11.4442 -11.4363 -11.4209 -11.3839
   -11.3677 -11.3574 -11.3476 -11.3312 -11.3182 -11.3053 -11.2964 -11.2885
   -11.2706 -11.2530 -11.2468 -11.2458 -11.2370 -11.2350 -11.2279 -11.2219
   -11.2181 -11.1846 -11.1787 -11.1669 -11.1649 -11.1511 -11.1464 -11.1434
   -11.1421 -11.1318 -11.1223 -11.1213 -11.1006 -11.0913 -11.0577 -11.0496
   -11.0360 -11.0339 -10.9974 -10.9575 -10.9459 -10.9180 -10.9046 -10.8971
   -10.8948 -10.8883 -10.8678 -10.8613 -10.8547 -10.8329 -10.8290 -10.8113
   -10.8102 -10.8027 -10.7925 -10.7898 -10.7876 -10.7869 -10.7852 -10.7837
   -10.7766 -10.7722 -10.7708 -10.7694 -10.7686 -10.7673 -10.7595 -10.7586
   -10.7557 -10.7536 -10.7203 -10.7198 -10.7193 -10.7190 -10.6055 -10.5463
   -10.5114 -10.5068 -10.4997 -10.4792 -10.4569 -10.4149 -10.3675 -10.3235
   -10.2577 -10.2400 -10.2056 -10.1935 -10.1264 -10.1171 -10.1047 -10.1001
   -10.0796 -10.0775 -10.0590 -10.0501 -10.0294 -10.0208 -10.0089 -10.0058
   -10.0026 -10.0014  -9.9878  -9.9789  -9.9583  -9.9393  -9.9061  -9.9053
    -9.8984  -9.8840  -9.8797  -9.8740  -9.8665  -9.8517  -9.8346  -9.8235
    -9.8205  -9.8033  -9.7763  -9.7708  -9.7500  -9.7464  -9.7402  -9.7352
    -9.7115  -9.7035  -9.6780  -9.6674  -9.6599  -9.6548  -9.6276  -9.6242
    -9.5942  -9.5889  -9.5866  -9.5757  -9.5485  -9.5410  -9.5290  -9.5212
    -9.5149  -9.5120  -9.5029  -9.4922  -9.4668  -9.4640  -9.4555  -9.4481
    -9.4460  -9.4414  -9.4350  -9.4310  -9.4297  -9.4087  -9.4067  -9.3995
    -9.3540  -9.3308  -9.3085  -9.2818  -9.2497  -9.2445  -9.2263  -9.1917
    -9.1849  -9.1805  -9.1772  -9.1672  -9.1558  -9.1387  -9.1274  -9.1150
    -9.1009  -9.0856  -9.0794  -9.0733  -9.0512  -9.0456  -9.0294  -9.0156
    -9.0116  -9.0090  -9.0045  -8.9986  -8.9624  -8.9552  -8.9481  -8.9446
    -8.9300  -8.9218  -8.9171  -8.9120  -8.8993  -8.8720  -8.8665  -8.8654
    -8.8638  -8.8616  -8.8581  -8.8509  -8.8480  -8.8462  -8.8443  -8.8383
    -8.8351  -8.8332  -8.8252  -8.8205  -8.8165  -8.8161  -8.8146  -8.8069
    -8.7900  -8.7820  -8.7691  -8.7661  -8.7644  -8.7628  -8.7603  -8.7585
    -8.7390  -8.7359  -8.7101  -8.7088  -8.7044  -8.7042  -8.6904  -8.6772
    -8.6619  -8.6313  -8.6230  -8.6022  -8.5660  -8.5498  -8.4805  -8.4783
    -8.4244  -8.4187  -8.3918  -8.3631  -8.3348  -8.3182  -8.3090  -8.2551
    -8.2325  -8.1930  -8.1242  -8.1046  -8.1042  -8.0975  -8.0949  -8.0893
    -8.0838  -8.0818  -8.0479  -8.0349  -8.0182  -7.9884  -7.9493  -7.9462
    -7.9239  -7.8853  -7.8493  -7.8270  -7.8208  -7.8171  -7.8111  -7.8060
    -7.7976  -7.7889  -7.7857  -7.7820  -7.7793  -7.7771  -7.7741  -7.7708
    -7.7681  -7.7639  -7.7617  -7.7595  -7.7575  -7.7529  -7.7470  -7.7456
    -7.7440  -7.7412  -7.7405  -7.7397  -7.7348  -7.7340  -7.7299  -7.7204
    -7.7125  -7.7102  -7.7035  -7.7003  -7.6942  -7.6925  -7.6732  -7.6727
    -7.6720  -7.6708  -7.6438  -7.6431  -7.6427  -7.6411  -7.6300  -7.6289
    -7.6235  -7.6021  -7.5992  -7.5885  -7.5848  -7.5838  -7.5795  -7.5746
    -7.5734  -7.5712  -7.5613  -7.5583  -7.5496  -7.5405  -7.5397  -7.5310
    -7.5259  -7.5212  -7.5084  -7.4504  -7.4350  -7.4339  -7.4319  -7.4259
    -7.4113  -7.3717  -7.3047  -7.2592  -7.1954  -7.1692  -7.1486  -7.1461
    -7.1442  -7.1352  -7.1173  -7.0986  -7.0929  -7.0883  -7.0802  -7.0743
    -7.0441  -7.0240  -7.0147  -7.0086  -7.0007  -6.9963  -6.9708  -6.9658
    -6.9528  -6.9420  -6.9391  -6.9113  -6.8929  -6.8896  -6.8710  -6.8648
    -6.8539  -6.8418  -6.8356  -6.8318  -6.8109  -6.8022  -6.7817  -6.7532
    -6.7418  -6.7261  -6.7192  -6.6799  -6.6578  -6.6475  -6.6247  -6.6040
    -6.6036  -6.5985  -6.5858  -6.5825  -6.5818  -6.5799  -6.5779  -6.5656
    -6.5641  -6.5634  -6.5626  -6.5559  -6.5555  -6.5554  -6.5552  -6.5379
    -6.5087  -6.5008  -6.4800  -6.4570  -6.4216  -6.4042  -6.3894  -6.3626
    -6.3021  -6.2997  -6.2948  -6.2928  -6.2802  -6.2756  -6.2539  -6.2535
    -6.2510  -6.2492  -6.2487  -6.2454  -6.2328  -6.2279  -6.2256  -6.2154
    -6.1991  -6.1896  -6.1818  -6.1800  -6.1706  -6.1683  -6.0697  -6.0051
    -5.9734  -5.9598  -5.9454  -5.9189  -5.8917  -5.8866  -5.8364  -5.8291
    -5.8198  -5.7470  -5.7386  -5.6696  -5.6344  -5.5783  -5.5722  -5.5465
    -5.4279  -5.3546  -4.0908  -4.0714  -4.0662  -4.0617  -3.9894  -3.9186
    -3.9021  -3.8987  -3.8917  -3.8845  -3.8212  -3.8177  -3.8165  -3.8071
    -3.8007  -3.7891  -3.7845  -3.7749  -3.7733  -3.7715  -3.6998  -3.6764
    -3.6650  -3.6576  -3.6186  -3.5910  -3.5790  -3.5778  -3.5741  -3.5725
    -3.5299  -3.5261  -3.5233  -3.5117  -3.4992  -3.4964  -3.4899  -3.4863
    -3.4767  -3.4685  -3.4588  -3.4554  -3.4496  -3.4483  -3.4469  -3.4409
    -3.4343  -3.4237  -3.4164  -3.4130  -3.4000  -3.3952  -3.3900  -3.3812
    -3.3453  -3.3424  -3.3288  -3.3252  -3.3213  -3.3197  -3.3181  -3.3155
    -3.3115  -3.2844  -3.2785  -3.2699  -3.2635  -3.2600  -3.2567  -3.2539
    -3.2512  -3.2503  -3.2465  -3.2274  -3.2228  -3.2142  -3.2131  -3.2066
    -3.2040  -3.1968  -3.1875  -3.1852  -3.1838  -3.1722  -3.1688  -3.1590
    -3.1544  -3.1472  -3.1427  -3.1373  -3.1370  -3.1364  -3.1354  -3.1285
    -3.0788  -3.0774  -3.0584  -3.0496  -3.0466  -3.0421  -3.0403  -3.0356
    -3.0004  -2.9992  -2.9981  -2.9969  -2.9960  -2.9958  -2.9859  -2.9849
    -2.9840  -2.9816  -2.9778  -2.9738  -2.9656  -2.9609  -2.9556  -2.9533
    -2.9503  -2.9464  -2.9452  -2.9434  -2.9355  -2.9328  -2.9255  -2.9222
    -2.9199  -2.9160  -2.9092  -2.9057  -2.8973  -2.8906  -2.8778  -2.8687
    -2.8642  -2.8597  -2.8511  -2.8482  -2.8426  -2.8378  -2.7738  -2.7694
    -2.7663  -2.7606  -2.7107  -2.7089  -2.6904  -2.6857  -2.5929  -2.5848
    -2.5621  -2.5488  -2.5343  -2.5292  -2.5179  -2.5166  -2.5136  -2.5047
    -2.5021  -2.5001  -2.4958  -2.4880  -2.3849  -2.3756  -2.3703  -2.3657
    -2.3580  -2.3503  -2.3195  -2.3176

     the Fermi energy is    -4.6235 ev

!    total energy              =  -32817.61641024 Ry
     total all-electron energy =   -640670.803286 Ry
     estimated scf accuracy    <       0.00000071 Ry
     smearing contrib. (-TS)   =      -0.00000000 Ry
     internal energy E=F+TS    =  -32817.61641024 Ry

[...]
     atom  163 type  1   force =     0.00000975   -0.00000146    0.00000074
     atom  164 type  1   force =     0.00009714    0.00006301   -0.00237447
     atom  165 type  2   force =     0.00000473    0.00000182   -0.00011393
     atom  166 type  2   force =    -0.00000653   -0.00000474    0.00004486
     atom  167 type  2   force =     0.00000014    0.00000011   -0.00009279
     atom  168 type  2   force =    -0.00027580   -0.00002133   -0.00429988
     atom  169 type  1   force =    -0.00000006   -0.00000003    0.00255971
     atom  170 type  1   force =     0.00000003    0.00000001    0.00001122
     atom  171 type  2   force =    -0.00000001    0.00000001   -0.00003361
     atom  172 type  2   force =     0.00000001    0.00000001    0.00017161
     atom  173 type  2   force =     0.00000003    0.00000002    0.00441470
     atom  174 type  2   force =    -0.00000009   -0.00000010    0.00009573
     atom  175 type  1   force =     0.00001190    0.00000654   -0.00000920
     atom  176 type  1   force =    -0.00008487   -0.00003300   -0.00237210
     atom  177 type  2   force =     0.00000208    0.00000013   -0.00007058
     atom  178 type  2   force =     0.00001481    0.00000362    0.00003992
     atom  179 type  2   force =     0.00000073    0.00000071   -0.00009376
     atom  180 type  2   force =    -0.00047217   -0.00027294   -0.00420971
     atom  181 type  1   force =    -0.00000004   -0.00000002    0.00255974
     atom  182 type  1   force =    -0.00000005    0.00000004    0.00001120
     atom  183 type  2   force =    -0.00000000   -0.00000002   -0.00003358
     atom  184 type  2   force =     0.00000001    0.00000001    0.00017162
     atom  185 type  2   force =     0.00000003    0.00000002    0.00441470
     atom  186 type  2   force =    -0.00000017   -0.00000011    0.00009565
     atom  187 type  1   force =     0.00000377    0.00000899   -0.00000022
     atom  188 type  1   force =    -0.00007235   -0.00005756   -0.00237251
     atom  189 type  2   force =     0.00000523    0.00000764   -0.00011332
     atom  190 type  2   force =     0.00001138    0.00001064    0.00003973
     atom  191 type  2   force =     0.00000088    0.00000044   -0.00009387
     atom  192 type  2   force =    -0.00016098   -0.00022913   -0.00430055
     atom  193 type  3   force =     0.00008058   -0.00011681   -0.00626880
     atom  194 type  3   force =    -0.00006274    0.00012818   -0.00626882

     Total force =     0.003226     Total SCF correction =     0.000356
     SCF correction compared to forces is large: reduce conv_thr to get better values
     Energy error            =      2.7E-05 Ry
     Gradient error          =      8.4E-04 Ry/Bohr

     bfgs converged in  38 scf cycles and  37 bfgs steps
     (criteria: energy <  1.0E-04 Ry, force <  1.0E-03 Ry/Bohr)

     End of BFGS Geometry Optimization

     Final energy             =  -32817.6193860124 Ry

     File ./outdir/pwscf.bfgs deleted, as requested
Begin final coordinates

ATOMIC_POSITIONS (angstrom)
Mo            0.0000119917        1.8193638619       -9.1672481230    0   0   0
Mo            1.5756136568        0.9097075315       -3.0554901653    0   0   0
S             0.0000188998        1.8193822938       -4.6232556019    0   0   0
S             1.5756321638        0.9096773839       -7.6014065489    0   0   0
S             1.5756326175        0.9096785128      -10.7330757790    0   0   0
S             0.0000189190        1.8193860094       -1.4877129945    0   0   0
Mo           -0.0008997122        1.8186074281        3.0579012715
Mo            1.5574061745        0.8913202892        9.1732407012
S            -0.0133128941        1.7998223926        7.5882005566
S             1.5752394609        0.9089499632        4.6250665128
S             1.5745726553        0.9090145016        1.4896465889
S            -0.0291521768        1.7942094414       10.7313954057
Mo           -1.5756053507        4.5484193819       -9.1672481230    0   0   0
Mo            0.0000378379        3.6387394919       -3.0554952701    0   0   0
S            -1.5755913433        4.5484363582       -4.6232494962    0   0   0
S             0.0000148214        3.6387329039       -7.6014065489    0   0   0
S             0.0000152751        3.6387340328      -10.7330757790    0   0   0
S            -1.5755906502        4.5484413613       -1.4877305502    0   0   0
Mo           -1.5765475689        4.5475714668        3.0579762245
Mo           -0.0494035463        3.6092889210        9.1602253793
S            -1.5977294040        4.5442420683        7.5883953910
S            -0.0006950460        3.6380620528        4.6263568953
S            -0.0009021814        3.6381104398        1.4903326873
S            -1.6095100727        4.5346243713       10.7324809970
Mo           -3.1512226931        7.2774749019       -9.1672481230    0   0   0
Mo           -1.5755910988        6.3678216792       -3.0555115988    0   0   0
S            -3.1512162438        7.2774954350       -4.6232578178    0   0   0
S            -1.5756025210        6.3677884239       -7.6014065489    0   0   0
S            -1.5756020673        6.3677895528      -10.7330757790    0   0   0
S            -3.1512127704        7.2774877076       -1.4877200710    0   0   0
Mo           -3.1522525685        7.2763402766        3.0573303567
Mo           -1.6015813606        6.3593637191        9.1733230598
S            -3.1626187700        7.2678036766        7.5928525465
S            -1.5762258926        6.3672843962        4.6252786829
S            -1.5764822452        6.3667317803        1.4896407693
S            -3.1794036834        7.2697584870       10.7337689428
Mo           -4.7268400355       10.0065304219       -9.1672481230    0   0   0
Mo           -3.1512405618        9.0968403586       -3.0554816746    0   0   0
S            -4.7268341792       10.0065523623       -4.6232463762    0   0   0
S            -3.1512198634        9.0968439439       -7.6014065489    0   0   0
S            -3.1512194097        9.0968450728      -10.7330757790    0   0   0
S            -4.7268370797       10.0065537885       -1.4877176751    0   0   0
Mo           -4.7278823520       10.0055964564        3.0572158160
Mo           -3.1658679889        9.0872744598        9.1621958821
S            -4.7379086448       10.0020986417        7.5922311639
S            -3.1525007511        9.0956730083        4.6248138551
S            -3.1521076084        9.0957911419        1.4895327470
S            -4.7446102820        9.9863135463       10.7345338856
Mo            3.1512517547        1.8193638619       -9.1672481230    0   0   0
Mo            4.7269020221        0.9097289540       -3.0554823951    0   0   0
S             3.1512612351        1.8193882564       -4.6232320683    0   0   0
S             4.7268719268        0.9096773839       -7.6014065489    0   0   0
S             4.7268723805        0.9096785128      -10.7330757790    0   0   0
S             3.1512592485        1.8193890201       -1.4877261251    0   0   0
Mo            3.1502256520        1.8188683297        3.0572401499
Mo            4.7173352718        0.8902131548        9.1736237695
S             3.1390409096        1.8312962062        7.6357847330
S             4.7253011289        0.9090103643        4.6253771700
S             4.7257622422        0.9087019344        1.4895853995
S             3.1430292787        1.7183912192       10.7940033228
Mo            1.5756344123        4.5484193819       -9.1672481230    0   0   0
Mo            3.1512756394        3.6387769522       -3.0554814834    0   0   0
S             1.5756504879        4.5484423799       -4.6232390542    0   0   0
S             3.1512545844        3.6387329039       -7.6014065489    0   0   0
S             3.1512550381        3.6387340328      -10.7330757790    0   0   0
S             1.5756466253        4.5484431864       -1.4877251801    0   0   0
Mo            1.5746681189        4.5476712865        3.0579937203
Mo            3.1417605623        3.6186908599        9.2248165815
S             1.5751003650        4.5499752767        7.6675314985
S             3.1498220991        3.6377957136        4.6262620855
S             3.1500772195        3.6383526183        1.4898503428
S             1.4475841531        4.4767783262       10.7827939501
Mo            0.0000170699        7.2774749019       -9.1672481230    0   0   0
Mo            1.5756764447        6.3678236689       -3.0554877708    0   0   0
S             0.0000381981        7.2774979204       -4.6232454413    0   0   0
S             1.5756372420        6.3677884239       -7.6014065489    0   0   0
S             1.5756376957        6.3677895528      -10.7330757790    0   0   0
S             0.0000328088        7.2774946042       -1.4877307940    0   0   0
Mo           -0.0007799099        7.2763963051        3.0572812135
Mo            1.5518798144        6.3705328739        9.2257638968
S             0.0021306540        7.2608025592        7.6357008394
S             1.5743118292        6.3667351163        4.6261705077
S             1.5747907067        6.3666419709        1.4896996731
S            -0.0958591363        7.3200768476       10.7966482333
Mo           -1.5756002725       10.0065304219       -9.1672481230    0   0   0
Mo            0.0000873425        9.0968676911       -3.0554912329    0   0   0
S            -1.5755883952       10.0065504530       -4.6232240150    0   0   0
S             0.0000198996        9.0968439439       -7.6014065489    0   0   0
S             0.0000203533        9.0968450728      -10.7330757790    0   0   0
S            -1.5755859047       10.0065492576       -1.4877362381    0   0   0
Mo           -1.5767117153       10.0055538036        3.0576079627
Mo           -0.0200903218        9.0964450057        9.1752395982
S            -1.5856540768        9.9972428071        7.5953682353
S            -0.0011208875        9.0953442410        4.6254965309
S            -0.0010374233        9.0959634900        1.4896961695
S            -1.5963946932        9.9928288508       10.7423143479
Mo            6.3024915177        1.8193638619       -9.1672481230    0   0   0
Mo            7.8781001445        0.9096521684       -3.0554919963    0   0   0
S             6.3025008696        1.8193826232       -4.6232480596    0   0   0
S             7.8781116898        0.9096773839       -7.6014065489    0   0   0
S             7.8781121435        0.9096785128      -10.7330757790    0   0   0
S             6.3025042007        1.8193849068       -1.4877147524    0   0   0
Mo            6.3011575114        1.8183449770        3.0574267892
Mo            7.8644109990        0.9007405025        9.1657300914
S             6.2868961850        1.8082427157        7.5977118942
S             7.8768614482        0.9086222972        4.6247257591
S             7.8767706326        0.9083819736        1.4893451372
S             6.2928119786        1.8078637705       10.7365039835
Mo            4.7268741753        4.5484193819       -9.1672481230    0   0   0
Mo            6.3024679138        3.6387501714       -3.0554895197    0   0   0
S             4.7268748770        4.5484386753       -4.6232519432    0   0   0
S             6.3024943474        3.6387329039       -7.6014065489    0   0   0
S             6.3024948011        3.6387340328      -10.7330757790    0   0   0
S             4.7268770533        4.5484432419       -1.4877137856    0   0   0
Mo            4.7253417639        4.5474813925        3.0579545148
Mo            6.3029845283        3.6264109902        9.1707559003
S             4.6972930281        4.5316890947        7.6386893615
S             6.3008196981        3.6376320806        4.6254306019
S             6.3010729031        3.6379062557        1.4898164765
S             4.8025193142        4.5859761132       10.7806353091
Mo            3.1512568329        7.2774749019       -9.1672481230    0   0   0
Mo            4.7268384135        6.3678043337       -3.0554959052    0   0   0
S             3.1512606125        7.2774972547       -4.6232589675    0   0   0
S             4.7268770050        6.3677884239       -7.6014065489    0   0   0
S             4.7268774587        6.3677895528      -10.7330757790    0   0   0
S             3.1512629079        7.2774963749       -1.4877081835    0   0   0
Mo            3.1498750542        7.2762459409        3.0578132489
Mo            4.7346831068        6.3714346301        9.1782551810
S             3.1213843483        7.2586739544        7.6402784267
S             4.7250481955        6.3665473274        4.6262435155
S             4.7256353947        6.3667868418        1.4900613417
S             3.2214896339        7.3203784254       10.7823695577
Mo            1.5756394905       10.0065304219       -9.1672481230    0   0   0
Mo            3.1512330605        9.0968514907       -3.0554878870    0   0   0
S             1.5756499830       10.0065443759       -4.6232632674    0   0   0
S             3.1512596626        9.0968439439       -7.6014065489    0   0   0
S             3.1512601163        9.0968450728      -10.7330757790    0   0   0
S             1.5756503041       10.0065459699       -1.4877044377    0   0   0
Mo            1.5744427116       10.0053168165        3.0575977102
Mo            3.1427865852        9.0998935083        9.1739194962
S             1.5614853628        9.9954109505        7.6009524380
S             3.1499063795        9.0953328485        4.6255098714
S             3.1500742670        9.0957029041        1.4897713217
S             1.5628749513       10.0037078064       10.7380719574
Mo            9.4537312807        1.8193638619       -9.1672481230    0   0   0
Mo           11.0293863460        0.9096952246       -3.0554894007    0   0   0
S             9.4537395970        1.8193770750       -4.6232328036    0   0   0
S            11.0293514528        0.9096773839       -7.6014065489    0   0   0
S            11.0293519066        0.9096785128      -10.7330757790    0   0   0
S             9.4537393632        1.8193794783       -1.4877366147    0   0   0
Mo            9.4524898887        1.8182000218        3.0566483068
Mo           11.0131067698        0.8945541206        9.1568639862
S             9.4363864328        1.8076076478        7.5899582025
S            11.0277353691        0.9085924423        4.6245993880
S            11.0288143808        0.9086569733        1.4895218729
S             9.4408311501        1.8095016275       10.7278281596
Mo            7.8781139383        4.5484193819       -9.1672481230    0   0   0
Mo            9.4537539161        3.6387607911       -3.0554933032    0   0   0
S             7.8781175448        4.5484378232       -4.6232366318    0   0   0
S             9.4537341104        3.6387329039       -7.6014065489    0   0   0
S             9.4537345641        3.6387340328      -10.7330757790    0   0   0
S             7.8781194018        4.5484411585       -1.4877377057    0   0   0
Mo            7.8767880112        4.5472523978        3.0573591224
Mo            9.4355206101        3.6292078309        9.1577994311
S             7.8606580415        4.5366095028        7.5892300375
S             9.4523277186        3.6370977543        4.6245974203
S             9.4528867988        3.6381550220        1.4895059058
S             7.8757810020        4.5407603735       10.7334254694
Mo            6.3024965959        7.2774749019       -9.1672481230    0   0   0
Mo            7.8781361655        6.3678242352       -3.0555014130    0   0   0
S             6.3024973331        7.2774953556       -4.6232392528    0   0   0
S             7.8781167680        6.3677884239       -7.6014065489    0   0   0
S             7.8781172217        6.3677895528      -10.7330757790    0   0   0
S             6.3024989866        7.2774929744       -1.4877349119    0   0   0
Mo            6.3011283819        7.2762258879        3.0577951577
Mo            7.8649118505        6.3586936845        9.1581483149
S             6.2889207280        7.2685988490        7.5883731526
S             7.8769772286        6.3663978802        4.6249734338
S             7.8768852009        6.3667769857        1.4896898734
S             6.3127819839        7.2824128455       10.7363945419
Mo            4.7268792535       10.0065304219       -9.1672481230    0   0   0
Mo            6.3025111524        9.0968738021       -3.0554915260    0   0   0
S             4.7268840634       10.0065452125       -4.6232380477    0   0   0
S             6.3024994256        9.0968439439       -7.6014065489    0   0   0
S             6.3024998793        9.0968450728      -10.7330757790    0   0   0
S             4.7268847312       10.0065459141       -1.4877283294    0   0   0
Mo            4.7256327266       10.0053192213        3.0573438673
Mo            6.2916020172        9.0884064020        9.1581306386
S             4.7088170505        9.9910210394        7.5901545002
S             6.3013167679        9.0959192683        4.6248727480
S             6.3014050891        9.0955088895        1.4896730225
S             4.7229570379       10.0048523910       10.7340725959
Pd            1.6114243027        6.3125485680       12.1421387130
Pd            3.1199501662        3.7046664681       12.1391688217
End final coordinates



     Writing all to output data dir ./outdir/pwscf.save/
 
     init_run     :    195.76s CPU    200.03s WALL (       1 calls)
     electrons    : 107618.92s CPU 108634.11s WALL (      11 calls)
     update_pot   :     54.36s CPU     54.80s WALL (      10 calls)
     forces       :   1405.24s CPU   1436.88s WALL (      11 calls)
     force_dftd3  :      8.20s CPU      8.79s WALL (      11 calls)

     Called by init_run:
     wfcinit      :    171.74s CPU    173.76s WALL (       1 calls)
     potinit      :      1.37s CPU      2.14s WALL (       1 calls)
     hinit0       :     16.12s CPU     16.16s WALL (       1 calls)

     Called by electrons:
     c_bands      :  97964.01s CPU  98566.57s WALL (     136 calls)
     sum_band     :   9099.43s CPU   9342.98s WALL (     136 calls)
     v_of_rho     :     67.34s CPU     68.87s WALL (     138 calls)
     newd         :    358.63s CPU    536.53s WALL (     138 calls)
     PAW_pot      :     98.72s CPU     98.76s WALL (     148 calls)
     mix_rho      :     16.34s CPU     16.35s WALL (     136 calls)
     energy_dftd3 :      3.90s CPU      3.90s WALL (      11 calls)

     Called by c_bands:
     init_us_2    :    333.17s CPU    333.43s WALL (    1176 calls)
     init_us_2:cp :    333.17s CPU    333.43s WALL (    1176 calls)
     cegterg      :  96817.74s CPU  97397.74s WALL (     573 calls)

     Called by *egterg:
     cdiaghg      :   5584.42s CPU   5601.98s WALL (    7465 calls)
     h_psi        :  50917.08s CPU  51094.87s WALL (    7568 calls)
     s_psi        :  11118.35s CPU  11161.32s WALL (    7568 calls)
     g_psi        :     91.83s CPU     92.06s WALL (    6991 calls)

     Called by h_psi:
     h_psi:calbec :  11209.09s CPU  11211.01s WALL (    7568 calls)
     vloc_psi     :  28038.67s CPU  28103.72s WALL (    7568 calls)
     add_vuspsi   :  11559.32s CPU  11597.43s WALL (    7568 calls)

     General routines
     calbec       :  15460.47s CPU  15463.00s WALL (    8328 calls)
     fft          :     71.66s CPU     73.26s WALL (    1912 calls)
     ffts         :      3.38s CPU      3.49s WALL (     274 calls)
     fftw         :  22822.22s CPU  22878.09s WALL ( 4430194 calls)
     interpolate  :      7.02s CPU      7.11s WALL (     138 calls)
 
     Parallel routines
 
     PWSCF        :   1d 6h28m CPU   1d 6h46m WALL

 
   This run was terminated on:  17:48:57  29Oct2023            

=------------------------------------------------------------------------------=
   JOB DONE.
=------------------------------------------------------------------------------=
Application 11350184 resources: utime ~3950918s, stime ~37716s, Rss ~3503932, inblocks ~0, outblocks ~54208784
