
     Program PWSCF v.7.3 starts on 19Mar2024 at 15:30:39 

     This program is part of the open-source Quantum ESPRESSO suite
     for quantum simulation of materials; please cite
         "P. Giannozzi et al., J. Phys.:Condens. Matter 21 395502 (2009);
         "P. Giannozzi et al., J. Phys.:Condens. Matter 29 465901 (2017);
         "P. Giannozzi et al., J. Chem. Phys. 152 154105 (2020);
          URL http://www.quantum-espresso.org", 
     in publications or presentations arising from this work. More details at
     http://www.quantum-espresso.org/quote

     Parallel version (MPI & OpenMP), running on      36 processor cores
     Number of MPI processes:                36
     Threads/MPI process:                     1

     MPI processes distributed on     1 nodes
     556946 MiB available memory on the printing compute node when the environment starts
 
     Waiting for input...
     Reading input from standard input
Warning: card &CELL ignored
Warning: card / ignored

     Current dimensions of program PWSCF are:
     Max number of different atomic species (ntypx) = 10
     Max number of k-points (npk) =  40000
     Max angular momentum in pseudopotentials (lmaxx) =  4
     file Mo.pbe-spn-kjpaw_psl.1.0.0.UPF: wavefunction(s)  4S 4D renormalized
     file S.pbe-n-kjpaw_psl.1.0.0.UPF: wavefunction(s)  3S 3P renormalized
     file Pd.pbe-spn-kjpaw_psl.1.0.0.UPF: wavefunction(s)  4S 5S 4D renormalized
     file Pt.pbe-spfn-kjpaw_psl.1.0.0.UPF: wavefunction(s)  5P 4F renormalized
 
     R & G space division:  proc/nbgrp/npool/nimage =      36
     Subspace diagonalization in iterative solution of the eigenvalue problem:
     one sub-group per band group will be used
     scalapack distributed-memory algorithm (size of sub-group:  6*  6 procs)

 
     Parallelization info
     --------------------
     sticks:   dense  smooth     PW     G-vecs:    dense   smooth      PW
     Min         585     334     89               198743    85850   11735
     Max         586     335     90               198750    85861   11748
     Sum       21073   12049   3205              7154885  3090769  422587
 
     Using Slab Decomposition
 


     bravais-lattice index     =            0
     lattice parameter (alat)  =      23.8199  a.u.
     unit-cell volume          =   33861.0370 (a.u.)^3
     number of atoms/cell      =          194
     number of atomic types    =            4
     number of electrons       =      1714.00
     number of Kohn-Sham states=         1028
     kinetic-energy cutoff     =      77.0000  Ry
     charge density cutoff     =     539.0000  Ry
     scf convergence threshold =      1.0E-06
     mixing beta               =       0.2000
     number of iterations used =            8  plain     mixing
     energy convergence thresh.=      1.0E-04
     force convergence thresh. =      1.0E-03
     Exchange-correlation= SLA  PW   PBX  PBC
                           (   1   4   3   4   0   0   0)
     nstep                     =         1000


     Effective Screening Medium Method
     =================================
     Boundary Conditions: Vacuum-Slab-Vacuum
     total charge in unit cell        =   0.0000
     grid points for fit at edges     =        4 
 

     celldm(1)=  23.819920  celldm(2)=   0.000000  celldm(3)=   0.000000
     celldm(4)=   0.000000  celldm(5)=   0.000000  celldm(6)=   0.000000

     crystal axes: (cart. coord. in units of alat)
               a(1) = (   1.000000   0.000000   0.000000 )  
               a(2) = (  -0.499999   0.866026   0.000000 )  
               a(3) = (   0.000000   0.000000   2.893000 )  

     reciprocal axes: (cart. coord. in units 2 pi/alat)
               b(1) = (  1.000000  0.577349  0.000000 )  
               b(2) = (  0.000000  1.154700  0.000000 )  
               b(3) = (  0.000000  0.000000  0.345662 )  


     PseudoPot. # 1 for Mo read from file:
     ./pseudo/Mo.pbe-spn-kjpaw_psl.1.0.0.UPF
     MD5 check sum: 317bf72632116215fd98f72de1686f13
     Pseudo is Projector augmented-wave + core cor, Zval = 14.0
     Generated using 'atomic' code by A. Dal Corso  v.7.2
     Shape of augmentation charge: PSQ
     Using radial grid of 1229 points,  6 beta functions with: 
                l(1) =   0
                l(2) =   0
                l(3) =   1
                l(4) =   1
                l(5) =   2
                l(6) =   2
     Q(r) pseudized with 0 coefficients 


     PseudoPot. # 2 for S  read from file:
     ./pseudo/S.pbe-n-kjpaw_psl.1.0.0.UPF
     MD5 check sum: 8b7b5302570d38d5e87fed6a1065abda
     Pseudo is Projector augmented-wave + core cor, Zval =  6.0
     Generated using 'atomic' code by A. Dal Corso  v.7.2
     Shape of augmentation charge: PSQ
     Using radial grid of 1151 points,  6 beta functions with: 
                l(1) =   0
                l(2) =   0
                l(3) =   1
                l(4) =   1
                l(5) =   2
                l(6) =   2
     Q(r) pseudized with 0 coefficients 


     PseudoPot. # 3 for Pd read from file:
     ./pseudo/Pd.pbe-spn-kjpaw_psl.1.0.0.UPF
     MD5 check sum: a60571a671f2502b8a6a4569d20a6edb
     Pseudo is Projector augmented-wave + core cor, Zval = 18.0
     Generated using 'atomic' code by A. Dal Corso  v.7.2
     Shape of augmentation charge: PSQ
     Using radial grid of 1235 points,  6 beta functions with: 
                l(1) =   0
                l(2) =   0
                l(3) =   1
                l(4) =   1
                l(5) =   2
                l(6) =   2
     Q(r) pseudized with 0 coefficients 


     PseudoPot. # 4 for Pt read from file:
     ./pseudo/Pt.pbe-spfn-kjpaw_psl.1.0.0.UPF
     MD5 check sum: 620096ebf4e6ebacc94de60fd67efcb5
     Pseudo is Projector augmented-wave + core cor, Zval = 32.0
     Generated using 'atomic' code by A. Dal Corso  v.7.2
     Shape of augmentation charge: PSQ
     Using radial grid of 1277 points,  8 beta functions with: 
                l(1) =   0
                l(2) =   0
                l(3) =   1
                l(4) =   1
                l(5) =   2
                l(6) =   2
                l(7) =   3
                l(8) =   3
     Q(r) pseudized with 0 coefficients 


     atomic species   valence    mass     pseudopotential
     Mo               14.00    95.95000     Mo( 1.00)
     S                 6.00    32.06000     S ( 1.00)
     Pd               18.00   106.42000     Pd( 1.00)
     Pt               32.00   195.08400     Pt( 1.00)

     No symmetry found



   Cartesian axes

     site n.     atom                  positions (alat units)
         1        Mo     tau(   1) = (   0.0000010   0.1443372  -0.7272732  )
         2        Mo     tau(   2) = (   0.1249995   0.0721706  -0.2424038  )
         3        S      tau(   3) = (   0.0000015   0.1443386  -0.3667807  )
         4        S      tau(   4) = (   0.1250010   0.0721682  -0.6030489  )
         5        S      tau(   5) = (   0.1250010   0.0721683  -0.8514963  )
         6        S      tau(   6) = (   0.0000015   0.1443389  -0.1180260  )
         7        Mo     tau(   7) = (   0.0000007   0.1443589   0.2424205  )
         8        Mo     tau(   8) = (   0.1250041   0.0720322   0.7266168  )
         9        S      tau(   9) = (   0.0000742   0.1444871   0.6020949  )
        10        S      tau(  10) = (   0.1250024   0.0721701   0.3667478  )
        11        S      tau(  11) = (   0.1250035   0.0721876   0.1180348  )
        12        S      tau(  12) = (  -0.0004118   0.1430864   0.8514340  )
        13        Mo     tau(  13) = (  -0.1249989   0.3608437  -0.7272732  )
        14        Mo     tau(  14) = (   0.0000030   0.2886752  -0.2424042  )
        15        S      tau(  15) = (  -0.1249977   0.3608450  -0.3667802  )
        16        S      tau(  16) = (   0.0000012   0.2886747  -0.6030489  )
        17        S      tau(  17) = (   0.0000012   0.2886748  -0.8514963  )
        18        S      tau(  18) = (  -0.1249977   0.3608454  -0.1180274  )
        19        Mo     tau(  19) = (  -0.1249729   0.3608584   0.2424608  )
        20        Mo     tau(  20) = (  -0.0007193   0.2876626   0.7275440  )
        21        S      tau(  21) = (  -0.1251115   0.3607789   0.6027257  )
        22        S      tau(  22) = (   0.0000621   0.2887099   0.3668377  )
        23        S      tau(  23) = (  -0.0000096   0.2886902   0.1180527  )
        24        S      tau(  24) = (  -0.1254673   0.3605734   0.8517408  )
        25        Mo     tau(  25) = (  -0.2499987   0.5773502  -0.7272732  )
        26        Mo     tau(  26) = (  -0.1249977   0.5051839  -0.2424055  )
        27        S      tau(  27) = (  -0.2499981   0.5773518  -0.3667809  )
        28        S      tau(  28) = (  -0.1249986   0.5051812  -0.6030489  )
        29        S      tau(  29) = (  -0.1249986   0.5051813  -0.8514963  )
        30        S      tau(  30) = (  -0.2499979   0.5773512  -0.1180266  )
        31        Mo     tau(  31) = (  -0.2499795   0.5773389   0.2424205  )
        32        Mo     tau(  32) = (  -0.1262356   0.5050639   0.7275441  )
        33        S      tau(  33) = (  -0.2498323   0.5773390   0.6020948  )
        34        S      tau(  34) = (  -0.1249376   0.5052159   0.3668377  )
        35        S      tau(  35) = (  -0.1249905   0.5051638   0.1180531  )
        36        S      tau(  36) = (  -0.2512883   0.5776183   0.8514340  )
        37        Mo     tau(  37) = (  -0.3749985   0.7938567  -0.7272732  )
        38        Mo     tau(  38) = (  -0.2500001   0.7216874  -0.2424031  )
        39        S      tau(  39) = (  -0.3749980   0.7938584  -0.3667800  )
        40        S      tau(  40) = (  -0.2499984   0.7216877  -0.6030489  )
        41        S      tau(  41) = (  -0.2499984   0.7216878  -0.8514963  )
        42        S      tau(  42) = (  -0.3749982   0.7938585  -0.1180264  )
        43        Mo     tau(  43) = (  -0.3749962   0.7938568   0.2423838  )
        44        Mo     tau(  44) = (  -0.2501148   0.7217588   0.7266170  )
        45        S      tau(  45) = (  -0.3749945   0.7938590   0.6021274  )
        46        S      tau(  46) = (  -0.2499958   0.7216877   0.3667488  )
        47        S      tau(  47) = (  -0.2499810   0.7216794   0.1180323  )
        48        S      tau(  48) = (  -0.3749953   0.7938585   0.8511588  )
        49        Mo     tau(  49) = (   0.2500010   0.1443372  -0.7272732  )
        50        Mo     tau(  50) = (   0.3750034   0.0721723  -0.2424032  )
        51        S      tau(  51) = (   0.2500017   0.1443391  -0.3667788  )
        52        S      tau(  52) = (   0.3750010   0.0721682  -0.6030489  )
        53        S      tau(  53) = (   0.3750010   0.0721683  -0.8514963  )
        54        S      tau(  54) = (   0.2500016   0.1443391  -0.1180271  )
        55        Mo     tau(  55) = (   0.2500054   0.1443594   0.2424211  )
        56        Mo     tau(  56) = (   0.3749279   0.0721263   0.7263991  )
        57        S      tau(  57) = (   0.2499344   0.1444864   0.6020948  )
        58        S      tau(  58) = (   0.3750316   0.0721860   0.3667597  )
        59        S      tau(  59) = (   0.3749924   0.0721644   0.1180346  )
        60        S      tau(  60) = (   0.2504199   0.1430865   0.8514340  )
        61        Mo     tau(  61) = (   0.1250012   0.3608437  -0.7272732  )
        62        Mo     tau(  62) = (   0.2500029   0.2886782  -0.2424031  )
        63        S      tau(  63) = (   0.1250024   0.3608455  -0.3667794  )
        64        S      tau(  64) = (   0.2500012   0.2886747  -0.6030489  )
        65        S      tau(  65) = (   0.2500012   0.2886748  -0.8514963  )
        66        S      tau(  66) = (   0.1250021   0.3608455  -0.1180270  )
        67        Mo     tau(  67) = (   0.1250038   0.3608653   0.2423963  )
        68        Mo     tau(  68) = (   0.2507284   0.2876625   0.7275438  )
        69        S      tau(  69) = (   0.1250046   0.3627170   0.6061948  )
        70        S      tau(  70) = (   0.2499461   0.2887116   0.3668373  )
        71        S      tau(  71) = (   0.2500171   0.2886900   0.1180543  )
        72        S      tau(  72) = (   0.1250046   0.3519103   0.8557806  )
        73        Mo     tau(  73) = (   0.0000014   0.5773502  -0.7272732  )
        74        Mo     tau(  74) = (   0.1250045   0.5051840  -0.2424036  )
        75        S      tau(  75) = (   0.0000030   0.5773520  -0.3667799  )
        76        S      tau(  76) = (   0.1250014   0.5051812  -0.6030489  )
        77        S      tau(  77) = (   0.1250014   0.5051813  -0.8514963  )
        78        S      tau(  78) = (   0.0000026   0.5773517  -0.1180274  )
        79        Mo     tau(  79) = (   0.0000222   0.5773400   0.2423964  )
        80        Mo     tau(  80) = (   0.1250047   0.5051836   0.7321380  )
        81        S      tau(  81) = (   0.0016251   0.5764170   0.6061946  )
        82        S      tau(  82) = (   0.1250047   0.5051815   0.3667777  )
        83        S      tau(  83) = (   0.1250048   0.5051819   0.1179962  )
        84        S      tau(  84) = (  -0.0077335   0.5818202   0.8557807  )
        85        Mo     tau(  85) = (  -0.1249984   0.7938567  -0.7272732  )
        86        Mo     tau(  86) = (   0.0000069   0.7216896  -0.2424039  )
        87        S      tau(  87) = (  -0.1249975   0.7938582  -0.3667782  )
        88        S      tau(  88) = (   0.0000016   0.7216877  -0.6030489  )
        89        S      tau(  89) = (   0.0000016   0.7216878  -0.8514963  )
        90        S      tau(  90) = (  -0.1249973   0.7938582  -0.1180279  )
        91        Mo     tau(  91) = (  -0.1249774   0.7938494   0.2424207  )
        92        Mo     tau(  92) = (  -0.0005116   0.7228241   0.7275438  )
        93        S      tau(  93) = (  -0.1249026   0.7937246   0.6020948  )
        94        S      tau(  94) = (   0.0000043   0.7216209   0.3668361  )
        95        S      tau(  95) = (   0.0000226   0.7216928   0.1180549  )
        96        S      tau(  96) = (  -0.1258721   0.7948451   0.8514341  )
        97        Mo     tau(  97) = (   0.5000010   0.1443372  -0.7272732  )
        98        Mo     tau(  98) = (   0.6250001   0.0721662  -0.2424040  )
        99        S      tau(  99) = (   0.5000017   0.1443386  -0.3667801  )
       100        S      tau( 100) = (   0.6250010   0.0721682  -0.6030489  )
       101        S      tau( 101) = (   0.6250010   0.0721683  -0.8514963  )
       102        S      tau( 102) = (   0.5000020   0.1443388  -0.1180261  )
       103        Mo     tau( 103) = (   0.5000075   0.1443411   0.2423793  )
       104        Mo     tau( 104) = (   0.6250042   0.0723339   0.7270464  )
       105        S      tau( 105) = (   0.5002366   0.1444733   0.6023595  )
       106        S      tau( 106) = (   0.6250029   0.0721787   0.3667562  )
       107        S      tau( 107) = (   0.6250040   0.0721260   0.1180315  )
       108        S      tau( 108) = (   0.4998752   0.1442648   0.8512770  )
       109        Mo     tau( 109) = (   0.3750012   0.3608437  -0.7272732  )
       110        Mo     tau( 110) = (   0.4999991   0.2886761  -0.2424038  )
       111        S      tau( 111) = (   0.3750012   0.3608452  -0.3667804  )
       112        S      tau( 112) = (   0.5000012   0.2886747  -0.6030489  )
       113        S      tau( 113) = (   0.5000012   0.2886748  -0.8514963  )
       114        S      tau( 114) = (   0.3750014   0.3608455  -0.1180261  )
       115        Mo     tau( 115) = (   0.3749795   0.3608597   0.2424601  )
       116        Mo     tau( 116) = (   0.5001461   0.2885951   0.7270464  )
       117        S      tau( 117) = (   0.3751205   0.3607791   0.6027254  )
       118        S      tau( 118) = (   0.5000105   0.2886721   0.3667569  )
       119        S      tau( 119) = (   0.4999655   0.2886989   0.1180297  )
       120        S      tau( 120) = (   0.3754765   0.3605739   0.8517402  )
       121        Mo     tau( 121) = (   0.2500014   0.5773502  -0.7272732  )
       122        Mo     tau( 122) = (   0.3749983   0.5051825  -0.2424043  )
       123        S      tau( 123) = (   0.2500017   0.5773519  -0.3667810  )
       124        S      tau( 124) = (   0.3750014   0.5051812  -0.6030489  )
       125        S      tau( 125) = (   0.3750014   0.5051813  -0.8514963  )
       126        S      tau( 126) = (   0.2500018   0.5773519  -0.1180256  )
       127        Mo     tau( 127) = (   0.2499863   0.5773402   0.2423965  )
       128        Mo     tau( 128) = (   0.3762454   0.5050642   0.7275433  )
       129        S      tau( 129) = (   0.2483844   0.5764169   0.6061944  )
       130        S      tau( 130) = (   0.3749442   0.5052158   0.3668400  )
       131        S      tau( 131) = (   0.3749972   0.5051650   0.1180510  )
       132        S      tau( 132) = (   0.2577438   0.5818204   0.8557797  )
       133        Mo     tau( 133) = (   0.1250016   0.7938567  -0.7272732  )
       134        Mo     tau( 134) = (   0.2499995   0.7216883  -0.2424036  )
       135        S      tau( 135) = (   0.1250024   0.7938578  -0.3667813  )
       136        S      tau( 136) = (   0.2500016   0.7216877  -0.6030489  )
       137        S      tau( 137) = (   0.2500016   0.7216878  -0.8514963  )
       138        S      tau( 138) = (   0.1250024   0.7938579  -0.1180253  )
       139        Mo     tau( 139) = (   0.1250047   0.7938294   0.2424606  )
       140        Mo     tau( 140) = (   0.2505220   0.7228241   0.7275433  )
       141        S      tau( 141) = (   0.1250053   0.7939926   0.6027252  )
       142        S      tau( 142) = (   0.2500048   0.7216200   0.3668387  )
       143        S      tau( 143) = (   0.2499864   0.7216915   0.1180524  )
       144        S      tau( 144) = (   0.1250054   0.7944033   0.8517402  )
       145        Mo     tau( 145) = (   0.7500010   0.1443372  -0.7272732  )
       146        Mo     tau( 146) = (   0.8750038   0.0721696  -0.2424038  )
       147        S      tau( 147) = (   0.7500016   0.1443382  -0.3667789  )
       148        S      tau( 148) = (   0.8750010   0.0721682  -0.6030489  )
       149        S      tau( 149) = (   0.8750010   0.0721683  -0.8514963  )
       150        S      tau( 150) = (   0.7500016   0.1443384  -0.1180279  )
       151        Mo     tau( 151) = (   0.7499986   0.1443409   0.2423802  )
       152        Mo     tau( 152) = (   0.8750804   0.0721266   0.7263988  )
       153        S      tau( 153) = (   0.7497713   0.1444738   0.6023592  )
       154        S      tau( 154) = (   0.8749758   0.0721848   0.3667595  )
       155        S      tau( 155) = (   0.8750127   0.0721632   0.1180342  )
       156        S      tau( 156) = (   0.7501331   0.1442647   0.8512770  )
       157        Mo     tau( 157) = (   0.6250012   0.3608437  -0.7272732  )
       158        Mo     tau( 158) = (   0.7500028   0.2886769  -0.2424041  )
       159        S      tau( 159) = (   0.6250015   0.3608451  -0.3667792  )
       160        S      tau( 160) = (   0.7500012   0.2886747  -0.6030489  )
       161        S      tau( 161) = (   0.7500012   0.2886748  -0.8514963  )
       162        S      tau( 162) = (   0.6250016   0.3608454  -0.1180280  )
       163        Mo     tau( 163) = (   0.6250032   0.3608391   0.2423797  )
       164        Mo     tau( 164) = (   0.7498627   0.2885951   0.7270467  )
       165        S      tau( 165) = (   0.6250046   0.3605769   0.6023590  )
       166        S      tau( 166) = (   0.7499943   0.2886711   0.3667569  )
       167        S      tau( 167) = (   0.7500399   0.2886970   0.1180318  )
       168        S      tau( 168) = (   0.6250043   0.3609947   0.8512770  )
       169        Mo     tau( 169) = (   0.5000014   0.5773502  -0.7272732  )
       170        Mo     tau( 170) = (   0.6250029   0.5051841  -0.2424047  )
       171        S      tau( 171) = (   0.5000014   0.5773518  -0.3667794  )
       172        S      tau( 172) = (   0.6250014   0.5051812  -0.6030489  )
       173        S      tau( 173) = (   0.6250014   0.5051813  -0.8514963  )
       174        S      tau( 174) = (   0.5000016   0.5773516  -0.1180277  )
       175        Mo     tau( 175) = (   0.4999855   0.5773383   0.2424207  )
       176        Mo     tau( 176) = (   0.6250049   0.5052713   0.7263986  )
       177        S      tau( 177) = (   0.4998428   0.5773389   0.6020941  )
       178        S      tau( 178) = (   0.6250030   0.5051500   0.3667588  )
       179        S      tau( 179) = (   0.6250025   0.5051935   0.1180351  )
       180        S      tau( 180) = (   0.5012979   0.5776190   0.8514332  )
       181        Mo     tau( 181) = (   0.3750016   0.7938567  -0.7272732  )
       182        Mo     tau( 182) = (   0.5000025   0.7216901  -0.2424039  )
       183        S      tau( 183) = (   0.3750019   0.7938578  -0.3667793  )
       184        S      tau( 184) = (   0.5000016   0.7216877  -0.6030489  )
       185        S      tau( 185) = (   0.5000016   0.7216878  -0.8514963  )
       186        S      tau( 186) = (   0.3750020   0.7938579  -0.1180272  )
       187        Mo     tau( 187) = (   0.3749848   0.7938487   0.2424206  )
       188        Mo     tau( 188) = (   0.5001249   0.7217591   0.7266160  )
       189        S      tau( 189) = (   0.3749125   0.7937251   0.6020942  )
       190        S      tau( 190) = (   0.5000021   0.7216868   0.3667472  )
       191        S      tau( 191) = (   0.4999874   0.7216780   0.1180346  )
       192        S      tau( 192) = (   0.3758826   0.7948451   0.8514332  )
       193        Pd     tau( 193) = (   0.1250063   0.5051842   0.9601361  )
       194        Pt     tau( 194) = (   0.2505363   0.7228108   0.9707291  )

     --------------------------------------------
     DFT-D3 Dispersion Correction (3-body terms):
     --------------------------------------------
       Reference C6 values for interpolation: 

         atom   Coordination number   C6
         S          0.000           268.01
         S          0.995           261.99
         S          1.990           251.62
         Mo         0.000          1691.79
         Mo         1.942          1004.01
         Mo        11.056           674.22
         Pd         0.000          1217.01
         Pd         1.863           573.90
         Pd         5.710           531.75
         Pt         0.000           782.29
         Pt         1.919           692.72
         Pt         6.667           673.75

       Values used:

         atom   Coordination number  R0_AB[au]  C6      C8
         Mo        10.208            3.547    674.21  77634.20
         Mo        10.221            3.547    674.22  77634.20
         S          3.858            3.128    251.62  12327.25
         S          3.859            3.128    251.62  12327.25
         S          3.758            3.128    251.62  12327.25
         S          3.859            3.128    251.62  12327.25
         Mo        10.220            3.547    674.22  77634.20
         Mo        10.234            3.547    674.22  77634.20
         S          3.847            3.128    251.62  12327.25
         S          3.861            3.128    251.62  12327.25
         S          3.859            3.128    251.62  12327.25
         S          3.806            3.128    251.62  12327.25
         Mo        10.208            3.547    674.22  77634.20
         Mo        10.221            3.547    674.22  77634.20
         S          3.858            3.128    251.62  12327.25
         S          3.859            3.128    251.62  12327.25
         S          3.758            3.128    251.62  12327.25
         S          3.859            3.128    251.62  12327.25
         Mo        10.221            3.547    674.22  77634.20
         Mo        10.191            3.547    674.22  77634.20
         S          3.855            3.128    251.62  12327.25
         S          3.856            3.128    251.62  12327.25
         S          3.859            3.128    251.62  12327.25
         S          3.756            3.128    251.62  12327.25
         Mo        10.208            3.547    674.22  77634.20
         Mo        10.221            3.547    674.22  77634.20
         S          3.858            3.128    251.62  12327.25
         S          3.859            3.128    251.62  12327.25
         S          3.758            3.128    251.62  12327.25
         S          3.859            3.128    251.62  12327.25
         Mo        10.220            3.547    674.22  77634.20
         Mo        10.191            3.547    674.22  77634.20
         S          3.847            3.128    251.62  12327.25
         S          3.856            3.128    251.62  12327.25
         S          3.859            3.128    251.62  12327.25
         S          3.805            3.128    251.62  12327.25
         Mo        10.208            3.547    674.22  77634.20
         Mo        10.221            3.547    674.22  77634.20
         S          3.858            3.128    251.62  12327.25
         S          3.859            3.128    251.62  12327.25
         S          3.758            3.128    251.62  12327.25
         S          3.859            3.128    251.62  12327.25
         Mo        10.219            3.547    674.22  77634.20
         Mo        10.234            3.547    674.22  77634.20
         S          3.856            3.128    251.62  12327.25
         S          3.861            3.128    251.62  12327.25
         S          3.859            3.128    251.62  12327.25
         S          3.782            3.128    251.62  12327.25
         Mo        10.208            3.547    674.22  77634.20
         Mo        10.221            3.547    674.22  77634.20
         S          3.858            3.128    251.62  12327.25
         S          3.859            3.128    251.62  12327.25
         S          3.758            3.128    251.62  12327.25
         S          3.859            3.128    251.62  12327.25
         Mo        10.220            3.547    674.22  77634.20
         Mo        10.244            3.547    674.22  77634.20
         S          3.847            3.128    251.62  12327.25
         S          3.860            3.128    251.62  12327.25
         S          3.859            3.128    251.62  12327.25
         S          3.805            3.128    251.62  12327.25
         Mo        10.208            3.547    674.22  77634.20
         Mo        10.221            3.547    674.22  77634.20
         S          3.858            3.128    251.62  12327.25
         S          3.859            3.128    251.62  12327.25
         S          3.758            3.128    251.62  12327.25
         S          3.859            3.128    251.62  12327.25
         Mo        10.222            3.547    674.22  77634.20
         Mo        10.191            3.547    674.22  77634.20
         S          3.865            3.128    251.62  12327.25
         S          3.856            3.128    251.62  12327.25
         S          3.859            3.128    251.62  12327.25
         S          4.653            3.128    251.62  12327.25
         Mo        10.208            3.547    674.22  77634.20
         Mo        10.221            3.547    674.22  77634.20
         S          3.858            3.128    251.62  12327.25
         S          3.859            3.128    251.62  12327.25
         S          3.758            3.128    251.62  12327.25
         S          3.859            3.128    251.62  12327.25
         Mo        10.222            3.547    674.22  77634.20
         Mo        10.832            3.547    674.22  77634.20
         S          3.865            3.128    251.62  12327.25
         S          3.853            3.128    251.62  12327.25
         S          3.859            3.128    251.62  12327.25
         S          4.663            3.128    251.62  12327.25
         Mo        10.208            3.547    674.22  77634.20
         Mo        10.221            3.547    674.22  77634.20
         S          3.858            3.128    251.62  12327.25
         S          3.859            3.128    251.62  12327.25
         S          3.758            3.128    251.62  12327.25
         S          3.859            3.128    251.62  12327.25
         Mo        10.220            3.547    674.22  77634.20
         Mo        10.201            3.547    674.22  77634.20
         S          3.847            3.128    251.62  12327.25
         S          3.856            3.128    251.62  12327.25
         S          3.859            3.128    251.62  12327.25
         S          3.806            3.128    251.62  12327.25
         Mo        10.208            3.547    674.22  77634.20
         Mo        10.221            3.547    674.22  77634.20
         S          3.858            3.128    251.62  12327.25
         S          3.859            3.128    251.62  12327.25
         S          3.758            3.128    251.62  12327.25
         S          3.859            3.128    251.62  12327.25
         Mo        10.220            3.547    674.22  77634.20
         Mo        10.240            3.547    674.22  77634.20
         S          3.862            3.128    251.62  12327.25
         S          3.860            3.128    251.62  12327.25
         S          3.859            3.128    251.62  12327.25
         S          3.766            3.128    251.62  12327.25
         Mo        10.208            3.547    674.22  77634.20
         Mo        10.221            3.547    674.22  77634.20
         S          3.858            3.128    251.62  12327.25
         S          3.859            3.128    251.62  12327.25
         S          3.758            3.128    251.62  12327.25
         S          3.859            3.128    251.62  12327.25
         Mo        10.221            3.547    674.22  77634.20
         Mo        10.230            3.547    674.22  77634.20
         S          3.855            3.128    251.62  12327.25
         S          3.860            3.128    251.62  12327.25
         S          3.859            3.128    251.62  12327.25
         S          3.757            3.128    251.62  12327.25
         Mo        10.208            3.547    674.21  77634.20
         Mo        10.221            3.547    674.22  77634.20
         S          3.858            3.128    251.62  12327.25
         S          3.859            3.128    251.62  12327.25
         S          3.758            3.128    251.62  12327.25
         S          3.859            3.128    251.62  12327.25
         Mo        10.222            3.547    674.22  77634.20
         Mo        10.201            3.547    674.22  77634.20
         S          3.866            3.128    251.62  12327.25
         S          3.856            3.128    251.62  12327.25
         S          3.859            3.128    251.62  12327.25
         S          5.633            3.128    251.62  12327.25
         Mo        10.208            3.547    674.22  77634.20
         Mo        10.221            3.547    674.21  77634.20
         S          3.858            3.128    251.62  12327.25
         S          3.859            3.128    251.62  12327.25
         S          3.758            3.128    251.62  12327.25
         S          3.859            3.128    251.62  12327.25
         Mo        10.221            3.547    674.22  77634.20
         Mo        10.795            3.547    674.22  77634.20
         S          3.856            3.128    251.62  12327.25
         S          3.856            3.128    251.62  12327.25
         S          3.859            3.128    251.62  12327.25
         S          4.722            3.128    251.62  12327.25
         Mo        10.208            3.547    674.22  77634.20
         Mo        10.221            3.547    674.22  77634.20
         S          3.858            3.128    251.62  12327.25
         S          3.859            3.128    251.62  12327.25
         S          3.758            3.128    251.62  12327.25
         S          3.859            3.128    251.62  12327.25
         Mo        10.220            3.547    674.22  77634.20
         Mo        10.254            3.547    674.22  77634.20
         S          3.862            3.128    251.62  12327.25
         S          3.860            3.128    251.62  12327.25
         S          3.859            3.128    251.62  12327.25
         S          3.778            3.128    251.62  12327.25
         Mo        10.208            3.547    674.22  77634.20
         Mo        10.220            3.547    674.22  77634.20
         S          3.858            3.128    251.62  12327.25
         S          3.859            3.128    251.62  12327.25
         S          3.758            3.128    251.62  12327.25
         S          3.859            3.128    251.62  12327.25
         Mo        10.220            3.547    674.22  77634.20
         Mo        10.230            3.547    674.22  77634.20
         S          3.862            3.128    251.62  12327.25
         S          3.860            3.128    251.62  12327.25
         S          3.859            3.128    251.62  12327.25
         S          3.765            3.128    251.62  12327.25
         Mo        10.208            3.547    674.22  77634.20
         Mo        10.221            3.547    674.22  77634.20
         S          3.858            3.128    251.62  12327.25
         S          3.859            3.128    251.62  12327.25
         S          3.758            3.128    251.62  12327.25
         S          3.859            3.128    251.62  12327.25
         Mo        10.220            3.547    674.22  77634.20
         Mo        10.244            3.547    674.22  77634.20
         S          3.847            3.128    251.62  12327.25
         S          3.860            3.128    251.62  12327.25
         S          3.859            3.128    251.62  12327.25
         S          3.816            3.128    251.62  12327.25
         Mo        10.208            3.547    674.22  77634.20
         Mo        10.221            3.547    674.22  77634.20
         S          3.858            3.128    251.62  12327.25
         S          3.859            3.128    251.62  12327.25
         S          3.758            3.128    251.62  12327.25
         S          3.859            3.128    251.62  12327.25
         Mo        10.220            3.547    674.22  77634.20
         Mo        10.244            3.547    674.22  77634.20
         S          3.848            3.128    251.62  12327.25
         S          3.861            3.128    251.62  12327.25
         S          3.859            3.128    251.62  12327.25
         S          4.770            3.128    251.62  12327.25
         Pd         3.999            3.168    531.81  48726.00
         Pt         3.865            3.168    692.72  72035.25

         Molecular C6 ( Ry / a.u.^6 ) =  13979851.90


     number of k points=     4  Gaussian smearing, width (Ry)=  0.0100
                       cart. coord. in units 2pi/alat
        k(    1) = (   0.0000000   0.0000000   0.0000000), wk =   0.5000000
        k(    2) = (   0.0000000  -0.5773499   0.0000000), wk =   0.5000000
        k(    3) = (  -0.5000000  -0.2886744   0.0000000), wk =   0.5000000
        k(    4) = (  -0.5000000  -0.8660242   0.0000000), wk =   0.5000000

     Dense  grid:  7154885 G-vectors     FFT dimensions: ( 180, 180, 512)

     Smooth grid:  3090769 G-vectors     FFT dimensions: ( 135, 135, 400)

     Estimated max dynamical RAM per process >       4.31 GB

     Estimated total dynamical RAM >     155.10 GB

     Atomic positions and unit cell read from directory:
     ./outdir/pwscf.save/
     Atomic positions from file used, from input discarded
 

     The initial density is read from file :
     ./outdir/pwscf.save/charge-density


     negative rho (up, down):  9.065E-04 0.000E+00
     Cannot read wfcs: file not found
     Starting wfcs are 1179 randomized atomic wfcs
     Checking if some PAW data can be deallocated... 

     total cpu time spent up to now is      181.6 secs

     Self-consistent Calculation

     iteration #  1     ecut=    77.00 Ry     beta= 0.20
     Davidson diagonalization with overlap
     c_bands:  5 eigenvalues not converged
     c_bands: 11 eigenvalues not converged
     c_bands:  8 eigenvalues not converged
     c_bands:  7 eigenvalues not converged
     ethr =  1.00E-05,  avg # of iterations =115.0

     negative rho (up, down):  8.445E-04 0.000E+00

     total cpu time spent up to now is    10744.8 secs

     total energy              =  -33980.53014931 Ry
     estimated scf accuracy    <       5.12179229 Ry

     iteration #  2     ecut=    77.00 Ry     beta= 0.20
     Davidson diagonalization with overlap
     ethr =  2.99E-04,  avg # of iterations =  5.0

     negative rho (up, down):  8.126E-04 0.000E+00

     total cpu time spent up to now is    11173.9 secs

     total energy              =  -33980.40982587 Ry
     estimated scf accuracy    <       2.49314415 Ry

     iteration #  3     ecut=    77.00 Ry     beta= 0.20
     Davidson diagonalization with overlap
     ethr =  1.45E-04,  avg # of iterations =  5.5

     negative rho (up, down):  7.618E-04 0.000E+00

     total cpu time spent up to now is    11597.2 secs

     total energy              =  -33980.12849139 Ry
     estimated scf accuracy    <       0.92249715 Ry

     iteration #  4     ecut=    77.00 Ry     beta= 0.20
     Davidson diagonalization with overlap
     ethr =  5.38E-05,  avg # of iterations = 15.8

     negative rho (up, down):  7.531E-04 0.000E+00

     total cpu time spent up to now is    12146.4 secs

     total energy              =  -33980.32925559 Ry
     estimated scf accuracy    <       0.26560775 Ry

     iteration #  5     ecut=    77.00 Ry     beta= 0.20
     Davidson diagonalization with overlap
     ethr =  1.55E-05,  avg # of iterations =  3.0

     negative rho (up, down):  7.488E-04 0.000E+00

     total cpu time spent up to now is    12556.6 secs

     total energy              =  -33980.28463575 Ry
     estimated scf accuracy    <       0.13166630 Ry

     iteration #  6     ecut=    77.00 Ry     beta= 0.20
     Davidson diagonalization with overlap
     c_bands:  5 eigenvalues not converged
     c_bands:  4 eigenvalues not converged
     c_bands:  2 eigenvalues not converged
     ethr =  7.68E-06,  avg # of iterations = 20.5

     negative rho (up, down):  7.449E-04 0.000E+00

     total cpu time spent up to now is    13194.5 secs

     total energy              =  -33980.28591554 Ry
     estimated scf accuracy    <       0.04919362 Ry

     iteration #  7     ecut=    77.00 Ry     beta= 0.20
     Davidson diagonalization with overlap
     c_bands:  5 eigenvalues not converged
     c_bands:  1 eigenvalues not converged
     c_bands:  2 eigenvalues not converged
     c_bands:  3 eigenvalues not converged
     ethr =  2.87E-06,  avg # of iterations = 35.0

     negative rho (up, down):  7.517E-04 0.000E+00

     total cpu time spent up to now is    14031.8 secs

     total energy              =  -33980.29198578 Ry
     estimated scf accuracy    <       0.00888734 Ry

     iteration #  8     ecut=    77.00 Ry     beta= 0.20
     Davidson diagonalization with overlap
     c_bands:  3 eigenvalues not converged
     c_bands:  1 eigenvalues not converged
     ethr =  5.19E-07,  avg # of iterations = 16.8

     negative rho (up, down):  7.812E-04 0.000E+00

     total cpu time spent up to now is    14779.8 secs

     total energy              =  -33980.29653347 Ry
     estimated scf accuracy    <       0.00567534 Ry

     iteration #  9     ecut=    77.00 Ry     beta= 0.20
     Davidson diagonalization with overlap
     c_bands:  1 eigenvalues not converged
     ethr =  3.31E-07,  avg # of iterations = 14.5

     negative rho (up, down):  8.265E-04 0.000E+00

     total cpu time spent up to now is    15239.4 secs

     total energy              =  -33980.29593499 Ry
     estimated scf accuracy    <       0.00205270 Ry

     iteration # 10     ecut=    77.00 Ry     beta= 0.20
     Davidson diagonalization with overlap
     ethr =  1.20E-07,  avg # of iterations = 14.5

     negative rho (up, down):  8.333E-04 0.000E+00

     total cpu time spent up to now is    16047.6 secs

     total energy              =  -33980.29745644 Ry
     estimated scf accuracy    <       0.00071731 Ry

     iteration # 11     ecut=    77.00 Ry     beta= 0.20
     Davidson diagonalization with overlap
     ethr =  4.18E-08,  avg # of iterations = 13.2

     negative rho (up, down):  8.593E-04 0.000E+00

     total cpu time spent up to now is    16678.1 secs

     total energy              =  -33980.29766635 Ry
     estimated scf accuracy    <       0.00030239 Ry

     iteration # 12     ecut=    77.00 Ry     beta= 0.20
     Davidson diagonalization with overlap
     ethr =  1.76E-08,  avg # of iterations = 14.2

     negative rho (up, down):  8.828E-04 0.000E+00

     total cpu time spent up to now is    17510.4 secs

     total energy              =  -33980.29779823 Ry
     estimated scf accuracy    <       0.00026954 Ry

     iteration # 13     ecut=    77.00 Ry     beta= 0.20
     Davidson diagonalization with overlap
     ethr =  1.57E-08,  avg # of iterations = 12.0

     negative rho (up, down):  8.913E-04 0.000E+00

     total cpu time spent up to now is    17971.9 secs

     total energy              =  -33980.29783328 Ry
     estimated scf accuracy    <       0.00003206 Ry

     iteration # 14     ecut=    77.00 Ry     beta= 0.20
     Davidson diagonalization with overlap
     c_bands:  1 eigenvalues not converged
     ethr =  1.87E-09,  avg # of iterations = 18.5

     negative rho (up, down):  8.922E-04 0.000E+00

     total cpu time spent up to now is    19502.4 secs

     total energy              =  -33980.29792243 Ry
     estimated scf accuracy    <       0.00004321 Ry

     iteration # 15     ecut=    77.00 Ry     beta= 0.20
     Davidson diagonalization with overlap
     ethr =  1.87E-09,  avg # of iterations =  1.8

     negative rho (up, down):  8.959E-04 0.000E+00

     total cpu time spent up to now is    19898.8 secs

     total energy              =  -33980.29791223 Ry
     estimated scf accuracy    <       0.00002570 Ry

     iteration # 16     ecut=    77.00 Ry     beta= 0.20
     Davidson diagonalization with overlap
     ethr =  1.50E-09,  avg # of iterations = 10.8

     negative rho (up, down):  9.029E-04 0.000E+00

     total cpu time spent up to now is    20367.3 secs

     total energy              =  -33980.29790997 Ry
     estimated scf accuracy    <       0.00000613 Ry

     iteration # 17     ecut=    77.00 Ry     beta= 0.20
     Davidson diagonalization with overlap
     ethr =  3.57E-10,  avg # of iterations = 13.5

     negative rho (up, down):  9.040E-04 0.000E+00

     total cpu time spent up to now is    21352.9 secs

     total energy              =  -33980.29791730 Ry
     estimated scf accuracy    <       0.00000487 Ry

     iteration # 18     ecut=    77.00 Ry     beta= 0.20
     Davidson diagonalization with overlap
     ethr =  2.84E-10,  avg # of iterations =  5.5

     negative rho (up, down):  9.048E-04 0.000E+00

     total cpu time spent up to now is    21770.5 secs

     total energy              =  -33980.29791694 Ry
     estimated scf accuracy    <       0.00000129 Ry

     iteration # 19     ecut=    77.00 Ry     beta= 0.20
     Davidson diagonalization with overlap
     ethr =  7.54E-11,  avg # of iterations = 19.0

     negative rho (up, down):  9.081E-04 0.000E+00

     total cpu time spent up to now is    22678.8 secs

     End of self-consistent calculation

          k = 0.0000 0.0000 0.0000 (386245 PWs)   bands (ev):

  -102.9575 -88.7715 -71.2832 -71.2746 -71.2604 -71.2486 -71.2360 -71.2294
   -71.2190 -66.6488 -66.6488 -66.6476 -66.6457 -66.6322 -66.6279 -66.6278
   -66.6277 -66.6276 -66.6276 -66.6276 -66.6275 -66.6275 -66.6275 -66.6275
   -66.6275 -66.6274 -66.6272 -66.6263 -66.6263 -66.6263 -66.6262 -66.6262
   -66.6262 -66.6233 -66.6205 -66.6139 -66.6130 -66.6070 -66.6065 -66.6064
   -66.6063 -66.6062 -66.6062 -66.6062 -66.6062 -66.6062 -66.6061 -66.6061
   -66.6061 -66.6061 -66.6061 -66.6061 -66.6061 -66.6060 -66.6059 -66.6056
   -66.6049 -66.6049 -66.6049 -66.6049 -66.6049 -66.6048 -66.6048 -66.6048
   -66.6048 -66.6029 -66.5973 -66.5911 -66.5898 -66.5834 -66.5780 -66.5732
   -66.5684 -57.2748 -57.1496 -57.1202 -54.6533 -54.5492 -54.4950 -40.9763
   -40.9762 -40.9762 -40.9762 -40.9762 -40.9761 -40.9756 -40.9756 -40.9756
   -40.9674 -40.9642 -40.9621 -40.9011 -40.9010 -40.9009 -40.9009 -40.9009
   -40.9009 -40.9009 -40.9009 -40.9009 -40.9008 -40.9008 -40.9006 -40.9002
   -40.9002 -40.9002 -40.9002 -40.9002 -40.9002 -40.8967 -40.8923 -40.8861
   -40.8827 -40.8743 -40.8688 -40.8251 -40.8085 -40.8084 -40.8078 -40.8022
   -40.7847 -40.7804 -40.7748 -40.7746 -40.7746 -40.7746 -40.7746 -40.7746
   -40.7746 -40.7746 -40.7745 -40.7745 -40.7745 -40.7744 -40.7743 -40.7738
   -40.7738 -40.7738 -40.7738 -40.7738 -40.7737 -40.7709 -40.7698 -40.7670
   -40.7669 -40.7668 -40.7667 -40.7667 -40.7667 -40.7667 -40.7667 -40.7667
   -40.7667 -40.7666 -40.7664 -40.7662 -40.7661 -40.7661 -40.7661 -40.7661
   -40.7660 -40.7660 -40.7652 -40.7613 -40.7556 -40.7502 -40.7461 -40.7397
   -40.7397 -40.7396 -40.7396 -40.7396 -40.7396 -40.7395 -40.7395 -40.7395
   -40.7395 -40.7395 -40.7394 -40.7393 -40.7387 -40.7387 -40.7387 -40.7387
   -40.7387 -40.7387 -40.7375 -40.7357 -40.7341 -40.7296 -40.7273 -40.7251
   -40.7250 -40.7250 -40.7248 -40.7248 -40.7248 -40.7248 -40.7248 -40.7247
   -40.7247 -40.7247 -40.7247 -40.7247 -40.7247 -40.7247 -40.7247 -40.7246
   -40.7242 -40.7242 -40.7241 -40.7241 -40.7241 -40.7241 -40.7240 -40.7240
   -40.7240 -40.7240 -40.7240 -40.7226 -40.7213 -40.7189 -40.7120 -40.7099
   -40.7063 -40.7043 -40.7034 -40.6613 -40.6612 -40.6612 -40.6612 -40.6612
   -40.6611 -40.6603 -40.6603 -40.6603 -40.6512 -40.6452 -40.6428 -40.6143
   -40.6142 -40.6141 -40.6141 -40.6141 -40.6141 -40.6141 -40.6141 -40.6141
   -40.6140 -40.6139 -40.6138 -40.6131 -40.6131 -40.6131 -40.6131 -40.6131
   -40.6131 -40.6009 -40.5982 -40.5956 -40.5913 -40.5889 -40.5845 -40.5665
   -40.5665 -40.5664 -40.5664 -40.5655 -40.5655 -40.5443 -40.5362 -20.2172
   -20.1240 -20.0225 -19.9149 -19.6716 -19.3510 -19.3188 -19.2791 -19.2779
   -19.2731 -19.2624 -19.2562 -19.2522 -19.2269 -19.2242 -19.2119 -19.1760
   -19.1656 -19.1618 -19.1435 -19.1410 -19.1272 -19.0710 -19.0650 -19.0633
   -19.0571 -19.0562 -19.0503 -18.9341 -18.8323 -18.7738 -18.6551 -18.5953
   -18.5736 -18.5308 -18.5260 -18.5048 -18.4960 -18.4734 -18.4565 -18.4419
   -18.4312 -18.4175 -18.3905 -18.3608 -18.3501 -18.3090 -18.3079 -18.3003
   -18.2785 -18.2678 -18.2654 -18.2124 -18.2091 -18.2072 -18.1999 -18.1992
   -18.1976 -18.1591 -18.1500 -18.1467 -18.1460 -18.1443 -18.1440 -18.1413
   -18.1264 -18.1163 -18.1131 -18.1100 -18.1079 -18.1061 -18.1013 -18.1011
   -18.0992 -18.0888 -18.0760 -18.0759 -18.0740 -18.0720 -18.0682 -18.0589
   -18.0554 -18.0533 -18.0415 -18.0354 -18.0294 -18.0290 -18.0250 -18.0241
   -18.0131 -18.0118 -18.0104 -17.9820 -17.9749 -17.9701 -17.9589 -17.9480
   -17.9465 -17.9426 -17.9419 -17.9411 -17.9221 -17.9182 -17.9158 -17.9068
   -17.9019 -17.8964 -17.8937 -17.8908 -17.8901 -17.8841 -17.8822 -17.8811
   -17.8659 -17.8653 -17.8648 -17.8554 -17.8537 -17.8505 -17.8476 -17.8464
   -17.8446 -17.8220 -17.8218 -17.8206 -17.8199 -17.8191 -17.8184 -12.2341
   -12.0570 -11.9895 -11.9085 -11.8412 -11.8239 -11.8110 -11.8062 -11.7101
   -11.7029 -11.6910 -11.6114 -11.5852 -11.5785 -11.5687 -11.4469 -11.3949
   -11.3680 -11.2989 -11.2705 -11.2641 -11.2624 -11.2618 -11.2570 -11.2223
   -11.1952 -11.1752 -11.1624 -11.1568 -11.1540 -11.1529 -11.1482 -11.1438
   -11.1204 -11.1021 -11.0970 -11.0939 -11.0866 -11.0850 -11.0812 -11.0769
   -11.0732 -11.0697 -11.0562 -11.0490 -11.0363 -11.0080 -10.9956 -10.9860
   -10.9736 -10.9675 -10.9581 -10.9444 -10.9332 -10.9231 -10.9139 -10.9120
   -10.9040 -10.9024 -10.8902 -10.8765 -10.8747 -10.8694 -10.8662 -10.8591
   -10.8558 -10.8546 -10.8534 -10.8526 -10.8477 -10.8407 -10.8335 -10.8317
   -10.8313 -10.8295 -10.8270 -10.8072 -10.8052 -10.8032 -10.8006 -10.7995
   -10.7954 -10.7920 -10.7821 -10.7804 -10.7626 -10.7621 -10.7617 -10.7613
   -10.7588 -10.7576 -10.7024 -10.6886 -10.6829 -10.6510 -10.6263 -10.6187
   -10.6123 -10.6043 -10.6016 -10.5842 -10.4797 -10.3181 -10.2195 -10.1977
   -10.1689 -10.1338  -9.9952  -9.9840  -9.9565  -9.9347  -9.8566  -9.8466
    -9.8342  -9.8264  -9.8215  -9.8184  -9.8023  -9.7996  -9.7976  -9.7945
    -9.7921  -9.7890  -9.7861  -9.7833  -9.7761  -9.7737  -9.7716  -9.7637
    -9.7582  -9.7521  -9.7375  -9.7083  -9.7008  -9.6670  -9.6581  -9.6542
    -9.6529  -9.6519  -9.6480  -9.6434  -9.6430  -9.6418  -9.6415  -9.6387
    -9.6375  -9.6298  -9.6249  -9.6019  -9.5786  -9.5664  -9.5662  -9.5660
    -9.5655  -9.5655  -9.5650  -9.5627  -9.5597  -9.5441  -9.5432  -9.5293
    -9.5230  -9.5027  -9.4978  -9.4795  -9.4735  -9.4429  -9.3917  -9.3881
    -9.3838  -9.3804  -9.3737  -9.3676  -9.3568  -9.3566  -9.3471  -9.3379
    -9.3342  -9.3255  -9.2869  -9.2760  -9.2696  -9.2603  -9.2475  -9.2391
    -9.2247  -9.2148  -9.2100  -9.2064  -9.2036  -9.2019  -9.2004  -9.1970
    -9.1604  -9.1548  -9.1434  -9.1307  -9.1266  -9.0935  -9.0844  -9.0337
    -9.0076  -9.0066  -9.0038  -8.9870  -8.9829  -8.9802  -8.9755  -8.9723
    -8.9648  -8.9559  -8.9417  -8.9416  -8.9403  -8.9339  -8.9266  -8.9241
    -8.9121  -8.9065  -8.8968  -8.8460  -8.8459  -8.8455  -8.8454  -8.8451
    -8.8448  -8.7917  -8.7819  -8.7792  -8.7691  -8.7605  -8.7550  -8.7448
    -8.6984  -8.6926  -8.6912  -8.6872  -8.6794  -8.6749  -8.6239  -8.6211
    -8.6172  -8.6163  -8.6144  -8.6129  -8.5840  -8.5576  -8.4768  -8.4115
    -8.4051  -8.3909  -8.3909  -8.3862  -8.3859  -8.3800  -8.3795  -8.3752
    -8.3656  -8.3316  -8.3047  -8.3008  -8.3003  -8.3001  -8.2999  -8.2983
    -8.2874  -8.2758  -8.2739  -8.2732  -8.2729  -8.2706  -8.2642  -8.2494
    -8.2459  -8.2452  -8.2450  -8.2441  -8.2425  -8.2337  -8.2001  -8.1161
    -8.0124  -7.9605  -7.8897  -7.8837  -7.8823  -7.8338  -7.8095  -7.8012
    -7.7967  -7.7614  -7.7316  -7.7295  -7.6824  -7.6716  -7.6696  -7.6600
    -7.6541  -7.6511  -7.6448  -7.6411  -7.6254  -7.6224  -7.6149  -7.5961
    -7.5851  -7.5771  -7.5693  -7.5624  -7.5591  -7.5589  -7.5586  -7.5579
    -7.5556  -7.5415  -7.5353  -7.5327  -7.5319  -7.5311  -7.5296  -7.5226
    -7.5177  -7.5164  -7.5070  -7.5069  -7.5064  -7.5059  -7.5057  -7.5011
    -7.4920  -7.4731  -7.4589  -7.4501  -7.4470  -7.4454  -7.4403  -7.4346
    -7.4320  -7.4247  -7.3975  -7.3874  -7.3744  -7.3661  -7.3542  -7.3517
    -7.3349  -7.3333  -7.3228  -7.3192  -7.3145  -7.3131  -7.3074  -7.3067
    -7.2772  -7.2749  -7.2707  -7.2564  -7.2553  -7.2383  -7.2380  -7.2307
    -7.2089  -7.1776  -7.1578  -7.1357  -7.1212  -7.1079  -7.0861  -7.0204
    -7.0111  -6.9620  -6.9090  -6.8939  -6.8839  -6.8760  -6.8651  -6.8305
    -6.8044  -6.8032  -6.8025  -6.7724  -6.7395  -6.7246  -6.7238  -6.7211
    -6.7061  -6.6926  -6.6592  -6.6573  -6.6477  -6.6460  -6.6418  -6.6349
    -6.6165  -6.6008  -6.5968  -6.5900  -6.5802  -6.5678  -6.5644  -6.5423
    -6.5413  -6.5390  -6.5379  -6.5343  -6.5332  -6.5316  -6.5312  -6.5302
    -6.5221  -6.5217  -6.5216  -6.5216  -6.5215  -6.5211  -6.5013  -6.4916
    -6.4816  -6.4657  -6.4617  -6.4459  -6.4358  -6.4333  -6.4301  -6.4174
    -6.3881  -6.3798  -6.3686  -6.3587  -6.3577  -6.3547  -6.3533  -6.3504
    -6.3442  -6.3256  -6.3210  -6.3144  -6.3129  -6.3101  -6.3067  -6.2931
    -6.2830  -6.2779  -6.2768  -6.2758  -6.2749  -6.2711  -6.2609  -6.2370
    -6.0857  -5.9979  -5.9478  -5.7068  -5.6256  -5.5329  -5.4117  -5.3229
    -5.1718  -4.2529  -3.9212  -3.8761  -3.8747  -3.8734  -3.8712  -3.8542
    -3.8528  -3.8514  -3.8504  -3.8474  -3.8460  -3.8270  -3.7798  -3.7268
    -3.7207  -3.7195  -3.7135  -3.7104  -3.7042  -3.7014  -3.6994  -3.6989
    -3.6972  -3.6050  -3.5662  -3.5447  -3.5375  -3.5329  -3.5241  -3.5177
    -3.5125  -3.5044  -3.4990  -3.4963  -3.4948  -3.4929  -3.4882  -3.4835
    -3.4812  -3.4753  -3.4701  -3.4666  -3.4664  -3.4662  -3.4636  -3.4545
    -3.4514  -3.4505  -3.4443  -3.4418  -3.4339  -3.4332  -3.4314  -3.4280
    -3.4247  -3.4240  -3.4155  -3.4124  -3.4086  -3.3855  -3.3779  -3.3723
    -3.3713  -3.3696  -3.3684  -3.3674  -3.3631  -3.3588  -3.3445  -3.3370
    -3.3275  -3.3172  -3.3124  -3.3084  -3.3021  -3.2987  -3.2854  -3.2839
    -3.2490  -3.2329  -3.2297  -3.2224  -3.2162  -3.1230  -3.1057  -3.0926
    -3.0871  -3.0855  -3.0835  -3.0770  -3.0699  -3.0675  -3.0656  -3.0386
    -3.0251  -3.0169  -3.0023  -3.0018  -2.9982  -2.9966  -2.9951  -2.9946
    -2.9904  -2.9874  -2.9867  -2.9866  -2.9778  -2.9774  -2.9745  -2.9721
    -2.9628  -2.9615  -2.9591  -2.9581  -2.9573  -2.9558  -2.9553  -2.9539
    -2.9526  -2.9443  -2.9433  -2.9320  -2.9120  -2.9083  -2.9027  -2.8934
    -2.8916  -2.8843  -2.8750  -2.8682  -2.8302  -2.8301  -2.8300  -2.8298
    -2.8296  -2.8288  -2.8284  -2.8271  -2.8266  -2.8101  -2.8085  -2.7965
    -2.7797  -2.7770  -2.7615  -2.7558  -2.7493  -2.7414  -2.7380  -2.6912
    -2.6878  -2.6628  -2.6604  -2.6587  -2.6478  -2.6472  -2.6449  -2.6411
    -2.6383  -2.6118  -2.5876  -2.5808  -2.5650  -2.5578  -2.5556  -2.4866
    -2.4810  -2.4731  -2.4674  -2.4588

          k = 0.0000-0.5773 0.0000 (386352 PWs)   bands (ev):

  -102.9575 -88.7715 -71.2832 -71.2746 -71.2604 -71.2486 -71.2360 -71.2294
   -71.2190 -66.6427 -66.6426 -66.6426 -66.6426 -66.6425 -66.6413 -66.6413
   -66.6391 -66.6320 -66.6320 -66.6320 -66.6319 -66.6307 -66.6307 -66.6249
   -66.6221 -66.6187 -66.6170 -66.6170 -66.6169 -66.6169 -66.6169 -66.6169
   -66.6169 -66.6168 -66.6167 -66.6156 -66.6156 -66.6156 -66.6156 -66.6135
   -66.6125 -66.6124 -66.6124 -66.6123 -66.6111 -66.6111 -66.6063 -66.6062
   -66.6062 -66.6062 -66.6062 -66.6061 -66.6061 -66.6058 -66.6049 -66.6048
   -66.6048 -66.6048 -66.6043 -66.6031 -66.6017 -66.6017 -66.6017 -66.6017
   -66.6004 -66.6004 -66.5980 -66.5911 -66.5902 -66.5835 -66.5775 -66.5740
   -66.5681 -57.2748 -57.1496 -57.1202 -54.6533 -54.5492 -54.4950 -40.9447
   -40.9446 -40.9446 -40.9446 -40.9446 -40.9446 -40.9446 -40.9444 -40.9442
   -40.9440 -40.9440 -40.9439 -40.9439 -40.9377 -40.9320 -40.9179 -40.9178
   -40.9178 -40.9178 -40.9177 -40.9171 -40.9171 -40.9151 -40.9092 -40.9057
   -40.9057 -40.9057 -40.9057 -40.9051 -40.9051 -40.8866 -40.8685 -40.8551
   -40.8551 -40.8550 -40.8550 -40.8550 -40.8550 -40.8550 -40.8550 -40.8543
   -40.8543 -40.8543 -40.8543 -40.8418 -40.8364 -40.8320 -40.8271 -40.8214
   -40.8046 -40.7964 -40.7962 -40.7962 -40.7961 -40.7956 -40.7956 -40.7912
   -40.7868 -40.7868 -40.7868 -40.7867 -40.7859 -40.7859 -40.7844 -40.7754
   -40.7754 -40.7754 -40.7754 -40.7747 -40.7747 -40.7736 -40.7685 -40.7643
   -40.7560 -40.7535 -40.7493 -40.7459 -40.7459 -40.7458 -40.7458 -40.7457
   -40.7457 -40.7457 -40.7457 -40.7451 -40.7451 -40.7451 -40.7451 -40.7423
   -40.7372 -40.7370 -40.7370 -40.7369 -40.7363 -40.7363 -40.7356 -40.7324
   -40.7264 -40.7253 -40.7253 -40.7253 -40.7252 -40.7249 -40.7248 -40.7248
   -40.7247 -40.7247 -40.7247 -40.7247 -40.7244 -40.7244 -40.7244 -40.7240
   -40.7240 -40.7240 -40.7240 -40.7218 -40.7176 -40.7161 -40.7161 -40.7160
   -40.7160 -40.7153 -40.7153 -40.7146 -40.7137 -40.7062 -40.7026 -40.6945
   -40.6944 -40.6944 -40.6943 -40.6943 -40.6943 -40.6943 -40.6940 -40.6934
   -40.6934 -40.6934 -40.6934 -40.6820 -40.6814 -40.6773 -40.6748 -40.6596
   -40.6596 -40.6596 -40.6596 -40.6596 -40.6596 -40.6595 -40.6595 -40.6587
   -40.6587 -40.6587 -40.6587 -40.6475 -40.6475 -40.6474 -40.6474 -40.6465
   -40.6465 -40.6455 -40.6414 -40.6381 -40.6368 -40.6339 -40.6283 -40.6281
   -40.6281 -40.6279 -40.6272 -40.6272 -40.6163 -40.6134 -40.6112 -40.6111
   -40.6111 -40.6111 -40.6102 -40.6102 -40.6040 -40.5861 -40.5805 -40.5805
   -40.5805 -40.5804 -40.5795 -40.5795 -40.5789 -40.5666 -40.5482 -20.0924
   -19.9159 -19.8930 -19.8589 -19.7958 -19.7663 -19.6858 -19.6726 -19.5576
   -19.4886 -19.4554 -19.4370 -19.3655 -19.3461 -19.2613 -19.2498 -19.1504
   -18.9070 -18.8299 -18.8037 -18.7727 -18.7649 -18.7483 -18.7444 -18.7401
   -18.7328 -18.7085 -18.6879 -18.6776 -18.6706 -18.6614 -18.6466 -18.6171
   -18.6052 -18.5964 -18.5784 -18.5751 -18.5709 -18.5547 -18.5473 -18.5359
   -18.5046 -18.5020 -18.5007 -18.4929 -18.4611 -18.4363 -18.4328 -18.4278
   -18.4023 -18.3943 -18.3852 -18.3584 -18.3453 -18.3414 -18.3188 -18.2769
   -18.2730 -18.2687 -18.2579 -18.2242 -18.2186 -18.2013 -18.1872 -18.1598
   -18.1453 -18.1418 -18.1365 -18.1266 -18.1250 -18.1220 -18.1214 -18.1079
   -18.0972 -18.0965 -18.0943 -18.0895 -18.0891 -18.0795 -18.0767 -18.0732
   -18.0666 -18.0626 -18.0548 -18.0335 -18.0328 -18.0281 -18.0250 -18.0229
   -18.0208 -18.0177 -18.0141 -18.0119 -18.0014 -17.9723 -17.9685 -17.9606
   -17.9581 -17.9530 -17.9459 -17.9163 -17.9142 -17.9079 -17.8999 -17.8750
   -17.8719 -17.8681 -17.8638 -17.8583 -17.8491 -17.8429 -17.8427 -17.8425
   -17.8418 -17.8402 -17.8397 -17.8280 -17.8273 -17.8088 -17.8071 -17.7848
   -17.7830 -17.7658 -17.7632 -17.7510 -17.7493 -17.7431 -17.7428 -12.1458
   -11.9261 -11.7656 -11.7518 -11.7307 -11.6277 -11.5647 -11.5444 -11.5245
   -11.5237 -11.5178 -11.5055 -11.5019 -11.4935 -11.4828 -11.4335 -11.4269
   -11.4103 -11.4071 -11.4017 -11.3851 -11.3587 -11.3492 -11.3445 -11.3207
   -11.3088 -11.3027 -11.2969 -11.2900 -11.2847 -11.2831 -11.2766 -11.2731
   -11.2356 -11.2277 -11.2186 -11.2177 -11.2100 -11.1959 -11.1918 -11.1911
   -11.1848 -11.1710 -11.1697 -11.1624 -11.1416 -11.1235 -11.1141 -11.1008
   -11.0882 -11.0836 -11.0431 -11.0135 -11.0019 -10.9762 -10.9652 -10.9572
   -10.9397 -10.9330 -10.9320 -10.9147 -10.8831 -10.8747 -10.8627 -10.8586
   -10.8533 -10.8429 -10.8371 -10.8355 -10.8349 -10.8333 -10.8315 -10.8263
   -10.8238 -10.8188 -10.8187 -10.8161 -10.8150 -10.8086 -10.8075 -10.8049
   -10.8014 -10.7687 -10.7673 -10.7665 -10.7659 -10.7342 -10.6439 -10.5861
   -10.5659 -10.5535 -10.5513 -10.5303 -10.5073 -10.4565 -10.4242 -10.3721
   -10.3216 -10.2774 -10.2437 -10.1834 -10.1713 -10.1589 -10.1552 -10.1360
   -10.1325 -10.1159 -10.1102 -10.0806 -10.0749 -10.0592 -10.0582 -10.0575
   -10.0514 -10.0430 -10.0332 -10.0067  -9.9980  -9.9591  -9.9558  -9.9515
    -9.9391  -9.9333  -9.9220  -9.9157  -9.9113  -9.8912  -9.8814  -9.8720
    -9.8693  -9.8364  -9.8197  -9.8097  -9.8018  -9.7914  -9.7868  -9.7624
    -9.7583  -9.7348  -9.7252  -9.7096  -9.7073  -9.6798  -9.6791  -9.6482
    -9.6423  -9.6412  -9.6294  -9.6120  -9.5941  -9.5840  -9.5809  -9.5649
    -9.5584  -9.5574  -9.5509  -9.5193  -9.5144  -9.5114  -9.4971  -9.4964
    -9.4916  -9.4875  -9.4820  -9.4779  -9.4670  -9.4576  -9.4490  -9.4163
    -9.4080  -9.3824  -9.3708  -9.3244  -9.3072  -9.2933  -9.2502  -9.2382
    -9.2339  -9.2270  -9.2204  -9.2126  -9.1946  -9.1805  -9.1729  -9.1600
    -9.1492  -9.1439  -9.1341  -9.1093  -9.0892  -9.0808  -9.0710  -9.0653
    -9.0622  -9.0554  -9.0503  -9.0205  -9.0146  -9.0040  -8.9939  -8.9794
    -8.9720  -8.9692  -8.9622  -8.9518  -8.9367  -8.9253  -8.9139  -8.9121
    -8.9105  -8.9095  -8.9056  -8.9001  -8.8942  -8.8925  -8.8895  -8.8860
    -8.8817  -8.8811  -8.8753  -8.8699  -8.8635  -8.8631  -8.8528  -8.8410
    -8.8333  -8.8162  -8.8151  -8.8132  -8.8105  -8.8079  -8.8058  -8.7865
    -8.7850  -8.7644  -8.7609  -8.7563  -8.7538  -8.7506  -8.7381  -8.7228
    -8.6802  -8.6754  -8.6673  -8.6408  -8.6174  -8.5312  -8.5278  -8.5190
    -8.4799  -8.4649  -8.4439  -8.4163  -8.3812  -8.3694  -8.3422  -8.3037
    -8.2807  -8.2410  -8.1855  -8.1510  -8.1510  -8.1421  -8.1420  -8.1309
    -8.1306  -8.1171  -8.0915  -8.0744  -8.0615  -8.0010  -7.9997  -7.9847
    -7.9784  -7.9364  -7.8959  -7.8712  -7.8688  -7.8662  -7.8628  -7.8540
    -7.8429  -7.8394  -7.8351  -7.8286  -7.8262  -7.8258  -7.8200  -7.8177
    -7.8171  -7.8110  -7.8063  -7.8048  -7.8003  -7.7979  -7.7928  -7.7915
    -7.7892  -7.7883  -7.7865  -7.7833  -7.7817  -7.7811  -7.7725  -7.7645
    -7.7595  -7.7527  -7.7512  -7.7469  -7.7421  -7.7206  -7.7199  -7.7195
    -7.7187  -7.6931  -7.6902  -7.6896  -7.6880  -7.6850  -7.6796  -7.6774
    -7.6685  -7.6522  -7.6403  -7.6355  -7.6317  -7.6313  -7.6266  -7.6247
    -7.6203  -7.6093  -7.6065  -7.6045  -7.5874  -7.5868  -7.5815  -7.5755
    -7.5722  -7.5666  -7.5388  -7.4979  -7.4834  -7.4813  -7.4782  -7.4723
    -7.4328  -7.4111  -7.3289  -7.2862  -7.2467  -7.2012  -7.1956  -7.1925
    -7.1872  -7.1757  -7.1584  -7.1464  -7.1408  -7.1277  -7.1242  -7.0951
    -7.0872  -7.0770  -7.0695  -7.0491  -7.0458  -7.0344  -7.0286  -7.0140
    -7.0010  -6.9986  -6.9684  -6.9422  -6.9391  -6.9210  -6.9138  -6.9059
    -6.8966  -6.8838  -6.8808  -6.8755  -6.8581  -6.8442  -6.8103  -6.7955
    -6.7874  -6.7690  -6.7651  -6.7136  -6.7055  -6.6809  -6.6737  -6.6573
    -6.6469  -6.6397  -6.6309  -6.6289  -6.6274  -6.6265  -6.6148  -6.6112
    -6.6102  -6.6098  -6.6034  -6.6023  -6.6021  -6.6020  -6.5966  -6.5745
    -6.5714  -6.5369  -6.5238  -6.4917  -6.4576  -6.4384  -6.4112  -6.3505
    -6.3467  -6.3431  -6.3407  -6.3283  -6.3226  -6.3027  -6.3006  -6.3002
    -6.2974  -6.2958  -6.2952  -6.2804  -6.2764  -6.2755  -6.2660  -6.2505
    -6.2383  -6.2284  -6.2273  -6.2197  -6.2183  -6.1182  -6.0935  -6.0277
    -6.0117  -5.9942  -5.9819  -5.9478  -5.9347  -5.8857  -5.8788  -5.8678
    -5.8356  -5.8097  -5.7220  -5.7070  -5.6252  -5.6223  -5.5832  -5.4095
    -5.3966  -4.2867  -4.1175  -4.1152  -4.1120  -4.0853  -3.9709  -3.9506
    -3.9452  -3.9421  -3.9360  -3.8848  -3.8668  -3.8640  -3.8539  -3.8478
    -3.8360  -3.8316  -3.8216  -3.8204  -3.8172  -3.7643  -3.7307  -3.7134
    -3.7101  -3.6642  -3.6401  -3.6269  -3.6231  -3.6207  -3.6191  -3.5788
    -3.5747  -3.5731  -3.5667  -3.5470  -3.5443  -3.5393  -3.5325  -3.5258
    -3.5180  -3.5071  -3.5049  -3.4988  -3.4951  -3.4931  -3.4875  -3.4797
    -3.4707  -3.4660  -3.4571  -3.4481  -3.4408  -3.4362  -3.4272  -3.3991
    -3.3891  -3.3781  -3.3713  -3.3702  -3.3677  -3.3651  -3.3632  -3.3576
    -3.3321  -3.3252  -3.3190  -3.3147  -3.3083  -3.3035  -3.3010  -3.2987
    -3.2969  -3.2931  -3.2771  -3.2726  -3.2658  -3.2572  -3.2546  -3.2524
    -3.2408  -3.2368  -3.2332  -3.2308  -3.2255  -3.2155  -3.2053  -3.2025
    -3.1958  -3.1908  -3.1840  -3.1837  -3.1832  -3.1730  -3.1583  -3.1386
    -3.1276  -3.1148  -3.0985  -3.0924  -3.0886  -3.0870  -3.0825  -3.0510
    -3.0470  -3.0457  -3.0440  -3.0427  -3.0418  -3.0365  -3.0323  -3.0305
    -3.0293  -3.0261  -3.0209  -3.0119  -3.0089  -3.0072  -2.9999  -2.9986
    -2.9940  -2.9929  -2.9894  -2.9817  -2.9802  -2.9707  -2.9687  -2.9658
    -2.9636  -2.9558  -2.9523  -2.9438  -2.9421  -2.9262  -2.9176  -2.9100
    -2.9073  -2.9010  -2.8953  -2.8926  -2.8703  -2.8204  -2.8202  -2.8113
    -2.8077  -2.7713  -2.7580  -2.7380  -2.7321  -2.6443  -2.6324  -2.6154
    -2.6027  -2.5898  -2.5814  -2.5750  -2.5638  -2.5614  -2.5542  -2.5490
    -2.5468  -2.5438  -2.5392  -2.4868  -2.4359  -2.4228  -2.4145  -2.4064
    -2.4001  -2.3928  -2.3660  -2.3636

          k =-0.5000-0.2887 0.0000 (386352 PWs)   bands (ev):

  -102.9575 -88.7715 -71.2832 -71.2746 -71.2604 -71.2486 -71.2360 -71.2294
   -71.2190 -66.6427 -66.6426 -66.6426 -66.6426 -66.6420 -66.6413 -66.6413
   -66.6398 -66.6320 -66.6320 -66.6320 -66.6319 -66.6307 -66.6307 -66.6257
   -66.6212 -66.6181 -66.6170 -66.6169 -66.6169 -66.6169 -66.6169 -66.6169
   -66.6169 -66.6167 -66.6165 -66.6156 -66.6156 -66.6156 -66.6156 -66.6140
   -66.6125 -66.6124 -66.6124 -66.6124 -66.6111 -66.6111 -66.6063 -66.6062
   -66.6061 -66.6061 -66.6061 -66.6061 -66.6061 -66.6060 -66.6049 -66.6049
   -66.6048 -66.6048 -66.6048 -66.6037 -66.6017 -66.6017 -66.6017 -66.6017
   -66.6004 -66.6004 -66.5973 -66.5919 -66.5894 -66.5834 -66.5775 -66.5743
   -66.5680 -57.2748 -57.1496 -57.1202 -54.6533 -54.5492 -54.4950 -40.9447
   -40.9446 -40.9446 -40.9446 -40.9446 -40.9446 -40.9445 -40.9445 -40.9440
   -40.9440 -40.9440 -40.9439 -40.9390 -40.9380 -40.9276 -40.9269 -40.9178
   -40.9178 -40.9178 -40.9177 -40.9171 -40.9171 -40.9170 -40.9097 -40.9057
   -40.9057 -40.9057 -40.9057 -40.9051 -40.9051 -40.8888 -40.8668 -40.8551
   -40.8551 -40.8550 -40.8550 -40.8550 -40.8550 -40.8550 -40.8550 -40.8543
   -40.8543 -40.8543 -40.8543 -40.8439 -40.8334 -40.8311 -40.8252 -40.8213
   -40.8011 -40.7968 -40.7963 -40.7962 -40.7962 -40.7962 -40.7956 -40.7956
   -40.7868 -40.7868 -40.7868 -40.7867 -40.7859 -40.7859 -40.7843 -40.7754
   -40.7754 -40.7754 -40.7754 -40.7747 -40.7747 -40.7695 -40.7673 -40.7655
   -40.7572 -40.7529 -40.7494 -40.7459 -40.7459 -40.7458 -40.7458 -40.7457
   -40.7457 -40.7457 -40.7457 -40.7451 -40.7451 -40.7451 -40.7451 -40.7451
   -40.7371 -40.7370 -40.7370 -40.7370 -40.7363 -40.7363 -40.7356 -40.7318
   -40.7253 -40.7253 -40.7253 -40.7252 -40.7249 -40.7248 -40.7247 -40.7247
   -40.7247 -40.7247 -40.7247 -40.7245 -40.7244 -40.7244 -40.7240 -40.7240
   -40.7240 -40.7240 -40.7231 -40.7220 -40.7189 -40.7161 -40.7161 -40.7160
   -40.7160 -40.7153 -40.7153 -40.7150 -40.7130 -40.7062 -40.7023 -40.6944
   -40.6944 -40.6943 -40.6943 -40.6943 -40.6943 -40.6943 -40.6942 -40.6934
   -40.6934 -40.6934 -40.6934 -40.6835 -40.6819 -40.6787 -40.6744 -40.6596
   -40.6596 -40.6596 -40.6596 -40.6596 -40.6596 -40.6595 -40.6595 -40.6587
   -40.6587 -40.6587 -40.6587 -40.6493 -40.6475 -40.6475 -40.6474 -40.6474
   -40.6465 -40.6465 -40.6429 -40.6394 -40.6322 -40.6293 -40.6281 -40.6281
   -40.6281 -40.6281 -40.6272 -40.6272 -40.6191 -40.6155 -40.6112 -40.6111
   -40.6111 -40.6111 -40.6102 -40.6102 -40.6023 -40.5904 -40.5805 -40.5805
   -40.5805 -40.5804 -40.5795 -40.5795 -40.5733 -40.5619 -40.5533 -20.0952
   -19.9134 -19.8930 -19.8545 -19.7956 -19.7628 -19.6857 -19.6714 -19.5726
   -19.4888 -19.4560 -19.4373 -19.3659 -19.3465 -19.2611 -19.2499 -19.1383
   -18.8847 -18.8665 -18.7955 -18.7798 -18.7595 -18.7485 -18.7443 -18.7423
   -18.7233 -18.7102 -18.6868 -18.6792 -18.6721 -18.6588 -18.6451 -18.6199
   -18.6045 -18.5976 -18.5780 -18.5776 -18.5695 -18.5543 -18.5469 -18.5386
   -18.5069 -18.5018 -18.4998 -18.4930 -18.4615 -18.4363 -18.4318 -18.4286
   -18.4087 -18.4018 -18.3756 -18.3573 -18.3455 -18.3428 -18.3045 -18.2789
   -18.2764 -18.2705 -18.2553 -18.2246 -18.2158 -18.2062 -18.1821 -18.1606
   -18.1457 -18.1415 -18.1359 -18.1269 -18.1250 -18.1221 -18.1201 -18.1121
   -18.0972 -18.0955 -18.0930 -18.0901 -18.0896 -18.0802 -18.0771 -18.0732
   -18.0669 -18.0640 -18.0539 -18.0337 -18.0323 -18.0289 -18.0250 -18.0230
   -18.0211 -18.0185 -18.0131 -18.0117 -18.0017 -17.9717 -17.9699 -17.9613
   -17.9584 -17.9527 -17.9450 -17.9166 -17.9146 -17.9069 -17.8997 -17.8755
   -17.8716 -17.8685 -17.8632 -17.8576 -17.8489 -17.8430 -17.8429 -17.8424
   -17.8415 -17.8405 -17.8396 -17.8281 -17.8274 -17.8089 -17.8072 -17.7848
   -17.7831 -17.7657 -17.7633 -17.7509 -17.7493 -17.7431 -17.7428 -12.1638
   -11.9061 -11.7593 -11.7426 -11.7153 -11.6384 -11.5742 -11.5422 -11.5273
   -11.5218 -11.5179 -11.5110 -11.4977 -11.4924 -11.4731 -11.4450 -11.4332
   -11.4153 -11.3996 -11.3903 -11.3819 -11.3638 -11.3517 -11.3439 -11.3287
   -11.3076 -11.3023 -11.2931 -11.2891 -11.2850 -11.2828 -11.2775 -11.2714
   -11.2372 -11.2288 -11.2207 -11.2148 -11.2012 -11.1966 -11.1919 -11.1915
   -11.1822 -11.1747 -11.1702 -11.1682 -11.1439 -11.1233 -11.1155 -11.0978
   -11.0906 -11.0850 -11.0434 -11.0304 -10.9864 -10.9784 -10.9625 -10.9523
   -10.9487 -10.9330 -10.9202 -10.9088 -10.8999 -10.8934 -10.8609 -10.8583
   -10.8539 -10.8471 -10.8387 -10.8367 -10.8349 -10.8343 -10.8332 -10.8322
   -10.8224 -10.8190 -10.8174 -10.8160 -10.8152 -10.8079 -10.8070 -10.8047
   -10.8037 -10.7685 -10.7669 -10.7667 -10.7663 -10.7287 -10.6863 -10.5661
   -10.5632 -10.5518 -10.5494 -10.5134 -10.4921 -10.4228 -10.4079 -10.3894
   -10.3480 -10.2837 -10.2718 -10.1873 -10.1714 -10.1551 -10.1541 -10.1332
   -10.1281 -10.1121 -10.1047 -10.0787 -10.0740 -10.0616 -10.0540 -10.0537
   -10.0513 -10.0424 -10.0313 -10.0100  -9.9970  -9.9667  -9.9525  -9.9466
    -9.9333  -9.9310  -9.9223  -9.9166  -9.9058  -9.8943  -9.8838  -9.8819
    -9.8587  -9.8395  -9.8235  -9.8074  -9.8041  -9.7893  -9.7869  -9.7619
    -9.7559  -9.7462  -9.7204  -9.7131  -9.7052  -9.6802  -9.6770  -9.6452
    -9.6425  -9.6387  -9.6279  -9.6155  -9.5942  -9.5845  -9.5726  -9.5641
    -9.5605  -9.5578  -9.5430  -9.5184  -9.5141  -9.5115  -9.4971  -9.4946
    -9.4912  -9.4858  -9.4823  -9.4780  -9.4633  -9.4565  -9.4463  -9.4162
    -9.3981  -9.3840  -9.3738  -9.3192  -9.3170  -9.2805  -9.2576  -9.2412
    -9.2379  -9.2280  -9.2230  -9.2158  -9.1881  -9.1834  -9.1721  -9.1625
    -9.1469  -9.1361  -9.1308  -9.1121  -9.1072  -9.0853  -9.0673  -9.0634
    -9.0628  -9.0552  -9.0497  -9.0271  -9.0156  -9.0017  -9.0009  -8.9799
    -8.9738  -8.9673  -8.9617  -8.9513  -8.9354  -8.9231  -8.9145  -8.9127
    -8.9122  -8.9090  -8.9039  -8.9004  -8.8937  -8.8923  -8.8894  -8.8870
    -8.8826  -8.8776  -8.8733  -8.8705  -8.8634  -8.8631  -8.8576  -8.8387
    -8.8317  -8.8162  -8.8145  -8.8128  -8.8116  -8.8087  -8.8056  -8.7867
    -8.7838  -8.7740  -8.7578  -8.7564  -8.7535  -8.7498  -8.7387  -8.7208
    -8.6810  -8.6735  -8.6674  -8.6388  -8.6207  -8.5297  -8.5268  -8.5026
    -8.4894  -8.4694  -8.4575  -8.4101  -8.3827  -8.3760  -8.3217  -8.3140
    -8.2967  -8.2163  -8.1692  -8.1510  -8.1510  -8.1423  -8.1419  -8.1314
    -8.1306  -8.1238  -8.0954  -8.0808  -8.0682  -8.0239  -7.9970  -7.9883
    -7.9752  -7.9231  -7.8977  -7.8749  -7.8673  -7.8624  -7.8602  -7.8516
    -7.8411  -7.8355  -7.8342  -7.8318  -7.8257  -7.8254  -7.8202  -7.8196
    -7.8145  -7.8126  -7.8063  -7.8048  -7.8011  -7.7988  -7.7928  -7.7919
    -7.7892  -7.7881  -7.7869  -7.7834  -7.7817  -7.7813  -7.7754  -7.7627
    -7.7587  -7.7531  -7.7512  -7.7472  -7.7456  -7.7208  -7.7200  -7.7192
    -7.7190  -7.6946  -7.6904  -7.6897  -7.6881  -7.6862  -7.6841  -7.6746
    -7.6679  -7.6557  -7.6402  -7.6322  -7.6315  -7.6299  -7.6262  -7.6219
    -7.6210  -7.6093  -7.6068  -7.6056  -7.5875  -7.5870  -7.5811  -7.5766
    -7.5719  -7.5690  -7.5227  -7.4904  -7.4839  -7.4802  -7.4772  -7.4749
    -7.4318  -7.3978  -7.3383  -7.2897  -7.2600  -7.2041  -7.1953  -7.1921
    -7.1881  -7.1862  -7.1507  -7.1487  -7.1375  -7.1331  -7.1259  -7.1012
    -7.0793  -7.0760  -7.0632  -7.0552  -7.0465  -7.0282  -7.0223  -7.0213
    -7.0006  -6.9970  -6.9739  -6.9472  -6.9386  -6.9220  -6.9155  -6.9035
    -6.8955  -6.8832  -6.8807  -6.8721  -6.8566  -6.8550  -6.8243  -6.7946
    -6.7887  -6.7701  -6.7529  -6.7042  -6.7024  -6.6811  -6.6731  -6.6576
    -6.6465  -6.6409  -6.6302  -6.6287  -6.6280  -6.6270  -6.6142  -6.6112
    -6.6108  -6.6099  -6.6035  -6.6023  -6.6022  -6.6021  -6.5977  -6.5651
    -6.5550  -6.5333  -6.5187  -6.4944  -6.4636  -6.4394  -6.4212  -6.3488
    -6.3476  -6.3431  -6.3405  -6.3310  -6.3254  -6.3009  -6.3004  -6.2994
    -6.2972  -6.2958  -6.2953  -6.2811  -6.2768  -6.2744  -6.2675  -6.2472
    -6.2397  -6.2285  -6.2275  -6.2193  -6.2173  -6.1295  -6.0811  -6.0257
    -6.0118  -5.9970  -5.9806  -5.9476  -5.9363  -5.8842  -5.8802  -5.8688
    -5.8348  -5.8109  -5.7266  -5.7016  -5.6242  -5.6207  -5.5841  -5.4170
    -5.3963  -4.2779  -4.1198  -4.1158  -4.1076  -4.0827  -3.9705  -3.9504
    -3.9476  -3.9422  -3.9321  -3.8817  -3.8689  -3.8638  -3.8555  -3.8471
    -3.8366  -3.8309  -3.8218  -3.8214  -3.8187  -3.7707  -3.7304  -3.7133
    -3.7110  -3.6693  -3.6376  -3.6265  -3.6253  -3.6209  -3.6189  -3.5854
    -3.5786  -3.5723  -3.5602  -3.5475  -3.5448  -3.5428  -3.5328  -3.5312
    -3.5172  -3.5083  -3.5053  -3.4978  -3.4958  -3.4940  -3.4861  -3.4816
    -3.4712  -3.4620  -3.4592  -3.4490  -3.4397  -3.4368  -3.4254  -3.4088
    -3.3898  -3.3770  -3.3734  -3.3692  -3.3668  -3.3646  -3.3626  -3.3580
    -3.3295  -3.3265  -3.3190  -3.3126  -3.3078  -3.3056  -3.3010  -3.2992
    -3.2972  -3.2924  -3.2761  -3.2706  -3.2647  -3.2603  -3.2524  -3.2506
    -3.2442  -3.2335  -3.2320  -3.2308  -3.2192  -3.2175  -3.2069  -3.2024
    -3.1944  -3.1920  -3.1852  -3.1837  -3.1836  -3.1775  -3.1614  -3.1307
    -3.1203  -3.1172  -3.0967  -3.0932  -3.0908  -3.0875  -3.0806  -3.0483
    -3.0471  -3.0450  -3.0438  -3.0431  -3.0425  -3.0362  -3.0319  -3.0305
    -3.0288  -3.0267  -3.0183  -3.0112  -3.0101  -3.0042  -3.0030  -2.9996
    -2.9936  -2.9919  -2.9886  -2.9852  -2.9794  -2.9702  -2.9687  -2.9655
    -2.9638  -2.9556  -2.9518  -2.9424  -2.9358  -2.9274  -2.9184  -2.9123
    -2.9057  -2.9001  -2.8964  -2.8943  -2.8724  -2.8237  -2.8178  -2.8118
    -2.8062  -2.7693  -2.7598  -2.7400  -2.7354  -2.6469  -2.6319  -2.6188
    -2.6039  -2.5956  -2.5826  -2.5810  -2.5674  -2.5593  -2.5511  -2.5477
    -2.5468  -2.5425  -2.5335  -2.4755  -2.4409  -2.4247  -2.4177  -2.4062
    -2.4009  -2.3907  -2.3658  -2.3639

          k =-0.5000-0.8660 0.0000 (386352 PWs)   bands (ev):

  -102.9575 -88.7715 -71.2832 -71.2746 -71.2604 -71.2486 -71.2360 -71.2294
   -71.2190 -66.6443 -66.6427 -66.6426 -66.6426 -66.6425 -66.6413 -66.6413
   -66.6342 -66.6320 -66.6320 -66.6320 -66.6319 -66.6307 -66.6307 -66.6284
   -66.6256 -66.6186 -66.6171 -66.6171 -66.6169 -66.6169 -66.6169 -66.6169
   -66.6167 -66.6166 -66.6156 -66.6156 -66.6156 -66.6156 -66.6131 -66.6125
   -66.6124 -66.6124 -66.6123 -66.6116 -66.6111 -66.6111 -66.6064 -66.6063
   -66.6062 -66.6061 -66.6061 -66.6061 -66.6060 -66.6060 -66.6058 -66.6049
   -66.6049 -66.6048 -66.6048 -66.6035 -66.6017 -66.6017 -66.6017 -66.6017
   -66.6004 -66.6004 -66.5978 -66.5913 -66.5902 -66.5835 -66.5779 -66.5734
   -66.5682 -57.2748 -57.1496 -57.1202 -54.6533 -54.5492 -54.4950 -40.9534
   -40.9447 -40.9447 -40.9446 -40.9446 -40.9446 -40.9446 -40.9445 -40.9444
   -40.9440 -40.9440 -40.9439 -40.9439 -40.9371 -40.9237 -40.9195 -40.9178
   -40.9178 -40.9178 -40.9177 -40.9171 -40.9171 -40.9057 -40.9057 -40.9057
   -40.9057 -40.9052 -40.9051 -40.9051 -40.8994 -40.8912 -40.8802 -40.8550
   -40.8550 -40.8550 -40.8550 -40.8550 -40.8550 -40.8550 -40.8550 -40.8543
   -40.8543 -40.8543 -40.8543 -40.8455 -40.8390 -40.8362 -40.8257 -40.8211
   -40.8043 -40.7964 -40.7962 -40.7962 -40.7961 -40.7956 -40.7956 -40.7925
   -40.7868 -40.7868 -40.7868 -40.7867 -40.7859 -40.7859 -40.7823 -40.7754
   -40.7754 -40.7754 -40.7754 -40.7747 -40.7747 -40.7693 -40.7687 -40.7649
   -40.7582 -40.7524 -40.7469 -40.7460 -40.7460 -40.7458 -40.7458 -40.7457
   -40.7457 -40.7456 -40.7456 -40.7451 -40.7451 -40.7451 -40.7451 -40.7405
   -40.7371 -40.7370 -40.7370 -40.7370 -40.7369 -40.7364 -40.7363 -40.7302
   -40.7286 -40.7253 -40.7253 -40.7253 -40.7252 -40.7250 -40.7249 -40.7247
   -40.7247 -40.7247 -40.7247 -40.7247 -40.7244 -40.7244 -40.7243 -40.7240
   -40.7240 -40.7240 -40.7240 -40.7219 -40.7195 -40.7161 -40.7161 -40.7160
   -40.7160 -40.7153 -40.7153 -40.7123 -40.7120 -40.7028 -40.7027 -40.6946
   -40.6944 -40.6943 -40.6943 -40.6943 -40.6943 -40.6942 -40.6941 -40.6934
   -40.6934 -40.6934 -40.6934 -40.6878 -40.6840 -40.6728 -40.6672 -40.6596
   -40.6596 -40.6596 -40.6596 -40.6596 -40.6596 -40.6596 -40.6595 -40.6587
   -40.6587 -40.6587 -40.6587 -40.6480 -40.6475 -40.6475 -40.6475 -40.6474
   -40.6465 -40.6465 -40.6464 -40.6378 -40.6351 -40.6318 -40.6282 -40.6282
   -40.6281 -40.6280 -40.6272 -40.6272 -40.6143 -40.6114 -40.6111 -40.6111
   -40.6111 -40.6111 -40.6102 -40.6102 -40.6071 -40.5937 -40.5829 -40.5805
   -40.5805 -40.5805 -40.5804 -40.5795 -40.5795 -40.5674 -40.5412 -20.0948
   -19.9145 -19.8930 -19.8561 -19.7955 -19.7639 -19.6855 -19.6718 -19.5597
   -19.4918 -19.4555 -19.4389 -19.3654 -19.3473 -19.2613 -19.2502 -19.1546
   -18.8891 -18.8347 -18.7976 -18.7839 -18.7645 -18.7482 -18.7444 -18.7411
   -18.7317 -18.7135 -18.6860 -18.6771 -18.6666 -18.6652 -18.6484 -18.6089
   -18.6077 -18.5933 -18.5776 -18.5717 -18.5707 -18.5641 -18.5454 -18.5202
   -18.5102 -18.5071 -18.5012 -18.4917 -18.4590 -18.4360 -18.4329 -18.4235
   -18.4146 -18.3972 -18.3822 -18.3565 -18.3436 -18.3381 -18.3348 -18.2854
   -18.2697 -18.2615 -18.2560 -18.2298 -18.2176 -18.1942 -18.1892 -18.1700
   -18.1489 -18.1407 -18.1344 -18.1260 -18.1254 -18.1228 -18.1210 -18.0990
   -18.0979 -18.0971 -18.0947 -18.0911 -18.0892 -18.0839 -18.0729 -18.0726
   -18.0650 -18.0589 -18.0555 -18.0362 -18.0310 -18.0266 -18.0238 -18.0236
   -18.0209 -18.0169 -18.0131 -18.0104 -18.0003 -17.9787 -17.9620 -17.9600
   -17.9567 -17.9507 -17.9455 -17.9188 -17.9113 -17.9041 -17.9016 -17.8752
   -17.8734 -17.8658 -17.8651 -17.8581 -17.8568 -17.8437 -17.8428 -17.8418
   -17.8416 -17.8410 -17.8404 -17.8286 -17.8271 -17.8095 -17.8066 -17.7849
   -17.7828 -17.7656 -17.7632 -17.7508 -17.7494 -17.7430 -17.7429 -12.1659
   -11.9508 -11.7511 -11.7488 -11.6902 -11.6112 -11.5452 -11.5422 -11.5263
   -11.5240 -11.5100 -11.5061 -11.4965 -11.4770 -11.4734 -11.4471 -11.4301
   -11.4208 -11.4151 -11.3852 -11.3732 -11.3627 -11.3604 -11.3416 -11.3248
   -11.3201 -11.3140 -11.2991 -11.2877 -11.2838 -11.2837 -11.2785 -11.2735
   -11.2341 -11.2309 -11.2207 -11.2203 -11.2011 -11.1956 -11.1937 -11.1917
   -11.1808 -11.1742 -11.1699 -11.1608 -11.1472 -11.1327 -11.1158 -11.0952
   -11.0906 -11.0748 -11.0550 -11.0281 -11.0060 -10.9725 -10.9704 -10.9589
   -10.9494 -10.9247 -10.9198 -10.9124 -10.8924 -10.8765 -10.8609 -10.8557
   -10.8551 -10.8496 -10.8408 -10.8359 -10.8351 -10.8342 -10.8341 -10.8258
   -10.8213 -10.8193 -10.8188 -10.8153 -10.8148 -10.8098 -10.8072 -10.8041
   -10.7958 -10.7852 -10.7670 -10.7664 -10.7659 -10.7645 -10.6602 -10.5714
   -10.5593 -10.5560 -10.5533 -10.5199 -10.5004 -10.4492 -10.4138 -10.3606
   -10.2998 -10.2766 -10.2285 -10.2086 -10.1817 -10.1664 -10.1455 -10.1407
   -10.1300 -10.1200 -10.0891 -10.0810 -10.0764 -10.0670 -10.0619 -10.0532
   -10.0488 -10.0424 -10.0338 -10.0269 -10.0037  -9.9678  -9.9657  -9.9449
    -9.9399  -9.9374  -9.9292  -9.9233  -9.9168  -9.9022  -9.8909  -9.8733
    -9.8477  -9.8424  -9.8242  -9.8194  -9.8034  -9.7971  -9.7843  -9.7699
    -9.7513  -9.7496  -9.7295  -9.7196  -9.6965  -9.6854  -9.6836  -9.6521
    -9.6488  -9.6387  -9.6285  -9.6030  -9.5854  -9.5786  -9.5745  -9.5679
    -9.5613  -9.5583  -9.5370  -9.5159  -9.5118  -9.5072  -9.5016  -9.4983
    -9.4855  -9.4819  -9.4804  -9.4625  -9.4576  -9.4521  -9.4499  -9.4016
    -9.3903  -9.3626  -9.3498  -9.3276  -9.3175  -9.2895  -9.2432  -9.2397
    -9.2337  -9.2283  -9.2173  -9.2058  -9.1971  -9.1789  -9.1739  -9.1599
    -9.1539  -9.1464  -9.1280  -9.1147  -9.0923  -9.0817  -9.0791  -9.0640
    -9.0619  -9.0541  -9.0487  -9.0293  -9.0280  -9.0043  -8.9830  -8.9812
    -8.9737  -8.9716  -8.9649  -8.9452  -8.9363  -8.9210  -8.9153  -8.9110
    -8.9096  -8.9065  -8.9058  -8.9028  -8.9006  -8.8971  -8.8924  -8.8909
    -8.8813  -8.8746  -8.8709  -8.8681  -8.8635  -8.8628  -8.8463  -8.8445
    -8.8361  -8.8169  -8.8158  -8.8150  -8.8087  -8.8061  -8.8054  -8.7867
    -8.7827  -8.7613  -8.7570  -8.7553  -8.7523  -8.7509  -8.7354  -8.7253
    -8.6803  -8.6769  -8.6586  -8.6485  -8.6094  -8.5277  -8.5264  -8.5000
    -8.4822  -8.4707  -8.4632  -8.3943  -8.3792  -8.3599  -8.3367  -8.3249
    -8.2967  -8.2675  -8.1576  -8.1515  -8.1510  -8.1493  -8.1419  -8.1401
    -8.1306  -8.1298  -8.1051  -8.0784  -8.0718  -8.0478  -7.9992  -7.9913
    -7.9747  -7.9312  -7.9157  -7.8672  -7.8648  -7.8608  -7.8533  -7.8473
    -7.8419  -7.8373  -7.8294  -7.8285  -7.8264  -7.8185  -7.8162  -7.8147
    -7.8130  -7.8088  -7.8076  -7.8048  -7.8043  -7.7933  -7.7931  -7.7910
    -7.7893  -7.7883  -7.7850  -7.7832  -7.7820  -7.7801  -7.7674  -7.7660
    -7.7608  -7.7599  -7.7543  -7.7503  -7.7423  -7.7337  -7.7220  -7.7192
    -7.7189  -7.7170  -7.7048  -7.6896  -7.6895  -7.6881  -7.6879  -7.6748
    -7.6683  -7.6529  -7.6364  -7.6317  -7.6309  -7.6282  -7.6256  -7.6196
    -7.6164  -7.6092  -7.6070  -7.5977  -7.5875  -7.5867  -7.5805  -7.5785
    -7.5691  -7.5671  -7.4941  -7.4873  -7.4812  -7.4782  -7.4742  -7.4515
    -7.4386  -7.4060  -7.3196  -7.2929  -7.2694  -7.2002  -7.1915  -7.1902
    -7.1894  -7.1810  -7.1511  -7.1392  -7.1323  -7.1302  -7.1228  -7.1075
    -7.0776  -7.0705  -7.0559  -7.0524  -7.0469  -7.0427  -7.0017  -6.9992
[...]
     atom  170 type  1   force =    -0.00001262   -0.00001145    0.00000627
     atom  171 type  2   force =    -0.00000301    0.00000210    0.00000486
     atom  172 type  2   force =     0.00000072    0.00000218    0.00161506
     atom  173 type  2   force =     0.00000057    0.00000175   -0.00235902
     atom  174 type  2   force =    -0.00000589    0.00000096   -0.00001469
     atom  175 type  1   force =     0.00001752   -0.00000088   -0.00000339
     atom  176 type  1   force =    -0.00010732   -0.00004644   -0.00026468
     atom  177 type  2   force =    -0.00069586    0.00012994    0.00030726
     atom  178 type  2   force =    -0.00000063    0.00001613    0.00003005
     atom  179 type  2   force =     0.00003097   -0.00001456    0.00001159
     atom  180 type  2   force =     0.00022136    0.00004395    0.00006635
     atom  181 type  1   force =     0.00000177    0.00000153    0.00068857
     atom  182 type  1   force =    -0.00000657   -0.00000933   -0.00000126
     atom  183 type  2   force =    -0.00000095    0.00000062    0.00000622
     atom  184 type  2   force =     0.00000068    0.00000229    0.00161512
     atom  185 type  2   force =     0.00000053    0.00000173   -0.00235904
     atom  186 type  2   force =    -0.00000179    0.00000068    0.00000002
     atom  187 type  1   force =     0.00000964   -0.00000209    0.00003204
     atom  188 type  1   force =    -0.00014367    0.00010856    0.00030085
     atom  189 type  2   force =    -0.00012502    0.00004708    0.00030915
     atom  190 type  2   force =     0.00002005   -0.00002198    0.00001008
     atom  191 type  2   force =     0.00000320    0.00001828    0.00001340
     atom  192 type  2   force =    -0.00039920   -0.00031296    0.00011488
     atom  193 type  3   force =    -0.00006019    0.00031725   -0.00050368
     atom  194 type  4   force =    -0.00017456   -0.00076851    0.00040902

     Total force =     0.003088     Total SCF correction =     0.000494
     SCF correction compared to forces is large: reduce conv_thr to get better values
     Energy error            =      2.0E-05 Ry
     Gradient error          =      8.8E-04 Ry/Bohr

     bfgs converged in  18 scf cycles and  17 bfgs steps
     (criteria: energy <  1.0E-04 Ry, force <  1.0E-03 Ry/Bohr)

     End of BFGS Geometry Optimization

     Final energy             =  -33980.2984687023 Ry

     File ./outdir/pwscf.bfgs deleted, as requested
Begin final coordinates

ATOMIC_POSITIONS (angstrom)
Mo               0.0000119917        1.8193638619       -9.1672481230    0   0   0
Mo               1.5756136568        0.9097075315       -3.0554901653    0   0   0
S                0.0000188998        1.8193822938       -4.6232556019    0   0   0
S                1.5756321638        0.9096773839       -7.6014065489    0   0   0
S                1.5756326175        0.9096785128      -10.7330757790    0   0   0
S                0.0000189190        1.8193860094       -1.4877129945    0   0   0
Mo              -0.0000731829        1.8194856204        3.0562105618
Mo               1.5743354400        0.9106443175        9.1617159153
S               -0.0049587537        1.8216927272        7.5958893437
S                1.5757165958        0.9098893845        4.6233791845
S                1.5754609531        0.9097498506        1.4881349381
S                0.0068967513        1.8184145005       10.7427134640
Mo              -1.5756053507        4.5484193819       -9.1672481230    0   0   0
Mo               0.0000378379        3.6387394919       -3.0554952701    0   0   0
S               -1.5755913433        4.5484363582       -4.6232494962    0   0   0
S                0.0000148214        3.6387329039       -7.6014065489    0   0   0
S                0.0000152751        3.6387340328      -10.7330757790    0   0   0
S               -1.5755906502        4.5484413613       -1.4877305502    0   0   0
Mo              -1.5753642278        4.5485434423        3.0559534417
Mo              -0.0028503277        3.6306328300        9.1738151171
S               -1.5720366081        4.5475823398        7.5965755165
S                0.0002955155        3.6392176901        4.6239230726
S                0.0000124718        3.6387611623        1.4881723115
S               -1.5823153648        4.5483471111       10.7343719802
Mo              -3.1512226931        7.2774749019       -9.1672481230    0   0   0
Mo              -1.5755910988        6.3678216792       -3.0555115988    0   0   0
S               -3.1512162438        7.2774954350       -4.6232578178    0   0   0
S               -1.5756025210        6.3677884239       -7.6014065489    0   0   0
S               -1.5756020673        6.3677895528      -10.7330757790    0   0   0
S               -3.1512127704        7.2774877076       -1.4877200710    0   0   0
Mo              -3.1508954553        7.2774551733        3.0557064533
Mo              -1.5898275188        6.3666981246        9.1677532846
S               -3.1439067616        7.2774334225        7.5835708630
S               -1.5751020891        6.3679162567        4.6238152830
S               -1.5750819063        6.3679650978        1.4882484381
S               -3.1632848568        7.2825895642       10.7280921111
Mo              -4.7268400355       10.0065304219       -9.1672481230    0   0   0
Mo              -3.1512405618        9.0968403586       -3.0554816746    0   0   0
S               -4.7268341792       10.0065523623       -4.6232463762    0   0   0
S               -3.1512198634        9.0968439439       -7.6014065489    0   0   0
S               -3.1512194097        9.0968450728      -10.7330757790    0   0   0
S               -4.7268370797       10.0065537885       -1.4877176751    0   0   0
Mo              -4.7269482178       10.0065911455        3.0559256024
Mo              -3.1555793999        9.0997223043        9.1518879719
S               -4.7336816976       10.0103617760        7.5876933881
S               -3.1512096398        9.0966729374        4.6234014993
S               -3.1510198238        9.0969810886        1.4882264753
S               -4.7152789004       10.0077233290       10.7306616457
Mo               3.1512517547        1.8193638619       -9.1672481230    0   0   0
Mo               4.7269020221        0.9097289540       -3.0554823951    0   0   0
S                3.1512612351        1.8193882564       -4.6232320683    0   0   0
S                4.7268719268        0.9096773839       -7.6014065489    0   0   0
S                4.7268723805        0.9096785128      -10.7330757790    0   0   0
S                3.1512592485        1.8193890201       -1.4877261251    0   0   0
Mo               3.1512179162        1.8195328341        3.0555701712
Mo               4.7233995066        0.9118814838        9.1554130720
S                3.1466511741        1.8244000081        7.5922043763
S                4.7268080885        0.9098635005        4.6232527422
S                4.7271078350        0.9095514235        1.4881753013
S                3.1544441874        1.8106478380       10.7330007840
Mo               1.5756344123        4.5484193819       -9.1672481230    0   0   0
Mo               3.1512756394        3.6387769522       -3.0554814834    0   0   0
S                1.5756504879        4.5484423799       -4.6232390542    0   0   0
S                3.1512545844        3.6387329039       -7.6014065489    0   0   0
S                3.1512550381        3.6387340328      -10.7330757790    0   0   0
S                1.5756466253        4.5484431864       -1.4877251801    0   0   0
Mo               1.5755460702        4.5489039099        3.0556916271
Mo               3.1543897941        3.6318303954        9.1713761078
S                1.5730977854        4.5614345048        7.6270172902
S                3.1505776552        3.6390290181        4.6232063982
S                3.1513441799        3.6390833757        1.4880327502
S                1.5685154970        4.4702044770       10.7939113501
Mo               0.0000170699        7.2774749019       -9.1672481230    0   0   0
Mo               1.5756764447        6.3678236689       -3.0554877708    0   0   0
S                0.0000381981        7.2774979204       -4.6232454413    0   0   0
S                1.5756372420        6.3677884239       -7.6014065489    0   0   0
S                1.5756376957        6.3677895528      -10.7330757790    0   0   0
S                0.0000328088        7.2774946042       -1.4877307940    0   0   0
Mo               0.0004700540        7.2775847061        3.0563833960
Mo               1.5668346512        6.3495475196        9.2097929346
S                0.0109285869        7.2715030988        7.6302304910
S                1.5759884241        6.3679427466        4.6246029484
S                1.5757357761        6.3682272037        1.4882083558
S               -0.0800679715        7.3164186375       10.7699631976
Mo              -1.5756002725       10.0065304219       -9.1672481230    0   0   0
Mo               0.0000873425        9.0968676911       -3.0554912329    0   0   0
S               -1.5755883952       10.0065504530       -4.6232240150    0   0   0
S                0.0000198996        9.0968439439       -7.6014065489    0   0   0
S                0.0000203533        9.0968450728      -10.7330757790    0   0   0
S               -1.5755859047       10.0065492576       -1.4877362381    0   0   0
Mo              -1.5752747137       10.0064179133        3.0561854931
Mo              -0.0264999576        9.1074811137        9.1762743175
S               -1.5777073914       10.0087513064        7.5843856442
S                0.0005818371        9.0966713837        4.6246745496
S                0.0002949738        9.0967828966        1.4885095505
S               -1.6066051184       10.0204169083       10.7314166749
Mo               6.3024915177        1.8193638619       -9.1672481230    0   0   0
Mo               7.8781001445        0.9096521684       -3.0554919963    0   0   0
S                6.3025008696        1.8193826232       -4.6232480596    0   0   0
S                7.8781116898        0.9096773839       -7.6014065489    0   0   0
S                7.8781121435        0.9096785128      -10.7330757790    0   0   0
S                6.3025042007        1.8193849068       -1.4877147524    0   0   0
Mo               6.3027690195        1.8192181721        3.0559711641
Mo               7.8731864359        0.9287486797        9.1674915534
S                6.3041124510        1.8125547311        7.5815068436
S                7.8784241217        0.9091434541        4.6240753565
S                7.8783467416        0.9094151870        1.4884553400
S                6.2923076242        1.8326745099       10.7278646974
Mo               4.7268741753        4.5484193819       -9.1672481230    0   0   0
Mo               6.3024679138        3.6387501714       -3.0554895197    0   0   0
S                4.7268748770        4.5484386753       -4.6232519432    0   0   0
S                6.3024943474        3.6387329039       -7.6014065489    0   0   0
S                6.3024948011        3.6387340328      -10.7330757790    0   0   0
S                4.7268770533        4.5484432419       -1.4877137856    0   0   0
Mo               4.7268459579        4.5486272805        3.0561997497
Mo               6.3060903096        3.6321012105        9.1464816567
S                4.7267061253        4.5313060245        7.5769368318
S                6.3032001241        3.6388785251        4.6230274708
S                6.3022664570        3.6386446285        1.4880345262
S                4.7493239924        4.5307134932       10.7224749679
Mo               3.1512568329        7.2774749019       -9.1672481230    0   0   0
Mo               4.7268384135        6.3678043337       -3.0554959052    0   0   0
S                3.1512606125        7.2774972547       -4.6232589675    0   0   0
S                4.7268770050        6.3677884239       -7.6014065489    0   0   0
S                4.7268774587        6.3677895528      -10.7330757790    0   0   0
S                3.1512629079        7.2774963749       -1.4877081835    0   0   0
Mo               3.1511962284        7.2776623008        3.0562389163
Mo               4.7731912918        6.3419096434        9.1471197182
S                3.1424084737        7.2857663841        7.6573725178
S                4.7265476058        6.3681355732        4.6244221479
S                4.7268548129        6.3679518928        1.4885114291
S                3.2616619542        7.1662279464       10.7663023224
Mo               1.5756394905       10.0065304219       -9.1672481230    0   0   0
Mo               3.1512330605        9.0968514907       -3.0554878870    0   0   0
S                1.5756499830       10.0065443759       -4.6232632674    0   0   0
S                3.1512596626        9.0968439439       -7.6014065489    0   0   0
S                3.1512601163        9.0968450728      -10.7330757790    0   0   0
S                1.5756503041       10.0065459699       -1.4877044377    0   0   0
Mo               1.5759301616       10.0062022025        3.0563576445
Mo               3.1573291178        9.1038028533        9.2150974766
S                1.5899828348        9.9962658520        7.6405191643
S                3.1514010891        9.0966264143        4.6246508331
S                3.1510768969        9.0966917438        1.4881384505
S                1.4620978399       10.0807348402       10.7949298102
Mo               9.4537312807        1.8193638619       -9.1672481230    0   0   0
Mo              11.0293863460        0.9096952246       -3.0554894007    0   0   0
S                9.4537395970        1.8193770750       -4.6232328036    0   0   0
S               11.0293514528        0.9096773839       -7.6014065489    0   0   0
S               11.0293519066        0.9096785128      -10.7330757790    0   0   0
S                9.4537393632        1.8193794783       -1.4877366147    0   0   0
Mo               9.4538829912        1.8192095422        3.0562363344
Mo              11.0340598079        0.9205347689        9.1758200028
S                9.4585438864        1.8191232043        7.5951282627
S               11.0292778842        0.9091467742        4.6240896923
S               11.0293278633        0.9098216870        1.4882862078
S                9.4511454802        1.8272992798       10.7351843750
Mo               7.8781139383        4.5484193819       -9.1672481230    0   0   0
Mo               9.4537539161        3.6387607911       -3.0554933032    0   0   0
S                7.8781175448        4.5484378232       -4.6232366318    0   0   0
S                9.4537341104        3.6387329039       -7.6014065489    0   0   0
S                9.4537345641        3.6387340328      -10.7330757790    0   0   0
S                7.8781194018        4.5484411585       -1.4877377057    0   0   0
Mo               7.8784447725        4.5483444201        3.0551164692
Mo               9.4544600482        3.6391931369        9.1618208042
S                7.8857525469        4.5454777742        7.5826389982
S                9.4538959065        3.6388598945        4.6233002884
S                9.4541807583        3.6384242614        1.4879636537
S                7.8768269291        4.5487786221       10.7202072759
Mo               6.3024965959        7.2774749019       -9.1672481230    0   0   0
Mo               7.8781361655        6.3678242352       -3.0555014130    0   0   0
S                6.3024973331        7.2774953556       -4.6232392528    0   0   0
S                7.8781167680        6.3677884239       -7.6014065489    0   0   0
S                7.8781172217        6.3677895528      -10.7330757790    0   0   0
S                6.3024989866        7.2774929744       -1.4877349119    0   0   0
Mo               6.3023878507        7.2776107430        3.0562494565
Mo               7.8861530829        6.3680111677        9.1499612118
S                6.3200067768        7.2851723219        7.5769190695
S                7.8785519766        6.3673496259        4.6228289315
S                7.8780226386        6.3681532888        1.4879467713
S                6.3251652664        7.2699023506       10.7224181252
Mo               4.7268792535       10.0065304219       -9.1672481230    0   0   0
Mo               6.3025111524        9.0968738021       -3.0554915260    0   0   0
S                4.7268840634       10.0065452125       -4.6232380477    0   0   0
S                6.3024994256        9.0968439439       -7.6014065489    0   0   0
S                6.3024998793        9.0968450728      -10.7330757790    0   0   0
S                4.7268847312       10.0065459141       -1.4877283294    0   0   0
Mo               4.7264716240       10.0064681042        3.0557280656
Mo               6.3140425084        9.0966951166        9.1690750775
S                4.7043791776        9.9981374141        7.6374631531
S                6.3017453181        9.0973987614        4.6235339018
S                6.3023917923        9.0967893189        1.4881938541
S                4.8206668392       10.0645746477       10.8149809246
Pd               1.6105666107        6.4889391959       12.1774753718
Pt               3.0792211860        9.0206035880       12.0295403121
End final coordinates



     Writing all to output data dir ./outdir/pwscf.save/ :
     XML data file, charge density, pseudopotentials, collected wavefunctions
 
     init_run     :    177.41s CPU    180.86s WALL (       1 calls)
     electrons    :  81877.70s CPU  82847.76s WALL (       9 calls)
     update_pot   :     13.44s CPU     13.86s WALL (       8 calls)
     forces       :   1171.23s CPU   1191.37s WALL (       9 calls)
     force_dftd3  :      6.06s CPU      6.33s WALL (       9 calls)

     Called by init_run:
     wfcinit      :    153.19s CPU    155.01s WALL (       1 calls)
     potinit      :      1.35s CPU      1.54s WALL (       1 calls)
     hinit0       :     13.04s CPU     13.22s WALL (       1 calls)

     Called by electrons:
     c_bands      :  73475.28s CPU  74146.32s WALL (     118 calls)
     sum_band     :   7510.55s CPU   7665.89s WALL (     118 calls)
     v_of_rho     :     42.60s CPU     47.78s WALL (     119 calls)
     newd         :    752.87s CPU    894.23s WALL (     119 calls)
     PAW_pot      :    111.82s CPU    112.93s WALL (     127 calls)
     mix_rho      :     11.46s CPU     13.30s WALL (     118 calls)
     energy_dftd3 :      3.49s CPU      3.51s WALL (       9 calls)

     Called by c_bands:
     init_us_2    :    253.14s CPU    254.42s WALL (    1016 calls)
     init_us_2:cp :    253.13s CPU    254.41s WALL (    1016 calls)
     cegterg      :  72365.62s CPU  73027.71s WALL (     496 calls)

     Called by *egterg:
     cdiaghg      :   3920.49s CPU   4058.30s WALL (    6277 calls)
     h_psi        :  36301.53s CPU  36523.08s WALL (    6364 calls)
     s_psi        :   8399.42s CPU   8451.04s WALL (    6364 calls)
     g_psi        :     68.40s CPU     68.68s WALL (    5864 calls)

     Called by h_psi:
     h_psi:calbec :   8247.69s CPU   8274.68s WALL (    6364 calls)
     vloc_psi     :  19453.31s CPU  19548.76s WALL (    6364 calls)
     add_vuspsi   :   8452.45s CPU   8505.49s WALL (    6364 calls)

     General routines
     calbec       :  11385.75s CPU  11422.52s WALL (    7012 calls)
     fft          :     39.93s CPU     44.70s WALL (    1644 calls)
     ffts         :      2.12s CPU      2.30s WALL (     237 calls)
     fftw         :  14520.66s CPU  14591.85s WALL ( 3770194 calls)
     interpolate  :      3.69s CPU      4.06s WALL (     119 calls)
 
     Parallel routines
 
     PWSCF        :     23h12m CPU     23h30m WALL

 
   This run was terminated on:  15: 1:16  20Mar2024            

=------------------------------------------------------------------------------=
   JOB DONE.
=------------------------------------------------------------------------------=
