
     Program PWSCF v.7.3 starts on  2Apr2024 at  4:43:47 

     This program is part of the open-source Quantum ESPRESSO suite
     for quantum simulation of materials; please cite
         "P. Giannozzi et al., J. Phys.:Condens. Matter 21 395502 (2009);
         "P. Giannozzi et al., J. Phys.:Condens. Matter 29 465901 (2017);
         "P. Giannozzi et al., J. Chem. Phys. 152 154105 (2020);
          URL http://www.quantum-espresso.org", 
     in publications or presentations arising from this work. More details at
     http://www.quantum-espresso.org/quote

     Parallel version (MPI & OpenMP), running on      36 processor cores
     Number of MPI processes:                36
     Threads/MPI process:                     1

     MPI processes distributed on     1 nodes
     560622 MiB available memory on the printing compute node when the environment starts
 
     Waiting for input...
     Reading input from standard input
Warning: card &CELL ignored
Warning: card / ignored

     Current dimensions of program PWSCF are:
     Max number of different atomic species (ntypx) = 10
     Max number of k-points (npk) =  40000
     Max angular momentum in pseudopotentials (lmaxx) =  4
     file Mo.pbe-spn-kjpaw_psl.1.0.0.UPF: wavefunction(s)  4S 4D renormalized
     file S.pbe-n-kjpaw_psl.1.0.0.UPF: wavefunction(s)  3S 3P renormalized
     file Pt.pbe-spfn-kjpaw_psl.1.0.0.UPF: wavefunction(s)  5P 4F renormalized
     file Pd.pbe-spn-kjpaw_psl.1.0.0.UPF: wavefunction(s)  4S 5S 4D renormalized
 
     R & G space division:  proc/nbgrp/npool/nimage =      36
     Subspace diagonalization in iterative solution of the eigenvalue problem:
     one sub-group per band group will be used
     scalapack distributed-memory algorithm (size of sub-group:  6*  6 procs)

 
     Parallelization info
     --------------------
     sticks:   dense  smooth     PW     G-vecs:    dense   smooth      PW
     Min         586     335     89               165416    71459    9765
     Max         587     337     90               165425    71461    9778
     Sum       21109   12085   3205              5955087  2572543  351657
 
     Using Slab Decomposition
 


     bravais-lattice index     =            0
     lattice parameter (alat)  =      23.8395  a.u.
     unit-cell volume          =   28182.8498 (a.u.)^3
     number of atoms/cell      =          147
     number of atomic types    =            4
     number of electrons       =      1316.00
     number of Kohn-Sham states=          790
     kinetic-energy cutoff     =      77.0000  Ry
     charge density cutoff     =     539.0000  Ry
     scf convergence threshold =      1.0E-06
     mixing beta               =       0.2000
     number of iterations used =            8  plain     mixing
     energy convergence thresh.=      1.0E-04
     force convergence thresh. =      1.0E-03
     Exchange-correlation= SLA  PW   PBX  PBC
                           (   1   4   3   4   0   0   0)
     nstep                     =         1000


     Effective Screening Medium Method
     =================================
     Boundary Conditions: Vacuum-Slab-Vacuum
     total charge in unit cell        =   0.0000
     grid points for fit at edges     =        4 
 

     celldm(1)=  23.839504  celldm(2)=   0.000000  celldm(3)=   0.000000
     celldm(4)=   0.000000  celldm(5)=   0.000000  celldm(6)=   0.000000

     crystal axes: (cart. coord. in units of alat)
               a(1) = (   1.000000   0.000000   0.000000 )  
               a(2) = (  -0.500001   0.866026   0.000000 )  
               a(3) = (   0.000000   0.000000   2.401941 )  

     reciprocal axes: (cart. coord. in units 2 pi/alat)
               b(1) = (  1.000000  0.577351  0.000000 )  
               b(2) = (  0.000000  1.154700  0.000000 )  
               b(3) = (  0.000000  0.000000  0.416330 )  


     PseudoPot. # 1 for Mo read from file:
     ./pseudo/Mo.pbe-spn-kjpaw_psl.1.0.0.UPF
     MD5 check sum: 317bf72632116215fd98f72de1686f13
     Pseudo is Projector augmented-wave + core cor, Zval = 14.0
     Generated using 'atomic' code by A. Dal Corso  v.7.2
     Shape of augmentation charge: PSQ
     Using radial grid of 1229 points,  6 beta functions with: 
                l(1) =   0
                l(2) =   0
                l(3) =   1
                l(4) =   1
                l(5) =   2
                l(6) =   2
     Q(r) pseudized with 0 coefficients 


     PseudoPot. # 2 for S  read from file:
     ./pseudo/S.pbe-n-kjpaw_psl.1.0.0.UPF
     MD5 check sum: 8b7b5302570d38d5e87fed6a1065abda
     Pseudo is Projector augmented-wave + core cor, Zval =  6.0
     Generated using 'atomic' code by A. Dal Corso  v.7.2
     Shape of augmentation charge: PSQ
     Using radial grid of 1151 points,  6 beta functions with: 
                l(1) =   0
                l(2) =   0
                l(3) =   1
                l(4) =   1
                l(5) =   2
                l(6) =   2
     Q(r) pseudized with 0 coefficients 


     PseudoPot. # 3 for Pt read from file:
     ./pseudo/Pt.pbe-spfn-kjpaw_psl.1.0.0.UPF
     MD5 check sum: 620096ebf4e6ebacc94de60fd67efcb5
     Pseudo is Projector augmented-wave + core cor, Zval = 32.0
     Generated using 'atomic' code by A. Dal Corso  v.7.2
     Shape of augmentation charge: PSQ
     Using radial grid of 1277 points,  8 beta functions with: 
                l(1) =   0
                l(2) =   0
                l(3) =   1
                l(4) =   1
                l(5) =   2
                l(6) =   2
                l(7) =   3
                l(8) =   3
     Q(r) pseudized with 0 coefficients 


     PseudoPot. # 4 for Pd read from file:
     ./pseudo/Pd.pbe-spn-kjpaw_psl.1.0.0.UPF
     MD5 check sum: a60571a671f2502b8a6a4569d20a6edb
     Pseudo is Projector augmented-wave + core cor, Zval = 18.0
     Generated using 'atomic' code by A. Dal Corso  v.7.2
     Shape of augmentation charge: PSQ
     Using radial grid of 1235 points,  6 beta functions with: 
                l(1) =   0
                l(2) =   0
                l(3) =   1
                l(4) =   1
                l(5) =   2
                l(6) =   2
     Q(r) pseudized with 0 coefficients 


     atomic species   valence    mass     pseudopotential
     Mo               14.00    95.95000     Mo( 1.00)
     S                 6.00    32.06000     S ( 1.00)
     Pt               32.00   195.08400     Pt( 1.00)
     Pd               18.00   106.42000     Pd( 1.00)

     No symmetry found



   Cartesian axes

     site n.     atom                  positions (alat units)
         1        Mo     tau(   1) = (   0.1246074   0.2157200   0.4826345  )
         2        Mo     tau(   2) = (   0.1250004   0.0721694  -0.4825273  )
         3        Mo     tau(   3) = (   0.0000068   0.1443549  -0.0000406  )
         4        S      tau(   4) = (   0.0000004   0.0000006  -0.6064556  )
         5        S      tau(   5) = (   0.1249873   0.0722031  -0.1241756  )
         6        S      tau(   6) = (   0.0000973   0.1450650   0.3573519  )
         7        S      tau(   7) = (   0.0000004   0.0000005  -0.3584711  )
         8        S      tau(   8) = (   0.1249847   0.0720950   0.1240801  )
         9        S      tau(   9) = (  -0.0005301   0.1434694   0.6062599  )
        10        Mo     tau(  10) = (  -0.0009156   0.4330317   0.4832560  )
        11        Mo     tau(  11) = (   0.0000001   0.2886759  -0.4825273  )
        12        Mo     tau(  12) = (  -0.1249829   0.3608507   0.0000027  )
        13        S      tau(  13) = (  -0.1249999   0.2165071  -0.6064556  )
        14        S      tau(  14) = (   0.0000128   0.2886930  -0.1241006  )
        15        S      tau(  15) = (  -0.1248837   0.3612581   0.3580377  )
        16        S      tau(  16) = (  -0.1249998   0.2165070  -0.3584711  )
        17        S      tau(  17) = (   0.0000764   0.2887257   0.1242499  )
        18        S      tau(  18) = (  -0.1253220   0.3603286   0.6073134  )
        19        Mo     tau(  19) = (  -0.1249684   0.6493789   0.4818062  )
        20        Mo     tau(  20) = (  -0.1250002   0.5051824  -0.4825273  )
        21        Mo     tau(  21) = (  -0.2500040   0.5773207  -0.0001409  )
        22        S      tau(  22) = (  -0.2500002   0.4330136  -0.6064556  )
        23        S      tau(  23) = (  -0.1249903   0.5051158  -0.1241917  )
        24        S      tau(  24) = (  -0.2499555   0.5769406   0.3578597  )
        25        S      tau(  25) = (  -0.2500001   0.4330135  -0.3584711  )
        26        S      tau(  26) = (  -0.1249930   0.5052458   0.1241101  )
        27        S      tau(  27) = (  -0.2497899   0.5778453   0.6063597  )
        28        Mo     tau(  28) = (   0.2497834  -0.0005160   0.4806710  )
        29        Mo     tau(  29) = (  -0.2500004   0.7216889  -0.4825273  )
        30        Mo     tau(  30) = (  -0.3750188   0.7938286  -0.0001549  )
        31        S      tau(  31) = (  -0.3750004   0.6495201  -0.6064556  )
        32        S      tau(  32) = (  -0.2500074   0.7216649  -0.1242513  )
        33        S      tau(  33) = (  -0.3752234   0.7935039   0.3566636  )
        34        S      tau(  34) = (  -0.3750004   0.6495200  -0.3584711  )
        35        S      tau(  35) = (  -0.2499996   0.7216607   0.1240200  )
        36        S      tau(  36) = (  -0.3746819   0.7948899   0.6057341  )
        37        Mo     tau(  37) = (   0.3750034   0.2123618   0.4807886  )
        38        Mo     tau(  38) = (   0.3750004   0.0721694  -0.4825273  )
        39        Mo     tau(  39) = (   0.2499981   0.1443415  -0.0000413  )
        40        S      tau(  40) = (   0.2500004   0.0000006  -0.6064556  )
        41        S      tau(  41) = (   0.3750280   0.0722231  -0.1241519  )
        42        S      tau(  42) = (   0.2489233   0.1437373   0.3564531  )
        43        S      tau(  43) = (   0.2500004   0.0000005  -0.3584711  )
        44        S      tau(  44) = (   0.3749877   0.0720947   0.1241383  )
        45        S      tau(  45) = (   0.2497122   0.1423104   0.6055821  )
        46        Mo     tau(  46) = (   0.2490774   0.4329018   0.4862977  )
        47        Mo     tau(  47) = (   0.2500001   0.2886759  -0.4825273  )
        48        Mo     tau(  48) = (   0.1250319   0.3608540  -0.0000126  )
        49        S      tau(  49) = (   0.1250001   0.2165071  -0.6064556  )
        50        S      tau(  50) = (   0.2500259   0.2886851  -0.1240979  )
        51        S      tau(  51) = (   0.1263042   0.3620125   0.3614359  )
        52        S      tau(  52) = (   0.1250002   0.2165070  -0.3584711  )
        53        S      tau(  53) = (   0.2500168   0.2886898   0.1242904  )
        54        S      tau(  54) = (   0.1173694   0.3566575   0.6132890  )
        55        Mo     tau(  55) = (   0.1240062   0.6506471   0.4823696  )
        56        Mo     tau(  56) = (   0.1249998   0.5051824  -0.4825273  )
        57        Mo     tau(  57) = (   0.0000191   0.5773226  -0.0001255  )
        58        S      tau(  58) = (  -0.0000002   0.4330136  -0.6064556  )
        59        S      tau(  59) = (   0.1250359   0.5051398  -0.1241676  )
        60        S      tau(  60) = (   0.0000697   0.5768181   0.3580317  )
        61        S      tau(  61) = (  -0.0000001   0.4330135  -0.3584711  )
        62        S      tau(  62) = (   0.1250059   0.5052001   0.1242069  )
        63        S      tau(  63) = (  -0.0003304   0.5778980   0.6066479  )
        64        Mo     tau(  64) = (   0.5003257  -0.0004925   0.4803774  )
        65        Mo     tau(  65) = (  -0.0000004   0.7216889  -0.4825273  )
        66        Mo     tau(  66) = (  -0.1249927   0.7938427  -0.0001655  )
        67        S      tau(  67) = (  -0.1250004   0.6495201  -0.6064556  )
        68        S      tau(  68) = (   0.0000418   0.7216760  -0.1242215  )
        69        S      tau(  69) = (  -0.1250504   0.7929751   0.3566577  )
        70        S      tau(  70) = (  -0.1250004   0.6495200  -0.3584711  )
        71        S      tau(  71) = (  -0.0000163   0.7216479   0.1240623  )
        72        S      tau(  72) = (  -0.1248984   0.7939509   0.6051552  )
        73        Mo     tau(  73) = (   0.6254010   0.2160480   0.4824065  )
        74        Mo     tau(  74) = (   0.6250004   0.0721694  -0.4825273  )
        75        Mo     tau(  75) = (   0.5000167   0.1443371   0.0000092  )
        76        S      tau(  76) = (   0.5000004   0.0000006  -0.6064556  )
        77        S      tau(  77) = (   0.6250207   0.0721868  -0.1241145  )
        78        S      tau(  78) = (   0.5010641   0.1438734   0.3562763  )
        79        S      tau(  79) = (   0.5000004   0.0000005  -0.3584711  )
        80        S      tau(  80) = (   0.6250414   0.0720927   0.1241409  )
        81        S      tau(  81) = (   0.5005473   0.1420509   0.6053992  )
        82        Mo     tau(  82) = (   0.5016373   0.4329758   0.4857863  )
        83        Mo     tau(  83) = (   0.5000001   0.2886759  -0.4825273  )
        84        Mo     tau(  84) = (   0.3750027   0.3608467   0.0000234  )
        85        S      tau(  85) = (   0.3750001   0.2165071  -0.6064556  )
        86        S      tau(  86) = (   0.5000046   0.2886693  -0.1240592  )
        87        S      tau(  87) = (   0.3745963   0.3620572   0.3631324  )
        88        S      tau(  88) = (   0.3750002   0.2165070  -0.3584711  )
        89        S      tau(  89) = (   0.4999634   0.2887051   0.1243131  )
        90        S      tau(  90) = (   0.3781068   0.3490112   0.6089630  )
        91        Mo     tau(  91) = (   0.3753335   0.6518408   0.4830502  )
        92        Mo     tau(  92) = (   0.3749998   0.5051824  -0.4825273  )
        93        Mo     tau(  93) = (   0.2500203   0.5772987  -0.0000555  )
        94        S      tau(  94) = (   0.2499998   0.4330136  -0.6064556  )
        95        S      tau(  95) = (   0.3750008   0.5051221  -0.1241383  )
        96        S      tau(  96) = (   0.2501878   0.5758780   0.3616377  )
        97        S      tau(  97) = (   0.2499999   0.4330135  -0.3584711  )
        98        S      tau(  98) = (   0.3750015   0.5051839   0.1242620  )
        99        S      tau(  99) = (   0.2495016   0.5878580   0.6113208  )
       100        Mo     tau( 100) = (   0.7500199   0.0003818   0.4811571  )
       101        Mo     tau( 101) = (   0.2499996   0.7216889  -0.4825273  )
       102        Mo     tau( 102) = (   0.1250316   0.7938162  -0.0000875  )
       103        S      tau( 103) = (   0.1249996   0.6495201  -0.6064556  )
       104        S      tau( 104) = (   0.2500359   0.7216507  -0.1241461  )
       105        S      tau( 105) = (   0.1254554   0.7934228   0.3566219  )
       106        S      tau( 106) = (   0.1249996   0.6495200  -0.3584711  )
       107        S      tau( 107) = (   0.2500086   0.7215741   0.1241838  )
       108        S      tau( 108) = (   0.1244907   0.7952297   0.6057917  )
       109        Mo     tau( 109) = (  -0.1249741   0.2166510   0.4819241  )
       110        Mo     tau( 110) = (   0.8750004   0.0721694  -0.4825273  )
       111        Mo     tau( 111) = (   0.7500133   0.1443436  -0.0000073  )
       112        S      tau( 112) = (   0.7500004   0.0000006  -0.6064556  )
       113        S      tau( 113) = (   0.8749956   0.0721731  -0.1241058  )
       114        S      tau( 114) = (   0.7500203   0.1449522   0.3574598  )
       115        S      tau( 115) = (   0.7500004   0.0000005  -0.3584711  )
       116        S      tau( 116) = (   0.8750238   0.0721604   0.1241841  )
       117        S      tau( 117) = (   0.7504201   0.1437382   0.6062629  )
       118        Mo     tau( 118) = (  -0.2493495   0.4328575   0.4828262  )
       119        Mo     tau( 119) = (   0.7500001   0.2886759  -0.4825273  )
       120        Mo     tau( 120) = (   0.6249856   0.3608477   0.0000279  )
       121        S      tau( 121) = (   0.6250001   0.2165071  -0.6064556  )
       122        S      tau( 122) = (   0.7499958   0.2886820  -0.1240679  )
       123        S      tau( 123) = (   0.6241512   0.3616755   0.3603414  )
       124        S      tau( 124) = (   0.6250002   0.2165070  -0.3584711  )
       125        S      tau( 125) = (   0.7499862   0.2887159   0.1242658  )
       126        S      tau( 126) = (   0.6305969   0.3581080   0.6112211  )
       127        Mo     tau( 127) = (  -0.3742668   0.6505223   0.4820597  )
       128        Mo     tau( 128) = (   0.6249998   0.5051824  -0.4825273  )
       129        Mo     tau( 129) = (   0.4999851   0.5773046  -0.0000631  )
       130        S      tau( 130) = (   0.4999998   0.4330136  -0.6064556  )
       131        S      tau( 131) = (   0.6249723   0.5051139  -0.1241565  )
       132        S      tau( 132) = (   0.4998783   0.5762956   0.3606843  )
       133        S      tau( 133) = (   0.4999999   0.4330135  -0.3584711  )
       134        S      tau( 134) = (   0.6250095   0.5052263   0.1241915  )
       135        S      tau( 135) = (   0.5006407   0.5846211   0.6091832  )
       136        Mo     tau( 136) = (   0.0000410   0.0004185   0.4809769  )
       137        Mo     tau( 137) = (   0.4999996   0.7216889  -0.4825273  )
       138        Mo     tau( 138) = (   0.3750036   0.7938273  -0.0000272  )
       139        S      tau( 139) = (   0.3749996   0.6495201  -0.6064556  )
       140        S      tau( 140) = (   0.4999499   0.7216482  -0.1241729  )
       141        S      tau( 141) = (   0.3750006   0.7941054   0.3569117  )
       142        S      tau( 142) = (   0.3749996   0.6495200  -0.3584711  )
       143        S      tau( 143) = (   0.5000314   0.7216102   0.1241515  )
       144        S      tau( 144) = (   0.3752329   0.7966920   0.6062052  )
       145        Pt     tau( 145) = (   0.2580795   0.4348292   0.7095693  )
       146        Pd     tau( 146) = (   0.4899479   0.4358638   0.7204770  )
       147        Pd     tau( 147) = (  -0.2493793   0.4328863   0.7380707  )

     --------------------------------------------
     DFT-D3 Dispersion Correction (3-body terms):
     --------------------------------------------
       Reference C6 values for interpolation: 

         atom   Coordination number   C6
         S          0.000           268.01
         S          0.995           261.99
         S          1.990           251.62
         Mo         0.000          1691.79
         Mo         1.942          1004.01
         Mo        11.056           674.22
         Pd         0.000          1217.01
         Pd         1.863           573.90
         Pd         5.710           531.75
         Pt         0.000           782.29
         Pt         1.919           692.72
         Pt         6.667           673.75

       Values used:

         atom   Coordination number  R0_AB[au]  C6      C8
         Mo        10.200            3.547    674.22  77634.20
         Mo        10.189            3.547    674.22  77634.20
         Mo        10.200            3.547    674.22  77634.20
         S          3.753            3.128    251.62  12327.25
         S          3.858            3.128    251.62  12327.25
         S          3.855            3.128    251.62  12327.25
         S          3.858            3.128    251.62  12327.25
         S          3.864            3.128    251.62  12327.25
         S          3.815            3.128    251.62  12327.25
         Mo        10.214            3.547    674.22  77634.20
         Mo        10.189            3.547    674.22  77634.20
         Mo        10.201            3.547    674.22  77634.20
         S          3.753            3.128    251.62  12327.25
         S          3.859            3.128    251.62  12327.25
         S          3.854            3.128    251.62  12327.25
         S          3.858            3.128    251.62  12327.25
         S          3.855            3.128    251.62  12327.25
         S          4.724            3.128    251.62  12327.25
         Mo        10.237            3.547    674.22  77634.20
         Mo        10.189            3.547    674.22  77634.20
         Mo        10.201            3.547    674.22  77634.20
         S          3.753            3.128    251.62  12327.25
         S          3.858            3.128    251.62  12327.25
         S          3.866            3.128    251.62  12327.25
         S          3.859            3.128    251.62  12327.25
         S          3.860            3.128    251.62  12327.25
         S          4.655            3.128    251.62  12327.25
         Mo        10.259            3.547    674.22  77634.20
         Mo        10.189            3.547    674.22  77634.20
         Mo        10.200            3.547    674.22  77634.20
         S          3.753            3.128    251.62  12327.25
         S          3.857            3.128    251.62  12327.25
         S          3.856            3.128    251.62  12327.25
         S          3.859            3.128    251.62  12327.25
         S          3.864            3.128    251.62  12327.25
         S          3.804            3.128    251.62  12327.25
         Mo        10.158            3.547    674.22  77634.20
         Mo        10.189            3.547    674.22  77634.20
         Mo        10.200            3.547    674.22  77634.20
         S          3.753            3.128    251.62  12327.25
         S          3.858            3.128    251.62  12327.25
         S          3.842            3.128    251.62  12327.25
         S          3.859            3.128    251.62  12327.25
         S          3.863            3.128    251.62  12327.25
         S          3.812            3.128    251.62  12327.25
         Mo        10.847            3.547    674.22  77634.20
         Mo        10.189            3.547    674.22  77634.20
         Mo        10.202            3.547    674.22  77634.20
         S          3.753            3.128    251.62  12327.25
         S          3.859            3.128    251.62  12327.25
         S          3.851            3.128    251.62  12327.25
         S          3.858            3.128    251.62  12327.25
         S          3.851            3.128    251.62  12327.25
         S          4.636            3.128    251.62  12327.25
         Mo        10.195            3.547    674.22  77634.20
         Mo        10.189            3.547    674.22  77634.20
         Mo        10.201            3.547    674.22  77634.20
         S          3.753            3.128    251.62  12327.25
         S          3.859            3.128    251.62  12327.25
         S          3.864            3.128    251.62  12327.25
         S          3.859            3.128    251.62  12327.25
         S          3.853            3.128    251.62  12327.25
         S          3.766            3.128    251.62  12327.25
         Mo        10.259            3.547    674.22  77634.20
         Mo        10.189            3.547    674.22  77634.20
         Mo        10.200            3.547    674.22  77634.20
         S          3.753            3.128    251.62  12327.25
         S          3.858            3.128    251.62  12327.25
         S          3.858            3.128    251.62  12327.25
         S          3.859            3.128    251.62  12327.25
         S          3.863            3.128    251.62  12327.25
         S          3.784            3.128    251.62  12327.25
         Mo        10.215            3.547    674.22  77634.20
         Mo        10.189            3.547    674.22  77634.20
         Mo        10.200            3.547    674.22  77634.20
         S          3.753            3.128    251.62  12327.25
         S          3.859            3.128    251.62  12327.25
         S          3.839            3.128    251.62  12327.25
         S          3.859            3.128    251.62  12327.25
         S          3.863            3.128    251.62  12327.25
         S          3.836            3.128    251.62  12327.25
         Mo        10.715            3.547    674.22  77634.20
         Mo        10.189            3.547    674.22  77634.20
         Mo        10.202            3.547    674.22  77634.20
         S          3.753            3.128    251.62  12327.25
         S          3.859            3.128    251.62  12327.25
         S          3.873            3.128    251.62  12327.25
         S          3.858            3.128    251.62  12327.25
         S          3.851            3.128    251.62  12327.25
         S          5.637            3.128    251.62  12327.25
         Mo        10.151            3.547    674.22  77634.20
         Mo        10.189            3.547    674.22  77634.20
         Mo        10.203            3.547    674.22  77634.20
         S          3.753            3.128    251.62  12327.25
         S          3.859            3.128    251.62  12327.25
         S          3.861            3.128    251.62  12327.25
         S          3.859            3.128    251.62  12327.25
         S          3.849            3.128    251.62  12327.25
         S          4.666            3.128    251.62  12327.25
         Mo        10.241            3.547    674.22  77634.20
         Mo        10.189            3.547    674.22  77634.20
         Mo        10.200            3.547    674.22  77634.20
         S          3.753            3.128    251.62  12327.25
         S          3.858            3.128    251.62  12327.25
         S          3.852            3.128    251.62  12327.25
         S          3.859            3.128    251.62  12327.25
         S          3.858            3.128    251.62  12327.25
         S          3.820            3.128    251.62  12327.25
         Mo        10.237            3.547    674.22  77634.20
         Mo        10.189            3.547    674.22  77634.20
         Mo        10.200            3.547    674.22  77634.20
         S          3.753            3.128    251.62  12327.25
         S          3.858            3.128    251.62  12327.25
         S          3.857            3.128    251.62  12327.25
         S          3.858            3.128    251.62  12327.25
         S          3.861            3.128    251.62  12327.25
         S          3.811            3.128    251.62  12327.25
         Mo        10.570            3.547    674.22  77634.20
         Mo        10.189            3.547    674.22  77634.20
         Mo        10.201            3.547    674.22  77634.20
         S          3.753            3.128    251.62  12327.25
         S          3.859            3.128    251.62  12327.25
         S          3.850            3.128    251.62  12327.25
         S          3.858            3.128    251.62  12327.25
         S          3.855            3.128    251.62  12327.25
         S          5.553            3.128    251.62  12327.25
         Mo        10.213            3.547    674.22  77634.20
         Mo        10.189            3.547    674.22  77634.20
         Mo        10.202            3.547    674.22  77634.20
         S          3.753            3.128    251.62  12327.25
         S          3.858            3.128    251.62  12327.25
         S          3.862            3.128    251.62  12327.25
         S          3.858            3.128    251.62  12327.25
         S          3.855            3.128    251.62  12327.25
         S          4.670            3.128    251.62  12327.25
         Mo        10.248            3.547    674.22  77634.20
         Mo        10.189            3.547    674.22  77634.20
         Mo        10.201            3.547    674.22  77634.20
         S          3.753            3.128    251.62  12327.25
         S          3.858            3.128    251.62  12327.25
         S          3.844            3.128    251.62  12327.25
         S          3.859            3.128    251.62  12327.25
         S          3.859            3.128    251.62  12327.25
         S          3.836            3.128    251.62  12327.25
         Pt         4.455            3.168    673.78  70065.98
         Pd         4.234            3.168    531.75  48720.73
         Pd         3.281            3.168    573.90  52583.08

         Molecular C6 ( Ry / a.u.^6 ) =   8065804.63


     number of k points=     4  Gaussian smearing, width (Ry)=  0.0100
                       cart. coord. in units 2pi/alat
        k(    1) = (   0.0000000   0.0000000   0.0000000), wk =   0.5000000
        k(    2) = (   0.0000000  -0.5773499   0.0000000), wk =   0.5000000
        k(    3) = (  -0.5000000  -0.2886755   0.0000000), wk =   0.5000000
        k(    4) = (  -0.5000000  -0.8660254   0.0000000), wk =   0.5000000

     Dense  grid:  5955087 G-vectors     FFT dimensions: ( 180, 180, 432)

     Smooth grid:  2572543 G-vectors     FFT dimensions: ( 135, 135, 320)

     Estimated max dynamical RAM per process >       3.08 GB

     Estimated total dynamical RAM >     110.88 GB

     Initial potential from superposition of free atoms

     starting charge    1315.9537, renormalised to    1316.0000

     negative rho (up, down):  1.047E-03 0.000E+00
     Starting wfcs are  901 randomized atomic wfcs
     Checking if some PAW data can be deallocated... 

     total cpu time spent up to now is       99.8 secs

     Self-consistent Calculation

     iteration #  1     ecut=    77.00 Ry     beta= 0.20
     Davidson diagonalization with overlap
     ethr =  1.00E-02,  avg # of iterations =  2.0

     Threshold (ethr) on eigenvalues was too large:
     Diagonalizing with lowered threshold

     Davidson diagonalization with overlap
     ethr =  2.29E-04,  avg # of iterations = 15.0

     negative rho (up, down):  3.411E-04 0.000E+00

     total cpu time spent up to now is     1045.0 secs

     total energy              =  -26543.55271436 Ry
     estimated scf accuracy    <       4.86988456 Ry

     iteration #  2     ecut=    77.00 Ry     beta= 0.20
     Davidson diagonalization with overlap
     ethr =  3.70E-04,  avg # of iterations =  7.0

     negative rho (up, down):  7.102E-05 0.000E+00

     total cpu time spent up to now is     1278.6 secs

     total energy              =  -26542.88860648 Ry
     estimated scf accuracy    <       2.33828302 Ry

     iteration #  3     ecut=    77.00 Ry     beta= 0.20
     Davidson diagonalization with overlap
     ethr =  1.78E-04,  avg # of iterations = 12.2

     negative rho (up, down):  4.382E-05 0.000E+00

     total cpu time spent up to now is     1549.1 secs

     total energy              =  -26543.11162666 Ry
     estimated scf accuracy    <       0.89459447 Ry

     iteration #  4     ecut=    77.00 Ry     beta= 0.20
     Davidson diagonalization with overlap
     c_bands:  1 eigenvalues not converged
     ethr =  6.80E-05,  avg # of iterations = 15.2

     negative rho (up, down):  3.597E-05 0.000E+00

     total cpu time spent up to now is     1979.0 secs

     total energy              =  -26543.41902226 Ry
     estimated scf accuracy    <       0.30906633 Ry

     iteration #  5     ecut=    77.00 Ry     beta= 0.20
     Davidson diagonalization with overlap
     c_bands:  3 eigenvalues not converged
     ethr =  2.35E-05,  avg # of iterations = 13.2

     negative rho (up, down):  5.962E-05 0.000E+00

     total cpu time spent up to now is     2461.8 secs

     total energy              =  -26543.68727861 Ry
     estimated scf accuracy    <       0.12584476 Ry

     iteration #  6     ecut=    77.00 Ry     beta= 0.20
     Davidson diagonalization with overlap
     c_bands:  1 eigenvalues not converged
     c_bands:  3 eigenvalues not converged
     c_bands:  3 eigenvalues not converged
     c_bands:  1 eigenvalues not converged
     ethr =  9.56E-06,  avg # of iterations = 45.0

     negative rho (up, down):  1.254E-04 0.000E+00

     total cpu time spent up to now is     3204.4 secs

     total energy              =  -26543.72624121 Ry
     estimated scf accuracy    <       0.09139092 Ry

     iteration #  7     ecut=    77.00 Ry     beta= 0.20
     Davidson diagonalization with overlap
     c_bands:  1 eigenvalues not converged
     ethr =  6.94E-06,  avg # of iterations = 13.2

     negative rho (up, down):  7.231E-04 0.000E+00

     total cpu time spent up to now is     3446.3 secs

     total energy              =  -26543.72309005 Ry
     estimated scf accuracy    <       0.05311420 Ry

     iteration #  8     ecut=    77.00 Ry     beta= 0.20
     Davidson diagonalization with overlap
     c_bands:  1 eigenvalues not converged
     c_bands:  4 eigenvalues not converged
     c_bands:  1 eigenvalues not converged
     ethr =  4.04E-06,  avg # of iterations = 25.0

     negative rho (up, down):  6.069E-04 0.000E+00

     total cpu time spent up to now is     3973.0 secs

     total energy              =  -26543.73292704 Ry
     estimated scf accuracy    <       0.06684840 Ry

     iteration #  9     ecut=    77.00 Ry     beta= 0.20
     Davidson diagonalization with overlap
     ethr =  4.04E-06,  avg # of iterations =  7.0

     negative rho (up, down):  5.387E-04 0.000E+00

     total cpu time spent up to now is     4206.9 secs

     total energy              =  -26543.73445519 Ry
     estimated scf accuracy    <       0.00805507 Ry

     iteration # 10     ecut=    77.00 Ry     beta= 0.20
     Davidson diagonalization with overlap
     c_bands:  3 eigenvalues not converged
     c_bands:  2 eigenvalues not converged
     c_bands:  2 eigenvalues not converged
     ethr =  6.12E-07,  avg # of iterations = 56.0

     negative rho (up, down):  6.149E-04 0.000E+00

     total cpu time spent up to now is     5470.6 secs

     total energy              =  -26543.75174623 Ry
     estimated scf accuracy    <       0.01345210 Ry

     iteration # 11     ecut=    77.00 Ry     beta= 0.20
     Davidson diagonalization with overlap
     ethr =  6.12E-07,  avg # of iterations =  1.8

     negative rho (up, down):  7.819E-04 0.000E+00

     total cpu time spent up to now is     5686.9 secs

     total energy              =  -26543.74805914 Ry
     estimated scf accuracy    <       0.00712104 Ry

     iteration # 12     ecut=    77.00 Ry     beta= 0.20
     Davidson diagonalization with overlap
     ethr =  5.41E-07,  avg # of iterations =  5.0

     negative rho (up, down):  8.596E-04 0.000E+00

     total cpu time spent up to now is     5946.7 secs

     total energy              =  -26543.74893525 Ry
     estimated scf accuracy    <       0.00086714 Ry

     iteration # 13     ecut=    77.00 Ry     beta= 0.20
     Davidson diagonalization with overlap
     c_bands:  1 eigenvalues not converged
     ethr =  6.59E-08,  avg # of iterations = 16.0

     negative rho (up, down):  8.406E-04 0.000E+00

     total cpu time spent up to now is     6812.1 secs

     total energy              =  -26543.75167132 Ry
     estimated scf accuracy    <       0.00134443 Ry

     iteration # 14     ecut=    77.00 Ry     beta= 0.20
     Davidson diagonalization with overlap
     ethr =  6.59E-08,  avg # of iterations =  1.0

     negative rho (up, down):  8.362E-04 0.000E+00

     total cpu time spent up to now is     7013.4 secs

     total energy              =  -26543.75121212 Ry
     estimated scf accuracy    <       0.00092676 Ry

     iteration # 15     ecut=    77.00 Ry     beta= 0.20
     Davidson diagonalization with overlap
     ethr =  6.59E-08,  avg # of iterations =  5.2

     negative rho (up, down):  8.940E-04 0.000E+00

     total cpu time spent up to now is     7277.9 secs

     total energy              =  -26543.75131375 Ry
     estimated scf accuracy    <       0.00012909 Ry

     iteration # 16     ecut=    77.00 Ry     beta= 0.20
     Davidson diagonalization with overlap
     c_bands:  5 eigenvalues not converged
     ethr =  9.81E-09,  avg # of iterations = 17.5

     negative rho (up, down):  9.420E-04 0.000E+00

     total cpu time spent up to now is     8133.2 secs

     total energy              =  -26543.75150597 Ry
     estimated scf accuracy    <       0.00031267 Ry

     iteration # 17     ecut=    77.00 Ry     beta= 0.20
     Davidson diagonalization with overlap
     ethr =  9.81E-09,  avg # of iterations =  5.8

     negative rho (up, down):  9.580E-04 0.000E+00

     total cpu time spent up to now is     8479.1 secs

     total energy              =  -26543.75155871 Ry
     estimated scf accuracy    <       0.00001006 Ry

     iteration # 18     ecut=    77.00 Ry     beta= 0.20
     Davidson diagonalization with overlap
     ethr =  7.64E-10,  avg # of iterations = 21.0

     negative rho (up, down):  9.556E-04 0.000E+00

     total cpu time spent up to now is     9891.2 secs

     total energy              =  -26543.75161110 Ry
     estimated scf accuracy    <       0.00011122 Ry

     iteration # 19     ecut=    77.00 Ry     beta= 0.20
     Davidson diagonalization with overlap
     ethr =  7.64E-10,  avg # of iterations =  4.8

     negative rho (up, down):  9.568E-04 0.000E+00

     total cpu time spent up to now is    10145.0 secs

     total energy              =  -26543.75159095 Ry
     estimated scf accuracy    <       0.00006987 Ry

     iteration # 20     ecut=    77.00 Ry     beta= 0.20
     Davidson diagonalization with overlap
     ethr =  7.64E-10,  avg # of iterations =  7.0

     negative rho (up, down):  9.571E-04 0.000E+00

     total cpu time spent up to now is    10510.9 secs

     total energy              =  -26543.75158769 Ry
     estimated scf accuracy    <       0.00001865 Ry

     iteration # 21     ecut=    77.00 Ry     beta= 0.20
     Davidson diagonalization with overlap
     ethr =  7.64E-10,  avg # of iterations = 10.8

     negative rho (up, down):  9.618E-04 0.000E+00

     total cpu time spent up to now is    10947.6 secs

     End of self-consistent calculation

          k = 0.0000 0.0000 0.0000 (321495 PWs)   bands (ev):

  -102.8284 -88.6768 -87.9991 -71.1553 -71.1475 -71.1325 -71.1217 -71.1099
   -71.1029 -71.0925 -66.6647 -66.6437 -66.6437 -66.6436 -66.6436 -66.6436
   -66.6436 -66.6225 -66.6225 -66.6225 -66.6224 -66.6224 -66.6224 -66.6224
   -66.6224 -66.6224 -66.5987 -66.5780 -66.5779 -66.5777 -66.5775 -66.5774
   -66.5772 -66.5572 -66.5568 -66.5567 -66.5565 -66.5564 -66.5563 -66.5562
   -66.5561 -66.5557 -66.5270 -66.5134 -66.5111 -66.4978 -66.4974 -66.4938
   -66.4896 -66.4849 -66.4800 -66.4682 -66.4644 -66.4613 -66.4580 -66.4509
   -66.4485 -66.4389 -57.1317 -57.0238 -56.9970 -54.5582 -54.4450 -54.3964
   -53.8396 -53.8135 -53.7603 -40.9911 -40.9911 -40.9911 -40.9240 -40.9239
   -40.9237 -40.9163 -40.9163 -40.9163 -40.9162 -40.9162 -40.9162 -40.8494
   -40.8493 -40.8492 -40.8491 -40.8490 -40.8488 -40.8460 -40.8390 -40.8346
   -40.8248 -40.7907 -40.7907 -40.7907 -40.7907 -40.7907 -40.7907 -40.7834
   -40.7834 -40.7834 -40.7834 -40.7833 -40.7833 -40.7738 -40.7699 -40.7593
   -40.7584 -40.7559 -40.7559 -40.7558 -40.7558 -40.7558 -40.7558 -40.7558
   -40.7497 -40.7429 -40.7417 -40.7417 -40.7417 -40.7417 -40.7417 -40.7417
   -40.7416 -40.7416 -40.7416 -40.7239 -40.7238 -40.7238 -40.7236 -40.7236
   -40.7235 -40.7183 -40.7181 -40.7179 -40.7178 -40.7177 -40.7175 -40.7078
   -40.6891 -40.6890 -40.6890 -40.6888 -40.6888 -40.6887 -40.6854 -40.6781
   -40.6781 -40.6781 -40.6770 -40.6765 -40.6764 -40.6762 -40.6762 -40.6761
   -40.6761 -40.6759 -40.6756 -40.6618 -40.6564 -40.6549 -40.6508 -40.6479
   -40.6438 -40.6405 -40.6380 -40.6313 -40.6312 -40.6312 -40.6312 -40.6312
   -40.6312 -40.6300 -40.6260 -40.6240 -40.6216 -40.6164 -40.6120 -40.6112
   -40.6112 -40.6111 -40.6105 -40.6094 -40.6072 -40.6055 -40.6026 -40.6013
   -40.5983 -40.5917 -40.5874 -40.5839 -40.5839 -40.5836 -40.5809 -40.5754
   -40.5647 -40.5646 -40.5645 -40.5643 -40.5642 -40.5641 -40.5318 -40.5196
   -40.5172 -40.5171 -40.5164 -40.4782 -40.4751 -40.4696 -40.4670 -40.4662
   -40.4581 -40.4234 -40.4100 -20.1338 -20.0661 -19.9099 -19.5521 -19.3395
   -19.2457 -19.2355 -19.2320 -19.2300 -19.2226 -19.2182 -19.1942 -19.1667
   -19.1397 -19.1231 -19.0777 -19.0694 -19.0579 -19.0496 -19.0290 -19.0073
   -18.8658 -18.7299 -18.6837 -18.5460 -18.5205 -18.4958 -18.4691 -18.4453
   -18.4417 -18.4261 -18.3818 -18.3751 -18.3518 -18.3333 -18.3138 -18.2965
   -18.2504 -18.2183 -18.1964 -18.1884 -18.1843 -18.1705 -18.1356 -18.1286
   -18.1244 -18.1239 -18.1238 -18.1236 -18.1233 -18.1216 -18.0839 -18.0837
   -18.0836 -18.0788 -18.0476 -18.0446 -18.0420 -18.0383 -18.0349 -18.0336
   -18.0125 -18.0114 -18.0093 -17.9775 -17.9731 -17.9590 -17.9527 -17.9504
   -17.9316 -17.9265 -17.9245 -17.9212 -17.9160 -17.9036 -17.9034 -17.9019
   -17.8973 -17.8767 -17.8677 -17.8620 -17.8535 -17.8468 -17.8387 -17.8334
   -17.8316 -17.8270 -17.8065 -17.8021 -17.7915 -17.7779 -17.7694 -17.7567
   -17.7550 -17.7505 -17.7415 -12.1596 -11.9657 -11.8838 -11.7988 -11.7389
   -11.7376 -11.7338 -11.6736 -11.6536 -11.6476 -11.6402 -11.4972 -11.4129
   -11.2989 -11.2521 -11.2185 -11.2034 -11.1908 -11.1878 -11.1819 -11.1625
   -11.1367 -11.1209 -11.1149 -11.1116 -11.1069 -11.1045 -11.0985 -11.0845
   -11.0689 -11.0194 -11.0030 -10.9822 -10.9749 -10.9647 -10.9625 -10.9546
   -10.9424 -10.9275 -10.9235 -10.9125 -10.9010 -10.8774 -10.8759 -10.8632
   -10.8547 -10.8370 -10.8299 -10.8210 -10.8171 -10.8154 -10.8142 -10.8127
   -10.8117 -10.8035 -10.7872 -10.7860 -10.7850 -10.7810 -10.7703 -10.7660
   -10.7659 -10.7645 -10.7610 -10.7401 -10.7216 -10.6974 -10.6917 -10.6843
   -10.6650 -10.6456 -10.6199 -10.6053 -10.5943 -10.5841 -10.5052 -10.3512
   -10.2666 -10.1308 -10.0410 -10.0328 -10.0300  -9.9894  -9.9487  -9.9077
    -9.8692  -9.8609  -9.8479  -9.7904  -9.7691  -9.7675  -9.7587  -9.7571
    -9.7327  -9.7248  -9.7079  -9.6919  -9.6863  -9.6725  -9.6698  -9.6526
    -9.6438  -9.6231  -9.6197  -9.6142  -9.6044  -9.6027  -9.5953  -9.5873
    -9.5782  -9.5654  -9.5607  -9.5594  -9.5584  -9.5563  -9.5554  -9.5537
    -9.5271  -9.5185  -9.5127  -9.4585  -9.4555  -9.4460  -9.4314  -9.4244
    -9.4178  -9.3989  -9.3747  -9.3649  -9.3451  -9.3348  -9.3247  -9.3206
    -9.3033  -9.3027  -9.2913  -9.2484  -9.2241  -9.2121  -9.2051  -9.1948
    -9.1840  -9.1778  -9.1689  -9.1447  -9.1203  -9.0799  -9.0639  -9.0522
    -9.0423  -9.0083  -9.0069  -9.0038  -9.0024  -9.0022  -9.0018  -8.9687
    -8.9329  -8.9294  -8.9248  -8.9192  -8.9042  -8.8977  -8.8763  -8.8380
    -8.8153  -8.8100  -8.7949  -8.7875  -8.7826  -8.7799  -8.7769  -8.7737
    -8.7582  -8.7484  -8.7420  -8.7319  -8.7287  -8.7222  -8.7127  -8.7079
    -8.7011  -8.6925  -8.6442  -8.5329  -8.4988  -8.4136  -8.4136  -8.3793
    -8.3413  -8.3409  -8.3393  -8.3021  -8.3018  -8.3016  -8.3015  -8.3014
    -8.3013  -8.2889  -8.2852  -8.2752  -8.2532  -8.2353  -8.2270  -8.2250
    -8.2245  -8.2232  -8.2188  -8.2053  -8.1782  -8.1471  -8.0337  -7.9887
    -7.9381  -7.9230  -7.9059  -7.8729  -7.8526  -7.7209  -7.6974  -7.6487
    -7.6462  -7.6010  -7.5790  -7.5679  -7.5662  -7.5660  -7.5658  -7.5656
    -7.5653  -7.5549  -7.5245  -7.5205  -7.5204  -7.5201  -7.5199  -7.5195
    -7.5148  -7.5073  -7.4981  -7.4959  -7.4897  -7.4869  -7.4831  -7.4768
    -7.4757  -7.4671  -7.4626  -7.4486  -7.4455  -7.4434  -7.4424  -7.4383
    -7.4361  -7.4337  -7.4120  -7.4095  -7.4060  -7.4032  -7.4011  -7.3919
    -7.3369  -7.3191  -7.3009  -7.2848  -7.2848  -7.2712  -7.2592  -7.2313
    -7.2152  -7.2142  -7.1905  -7.1489  -7.1200  -7.0847  -7.0327  -7.0040
    -6.9617  -6.9360  -6.9177  -6.8857  -6.8812  -6.8334  -6.8185  -6.7897
    -6.7788  -6.7778  -6.7469  -6.6792  -6.6716  -6.6551  -6.6515  -6.6468
    -6.6358  -6.6244  -6.6157  -6.6093  -6.5997  -6.5943  -6.5544  -6.5437
    -6.5312  -6.5178  -6.5117  -6.5019  -6.4999  -6.4934  -6.4867  -6.4623
    -6.4593  -6.4570  -6.4509  -6.4410  -6.4205  -6.4155  -6.4126  -6.4056
    -6.3917  -6.3798  -6.3529  -6.3328  -6.3328  -6.3327  -6.3327  -6.3327
    -6.3327  -6.3213  -6.2889  -6.2666  -6.2575  -6.2553  -6.2540  -6.2538
    -6.2526  -6.2476  -6.2248  -6.2012  -6.1896  -6.1489  -6.0526  -5.9524
    -5.9056  -5.8270  -5.7299  -5.5986  -5.5450  -5.4340  -5.3648  -5.3359
    -5.1739  -5.1001  -4.1523  -3.9805  -3.8354  -3.8197  -3.8160  -3.8145
    -3.7932  -3.7901  -3.7878  -3.7857  -3.7837  -3.7811  -3.7595  -3.7340
    -3.6497  -3.5961  -3.5896  -3.5795  -3.5709  -3.5617  -3.5547  -3.5529
    -3.5497  -3.5427  -3.4732  -3.4732  -3.4731  -3.4593  -3.4557  -3.4552
    -3.4540  -3.4532  -3.4527  -3.4181  -3.4065  -3.4060  -3.4055  -3.3950
    -3.3897  -3.3742  -3.3694  -3.3659  -3.3650  -3.3532  -3.3511  -3.3447
    -3.3411  -3.3369  -3.3333  -3.3229  -3.3097  -3.3083  -3.2974  -3.2775
    -3.2649  -3.2489  -3.2427  -3.2297  -3.2282  -3.2068  -3.1983  -3.1702
    -3.1423  -3.0125  -3.0083  -3.0076  -3.0042  -3.0019  -3.0018  -2.9649
    -2.9472  -2.9366  -2.9346  -2.9341  -2.9340  -2.9339  -2.9337  -2.9336
    -2.9312  -2.9262  -2.9172  -2.9133  -2.9084  -2.8996  -2.8899  -2.8799
    -2.8746  -2.8711  -2.8685  -2.8636  -2.8610  -2.8560  -2.8541  -2.8483
    -2.8471  -2.8271  -2.8161  -2.8049  -2.7990  -2.7916  -2.7757  -2.7727
    -2.7472  -2.7457  -2.7226  -2.7214  -2.7200  -2.7184  -2.7176  -2.7163
    -2.6902  -2.6750  -2.6730  -2.6564  -2.6410  -2.6304  -2.6075  -2.6039
    -2.5849  -2.5720  -2.5400  -2.5194  -2.5173  -2.5066  -2.4951  -2.4912
    -2.4841  -2.4672  -2.4539  -2.4460  -2.4255  -2.4191

          k = 0.0000-0.5773 0.0000 (321564 PWs)   bands (ev):

  -102.8284 -88.6768 -87.9991 -71.1553 -71.1475 -71.1325 -71.1217 -71.1099
   -71.1029 -71.0925 -66.6586 -66.6585 -66.6480 -66.6480 -66.6330 -66.6330
   -66.6330 -66.6330 -66.6287 -66.6286 -66.6225 -66.6225 -66.6224 -66.6224
   -66.6180 -66.6180 -66.5928 -66.5923 -66.5821 -66.5820 -66.5673 -66.5672
   -66.5669 -66.5668 -66.5629 -66.5624 -66.5570 -66.5566 -66.5563 -66.5559
   -66.5521 -66.5520 -66.5264 -66.5137 -66.5112 -66.5011 -66.4976 -66.4912
   -66.4880 -66.4847 -66.4807 -66.4676 -66.4651 -66.4614 -66.4584 -66.4508
   -66.4484 -66.4389 -57.1317 -57.0238 -56.9970 -54.5582 -54.4450 -54.3964
   -53.8396 -53.8135 -53.7603 -40.9597 -40.9597 -40.9596 -40.9596 -40.9330
   -40.9330 -40.9211 -40.9211 -40.8929 -40.8926 -40.8923 -40.8921 -40.8707
   -40.8707 -40.8707 -40.8707 -40.8661 -40.8657 -40.8540 -40.8539 -40.8342
   -40.8127 -40.8127 -40.8120 -40.8037 -40.8036 -40.8036 -40.8035 -40.8027
   -40.8027 -40.7975 -40.7927 -40.7920 -40.7920 -40.7775 -40.7715 -40.7665
   -40.7626 -40.7625 -40.7625 -40.7625 -40.7561 -40.7539 -40.7539 -40.7474
   -40.7469 -40.7417 -40.7417 -40.7417 -40.7417 -40.7416 -40.7416 -40.7358
   -40.7357 -40.7330 -40.7330 -40.7265 -40.7264 -40.7238 -40.7180 -40.7110
   -40.7110 -40.7109 -40.7109 -40.7073 -40.7052 -40.7015 -40.6973 -40.6973
   -40.6969 -40.6968 -40.6886 -40.6882 -40.6864 -40.6768 -40.6765 -40.6765
   -40.6764 -40.6764 -40.6763 -40.6761 -40.6757 -40.6748 -40.6747 -40.6685
   -40.6676 -40.6676 -40.6644 -40.6644 -40.6622 -40.6523 -40.6452 -40.6452
   -40.6444 -40.6443 -40.6440 -40.6436 -40.6423 -40.6362 -40.6348 -40.6325
   -40.6283 -40.6283 -40.6259 -40.6216 -40.6195 -40.6171 -40.6097 -40.6096
   -40.6096 -40.6095 -40.6044 -40.6035 -40.6000 -40.5979 -40.5978 -40.5978
   -40.5973 -40.5913 -40.5880 -40.5808 -40.5798 -40.5786 -40.5781 -40.5691
   -40.5619 -40.5615 -40.5615 -40.5450 -40.5359 -40.5313 -40.5308 -40.5289
   -40.5214 -40.5151 -40.5119 -40.5060 -40.4946 -40.4862 -40.4776 -40.4690
   -40.4645 -40.4446 -40.4139 -19.9979 -19.8621 -19.8461 -19.7603 -19.6869
   -19.6391 -19.5241 -19.4365 -19.4131 -19.3778 -19.2637 -19.2452 -19.0385
   -18.8376 -18.7743 -18.7502 -18.7288 -18.7173 -18.7137 -18.7092 -18.7021
   -18.6522 -18.6434 -18.6044 -18.5953 -18.5843 -18.5758 -18.5464 -18.5227
   -18.5208 -18.4986 -18.4691 -18.4652 -18.4465 -18.4241 -18.4093 -18.3841
   -18.3745 -18.3708 -18.3480 -18.2866 -18.2677 -18.2604 -18.2497 -18.2202
   -18.1999 -18.1984 -18.1669 -18.1309 -18.1205 -18.1050 -18.1044 -18.1043
   -18.1040 -18.1037 -18.0997 -18.0890 -18.0675 -18.0304 -18.0289 -18.0283
   -18.0243 -18.0208 -18.0025 -17.9940 -17.9901 -17.9868 -17.9656 -17.9524
   -17.9487 -17.9305 -17.9242 -17.9184 -17.9079 -17.9039 -17.8928 -17.8739
   -17.8537 -17.8435 -17.8408 -17.8408 -17.8396 -17.8126 -17.8035 -17.7893
   -17.7811 -17.7808 -17.7726 -17.7646 -17.7640 -17.7618 -17.7575 -17.7221
   -17.7208 -17.6668 -17.6577 -12.0902 -11.8487 -11.6714 -11.6627 -11.5777
   -11.4841 -11.4657 -11.4528 -11.4516 -11.4486 -11.4482 -11.4277 -11.4140
   -11.4008 -11.3740 -11.3708 -11.3526 -11.3469 -11.3283 -11.3100 -11.2959
   -11.2933 -11.2788 -11.2696 -11.2557 -11.2337 -11.2337 -11.2328 -11.2152
   -11.1880 -11.1867 -11.1486 -11.1305 -11.1288 -11.1102 -11.0977 -11.0210
   -10.9946 -10.9832 -10.9678 -10.9565 -10.9442 -10.9351 -10.8960 -10.8926
   -10.8914 -10.8817 -10.8614 -10.8601 -10.8449 -10.8316 -10.8145 -10.8119
   -10.8081 -10.8072 -10.8053 -10.7996 -10.7975 -10.7806 -10.7589 -10.7439
   -10.7375 -10.7336 -10.7306 -10.6799 -10.6067 -10.5751 -10.5471 -10.4727
   -10.4677 -10.4545 -10.3737 -10.3320 -10.2699 -10.2180 -10.1920 -10.1380
   -10.1165 -10.1073 -10.0810 -10.0754 -10.0697 -10.0359 -10.0180  -9.9705
    -9.9672  -9.9475  -9.9273  -9.9188  -9.9136  -9.9068  -9.9052  -9.8874
    -9.8847  -9.8703  -9.8669  -9.8577  -9.8465  -9.7965  -9.7798  -9.7648
    -9.7421  -9.7188  -9.7121  -9.7078  -9.6911  -9.6880  -9.6861  -9.6722
    -9.6693  -9.6403  -9.6392  -9.6325  -9.6279  -9.6136  -9.5903  -9.5689
    -9.5557  -9.5207  -9.5088  -9.5070  -9.4968  -9.4540  -9.4473  -9.4397
    -9.4230  -9.3364  -9.3168  -9.2879  -9.2759  -9.2568  -9.2280  -9.1927
    -9.1809  -9.1631  -9.1421  -9.1351  -9.1235  -9.1185  -9.1126  -9.0995
    -9.0871  -9.0789  -9.0685  -9.0543  -9.0406  -9.0174  -9.0124  -9.0077
    -9.0017  -8.9864  -8.9609  -8.9549  -8.9491  -8.9463  -8.9412  -8.9305
    -8.9269  -8.9088  -8.9048  -8.9013  -8.8908  -8.8810  -8.8580  -8.8515
    -8.8454  -8.8371  -8.8341  -8.8319  -8.8165  -8.8159  -8.8150  -8.7961
    -8.7849  -8.7772  -8.7654  -8.7610  -8.7479  -8.7375  -8.7310  -8.7228
    -8.7025  -8.6235  -8.5668  -8.5451  -8.5077  -8.4887  -8.4883  -8.4106
    -8.4073  -8.3997  -8.3293  -8.3232  -8.2501  -8.2165  -8.1700  -8.1699
    -8.1471  -8.1328  -8.0985  -8.0972  -8.0715  -8.0540  -8.0195  -7.9908
    -7.9653  -7.9133  -7.9079  -7.9017  -7.8534  -7.8420  -7.8390  -7.8306
    -7.8241  -7.8234  -7.8232  -7.8213  -7.8193  -7.8141  -7.7996  -7.7819
    -7.7774  -7.7770  -7.7747  -7.7728  -7.7541  -7.7533  -7.7423  -7.7374
    -7.7323  -7.7241  -7.7191  -7.7167  -7.7046  -7.7010  -7.6998  -7.6945
    -7.6711  -7.6688  -7.6641  -7.6474  -7.6431  -7.6382  -7.6381  -7.6366
    -7.6162  -7.6045  -7.5915  -7.5728  -7.5686  -7.5646  -7.5517  -7.5385
    -7.5198  -7.5130  -7.4855  -7.4684  -7.4530  -7.4359  -7.4120  -7.3840
    -7.2912  -7.2530  -7.2375  -7.2104  -7.2071  -7.2005  -7.1878  -7.1492
    -7.1186  -7.0674  -7.0510  -7.0395  -7.0031  -6.9952  -6.9896  -6.9858
    -6.9750  -6.9536  -6.9286  -6.9215  -6.8882  -6.8783  -6.8619  -6.8595
    -6.8545  -6.8178  -6.8076  -6.8034  -6.7551  -6.7222  -6.6969  -6.6721
    -6.6605  -6.6440  -6.6366  -6.6351  -6.6350  -6.6348  -6.6343  -6.6197
    -6.5956  -6.5733  -6.5680  -6.5668  -6.5649  -6.5615  -6.5436  -6.5389
    -6.5211  -6.4934  -6.4295  -6.4262  -6.3438  -6.3254  -6.3038  -6.3033
    -6.3029  -6.3023  -6.2775  -6.2613  -6.2461  -6.2374  -6.2267  -6.2225
    -6.2189  -6.2171  -6.2118  -6.1924  -6.1874  -6.1637  -6.1398  -6.1022
    -6.0676  -5.9549  -5.9549  -5.8808  -5.8787  -5.8747  -5.8627  -5.7618
    -5.7353  -5.6800  -5.6154  -5.5999  -5.5386  -5.5011  -5.4306  -5.3412
    -5.2828  -5.1410  -4.1808  -4.0232  -3.9950  -3.9885  -3.9570  -3.8929
    -3.8705  -3.8704  -3.8454  -3.8234  -3.8055  -3.8051  -3.7565  -3.7464
    -3.7407  -3.7365  -3.7290  -3.6806  -3.6554  -3.5789  -3.5774  -3.5736
    -3.5698  -3.5690  -3.5562  -3.5557  -3.5364  -3.5286  -3.5214  -3.4864
    -3.4758  -3.4730  -3.4705  -3.4636  -3.4544  -3.4490  -3.4394  -3.4369
    -3.4296  -3.4004  -3.3745  -3.3580  -3.3434  -3.3296  -3.3236  -3.3228
    -3.3173  -3.2937  -3.2922  -3.2916  -3.2841  -3.2692  -3.2615  -3.2479
    -3.2465  -3.2463  -3.2438  -3.2367  -3.2237  -3.2094  -3.2007  -3.1983
    -3.1885  -3.1837  -3.1804  -3.1695  -3.1570  -3.1505  -3.1385  -3.1130
    -3.1072  -3.0980  -3.0761  -3.0646  -3.0440  -3.0407  -3.0171  -3.0076
    -3.0023  -3.0000  -2.9863  -2.9841  -2.9832  -2.9827  -2.9548  -2.9413
    -2.9371  -2.9343  -2.9319  -2.9193  -2.9074  -2.9001  -2.8961  -2.8894
    -2.8866  -2.8782  -2.8713  -2.8589  -2.8526  -2.8477  -2.8413  -2.8377
    -2.8128  -2.7896  -2.7754  -2.7733  -2.7712  -2.7391  -2.7175  -2.7104
    -2.6859  -2.6835  -2.6283  -2.6225  -2.6207  -2.6179  -2.6103  -2.6039
    -2.5427  -2.5361  -2.5263  -2.4865  -2.4792  -2.4715  -2.4640  -2.4585
    -2.4263  -2.3452  -2.3313  -2.2892  -2.2642  -2.2525

          k =-0.5000-0.2887 0.0000 (321564 PWs)   bands (ev):

  -102.8284 -88.6768 -87.9991 -71.1553 -71.1475 -71.1325 -71.1217 -71.1099
   -71.1029 -71.0925 -66.6586 -66.6585 -66.6480 -66.6480 -66.6330 -66.6330
   -66.6330 -66.6330 -66.6287 -66.6286 -66.6225 -66.6225 -66.6224 -66.6224
   -66.6180 -66.6180 -66.5926 -66.5925 -66.5821 -66.5819 -66.5672 -66.5671
   -66.5670 -66.5669 -66.5628 -66.5625 -66.5566 -66.5565 -66.5564 -66.5563
   -66.5521 -66.5519 -66.5241 -66.5208 -66.5033 -66.5009 -66.4983 -66.4946
   -66.4891 -66.4829 -66.4808 -66.4680 -66.4650 -66.4613 -66.4575 -66.4506
   -66.4492 -66.4388 -57.1317 -57.0238 -56.9970 -54.5582 -54.4450 -54.3964
   -53.8396 -53.8135 -53.7603 -40.9597 -40.9597 -40.9596 -40.9596 -40.9330
   -40.9330 -40.9211 -40.9211 -40.8926 -40.8926 -40.8924 -40.8924 -40.8707
   -40.8707 -40.8707 -40.8707 -40.8659 -40.8658 -40.8540 -40.8539 -40.8133
   -40.8127 -40.8127 -40.8116 -40.8078 -40.8050 -40.8037 -40.8036 -40.8035
   -40.8035 -40.8027 -40.8027 -40.7937 -40.7920 -40.7920 -40.7846 -40.7626
   -40.7625 -40.7625 -40.7625 -40.7613 -40.7539 -40.7539 -40.7473 -40.7471
   -40.7417 -40.7417 -40.7417 -40.7417 -40.7416 -40.7416 -40.7363 -40.7358
   -40.7357 -40.7330 -40.7330 -40.7265 -40.7264 -40.7198 -40.7110 -40.7110
   -40.7109 -40.7109 -40.7082 -40.7052 -40.7051 -40.6983 -40.6972 -40.6971
   -40.6971 -40.6970 -40.6885 -40.6883 -40.6805 -40.6783 -40.6765 -40.6764
   -40.6764 -40.6764 -40.6764 -40.6763 -40.6762 -40.6760 -40.6748 -40.6747
   -40.6676 -40.6676 -40.6644 -40.6644 -40.6621 -40.6452 -40.6452 -40.6451
   -40.6442 -40.6442 -40.6440 -40.6440 -40.6439 -40.6401 -40.6365 -40.6331
   -40.6326 -40.6283 -40.6283 -40.6269 -40.6151 -40.6144 -40.6097 -40.6097
   -40.6095 -40.6095 -40.6064 -40.6022 -40.5983 -40.5979 -40.5978 -40.5976
   -40.5974 -40.5930 -40.5891 -40.5851 -40.5801 -40.5785 -40.5782 -40.5639
   -40.5616 -40.5614 -40.5599 -40.5554 -40.5480 -40.5312 -40.5310 -40.5266
   -40.5180 -40.5158 -40.5089 -40.5022 -40.4970 -40.4905 -40.4768 -40.4622
   -40.4498 -40.4368 -40.4316 -19.9793 -19.8692 -19.8458 -19.7954 -19.6877
   -19.6622 -19.4707 -19.4319 -19.4076 -19.3647 -19.2614 -19.2398 -19.0785
   -18.8382 -18.7687 -18.7665 -18.7215 -18.7181 -18.7138 -18.7094 -18.6946
   -18.6825 -18.6226 -18.6047 -18.5937 -18.5860 -18.5741 -18.5632 -18.5323
   -18.5280 -18.4842 -18.4695 -18.4635 -18.4410 -18.4330 -18.4126 -18.3841
   -18.3782 -18.3572 -18.3346 -18.3001 -18.2693 -18.2408 -18.2224 -18.2198
   -18.2038 -18.1710 -18.1544 -18.1373 -18.1327 -18.1247 -18.1044 -18.1041
   -18.1041 -18.1040 -18.0859 -18.0750 -18.0606 -18.0393 -18.0327 -18.0281
   -18.0247 -18.0202 -18.0154 -18.0137 -17.9896 -17.9741 -17.9691 -17.9605
   -17.9552 -17.9282 -17.9241 -17.9201 -17.9157 -17.9120 -17.9039 -17.8637
   -17.8600 -17.8547 -17.8462 -17.8408 -17.8408 -17.8032 -17.7985 -17.7861
   -17.7809 -17.7809 -17.7730 -17.7649 -17.7646 -17.7574 -17.7451 -17.7214
   -17.7208 -17.6644 -17.6588 -12.0426 -11.8002 -11.7091 -11.6588 -11.6348
   -11.5573 -11.5140 -11.4576 -11.4525 -11.4477 -11.4473 -11.4353 -11.4283
   -11.4170 -11.3916 -11.3571 -11.3527 -11.3480 -11.3429 -11.3147 -11.2945
   -11.2804 -11.2695 -11.2640 -11.2482 -11.2337 -11.2337 -11.2034 -11.1879
   -11.1876 -11.1509 -11.1377 -11.1356 -11.1302 -11.1206 -11.0497 -11.0332
   -11.0106 -10.9843 -10.9719 -10.9596 -10.9307 -10.9200 -10.8948 -10.8937
   -10.8872 -10.8793 -10.8679 -10.8584 -10.8419 -10.8258 -10.8192 -10.8122
   -10.8073 -10.8067 -10.8055 -10.7984 -10.7938 -10.7838 -10.7703 -10.7427
   -10.7374 -10.7344 -10.7320 -10.6322 -10.6169 -10.5665 -10.5465 -10.4793
   -10.4665 -10.4185 -10.3602 -10.3268 -10.3065 -10.2373 -10.2310 -10.1354
   -10.1127 -10.1008 -10.0951 -10.0744 -10.0478 -10.0155 -10.0077  -9.9828
    -9.9628  -9.9368  -9.9317  -9.9190  -9.9122  -9.9038  -9.9000  -9.8923
    -9.8754  -9.8724  -9.8612  -9.8521  -9.8027  -9.7898  -9.7597  -9.7427
    -9.7357  -9.7274  -9.7154  -9.6988  -9.6934  -9.6901  -9.6784  -9.6729
    -9.6674  -9.6506  -9.6293  -9.6199  -9.6118  -9.5931  -9.5918  -9.5821
    -9.5329  -9.5242  -9.5172  -9.5071  -9.5045  -9.4907  -9.4514  -9.4470
    -9.4350  -9.3903  -9.3630  -9.3564  -9.3216  -9.2765  -9.2271  -9.1957
    -9.1905  -9.1751  -9.1666  -9.1465  -9.1335  -9.1274  -9.1064  -9.0920
    -9.0806  -9.0744  -9.0502  -9.0326  -9.0187  -9.0131  -9.0077  -8.9992
    -8.9887  -8.9826  -8.9712  -8.9650  -8.9558  -8.9425  -8.9337  -8.9217
    -8.9137  -8.9119  -8.9096  -8.8954  -8.8848  -8.8648  -8.8482  -8.8408
    -8.8361  -8.8336  -8.8257  -8.8244  -8.8173  -8.8161  -8.8138  -8.8103
    -8.8019  -8.7897  -8.7887  -8.7479  -8.7452  -8.7394  -8.7283  -8.7143
    -8.6922  -8.6464  -8.5676  -8.5361  -8.4889  -8.4885  -8.4567  -8.4256
    -8.4071  -8.3857  -8.3670  -8.3299  -8.2801  -8.2499  -8.1700  -8.1700
    -8.1577  -8.1065  -8.0981  -8.0962  -8.0924  -8.0438  -8.0089  -7.9649
    -7.9484  -7.9114  -7.9075  -7.8917  -7.8488  -7.8407  -7.8368  -7.8333
    -7.8271  -7.8252  -7.8233  -7.8233  -7.8149  -7.8124  -7.7816  -7.7791
    -7.7777  -7.7754  -7.7738  -7.7582  -7.7536  -7.7512  -7.7417  -7.7292
    -7.7276  -7.7263  -7.7172  -7.7151  -7.7004  -7.6982  -7.6935  -7.6896
    -7.6719  -7.6704  -7.6647  -7.6507  -7.6413  -7.6382  -7.6381  -7.6174
    -7.6149  -7.6039  -7.5965  -7.5903  -7.5749  -7.5693  -7.5616  -7.5415
    -7.5157  -7.5028  -7.4915  -7.4898  -7.4613  -7.4516  -7.3904  -7.3065
    -7.2839  -7.2550  -7.2180  -7.2083  -7.2022  -7.1995  -7.1677  -7.1432
    -7.1131  -7.0993  -7.0593  -7.0434  -7.0210  -7.0050  -6.9955  -6.9875
    -6.9844  -6.9534  -6.9448  -6.9365  -6.9124  -6.8977  -6.8797  -6.8724
    -6.8637  -6.8439  -6.8178  -6.8086  -6.7644  -6.7303  -6.7078  -6.6862
    -6.6595  -6.6520  -6.6352  -6.6351  -6.6350  -6.6350  -6.6241  -6.5980
    -6.5949  -6.5797  -6.5679  -6.5654  -6.5640  -6.5599  -6.5422  -6.5179
    -6.5009  -6.4731  -6.4306  -6.4196  -6.3771  -6.3540  -6.3185  -6.3032
    -6.3031  -6.3029  -6.3012  -6.2454  -6.2438  -6.2287  -6.2247  -6.2226
    -6.2175  -6.2163  -6.2099  -6.1960  -6.1798  -6.1676  -6.1351  -6.0315
    -5.9550  -5.9549  -5.9405  -5.8860  -5.8783  -5.8713  -5.8578  -5.7901
    -5.7491  -5.7058  -5.6075  -5.5866  -5.5163  -5.4710  -5.4149  -5.4136
    -5.2877  -5.1874  -4.1818  -4.0434  -3.9973  -3.9958  -3.9658  -3.9154
    -3.8705  -3.8705  -3.8347  -3.8222  -3.8056  -3.8055  -3.7805  -3.7620
    -3.7480  -3.7278  -3.7068  -3.6879  -3.6062  -3.5829  -3.5788  -3.5732
    -3.5702  -3.5651  -3.5561  -3.5557  -3.5524  -3.5309  -3.5060  -3.4903
    -3.4788  -3.4746  -3.4595  -3.4543  -3.4495  -3.4486  -3.4375  -3.4360
    -3.4018  -3.3869  -3.3633  -3.3568  -3.3421  -3.3309  -3.3270  -3.3237
    -3.3209  -3.3026  -3.2914  -3.2889  -3.2827  -3.2804  -3.2615  -3.2501
    -3.2469  -3.2459  -3.2450  -3.2427  -3.2195  -3.2111  -3.2077  -3.2013
    -3.1841  -3.1802  -3.1736  -3.1680  -3.1631  -3.1539  -3.1278  -3.1206
    -3.1017  -3.0881  -3.0848  -3.0617  -3.0433  -3.0417  -3.0209  -3.0131
    -3.0033  -3.0017  -2.9839  -2.9834  -2.9833  -2.9830  -2.9482  -2.9404
    -2.9352  -2.9340  -2.9184  -2.9105  -2.9046  -2.8997  -2.8952  -2.8909
    -2.8775  -2.8693  -2.8640  -2.8599  -2.8567  -2.8491  -2.8257  -2.8227
    -2.8045  -2.8007  -2.7953  -2.7763  -2.7742  -2.7662  -2.7190  -2.7124
    -2.6861  -2.6822  -2.6438  -2.6305  -2.6242  -2.6211  -2.6155  -2.6116
    -2.5461  -2.5358  -2.5015  -2.5005  -2.4862  -2.4741  -2.4692  -2.4447
    -2.3944  -2.3511  -2.3478  -2.2873  -2.2688  -2.2597

          k =-0.5000-0.8660 0.0000 (321564 PWs)   bands (ev):

  -102.8284 -88.6768 -87.9991 -71.1553 -71.1475 -71.1325 -71.1217 -71.1099
   -71.1029 -71.0925 -66.6586 -66.6585 -66.6480 -66.6480 -66.6330 -66.6330
   -66.6330 -66.6330 -66.6287 -66.6286 -66.6225 -66.6225 -66.6224 -66.6224
   -66.6180 -66.6180 -66.5927 -66.5924 -66.5821 -66.5819 -66.5672 -66.5671
   -66.5670 -66.5668 -66.5628 -66.5625 -66.5568 -66.5564 -66.5563 -66.5562
   -66.5521 -66.5519 -66.5242 -66.5206 -66.5033 -66.5011 -66.4970 -66.4962
   -66.4883 -66.4829 -66.4811 -66.4680 -66.4648 -66.4614 -66.4576 -66.4506
   -66.4492 -66.4388 -57.1317 -57.0238 -56.9970 -54.5582 -54.4450 -54.3964
   -53.8396 -53.8135 -53.7603 -40.9597 -40.9597 -40.9596 -40.9596 -40.9330
   -40.9330 -40.9211 -40.9211 -40.8927 -40.8925 -40.8924 -40.8923 -40.8707
   -40.8707 -40.8707 -40.8707 -40.8660 -40.8658 -40.8540 -40.8538 -40.8195
   -40.8127 -40.8127 -40.8117 -40.8087 -40.8037 -40.8036 -40.8035 -40.8035
   -40.8027 -40.8027 -40.7984 -40.7920 -40.7920 -40.7915 -40.7852 -40.7626
   -40.7625 -40.7625 -40.7625 -40.7556 -40.7539 -40.7539 -40.7473 -40.7470
   -40.7421 -40.7417 -40.7417 -40.7417 -40.7417 -40.7416 -40.7416 -40.7358
   -40.7357 -40.7330 -40.7330 -40.7265 -40.7264 -40.7160 -40.7110 -40.7110
   -40.7109 -40.7109 -40.7084 -40.7075 -40.7043 -40.7026 -40.6972 -40.6971
   -40.6971 -40.6969 -40.6886 -40.6883 -40.6853 -40.6766 -40.6765 -40.6765
   -40.6764 -40.6764 -40.6762 -40.6761 -40.6760 -40.6748 -40.6747 -40.6732
   -40.6677 -40.6676 -40.6644 -40.6644 -40.6594 -40.6499 -40.6452 -40.6452
   -40.6444 -40.6443 -40.6441 -40.6440 -40.6438 -40.6416 -40.6359 -40.6334
   -40.6302 -40.6283 -40.6283 -40.6240 -40.6171 -40.6116 -40.6105 -40.6097
   -40.6096 -40.6095 -40.6095 -40.6008 -40.5979 -40.5978 -40.5977 -40.5974
   -40.5971 -40.5942 -40.5905 -40.5851 -40.5799 -40.5786 -40.5781 -40.5616
   -40.5614 -40.5604 -40.5569 -40.5562 -40.5514 -40.5312 -40.5309 -40.5223
   -40.5182 -40.5144 -40.5113 -40.5075 -40.4914 -40.4894 -40.4818 -40.4584
   -40.4543 -40.4391 -40.4279 -19.9784 -19.8692 -19.8459 -19.7960 -19.6879
   -19.6624 -19.4692 -19.4338 -19.4075 -19.3711 -19.2618 -19.2418 -19.0411
   -18.8864 -18.7803 -18.7321 -18.7264 -18.7189 -18.7140 -18.7087 -18.6922
   -18.6771 -18.6395 -18.6034 -18.5967 -18.5822 -18.5754 -18.5643 -18.5303
   -18.5301 -18.4801 -18.4694 -18.4631 -18.4374 -18.4259 -18.4060 -18.3870
   -18.3777 -18.3558 -18.3356 -18.2878 -18.2692 -18.2596 -18.2252 -18.2196
   -18.2083 -18.1703 -18.1564 -18.1480 -18.1273 -18.1178 -18.1044 -18.1042
   -18.1041 -18.1040 -18.0861 -18.0699 -18.0577 -18.0409 -18.0309 -18.0291
   -18.0240 -18.0203 -18.0173 -18.0147 -17.9871 -17.9757 -17.9664 -17.9633
   -17.9560 -17.9287 -17.9236 -17.9185 -17.9162 -17.9149 -17.9010 -17.8630
   -17.8602 -17.8544 -17.8465 -17.8408 -17.8408 -17.8043 -17.7983 -17.7849
   -17.7813 -17.7808 -17.7735 -17.7646 -17.7645 -17.7569 -17.7469 -17.7212
   -17.7207 -17.6640 -17.6589 -12.0258 -11.8149 -11.7236 -11.6631 -11.6332
   -11.5564 -11.5071 -11.4588 -11.4508 -11.4489 -11.4463 -11.4370 -11.4291
   -11.4183 -11.3924 -11.3588 -11.3515 -11.3487 -11.3390 -11.3224 -11.2988
   -11.2881 -11.2689 -11.2619 -11.2443 -11.2337 -11.2337 -11.1987 -11.1880
   -11.1873 -11.1488 -11.1378 -11.1342 -11.1324 -11.1207 -11.0407 -11.0327
   -11.0157 -10.9928 -10.9663 -10.9532 -10.9282 -10.9230 -10.9028 -10.8889
   -10.8865 -10.8831 -10.8667 -10.8497 -10.8350 -10.8215 -10.8176 -10.8088
   -10.8069 -10.8068 -10.8056 -10.8006 -10.7937 -10.7811 -10.7677 -10.7426
   -10.7396 -10.7328 -10.7317 -10.6506 -10.5848 -10.5657 -10.5318 -10.4740
   -10.4693 -10.4128 -10.3960 -10.3330 -10.3183 -10.2583 -10.2283 -10.1182
   -10.1076 -10.1034 -10.0932 -10.0586 -10.0491 -10.0282  -9.9995  -9.9932
    -9.9513  -9.9418  -9.9275  -9.9230  -9.9115  -9.9034  -9.9003  -9.8959
    -9.8759  -9.8715  -9.8582  -9.8523  -9.8070  -9.7811  -9.7496  -9.7442
    -9.7396  -9.7318  -9.7162  -9.6985  -9.6920  -9.6904  -9.6785  -9.6719
    -9.6664  -9.6465  -9.6290  -9.6267  -9.6092  -9.5959  -9.5893  -9.5677
    -9.5324  -9.5213  -9.5151  -9.5078  -9.5024  -9.4971  -9.4585  -9.4496
    -9.4469  -9.4229  -9.3791  -9.3539  -9.3269  -9.2928  -9.2067  -9.1966
    -9.1922  -9.1627  -9.1545  -9.1434  -9.1293  -9.1248  -9.1122  -9.0918
    -9.0783  -9.0761  -9.0467  -9.0334  -9.0234  -9.0219  -9.0104  -9.0046
    -8.9924  -8.9821  -8.9670  -8.9623  -8.9497  -8.9320  -8.9301  -8.9230
    -8.9148  -8.9113  -8.9101  -8.8855  -8.8826  -8.8653  -8.8496  -8.8388
    -8.8345  -8.8326  -8.8316  -8.8251  -8.8164  -8.8160  -8.8105  -8.8057
    -8.7979  -8.7912  -8.7886  -8.7509  -8.7485  -8.7400  -8.7295  -8.7180
    -8.6891  -8.6448  -8.5811  -8.5255  -8.4890  -8.4885  -8.4566  -8.4256
    -8.4079  -8.3944  -8.3750  -8.3171  -8.2803  -8.2167  -8.1700  -8.1700
    -8.1669  -8.1163  -8.0977  -8.0969  -8.0870  -8.0712  -8.0115  -7.9489
    -7.9276  -7.9106  -7.9042  -7.8730  -7.8638  -7.8447  -7.8378  -7.8332
    -7.8263  -7.8244  -7.8233  -7.8233  -7.8175  -7.8143  -7.7926  -7.7861
    -7.7780  -7.7770  -7.7738  -7.7697  -7.7542  -7.7519  -7.7481  -7.7376
    -7.7273  -7.7230  -7.7146  -7.7125  -7.7022  -7.6977  -7.6938  -7.6866
    -7.6770  -7.6669  -7.6601  -7.6432  -7.6382  -7.6381  -7.6346  -7.6224
    -7.6178  -7.6036  -7.5942  -7.5863  -7.5710  -7.5702  -7.5616  -7.5448
    -7.5302  -7.5114  -7.4954  -7.4845  -7.4564  -7.4387  -7.3960  -7.3116
    -7.2665  -7.2571  -7.2134  -7.2122  -7.2081  -7.1966  -7.1473  -7.1223
    -7.1076  -7.1014  -7.0839  -7.0431  -7.0292  -7.0093  -6.9894  -6.9883
    -6.9855  -6.9696  -6.9646  -6.9438  -6.9097  -6.8980  -6.8798  -6.8763
    -6.8452  -6.8301  -6.8093  -6.8029  -6.7635  -6.7182  -6.7036  -6.6893
    -6.6702  -6.6531  -6.6354  -6.6351  -6.6350  -6.6350  -6.6284  -6.6050
    -6.5889  -6.5762  -6.5676  -6.5656  -6.5627  -6.5579  -6.5568  -6.5462
    -6.5050  -6.4578  -6.4363  -6.4222  -6.3787  -6.3664  -6.3054  -6.3034
    -6.3031  -6.3026  -6.2839  -6.2537  -6.2400  -6.2304  -6.2231  -6.2188
    -6.2169  -6.2163  -6.2120  -6.1898  -6.1842  -6.1512  -6.1231  -6.0109
    -5.9550  -5.9549  -5.9405  -5.8895  -5.8822  -5.8723  -5.8616  -5.8309
    -5.7648  -5.6877  -5.6076  -5.5747  -5.5075  -5.4670  -5.4421  -5.4161
    -5.2780  -5.1818  -4.1924  -4.0416  -4.0013  -3.9940  -3.9686  -3.9054
    -3.8705  -3.8705  -3.8356  -3.8213  -3.8056  -3.8051  -3.7868  -3.7528
    -3.7480  -3.7346  -3.7061  -3.6777  -3.6022  -3.5821  -3.5801  -3.5719
    -3.5701  -3.5643  -3.5560  -3.5558  -3.5510  -3.5281  -3.4974  -3.4890
    -3.4788  -3.4752  -3.4641  -3.4559  -3.4493  -3.4455  -3.4415  -3.4369
    -3.3989  -3.3786  -3.3689  -3.3642  -3.3380  -3.3358  -3.3271  -3.3233
    -3.3192  -3.3002  -3.2903  -3.2887  -3.2848  -3.2807  -3.2650  -3.2486
    -3.2470  -3.2461  -3.2457  -3.2399  -3.2154  -3.2111  -3.2086  -3.2003
    -3.1854  -3.1802  -3.1759  -3.1638  -3.1573  -3.1532  -3.1471  -3.1292
    -3.1035  -3.0890  -3.0685  -3.0599  -3.0437  -3.0419  -3.0233  -3.0131
    -3.0030  -3.0003  -2.9842  -2.9838  -2.9834  -2.9830  -2.9508  -2.9433
    -2.9348  -2.9335  -2.9176  -2.9143  -2.9043  -2.8987  -2.8973  -2.8901
    -2.8812  -2.8776  -2.8713  -2.8632  -2.8567  -2.8463  -2.8267  -2.8229
    -2.8107  -2.8009  -2.7934  -2.7787  -2.7768  -2.7620  -2.7158  -2.7134
    -2.6851  -2.6838  -2.6377  -2.6355  -2.6219  -2.6205  -2.6180  -2.6050
    -2.5429  -2.5370  -2.4998  -2.4982  -2.4773  -2.4725  -2.4654  -2.4466
    -2.3828  -2.3564  -2.3412  -2.3061  -2.2729  -2.2483

     the Fermi energy is    -4.6527 ev

!    total energy              =  -26543.75159259 Ry
     total all-electron energy =   -522376.347900 Ry
     estimated scf accuracy    <       0.00000033 Ry
     smearing contrib. (-TS)   =      -0.00000007 Ry
     internal energy E=F+TS    =  -26543.75159252 Ry

     The total energy is F=E-TS. E is the sum of the following terms:
     one-electron contribution =  511503.29703185 Ry
     hartree contribution      = -255895.32752263 Ry
     xc contribution           =   -1565.67154049 Ry
     ewald contribution        = -264138.04499356 Ry
     DFT-D3 Dispersion         =      -4.05855612 Ry
     one-center paw contrib.   =  -16443.94601156 Ry

     convergence has been achieved in  21 iterations

     negative rho (up, down):  9.618E-04 0.000E+00

     Forces acting on atoms (cartesian axes, Ry/au):

     atom    1 type  1   force =    -0.00014711    0.00044154    0.00004601
     atom    2 type  1   force =    -0.00000197   -0.00000022    0.00190141
     atom    3 type  1   force =    -0.00000966   -0.00004081    0.00006101
     atom    4 type  2   force =     0.00000306   -0.00000306   -0.00296952
     atom    5 type  2   force =     0.00002112   -0.00000184    0.00031391
     atom    6 type  2   force =    -0.00022257   -0.00002064    0.00024884
     atom    7 type  2   force =    -0.00000064   -0.00000387    0.00120854
     atom    8 type  2   force =    -0.00001544   -0.00000620   -0.00032131
     atom    9 type  2   force =     0.00003936   -0.00014463    0.00040266
     atom   10 type  1   force =     0.00263143   -0.00090144   -0.00153523
     atom   11 type  1   force =     0.00000199    0.00000398    0.00189436
     atom   12 type  1   force =    -0.00003113    0.00000465    0.00001706
     atom   13 type  2   force =    -0.00000133   -0.00000000   -0.00297441
     atom   14 type  2   force =     0.00000913    0.00000723    0.00030556
     atom   15 type  2   force =    -0.00001377    0.00020316    0.00286595
     atom   16 type  2   force =    -0.00000234    0.00000020    0.00122842
     atom   17 type  2   force =    -0.00001574    0.00000203   -0.00025107
     atom   18 type  2   force =     0.01105860   -0.00477455    0.01626468
     atom   19 type  1   force =     0.00054262    0.00209390   -0.00158824
     atom   20 type  1   force =    -0.00000311   -0.00000315    0.00190117
     atom   21 type  1   force =     0.00000623   -0.00000453    0.00000009
     atom   22 type  2   force =    -0.00000141    0.00000127   -0.00297039
     atom   23 type  2   force =     0.00001288    0.00000034    0.00030220
     atom   24 type  2   force =     0.00006079    0.00033830    0.00260154
     atom   25 type  2   force =    -0.00000181   -0.00000671    0.00120293
     atom   26 type  2   force =     0.00000577    0.00000181   -0.00024682
     atom   27 type  2   force =     0.00102392    0.00971078    0.01693301
     atom   28 type  1   force =     0.00013622   -0.00057075   -0.00008060
     atom   29 type  1   force =    -0.00000560   -0.00000644    0.00190317
     atom   30 type  1   force =    -0.00003519   -0.00001246    0.00006743
     atom   31 type  2   force =     0.00000036   -0.00000129   -0.00296718
     atom   32 type  2   force =     0.00000205    0.00001057    0.00031250
     atom   33 type  2   force =    -0.00023572   -0.00028284    0.00010115
     atom   34 type  2   force =    -0.00000455   -0.00000675    0.00121241
     atom   35 type  2   force =     0.00001379   -0.00001876   -0.00023404
     atom   36 type  2   force =    -0.00022685    0.00019254   -0.00004116
     atom   37 type  1   force =     0.00015731    0.00043079    0.00027205
     atom   38 type  1   force =     0.00000708   -0.00000243    0.00190410
     atom   39 type  1   force =     0.00002469   -0.00000218    0.00007808
     atom   40 type  2   force =    -0.00000016   -0.00000267   -0.00296814
     atom   41 type  2   force =    -0.00001104   -0.00000915    0.00031228
     atom   42 type  2   force =    -0.00018217    0.00021648    0.00027999
     atom   43 type  2   force =     0.00000685    0.00000177    0.00120864
     atom   44 type  2   force =     0.00000739    0.00000321   -0.00026365
     atom   45 type  2   force =     0.00017831   -0.00005483   -0.00033213
     atom   46 type  1   force =     0.00011688   -0.00036484   -0.00005677
     atom   47 type  1   force =     0.00000310    0.00000192    0.00189112
     atom   48 type  1   force =     0.00004067    0.00001813    0.00004179
     atom   49 type  2   force =     0.00000196   -0.00000057   -0.00296707
     atom   50 type  2   force =    -0.00000130   -0.00001593    0.00030408
     atom   51 type  2   force =     0.00037839    0.00060531    0.00029154
     atom   52 type  2   force =     0.00000260    0.00000605    0.00120822
     atom   53 type  2   force =     0.00004311    0.00002321   -0.00023844
     atom   54 type  2   force =    -0.00004917   -0.00003612    0.00031017
     atom   55 type  1   force =     0.00035284   -0.00012340    0.00058224
     atom   56 type  1   force =     0.00000538    0.00000248    0.00189100
     atom   57 type  1   force =     0.00002938    0.00000834    0.00006003
     atom   58 type  2   force =    -0.00000151    0.00000090   -0.00296867
     atom   59 type  2   force =    -0.00000422   -0.00001738    0.00028724
     atom   60 type  2   force =     0.00063519    0.00037707   -0.00072404
     atom   61 type  2   force =     0.00000289   -0.00000310    0.00120204
     atom   62 type  2   force =     0.00002666    0.00001584   -0.00030349
     atom   63 type  2   force =    -0.00106103   -0.00043051   -0.00098479
     atom   64 type  1   force =     0.00000213    0.00017449    0.00058122
     atom   65 type  1   force =     0.00000290    0.00000081    0.00190066
     atom   66 type  1   force =     0.00002827    0.00000385    0.00006599
     atom   67 type  2   force =    -0.00000022   -0.00000090   -0.00296792
     atom   68 type  2   force =    -0.00000491   -0.00001199    0.00029361
     atom   69 type  2   force =     0.00023823    0.00009138    0.00029072
     atom   70 type  2   force =     0.00000353   -0.00000636    0.00120366
     atom   71 type  2   force =     0.00001878   -0.00000380   -0.00029545
     atom   72 type  2   force =    -0.00003159    0.00019955    0.00021311
     atom   73 type  1   force =    -0.00263973   -0.00189849    0.00038169
     atom   74 type  1   force =    -0.00000330    0.00000769    0.00190461
     atom   75 type  1   force =    -0.00000156   -0.00002209    0.00001619
     atom   76 type  2   force =     0.00000289    0.00000021   -0.00296831
     atom   77 type  2   force =    -0.00000262    0.00000307    0.00028787
     atom   78 type  2   force =     0.00038088   -0.00014681    0.00007722
     atom   79 type  2   force =     0.00000332    0.00000301    0.00120031
     atom   80 type  2   force =     0.00000394   -0.00001592   -0.00031625
     atom   81 type  2   force =    -0.00008165    0.00008346    0.00038538
     atom   82 type  1   force =    -0.00232131   -0.00074430   -0.00114015
     atom   83 type  1   force =     0.00000956    0.00000516    0.00189213
     atom   84 type  1   force =    -0.00002073    0.00000949   -0.00000172
     atom   85 type  2   force =     0.00000325    0.00000204   -0.00296658
     atom   86 type  2   force =    -0.00000184   -0.00000090    0.00029150
     atom   87 type  2   force =    -0.00001735    0.00014188   -0.00018162
     atom   88 type  2   force =     0.00000681    0.00000866    0.00120501
     atom   89 type  2   force =    -0.00001232    0.00001238   -0.00028460
     atom   90 type  2   force =    -0.00164891   -0.00046054   -0.00019141
     atom   91 type  1   force =    -0.00052277   -0.00036887    0.00009631
     atom   92 type  1   force =     0.00000745    0.00000142    0.00188751
     atom   93 type  1   force =     0.00001147   -0.00003560   -0.00005375
     atom   94 type  2   force =     0.00000311    0.00000167   -0.00297066
     atom   95 type  2   force =     0.00001790   -0.00000606    0.00027464
     atom   96 type  2   force =    -0.00033167   -0.00013747   -0.00033100
     atom   97 type  2   force =     0.00000611   -0.00000582    0.00120390
     atom   98 type  2   force =    -0.00001685    0.00001536   -0.00031183
     atom   99 type  2   force =     0.00026330   -0.00033034    0.00016164
     atom  100 type  1   force =    -0.00009770   -0.00023731    0.00017159
     atom  101 type  1   force =     0.00000833   -0.00000214    0.00189392
     atom  102 type  1   force =    -0.00001639    0.00001870   -0.00001499
     atom  103 type  2   force =     0.00000466   -0.00000067   -0.00296793
     atom  104 type  2   force =     0.00000781    0.00001084    0.00029054
     atom  105 type  2   force =    -0.00008991   -0.00016450    0.00026737
     atom  106 type  2   force =     0.00000727   -0.00000303    0.00120245
     atom  107 type  2   force =    -0.00000002   -0.00000427   -0.00029138
     atom  108 type  2   force =    -0.00021014    0.00015958   -0.00037647
     atom  109 type  1   force =     0.00194528   -0.00174862   -0.00064844
     atom  110 type  1   force =     0.00000334   -0.00000644    0.00190347
     atom  111 type  1   force =     0.00000149   -0.00001453    0.00000444
     atom  112 type  2   force =     0.00000289   -0.00000186   -0.00297220
     atom  113 type  2   force =     0.00000315   -0.00001197    0.00028603
     atom  114 type  2   force =     0.00007196   -0.00080460   -0.00101766
     atom  115 type  2   force =     0.00000137   -0.00000257    0.00121493
     atom  116 type  2   force =     0.00000189   -0.00002524   -0.00026786
     atom  117 type  2   force =    -0.00015994    0.00072542   -0.00163241
     atom  118 type  1   force =    -0.00003653   -0.00061595   -0.02054161
     atom  119 type  1   force =    -0.00000450    0.00000756    0.00189223
     atom  120 type  1   force =     0.00001128   -0.00001532   -0.00002464
     atom  121 type  2   force =     0.00000182    0.00000431   -0.00296644
     atom  122 type  2   force =    -0.00000953    0.00000680    0.00030337
     atom  123 type  2   force =     0.00019469    0.00009772    0.00256300
     atom  124 type  2   force =    -0.00000002    0.00000600    0.00121446
     atom  125 type  2   force =    -0.00002752   -0.00000025   -0.00025040
     atom  126 type  2   force =    -0.01165016   -0.00563211    0.01125922
     atom  127 type  1   force =    -0.00051144    0.00334008   -0.00106322
     atom  128 type  1   force =     0.00000318   -0.00000403    0.00189055
     atom  129 type  1   force =    -0.00001815    0.00002931    0.00000144
     atom  130 type  2   force =     0.00000491    0.00000119   -0.00297157
     atom  131 type  2   force =    -0.00000246   -0.00000813    0.00028985
     atom  132 type  2   force =    -0.00086752    0.00143924   -0.00094889
     atom  133 type  2   force =     0.00000020   -0.00000847    0.00120638
     atom  134 type  2   force =    -0.00000660    0.00000951   -0.00025483
     atom  135 type  2   force =    -0.00034722   -0.00117325   -0.00254486
     atom  136 type  1   force =     0.00001253    0.00015032    0.00055347
     atom  137 type  1   force =     0.00000577   -0.00000360    0.00189486
     atom  138 type  1   force =     0.00003989    0.00000350   -0.00003661
     atom  139 type  2   force =     0.00000456   -0.00000092   -0.00296783
     atom  140 type  2   force =     0.00000941   -0.00000435    0.00029753
     atom  141 type  2   force =     0.00012360   -0.00012032    0.00022191
     atom  142 type  2   force =    -0.00000237   -0.00001008    0.00119551
     atom  143 type  2   force =    -0.00001699   -0.00002319   -0.00027613
     atom  144 type  2   force =     0.00049100    0.00006092   -0.00050250
     atom  145 type  3   force =     0.00026355    0.00000554   -0.00074411
     atom  146 type  4   force =     0.01345565    0.00016674    0.00501653
     atom  147 type  4   force =    -0.01126427    0.00098539   -0.02725510

     Total force =     0.051908     Total SCF correction =     0.001784

     BFGS Geometry Optimization
     Energy error            =      0.0E+00 Ry
     Gradient error          =      2.7E-02 Ry/Bohr

     number of scf cycles    =   1
     number of bfgs steps    =   0

     energy             new  =  -26543.7515925871 Ry

[...]
     atom   72 type  2   force =    -0.00006749    0.00019271   -0.00005083
     atom   73 type  1   force =    -0.00016131    0.00021369    0.00034054
     atom   74 type  1   force =    -0.00000409    0.00000098    0.00190159
     atom   75 type  1   force =    -0.00000360   -0.00001920    0.00001633
     atom   76 type  2   force =    -0.00000190   -0.00000017   -0.00328144
     atom   77 type  2   force =     0.00001016   -0.00000802    0.00002939
     atom   78 type  2   force =     0.00008965   -0.00015132   -0.00017081
     atom   79 type  2   force =    -0.00000168    0.00000170    0.00150255
     atom   80 type  2   force =     0.00002061   -0.00002738    0.00000727
     atom   81 type  2   force =    -0.00033700   -0.00009356    0.00017033
     atom   82 type  1   force =    -0.00001677    0.00006995   -0.00004329
     atom   83 type  1   force =    -0.00000233    0.00000072    0.00189466
     atom   84 type  1   force =    -0.00001122    0.00000593   -0.00000682
     atom   85 type  2   force =    -0.00000175    0.00000001   -0.00328074
     atom   86 type  2   force =    -0.00002345   -0.00002542    0.00001869
     atom   87 type  2   force =    -0.00027724   -0.00008676   -0.00020600
     atom   88 type  2   force =    -0.00000100    0.00000787    0.00152034
     atom   89 type  2   force =    -0.00003551   -0.00001654   -0.00000596
     atom   90 type  2   force =     0.00004025   -0.00045901   -0.00020395
     atom   91 type  1   force =    -0.00005165    0.00009499   -0.00028846
     atom   92 type  1   force =    -0.00000264   -0.00000308    0.00189807
     atom   93 type  1   force =     0.00000230    0.00000251    0.00000617
     atom   94 type  2   force =    -0.00000169    0.00000052   -0.00328109
     atom   95 type  2   force =    -0.00000575    0.00000179    0.00000232
     atom   96 type  2   force =    -0.00021774   -0.00007294   -0.00008116
     atom   97 type  2   force =    -0.00000207   -0.00000470    0.00149585
     atom   98 type  2   force =     0.00000639    0.00001191    0.00000794
     atom   99 type  2   force =     0.00004265   -0.00005361   -0.00019496
     atom  100 type  1   force =    -0.00005100    0.00027845   -0.00010993
     atom  101 type  1   force =    -0.00000206   -0.00000118    0.00190341
     atom  102 type  1   force =     0.00000213   -0.00001250   -0.00000267
     atom  103 type  2   force =    -0.00000168    0.00000046   -0.00327991
     atom  104 type  2   force =     0.00000155    0.00000160   -0.00001006
     atom  105 type  2   force =     0.00001404    0.00001105    0.00005022
     atom  106 type  2   force =    -0.00000187   -0.00000845    0.00150175
     atom  107 type  2   force =     0.00000669   -0.00000774   -0.00000296
     atom  108 type  2   force =     0.00020625   -0.00004615    0.00003662
     atom  109 type  1   force =     0.00015291    0.00003183    0.00007710
     atom  110 type  1   force =    -0.00000106   -0.00000040    0.00190502
     atom  111 type  1   force =    -0.00000128   -0.00000031    0.00001843
     atom  112 type  2   force =    -0.00000166   -0.00000005   -0.00328054
     atom  113 type  2   force =    -0.00002235   -0.00000725    0.00000926
     atom  114 type  2   force =    -0.00006835    0.00048207   -0.00005111
     atom  115 type  2   force =    -0.00000426    0.00000577    0.00151820
     atom  116 type  2   force =    -0.00000440    0.00001371    0.00002368
     atom  117 type  2   force =     0.00006363    0.00012990    0.00008474
     atom  118 type  1   force =     0.00028560   -0.00003201   -0.00032595
     atom  119 type  1   force =    -0.00000265    0.00000267    0.00189523
     atom  120 type  1   force =    -0.00001624   -0.00001855    0.00000245
     atom  121 type  2   force =    -0.00000189    0.00000003   -0.00328088
     atom  122 type  2   force =    -0.00000116   -0.00001198    0.00002792
     atom  123 type  2   force =     0.00018591    0.00020792    0.00017167
     atom  124 type  2   force =    -0.00000251    0.00000857    0.00151655
     atom  125 type  2   force =    -0.00000707    0.00000696    0.00000455
     atom  126 type  2   force =     0.00042751    0.00074576    0.00013508
     atom  127 type  1   force =     0.00014682   -0.00001061    0.00010695
     atom  128 type  1   force =    -0.00000163   -0.00000257    0.00189653
     atom  129 type  1   force =    -0.00000332   -0.00001000   -0.00000645
     atom  130 type  2   force =    -0.00000181    0.00000039   -0.00328055
     atom  131 type  2   force =     0.00000666   -0.00002591    0.00000866
     atom  132 type  2   force =     0.00013861    0.00012030   -0.00014059
     atom  133 type  2   force =    -0.00000147   -0.00001196    0.00150296
     atom  134 type  2   force =     0.00000223   -0.00000519   -0.00002289
     atom  135 type  2   force =    -0.00010397    0.00006539   -0.00008229
     atom  136 type  1   force =     0.00002578   -0.00004558    0.00005356
     atom  137 type  1   force =    -0.00000158   -0.00000054    0.00190318
     atom  138 type  1   force =    -0.00000029    0.00000159    0.00000788
     atom  139 type  2   force =    -0.00000162    0.00000059   -0.00327970
     atom  140 type  2   force =    -0.00002191   -0.00002382   -0.00000727
     atom  141 type  2   force =    -0.00011438    0.00038880   -0.00017754
     atom  142 type  2   force =    -0.00000278   -0.00001109    0.00150556
     atom  143 type  2   force =     0.00000865   -0.00001596   -0.00002952
     atom  144 type  2   force =    -0.00022322   -0.00005307   -0.00020964
     atom  145 type  3   force =     0.00038520   -0.00017642   -0.00017148
     atom  146 type  4   force =    -0.00048941   -0.00011559   -0.00009338
     atom  147 type  4   force =    -0.00090877   -0.00038140   -0.00073283

     Total force =     0.002663     Total SCF correction =     0.000350
     SCF correction compared to forces is large: reduce conv_thr to get better values
     Energy error            =      2.2E-05 Ry
     Gradient error          =      9.1E-04 Ry/Bohr

     bfgs converged in  21 scf cycles and  20 bfgs steps
     (criteria: energy <  1.0E-04 Ry, force <  1.0E-03 Ry/Bohr)

     End of BFGS Geometry Optimization

     Final energy             =  -26543.7653465266 Ry

     File ./outdir/pwscf.bfgs deleted, as requested
Begin final coordinates

ATOMIC_POSITIONS (angstrom)
Mo               1.5736498562        2.7243232742        6.0911548673
Mo               1.5769197498        0.9104407117       -6.0872367793    0   0   0
Mo               0.0000414221        1.8213618971        0.0003463129
S                0.0000044503        0.0000077495       -7.6506323570    0   0   0
S                1.5766780317        0.9107704175       -1.5656735573
S               -0.0000376893        1.8382651804        4.5078255658
S                0.0000053241        0.0000068460       -4.5222282367    0   0   0
S                1.5765851239        0.9096640222        1.5660246899
S               -0.0010668170        1.8027613829        7.6512713629
Mo              -0.0013439604        5.4631430841        6.1148646921
Mo               0.0000011799        3.6417399547       -6.0872367793    0   0   0
Mo              -1.5768886591        4.5523774033        0.0007175195
S               -1.5769141197        2.7313069925       -7.6506323570    0   0   0
S                0.0000423683        3.6421350979       -1.5646806392
S               -1.5896501620        4.5698309150        4.5616726353
S               -1.5769132459        2.7313060890       -4.5222282367    0   0   0
S               -0.0000284680        3.6430435905        1.5691130887
S               -1.5170587806        4.5054637633        7.7219944711
Mo              -1.5694161583        8.2032928512        6.0830465564
Mo              -1.5769173901        6.3730391977       -6.0872367793    0   0   0
Mo              -3.1539149489        7.2826070329       -0.0009796289
S               -3.1538326896        5.4626062355       -7.6506323570    0   0   0
S               -1.5768178811        6.3721842614       -1.5661210529
S               -3.1534883940        7.2617912988        4.5516435467
S               -3.1538318159        5.4626053320       -4.5222282367    0   0   0
S               -1.5768768696        6.3736250822        1.5669754547
S               -3.1560725799        7.3936858558        7.6910916411
Mo               3.1510015253       -0.0032776982        6.0610203503
Mo              -3.1538359601        9.1043384407       -6.0872367793    0   0   0
Mo              -4.7308678489       10.0142158773       -0.0010499444
S               -4.7307512596        8.1939054785       -7.6506323570    0   0   0
S               -3.1538680707        9.1037341569       -1.5663923641
S               -4.7337922178       10.0151021196        4.4932321766
S               -4.7307503859        8.1939045750       -4.5222282367    0   0   0
S               -3.1541494192        9.1026084793        1.5661086900
S               -4.7342619898       10.0404093537        7.6384282142
Mo               4.7295650615        2.6859238461        6.0618868238
Mo               4.7307503218        0.9104407117       -6.0872367793    0   0   0
Mo               3.1536370671        1.8208661810        0.0000544665
S                3.1538350223        0.0000077495       -7.6506323570    0   0   0
S                4.7311748789        0.9107673801       -1.5651279889
S                3.1380674782        1.8180825268        4.4967209754
S                3.1538358961        0.0000068460       -4.5222282367    0   0   0
S                4.7299812915        0.9092271501        1.5665588110
S                3.1548844481        1.7995545798        7.6386904175
Mo               3.1495908237        5.4606172068        6.1338115891
Mo               3.1538317519        3.6417399547       -6.0872367793    0   0   0
Mo               1.5770041919        4.5523291486        0.0008244325
S                1.5769164523        2.7313069925       -7.6506323570    0   0   0
S                3.1540363055        3.6419393444       -1.5646601591
S                1.5908987351        4.5719362424        4.5647905229
S                1.5769173261        2.7313060890       -4.5222282367    0   0   0
S                3.1536981985        3.6418552804        1.5685595639
S                1.5040830570        4.5009415000        7.7430373183
Mo               1.5650729971        8.2053113599        6.0858532739
Mo               1.5769131819        6.3730391977       -6.0872367793    0   0   0
Mo               0.0001631623        7.2829169473       -0.0009108673
S               -0.0000021176        5.4626062355       -7.6506323570    0   0   0
S                1.5769902332        6.3720366891       -1.5661184097
S                0.0004657547        7.2699556565        4.5226782087
S               -0.0000012439        5.4626053320       -4.5222282367    0   0   0
S                1.5772946357        6.3735899080        1.5671898781
S               -0.0020935525        7.2963925688        7.6600040126
Mo               6.3083759513       -0.0093792915        6.0463309886
Mo              -0.0000053881        9.1043384407       -6.0872367793    0   0   0
Mo              -1.5770108757       10.0140519103       -0.0008515001
S               -1.5769206876        8.1939054785       -7.6506323570    0   0   0
S                0.0000825656        9.1040344569       -1.5664459237
S               -1.5834384261        9.9995416039        4.4914480188
S               -1.5769198139        8.1939045750       -4.5222282367    0   0   0
S                0.0001529094        9.1034345872        1.5658006672
S               -1.5708370982       10.0297411804        7.6323924129
Mo               7.8855506308        2.6980663309        6.0664941413
Mo               7.8845808939        0.9104407117       -6.0872367793    0   0   0
Mo               6.3078019134        1.8209547773        0.0013688475
S                6.3076655943        0.0000077495       -7.6506323570    0   0   0
S                7.8843382564        0.9109316843       -1.5652236543
S                6.3106557093        1.8096145388        4.4780181052
S                6.3076664681        0.0000068460       -4.5222282367    0   0   0
S                7.8854849680        0.9092635864        1.5665604139
S                6.3098966858        1.7787474470        7.6251647855
Mo               6.3154123981        5.4583965781        6.1042471229
Mo               6.3076623239        3.6417399547       -6.0872367793    0   0   0
Mo               4.7308392402        4.5521430944        0.0012186591
S                4.7307470244        2.7313069925       -7.6506323570    0   0   0
S                6.3078224385        3.6415886830       -1.5639500906
S                4.7172903667        4.5642920042        4.5639325650
S                4.7307478981        2.7313060890       -4.5222282367    0   0   0
S                6.3079155907        3.6427790756        1.5696916000
S                4.7953786040        4.4168477293        7.6872088085
Mo               4.7364326560        8.2192820948        6.0889752410
Mo               4.7307437539        6.3730391977       -6.0872367793    0   0   0
Mo               3.1540448706        7.2826334899       -0.0011004977
S                3.1538284544        5.4626062355       -7.6506323570    0   0   0
S                4.7309508376        6.3717169027       -1.5659436650
S                3.1544499763        7.2632622577        4.5591157876
S                3.1538293281        5.4626053320       -4.5222282367    0   0   0
S                4.7306692856        6.3735334086        1.5675050262
S                3.1521587355        7.4202207208        7.7118061626
Mo               9.4636751824       -0.0029962555        6.0631978533
Mo               3.1538251839        9.1043384407       -6.0872367793    0   0   0
Mo               1.5771640792       10.0142189195       -0.0009506242
S                1.5769098844        8.1939054785       -7.6506323570    0   0   0
S                3.1539469639        9.1038334359       -1.5665351625
S                1.5837431934       10.0003479897        4.4918908548
S                1.5769107581        8.1939045750       -4.5222282367    0   0   0
S                3.1543343762        9.1027843529        1.5658461865
S                1.5684057538       10.0328138576        7.6342050335
Mo              -1.5741778747        2.7244217405        6.0894457785
Mo              11.0384114659        0.9104407117       -6.0872367793    0   0   0
Mo               9.4618211434        1.8208529057        0.0000479337
S                9.4614961663        0.0000077495       -7.6506323570    0   0   0
S               11.0387563997        0.9109334339       -1.5657305649
S                9.4737745649        1.8183724176        4.4998033325
S                9.4614970401        0.0000068460       -4.5222282367    0   0   0
S               11.0389070836        0.9095112705        1.5662042730
S                9.4594168287        1.8021351649        7.6403448201
Mo              -3.1487630476        5.4600137089        6.1415371521
Mo               9.4614928959        3.6417399547       -6.0872367793    0   0   0
Mo               7.8847358429        4.5522303196        0.0011394498
S                7.8845775964        2.7313069925       -7.6506323570    0   0   0
S                9.4614424013        3.6419178856       -1.5647648933
S                7.9014062686        4.5639398831        4.5610503874
S                7.8845784701        2.7313060890       -4.5222282367    0   0   0
S                9.4618206688        3.6418176833        1.5683876592
S                7.8509690218        4.4452676805        7.7025059509
Mo              -4.7330529434        8.2185340830        6.0814541042
Mo               7.8845743259        6.3730391977       -6.0872367793    0   0   0
Mo               6.3076388436        7.2828219008       -0.0008487840
S                6.3076590264        5.4626062355       -7.6506323570    0   0   0
S                7.8844747294        6.3718914790       -1.5659173485
S                6.3059784534        7.2788882291        4.5354407631
S                6.3076599001        5.4626053320       -4.5222282367    0   0   0
S                7.8844879305        6.3736442870        1.5674951901
S                6.3125028466        7.3478630720        7.6720702398
Mo               0.0003317693        0.0085942532        6.0615351466
Mo               6.3076557559        9.1043384407       -6.0872367793    0   0   0
Mo               4.7310177833       10.0142811892       -0.0012216869
S                4.7307404564        8.1939054785       -7.6506323570    0   0   0
S                6.3078071132        9.1038087145       -1.5666244215
S                4.7336945572       10.0128864807        4.4964154630
S                4.7307413301        8.1939045750       -4.5222282367    0   0   0
S                6.3076373227        9.1033374048        1.5657800543
S                4.7367092324       10.0456884644        7.6412307324
Pt               3.2908929986        5.4971120502        8.9532450054
Pd               6.2541881883        5.5036158993        9.1590492625
Pd              -3.2486271850        5.5007039247        9.0501795907
End final coordinates



     Writing all to output data dir ./outdir/pwscf.save/ :
     XML data file, charge density, pseudopotentials, collected wavefunctions
 
     init_run     :     96.70s CPU     99.33s WALL (       1 calls)
     electrons    :  86759.72s CPU  88032.52s WALL (      21 calls)
     update_pot   :     26.41s CPU     27.24s WALL (      20 calls)
     forces       :   1512.91s CPU   1545.60s WALL (      21 calls)
     force_dftd3  :      8.33s CPU      8.67s WALL (      21 calls)

     Called by init_run:
     wfcinit      :     78.99s CPU     80.10s WALL (       1 calls)
     potinit      :      1.09s CPU      1.18s WALL (       1 calls)
     hinit0       :      9.23s CPU      9.30s WALL (       1 calls)

     Called by electrons:
     c_bands      :  75741.83s CPU  76513.57s WALL (     256 calls)
     sum_band     :   9471.94s CPU   9727.27s WALL (     256 calls)
     v_of_rho     :     73.83s CPU     83.02s WALL (     259 calls)
     newd         :   1306.15s CPU   1548.31s WALL (     259 calls)
     PAW_pot      :    215.71s CPU    217.40s WALL (     279 calls)
     mix_rho      :     18.77s CPU     21.57s WALL (     256 calls)
     energy_dftd3 :      4.56s CPU      4.58s WALL (      21 calls)

     Called by c_bands:
     init_us_2    :    361.56s CPU    363.33s WALL (    2216 calls)
     init_us_2:cp :    361.54s CPU    363.32s WALL (    2216 calls)
     cegterg      :  74260.54s CPU  75025.42s WALL (    1048 calls)

     Called by *egterg:
     cdiaghg      :   3741.45s CPU   3909.23s WALL (   11888 calls)
     h_psi        :  38516.81s CPU  38769.49s WALL (   12051 calls)
     s_psi        :   8050.75s CPU   8084.31s WALL (   12051 calls)
     g_psi        :     87.01s CPU     87.38s WALL (   10999 calls)

     Called by h_psi:
     h_psi:calbec :   7922.96s CPU   7950.19s WALL (   12051 calls)
     vloc_psi     :  22328.28s CPU  22454.71s WALL (   12051 calls)
     add_vuspsi   :   8079.26s CPU   8116.43s WALL (   12051 calls)

     General routines
     calbec       :  11311.73s CPU  11349.80s WALL (   13491 calls)
     fft          :     65.00s CPU     73.46s WALL (    3594 calls)
     ffts         :      3.35s CPU      3.48s WALL (     515 calls)
     fftw         :  16629.44s CPU  16723.09s WALL ( 5857586 calls)
     interpolate  :      6.20s CPU      6.81s WALL (     259 calls)
 
     Parallel routines
 
     PWSCF        :   1d 0h41m CPU   1d 1h 4m WALL

 
   This run was terminated on:   5:48:33   3Apr2024            

=------------------------------------------------------------------------------=
   JOB DONE.
=------------------------------------------------------------------------------=
