
     Program PWSCF v.7.3 starts on  3Apr2024 at 22: 1:31 

     This program is part of the open-source Quantum ESPRESSO suite
     for quantum simulation of materials; please cite
         "P. Giannozzi et al., J. Phys.:Condens. Matter 21 395502 (2009);
         "P. Giannozzi et al., J. Phys.:Condens. Matter 29 465901 (2017);
         "P. Giannozzi et al., J. Chem. Phys. 152 154105 (2020);
          URL http://www.quantum-espresso.org", 
     in publications or presentations arising from this work. More details at
     http://www.quantum-espresso.org/quote

     Parallel version (MPI & OpenMP), running on      36 processor cores
     Number of MPI processes:                36
     Threads/MPI process:                     1

     MPI processes distributed on     1 nodes
     558306 MiB available memory on the printing compute node when the environment starts
 
     Waiting for input...
     Reading input from standard input
Warning: card &CELL ignored
Warning: card / ignored

     Current dimensions of program PWSCF are:
     Max number of different atomic species (ntypx) = 10
     Max number of k-points (npk) =  40000
     Max angular momentum in pseudopotentials (lmaxx) =  4
     file Mo.pbe-spn-kjpaw_psl.1.0.0.UPF: wavefunction(s)  4S 4D renormalized
     file S.pbe-n-kjpaw_psl.1.0.0.UPF: wavefunction(s)  3S 3P renormalized
     file Pt.pbe-spfn-kjpaw_psl.1.0.0.UPF: wavefunction(s)  5P 4F renormalized
     file Pd.pbe-spn-kjpaw_psl.1.0.0.UPF: wavefunction(s)  4S 5S 4D renormalized
 
     R & G space division:  proc/nbgrp/npool/nimage =      36
     Subspace diagonalization in iterative solution of the eigenvalue problem:
     one sub-group per band group will be used
     scalapack distributed-memory algorithm (size of sub-group:  6*  6 procs)

 
     Parallelization info
     --------------------
     sticks:   dense  smooth     PW     G-vecs:    dense   smooth      PW
     Min         585     334     89               198743    85850   11735
     Max         586     335     90               198750    85861   11748
     Sum       21073   12049   3205              7154885  3090769  422587
 
     Using Slab Decomposition
 


     bravais-lattice index     =            0
     lattice parameter (alat)  =      23.8199  a.u.
     unit-cell volume          =   33861.0370 (a.u.)^3
     number of atoms/cell      =          195
     number of atomic types    =            4
     number of electrons       =      1746.00
     number of Kohn-Sham states=         1048
     kinetic-energy cutoff     =      77.0000  Ry
     charge density cutoff     =     539.0000  Ry
     scf convergence threshold =      1.0E-06
     mixing beta               =       0.2000
     number of iterations used =            8  plain     mixing
     energy convergence thresh.=      1.0E-04
     force convergence thresh. =      1.0E-03
     Exchange-correlation= SLA  PW   PBX  PBC
                           (   1   4   3   4   0   0   0)
     nstep                     =         1000


     Effective Screening Medium Method
     =================================
     Boundary Conditions: Vacuum-Slab-Vacuum
     total charge in unit cell        =   0.0000
     grid points for fit at edges     =        4 
 

     celldm(1)=  23.819920  celldm(2)=   0.000000  celldm(3)=   0.000000
     celldm(4)=   0.000000  celldm(5)=   0.000000  celldm(6)=   0.000000

     crystal axes: (cart. coord. in units of alat)
               a(1) = (   1.000000   0.000000   0.000000 )  
               a(2) = (  -0.499999   0.866026   0.000000 )  
               a(3) = (   0.000000   0.000000   2.893000 )  

     reciprocal axes: (cart. coord. in units 2 pi/alat)
               b(1) = (  1.000000  0.577349  0.000000 )  
               b(2) = (  0.000000  1.154700  0.000000 )  
               b(3) = (  0.000000  0.000000  0.345662 )  


     PseudoPot. # 1 for Mo read from file:
     ./pseudo/Mo.pbe-spn-kjpaw_psl.1.0.0.UPF
     MD5 check sum: 317bf72632116215fd98f72de1686f13
     Pseudo is Projector augmented-wave + core cor, Zval = 14.0
     Generated using 'atomic' code by A. Dal Corso  v.7.2
     Shape of augmentation charge: PSQ
     Using radial grid of 1229 points,  6 beta functions with: 
                l(1) =   0
                l(2) =   0
                l(3) =   1
                l(4) =   1
                l(5) =   2
                l(6) =   2
     Q(r) pseudized with 0 coefficients 


     PseudoPot. # 2 for S  read from file:
     ./pseudo/S.pbe-n-kjpaw_psl.1.0.0.UPF
     MD5 check sum: 8b7b5302570d38d5e87fed6a1065abda
     Pseudo is Projector augmented-wave + core cor, Zval =  6.0
     Generated using 'atomic' code by A. Dal Corso  v.7.2
     Shape of augmentation charge: PSQ
     Using radial grid of 1151 points,  6 beta functions with: 
                l(1) =   0
                l(2) =   0
                l(3) =   1
                l(4) =   1
                l(5) =   2
                l(6) =   2
     Q(r) pseudized with 0 coefficients 


     PseudoPot. # 3 for Pt read from file:
     ./pseudo/Pt.pbe-spfn-kjpaw_psl.1.0.0.UPF
     MD5 check sum: 620096ebf4e6ebacc94de60fd67efcb5
     Pseudo is Projector augmented-wave + core cor, Zval = 32.0
     Generated using 'atomic' code by A. Dal Corso  v.7.2
     Shape of augmentation charge: PSQ
     Using radial grid of 1277 points,  8 beta functions with: 
                l(1) =   0
                l(2) =   0
                l(3) =   1
                l(4) =   1
                l(5) =   2
                l(6) =   2
                l(7) =   3
                l(8) =   3
     Q(r) pseudized with 0 coefficients 


     PseudoPot. # 4 for Pd read from file:
     ./pseudo/Pd.pbe-spn-kjpaw_psl.1.0.0.UPF
     MD5 check sum: a60571a671f2502b8a6a4569d20a6edb
     Pseudo is Projector augmented-wave + core cor, Zval = 18.0
     Generated using 'atomic' code by A. Dal Corso  v.7.2
     Shape of augmentation charge: PSQ
     Using radial grid of 1235 points,  6 beta functions with: 
                l(1) =   0
                l(2) =   0
                l(3) =   1
                l(4) =   1
                l(5) =   2
                l(6) =   2
     Q(r) pseudized with 0 coefficients 


     atomic species   valence    mass     pseudopotential
     Mo               14.00    95.95000     Mo( 1.00)
     S                 6.00    32.06000     S ( 1.00)
     Pt               32.00   195.08400     Pt( 1.00)
     Pd               18.00   106.42000     Pd( 1.00)

     No symmetry found



   Cartesian axes

     site n.     atom                  positions (alat units)
         1        Mo     tau(   1) = (   0.0000010   0.1443372  -0.7272732  )
         2        Mo     tau(   2) = (   0.1249995   0.0721706  -0.2424038  )
         3        S      tau(   3) = (   0.0000015   0.1443386  -0.3667807  )
         4        S      tau(   4) = (   0.1250010   0.0721682  -0.6030489  )
         5        S      tau(   5) = (   0.1250010   0.0721683  -0.8514963  )
         6        S      tau(   6) = (   0.0000015   0.1443389  -0.1180260  )
         7        Mo     tau(   7) = (   0.0000165   0.1443639   0.2424458  )
         8        Mo     tau(   8) = (   0.1250235   0.0717246   0.7263406  )
         9        S      tau(   9) = (   0.0005369   0.1448386   0.6015218  )
        10        S      tau(  10) = (   0.1249954   0.0721618   0.3668135  )
        11        S      tau(  11) = (   0.1250195   0.0721779   0.1180823  )
        12        S      tau(  12) = (  -0.0003270   0.1431025   0.8512079  )
        13        Mo     tau(  13) = (  -0.1249989   0.3608437  -0.7272732  )
        14        Mo     tau(  14) = (   0.0000030   0.2886752  -0.2424042  )
        15        S      tau(  15) = (  -0.1249977   0.3608450  -0.3667802  )
        16        S      tau(  16) = (   0.0000012   0.2886747  -0.6030489  )
        17        S      tau(  17) = (   0.0000012   0.2886748  -0.8514963  )
        18        S      tau(  18) = (  -0.1249977   0.3608454  -0.1180274  )
        19        Mo     tau(  19) = (  -0.1249838   0.3608611   0.2424564  )
        20        Mo     tau(  20) = (  -0.0010112   0.2875499   0.7275042  )
        21        S      tau(  21) = (  -0.1249589   0.3614723   0.6028911  )
        22        S      tau(  22) = (   0.0000229   0.2887164   0.3668462  )
        23        S      tau(  23) = (   0.0000319   0.2887039   0.1180849  )
        24        S      tau(  24) = (  -0.1254179   0.3601432   0.8519775  )
        25        Mo     tau(  25) = (  -0.2499987   0.5773502  -0.7272732  )
        26        Mo     tau(  26) = (  -0.1249977   0.5051839  -0.2424055  )
        27        S      tau(  27) = (  -0.2499981   0.5773518  -0.3667809  )
        28        S      tau(  28) = (  -0.1249986   0.5051812  -0.6030489  )
        29        S      tau(  29) = (  -0.1249986   0.5051813  -0.8514963  )
        30        S      tau(  30) = (  -0.2499979   0.5773512  -0.1180266  )
        31        Mo     tau(  31) = (  -0.2499892   0.5773423   0.2424725  )
        32        Mo     tau(  32) = (  -0.1256606   0.5052028   0.7286154  )
        33        S      tau(  33) = (  -0.2498226   0.5768374   0.6031862  )
        34        S      tau(  34) = (  -0.1249521   0.5051863   0.3668519  )
        35        S      tau(  35) = (  -0.1249975   0.5051799   0.1180722  )
        36        S      tau(  36) = (  -0.2499767   0.5778459   0.8528940  )
        37        Mo     tau(  37) = (  -0.3749985   0.7938567  -0.7272732  )
        38        Mo     tau(  38) = (  -0.2500001   0.7216874  -0.2424031  )
        39        S      tau(  39) = (  -0.3749980   0.7938584  -0.3667800  )
        40        S      tau(  40) = (  -0.2499984   0.7216877  -0.6030489  )
        41        S      tau(  41) = (  -0.2499984   0.7216878  -0.8514963  )
        42        S      tau(  42) = (  -0.3749982   0.7938585  -0.1180264  )
        43        Mo     tau(  43) = (  -0.3749918   0.7938447   0.2424454  )
        44        Mo     tau(  44) = (  -0.2499337   0.7214685   0.7273252  )
        45        S      tau(  45) = (  -0.3749119   0.7930997   0.6024017  )
        46        S      tau(  46) = (  -0.2499835   0.7216794   0.3668152  )
        47        S      tau(  47) = (  -0.2499982   0.7216718   0.1180690  )
        48        S      tau(  48) = (  -0.3745581   0.7945239   0.8516564  )
        49        Mo     tau(  49) = (   0.2500010   0.1443372  -0.7272732  )
        50        Mo     tau(  50) = (   0.3750034   0.0721723  -0.2424032  )
        51        S      tau(  51) = (   0.2500017   0.1443391  -0.3667788  )
        52        S      tau(  52) = (   0.3750010   0.0721682  -0.6030489  )
        53        S      tau(  53) = (   0.3750010   0.0721683  -0.8514963  )
        54        S      tau(  54) = (   0.2500016   0.1443391  -0.1180271  )
        55        Mo     tau(  55) = (   0.2500049   0.1443558   0.2424800  )
        56        Mo     tau(  56) = (   0.3750695   0.0717200   0.7264262  )
        57        S      tau(  57) = (   0.2500704   0.1440362   0.6019475  )
        58        S      tau(  58) = (   0.3750099   0.0721483   0.3668106  )
        59        S      tau(  59) = (   0.3749948   0.0721851   0.1180824  )
        60        S      tau(  60) = (   0.2500131   0.1413211   0.8516135  )
        61        Mo     tau(  61) = (   0.1250012   0.3608437  -0.7272732  )
        62        Mo     tau(  62) = (   0.2500029   0.2886782  -0.2424031  )
        63        S      tau(  63) = (   0.1250024   0.3608455  -0.3667794  )
        64        S      tau(  64) = (   0.2500012   0.2886747  -0.6030489  )
        65        S      tau(  65) = (   0.2500012   0.2886748  -0.8514963  )
        66        S      tau(  66) = (   0.1250021   0.3608455  -0.1180270  )
        67        Mo     tau(  67) = (   0.1250220   0.3608739   0.2424909  )
        68        Mo     tau(  68) = (   0.2500516   0.2862417   0.7284634  )
        69        S      tau(  69) = (   0.1251493   0.3619302   0.6061672  )
        70        S      tau(  70) = (   0.2500021   0.2887137   0.3669053  )
        71        S      tau(  71) = (   0.2500084   0.2886924   0.1181099  )
        72        S      tau(  72) = (   0.1241634   0.3514816   0.8558063  )
        73        Mo     tau(  73) = (   0.0000014   0.5773502  -0.7272732  )
        74        Mo     tau(  74) = (   0.1250045   0.5051840  -0.2424036  )
        75        S      tau(  75) = (   0.0000030   0.5773520  -0.3667799  )
        76        S      tau(  76) = (   0.1250014   0.5051812  -0.6030489  )
        77        S      tau(  77) = (   0.1250014   0.5051813  -0.8514963  )
        78        S      tau(  78) = (   0.0000026   0.5773517  -0.1180274  )
        79        Mo     tau(  79) = (   0.0000298   0.5773239   0.2424318  )
        80        Mo     tau(  80) = (   0.1235562   0.5053489   0.7306566  )
        81        S      tau(  81) = (   0.0009343   0.5763644   0.6059345  )
        82        S      tau(  82) = (   0.1250078   0.5051967   0.3669171  )
        83        S      tau(  83) = (   0.1250403   0.5051743   0.1180834  )
        84        S      tau(  84) = (  -0.0065880   0.5806588   0.8588888  )
        85        Mo     tau(  85) = (  -0.1249984   0.7938567  -0.7272732  )
        86        Mo     tau(  86) = (   0.0000069   0.7216896  -0.2424039  )
        87        S      tau(  87) = (  -0.1249975   0.7938582  -0.3667782  )
        88        S      tau(  88) = (   0.0000016   0.7216877  -0.6030489  )
        89        S      tau(  89) = (   0.0000016   0.7216878  -0.8514963  )
        90        S      tau(  90) = (  -0.1249973   0.7938582  -0.1180279  )
        91        Mo     tau(  91) = (  -0.1249912   0.7938418   0.2424335  )
        92        Mo     tau(  92) = (  -0.0002856   0.7221962   0.7280430  )
        93        S      tau(  93) = (  -0.1248457   0.7930650   0.6025902  )
        94        S      tau(  94) = (  -0.0000060   0.7216208   0.3667980  )
        95        S      tau(  95) = (   0.0000209   0.7216773   0.1180639  )
        96        S      tau(  96) = (  -0.1254320   0.7945446   0.8518225  )
        97        Mo     tau(  97) = (   0.5000010   0.1443372  -0.7272732  )
        98        Mo     tau(  98) = (   0.6250001   0.0721662  -0.2424040  )
        99        S      tau(  99) = (   0.5000017   0.1443386  -0.3667801  )
       100        S      tau( 100) = (   0.6250010   0.0721682  -0.6030489  )
       101        S      tau( 101) = (   0.6250010   0.0721683  -0.8514963  )
       102        S      tau( 102) = (   0.5000020   0.1443388  -0.1180261  )
       103        Mo     tau( 103) = (   0.4999955   0.1443611   0.2424567  )
       104        Mo     tau( 104) = (   0.6246463   0.0728119   0.7256413  )
       105        S      tau( 105) = (   0.4995556   0.1446831   0.6015045  )
       106        S      tau( 106) = (   0.6250311   0.0722157   0.3667721  )
       107        S      tau( 107) = (   0.6249808   0.0721636   0.1180639  )
       108        S      tau( 108) = (   0.5004658   0.1432308   0.8511310  )
       109        Mo     tau( 109) = (   0.3750012   0.3608437  -0.7272732  )
       110        Mo     tau( 110) = (   0.4999991   0.2886761  -0.2424038  )
       111        S      tau( 111) = (   0.3750012   0.3608452  -0.3667804  )
       112        S      tau( 112) = (   0.5000012   0.2886747  -0.6030489  )
       113        S      tau( 113) = (   0.5000012   0.2886748  -0.8514963  )
       114        S      tau( 114) = (   0.3750014   0.3608455  -0.1180261  )
       115        Mo     tau( 115) = (   0.3749911   0.3608734   0.2424983  )
       116        Mo     tau( 116) = (   0.5011245   0.2875246   0.7272611  )
       117        S      tau( 117) = (   0.3748808   0.3618865   0.6059605  )
       118        S      tau( 118) = (   0.4999884   0.2887132   0.3668588  )
       119        S      tau( 119) = (   0.4999854   0.2887028   0.1180988  )
       120        S      tau( 120) = (   0.3760770   0.3514537   0.8556312  )
       121        Mo     tau( 121) = (   0.2500014   0.5773502  -0.7272732  )
       122        Mo     tau( 122) = (   0.3749983   0.5051825  -0.2424043  )
       123        S      tau( 123) = (   0.2500017   0.5773519  -0.3667810  )
       124        S      tau( 124) = (   0.3750014   0.5051812  -0.6030489  )
       125        S      tau( 125) = (   0.3750014   0.5051813  -0.8514963  )
       126        S      tau( 126) = (   0.2500018   0.5773519  -0.1180256  )
       127        Mo     tau( 127) = (   0.2500077   0.5773382   0.2424971  )
       128        Mo     tau( 128) = (   0.3766993   0.5053238   0.7304272  )
       129        S      tau( 129) = (   0.2500029   0.5764488   0.6074621  )
       130        S      tau( 130) = (   0.3750022   0.5051973   0.3669226  )
       131        S      tau( 131) = (   0.3749796   0.5051747   0.1180897  )
       132        S      tau( 132) = (   0.2502086   0.5906803   0.8517598  )
       133        Mo     tau( 133) = (   0.1250016   0.7938567  -0.7272732  )
       134        Mo     tau( 134) = (   0.2499995   0.7216883  -0.2424036  )
       135        S      tau( 135) = (   0.1250024   0.7938578  -0.3667813  )
       136        S      tau( 136) = (   0.2500016   0.7216877  -0.6030489  )
       137        S      tau( 137) = (   0.2500016   0.7216878  -0.8514963  )
       138        S      tau( 138) = (   0.1250024   0.7938579  -0.1180253  )
       139        Mo     tau( 139) = (   0.1250030   0.7938506   0.2424689  )
       140        Mo     tau( 140) = (   0.2500869   0.7270239   0.7252501  )
       141        S      tau( 141) = (   0.1234110   0.7947569   0.6009716  )
       142        S      tau( 142) = (   0.2500041   0.7216753   0.3668766  )
       143        S      tau( 143) = (   0.2500092   0.7216778   0.1181077  )
       144        S      tau( 144) = (   0.1247568   0.7963642   0.8506634  )
       145        Mo     tau( 145) = (   0.7500010   0.1443372  -0.7272732  )
       146        Mo     tau( 146) = (   0.8750038   0.0721696  -0.2424038  )
       147        S      tau( 147) = (   0.7500016   0.1443382  -0.3667789  )
       148        S      tau( 148) = (   0.8750010   0.0721682  -0.6030489  )
       149        S      tau( 149) = (   0.8750010   0.0721683  -0.8514963  )
       150        S      tau( 150) = (   0.7500016   0.1443384  -0.1180279  )
       151        Mo     tau( 151) = (   0.7500056   0.1443690   0.2423906  )
       152        Mo     tau( 152) = (   0.8754762   0.0728639   0.7256129  )
       153        S      tau( 153) = (   0.7500308   0.1452012   0.6014640  )
       154        S      tau( 154) = (   0.8749862   0.0722263   0.3667681  )
       155        S      tau( 155) = (   0.8750254   0.0721591   0.1180621  )
       156        S      tau( 156) = (   0.7500441   0.1442691   0.8503988  )
       157        Mo     tau( 157) = (   0.6250012   0.3608437  -0.7272732  )
       158        Mo     tau( 158) = (   0.7500028   0.2886769  -0.2424041  )
       159        S      tau( 159) = (   0.6250015   0.3608451  -0.3667792  )
       160        S      tau( 160) = (   0.7500012   0.2886747  -0.6030489  )
       161        S      tau( 161) = (   0.7500012   0.2886748  -0.8514963  )
       162        S      tau( 162) = (   0.6250016   0.3608454  -0.1180280  )
       163        Mo     tau( 163) = (   0.6249990   0.3608612   0.2424707  )
       164        Mo     tau( 164) = (   0.7500746   0.2887820   0.7269162  )
       165        S      tau( 165) = (   0.6251905   0.3614018   0.6027475  )
       166        S      tau( 166) = (   0.7500151   0.2886908   0.3668035  )
       167        S      tau( 167) = (   0.7499992   0.2887185   0.1180565  )
       168        S      tau( 168) = (   0.6254399   0.3601689   0.8517611  )
       169        Mo     tau( 169) = (   0.5000014   0.5773502  -0.7272732  )
       170        Mo     tau( 170) = (   0.6250029   0.5051841  -0.2424047  )
       171        S      tau( 171) = (   0.5000014   0.5773518  -0.3667794  )
       172        S      tau( 172) = (   0.6250014   0.5051812  -0.6030489  )
       173        S      tau( 173) = (   0.6250014   0.5051813  -0.8514963  )
       174        S      tau( 174) = (   0.5000016   0.5773516  -0.1180277  )
       175        Mo     tau( 175) = (   0.4999861   0.5773259   0.2424414  )
       176        Mo     tau( 176) = (   0.6258514   0.5052144   0.7284022  )
       177        S      tau( 177) = (   0.4992455   0.5763364   0.6056359  )
       178        S      tau( 178) = (   0.6249791   0.5051944   0.3668559  )
       179        S      tau( 179) = (   0.6250105   0.5051778   0.1180820  )
       180        S      tau( 180) = (   0.5069392   0.5807955   0.8586037  )
       181        Mo     tau( 181) = (   0.3750016   0.7938567  -0.7272732  )
       182        Mo     tau( 182) = (   0.5000025   0.7216901  -0.2424039  )
       183        S      tau( 183) = (   0.3750019   0.7938578  -0.3667793  )
       184        S      tau( 184) = (   0.5000016   0.7216877  -0.6030489  )
       185        S      tau( 185) = (   0.5000016   0.7216878  -0.8514963  )
       186        S      tau( 186) = (   0.3750020   0.7938579  -0.1180272  )
       187        Mo     tau( 187) = (   0.3750095   0.7938535   0.2424732  )
       188        Mo     tau( 188) = (   0.5004392   0.7222160   0.7277389  )
       189        S      tau( 189) = (   0.3766340   0.7948794   0.6008559  )
       190        S      tau( 190) = (   0.5000179   0.7216263   0.3668038  )
       191        S      tau( 191) = (   0.4999965   0.7216810   0.1180753  )
       192        S      tau( 192) = (   0.3755295   0.7963504   0.8505132  )
       193        Pt     tau( 193) = (   0.1371069   0.5032381   0.9573497  )
       194        Pt     tau( 194) = (   0.3635722   0.5033563   0.9571359  )
       195        Pd     tau( 195) = (   0.2500603   0.7270155   0.9786625  )

     --------------------------------------------
     DFT-D3 Dispersion Correction (3-body terms):
     --------------------------------------------
       Reference C6 values for interpolation: 

         atom   Coordination number   C6
         S          0.000           268.01
         S          0.995           261.99
         S          1.990           251.62
         Mo         0.000          1691.79
         Mo         1.942          1004.01
         Mo        11.056           674.22
         Pd         0.000          1217.01
         Pd         1.863           573.90
         Pd         5.710           531.75
         Pt         0.000           782.29
         Pt         1.919           692.72
         Pt         6.667           673.75

       Values used:

         atom   Coordination number  R0_AB[au]  C6      C8
         Mo        10.208            3.547    674.22  77634.20
         Mo        10.221            3.547    674.22  77634.20
         S          3.858            3.128    251.62  12327.25
         S          3.859            3.128    251.62  12327.25
         S          3.758            3.128    251.62  12327.25
         S          3.859            3.128    251.62  12327.25
         Mo        10.220            3.547    674.22  77634.20
         Mo        10.265            3.547    674.22  77634.20
         S          3.854            3.128    251.62  12327.25
         S          3.861            3.128    251.62  12327.25
         S          3.859            3.128    251.62  12327.25
         S          3.824            3.128    251.62  12327.25
         Mo        10.208            3.547    674.21  77634.20
         Mo        10.221            3.547    674.22  77634.20
         S          3.858            3.128    251.62  12327.25
         S          3.859            3.128    251.62  12327.25
         S          3.758            3.128    251.62  12327.25
         S          3.859            3.128    251.62  12327.25
         Mo        10.221            3.547    674.22  77634.20
         Mo        10.226            3.547    674.22  77634.20
         S          3.865            3.128    251.62  12327.25
         S          3.857            3.128    251.62  12327.25
         S          3.859            3.128    251.62  12327.25
         S          3.768            3.128    251.62  12327.25
         Mo        10.208            3.547    674.22  77634.20
         Mo        10.221            3.547    674.22  77634.20
         S          3.858            3.128    251.62  12327.25
         S          3.859            3.128    251.62  12327.25
         S          3.758            3.128    251.62  12327.25
         S          3.859            3.128    251.62  12327.25
         Mo        10.221            3.547    674.22  77634.20
         Mo        10.240            3.547    674.22  77634.20
         S          3.856            3.128    251.62  12327.25
         S          3.856            3.128    251.62  12327.25
         S          3.859            3.128    251.62  12327.25
         S          3.825            3.128    251.62  12327.25
         Mo        10.208            3.547    674.22  77634.20
         Mo        10.221            3.547    674.22  77634.20
         S          3.858            3.128    251.62  12327.25
         S          3.859            3.128    251.62  12327.25
         S          3.758            3.128    251.62  12327.25
         S          3.859            3.128    251.62  12327.25
         Mo        10.220            3.547    674.22  77634.20
         Mo        10.248            3.547    674.22  77634.20
         S          3.856            3.128    251.62  12327.25
         S          3.859            3.128    251.62  12327.25
         S          3.859            3.128    251.62  12327.25
         S          3.818            3.128    251.62  12327.25
         Mo        10.208            3.547    674.22  77634.20
         Mo        10.221            3.547    674.22  77634.20
         S          3.858            3.128    251.62  12327.25
         S          3.859            3.128    251.62  12327.25
         S          3.758            3.128    251.62  12327.25
         S          3.859            3.128    251.62  12327.25
         Mo        10.220            3.547    674.22  77634.20
         Mo        10.265            3.547    674.22  77634.20
         S          3.844            3.128    251.62  12327.25
         S          3.861            3.128    251.62  12327.25
         S          3.859            3.128    251.62  12327.25
         S          3.845            3.128    251.62  12327.25
         Mo        10.208            3.547    674.22  77634.20
         Mo        10.221            3.547    674.22  77634.20
         S          3.858            3.128    251.62  12327.25
         S          3.859            3.128    251.62  12327.25
         S          3.758            3.128    251.62  12327.25
         S          3.859            3.128    251.62  12327.25
         Mo        10.222            3.547    674.22  77634.20
         Mo        10.161            3.547    674.22  77634.20
         S          3.858            3.128    251.62  12327.25
         S          3.852            3.128    251.62  12327.25
         S          3.859            3.128    251.62  12327.25
         S          4.676            3.128    251.62  12327.25
         Mo        10.208            3.547    674.22  77634.20
         Mo        10.221            3.547    674.22  77634.20
         S          3.858            3.128    251.62  12327.25
         S          3.859            3.128    251.62  12327.25
         S          3.758            3.128    251.62  12327.25
         S          3.859            3.128    251.62  12327.25
         Mo        10.221            3.547    674.22  77634.20
         Mo        10.846            3.547    674.22  77634.20
         S          3.845            3.128    251.62  12327.25
         S          3.850            3.128    251.62  12327.25
         S          3.859            3.128    251.62  12327.25
         S          4.637            3.128    251.62  12327.25
         Mo        10.208            3.547    674.22  77634.20
         Mo        10.221            3.547    674.22  77634.20
         S          3.858            3.128    251.62  12327.25
         S          3.859            3.128    251.62  12327.25
         S          3.758            3.128    251.62  12327.25
         S          3.859            3.128    251.62  12327.25
         Mo        10.220            3.547    674.22  77634.20
         Mo        10.234            3.547    674.22  77634.20
         S          3.858            3.128    251.62  12327.25
         S          3.859            3.128    251.62  12327.25
         S          3.859            3.128    251.62  12327.25
         S          3.814            3.128    251.62  12327.25
         Mo        10.208            3.547    674.21  77634.20
         Mo        10.221            3.547    674.22  77634.20
         S          3.858            3.128    251.62  12327.25
         S          3.859            3.128    251.62  12327.25
         S          3.758            3.128    251.62  12327.25
         S          3.859            3.128    251.62  12327.25
         Mo        10.220            3.547    674.22  77634.20
         Mo        10.299            3.547    674.22  77634.20
         S          3.855            3.128    251.62  12327.25
         S          3.864            3.128    251.62  12327.25
         S          3.859            3.128    251.62  12327.25
         S          3.825            3.128    251.62  12327.25
         Mo        10.208            3.547    674.22  77634.20
         Mo        10.221            3.547    674.22  77634.20
         S          3.858            3.128    251.62  12327.25
         S          3.859            3.128    251.62  12327.25
         S          3.758            3.128    251.62  12327.25
         S          3.859            3.128    251.62  12327.25
         Mo        10.222            3.547    674.22  77634.20
         Mo        10.225            3.547    674.22  77634.20
         S          3.856            3.128    251.62  12327.25
         S          3.857            3.128    251.62  12327.25
         S          3.859            3.128    251.62  12327.25
         S          4.678            3.128    251.62  12327.25
         Mo        10.208            3.547    674.22  77634.20
         Mo        10.221            3.547    674.22  77634.20
         S          3.858            3.128    251.62  12327.25
         S          3.859            3.128    251.62  12327.25
         S          3.758            3.128    251.62  12327.25
         S          3.859            3.128    251.62  12327.25
         Mo        10.222            3.547    674.22  77634.20
         Mo        10.846            3.547    674.22  77634.20
         S          3.874            3.128    251.62  12327.25
         S          3.850            3.128    251.62  12327.25
         S          3.859            3.128    251.62  12327.25
         S          6.633            3.128    251.62  12327.25
         Mo        10.208            3.547    674.22  77634.20
         Mo        10.221            3.547    674.22  77634.20
         S          3.858            3.128    251.62  12327.25
         S          3.859            3.128    251.62  12327.25
         S          3.758            3.128    251.62  12327.25
         S          3.859            3.128    251.62  12327.25
         Mo        10.220            3.547    674.22  77634.20
         Mo        10.546            3.547    674.22  77634.20
         S          3.839            3.128    251.62  12327.25
         S          3.855            3.128    251.62  12327.25
         S          3.859            3.128    251.62  12327.25
         S          4.763            3.128    251.62  12327.25
         Mo        10.208            3.547    674.22  77634.20
         Mo        10.221            3.547    674.22  77634.20
         S          3.858            3.128    251.62  12327.25
         S          3.859            3.128    251.62  12327.25
         S          3.758            3.128    251.62  12327.25
         S          3.859            3.128    251.62  12327.25
         Mo        10.220            3.547    674.22  77634.20
         Mo        10.300            3.547    674.22  77634.20
         S          3.857            3.128    251.62  12327.25
         S          3.864            3.128    251.62  12327.25
         S          3.859            3.128    251.62  12327.25
         S          3.806            3.128    251.62  12327.25
         Mo        10.208            3.547    674.22  77634.20
         Mo        10.220            3.547    674.22  77634.20
         S          3.858            3.128    251.62  12327.25
         S          3.859            3.128    251.62  12327.25
         S          3.758            3.128    251.62  12327.25
         S          3.859            3.128    251.62  12327.25
         Mo        10.221            3.547    674.22  77634.20
         Mo        10.259            3.547    674.22  77634.20
         S          3.864            3.128    251.62  12327.25
         S          3.861            3.128    251.62  12327.25
         S          3.859            3.128    251.62  12327.25
         S          3.771            3.128    251.62  12327.25
         Mo        10.208            3.547    674.22  77634.20
         Mo        10.221            3.547    674.22  77634.20
         S          3.858            3.128    251.62  12327.25
         S          3.859            3.128    251.62  12327.25
         S          3.758            3.128    251.62  12327.25
         S          3.859            3.128    251.62  12327.25
         Mo        10.221            3.547    674.22  77634.20
         Mo        10.240            3.547    674.22  77634.20
         S          3.842            3.128    251.62  12327.25
         S          3.856            3.128    251.62  12327.25
         S          3.859            3.128    251.62  12327.25
         S          4.643            3.128    251.62  12327.25
         Mo        10.208            3.547    674.22  77634.20
         Mo        10.221            3.547    674.22  77634.20
         S          3.858            3.128    251.62  12327.25
         S          3.859            3.128    251.62  12327.25
         S          3.758            3.128    251.62  12327.25
         S          3.859            3.128    251.62  12327.25
         Mo        10.220            3.547    674.22  77634.20
         Mo        10.235            3.547    674.22  77634.20
         S          3.837            3.128    251.62  12327.25
         S          3.859            3.128    251.62  12327.25
         S          3.859            3.128    251.62  12327.25
         S          4.765            3.128    251.62  12327.25
         Pt         4.804            3.168    673.75  70061.90
         Pt         4.803            3.168    673.75  70061.90
         Pd         3.726            3.168    568.03  52045.12

         Molecular C6 ( Ry / a.u.^6 ) =  14177125.78


     number of k points=     4  Gaussian smearing, width (Ry)=  0.0100
                       cart. coord. in units 2pi/alat
        k(    1) = (   0.0000000   0.0000000   0.0000000), wk =   0.5000000
        k(    2) = (   0.0000000  -0.5773499   0.0000000), wk =   0.5000000
        k(    3) = (  -0.5000000  -0.2886744   0.0000000), wk =   0.5000000
        k(    4) = (  -0.5000000  -0.8660242   0.0000000), wk =   0.5000000

     Dense  grid:  7154885 G-vectors     FFT dimensions: ( 180, 180, 512)

     Smooth grid:  3090769 G-vectors     FFT dimensions: ( 135, 135, 400)

     Estimated max dynamical RAM per process >       4.33 GB

     Estimated total dynamical RAM >     155.86 GB

     Initial potential from superposition of free atoms

     starting charge    1745.9388, renormalised to    1746.0000

     negative rho (up, down):  8.923E-04 0.000E+00
     Starting wfcs are 1196 randomized atomic wfcs
     Checking if some PAW data can be deallocated... 

     total cpu time spent up to now is      183.4 secs

     Self-consistent Calculation

     iteration #  1     ecut=    77.00 Ry     beta= 0.20
     Davidson diagonalization with overlap
     ethr =  1.00E-02,  avg # of iterations =  2.0

     Threshold (ethr) on eigenvalues was too large:
     Diagonalizing with lowered threshold

     Davidson diagonalization with overlap
     ethr =  1.68E-04,  avg # of iterations = 17.2

     negative rho (up, down):  2.467E-04 0.000E+00

     total cpu time spent up to now is     2289.4 secs

     total energy              =  -35654.88205630 Ry
     estimated scf accuracy    <       6.59963787 Ry

     iteration #  2     ecut=    77.00 Ry     beta= 0.20
     Davidson diagonalization with overlap
     ethr =  3.78E-04,  avg # of iterations =  2.0

     negative rho (up, down):  2.687E-05 0.000E+00

     total cpu time spent up to now is     2710.8 secs

     total energy              =  -35653.56387254 Ry
     estimated scf accuracy    <       3.41737016 Ry

     iteration #  3     ecut=    77.00 Ry     beta= 0.20
     Davidson diagonalization with overlap
     ethr =  1.96E-04,  avg # of iterations = 18.0

     negative rho (up, down):  2.195E-05 0.000E+00

     total cpu time spent up to now is     3266.2 secs

     total energy              =  -35653.92831922 Ry
     estimated scf accuracy    <       1.86286513 Ry

     iteration #  4     ecut=    77.00 Ry     beta= 0.20
     Davidson diagonalization with overlap
     ethr =  1.07E-04,  avg # of iterations = 11.5

     negative rho (up, down):  1.708E-05 0.000E+00

     total cpu time spent up to now is     3833.2 secs

     total energy              =  -35654.31188241 Ry
     estimated scf accuracy    <       0.51236439 Ry

     iteration #  5     ecut=    77.00 Ry     beta= 0.20
     Davidson diagonalization with overlap
     c_bands:  1 eigenvalues not converged
     c_bands:  1 eigenvalues not converged
     ethr =  2.93E-05,  avg # of iterations = 16.8

     negative rho (up, down):  2.667E-05 0.000E+00

     total cpu time spent up to now is     5338.2 secs

     total energy              =  -35654.87569626 Ry
     estimated scf accuracy    <       0.36946785 Ry

     iteration #  6     ecut=    77.00 Ry     beta= 0.20
     Davidson diagonalization with overlap
     ethr =  2.12E-05,  avg # of iterations = 21.0

     negative rho (up, down):  6.124E-05 0.000E+00

     total cpu time spent up to now is     6002.0 secs

     total energy              =  -35654.85802073 Ry
     estimated scf accuracy    <       0.23034543 Ry

     iteration #  7     ecut=    77.00 Ry     beta= 0.20
     Davidson diagonalization with overlap
     ethr =  1.32E-05,  avg # of iterations = 10.2

     negative rho (up, down):  3.908E-04 0.000E+00

     total cpu time spent up to now is     6468.8 secs

     total energy              =  -35654.86068863 Ry
     estimated scf accuracy    <       0.09887368 Ry

     iteration #  8     ecut=    77.00 Ry     beta= 0.20
     Davidson diagonalization with overlap
     c_bands:  2 eigenvalues not converged
     c_bands:  3 eigenvalues not converged
     ethr =  5.66E-06,  avg # of iterations = 23.8

     negative rho (up, down):  3.371E-04 0.000E+00

     total cpu time spent up to now is     7758.3 secs

     total energy              =  -35654.91384054 Ry
     estimated scf accuracy    <       0.25559693 Ry

     iteration #  9     ecut=    77.00 Ry     beta= 0.20
     Davidson diagonalization with overlap
     ethr =  5.66E-06,  avg # of iterations =  9.0

     negative rho (up, down):  2.727E-04 0.000E+00

     total cpu time spent up to now is     8211.3 secs

     total energy              =  -35654.90717097 Ry
     estimated scf accuracy    <       0.04611343 Ry

     iteration # 10     ecut=    77.00 Ry     beta= 0.20
     Davidson diagonalization with overlap
     c_bands:  5 eigenvalues not converged
     c_bands:  5 eigenvalues not converged
     c_bands:  2 eigenvalues not converged
     ethr =  2.64E-06,  avg # of iterations = 65.5

     negative rho (up, down):  3.396E-04 0.000E+00

     total cpu time spent up to now is    10257.4 secs

     total energy              =  -35654.94755324 Ry
     estimated scf accuracy    <       0.00827358 Ry

     iteration # 11     ecut=    77.00 Ry     beta= 0.20
     Davidson diagonalization with overlap
     c_bands:  3 eigenvalues not converged
     c_bands:  7 eigenvalues not converged
     ethr =  4.74E-07,  avg # of iterations = 49.5

     negative rho (up, down):  4.586E-04 0.000E+00

     total cpu time spent up to now is    11988.7 secs

     total energy              =  -35654.95056613 Ry
     estimated scf accuracy    <       0.01453022 Ry

     iteration # 12     ecut=    77.00 Ry     beta= 0.20
     Davidson diagonalization with overlap
     c_bands:  1 eigenvalues not converged
     c_bands:  1 eigenvalues not converged
     ethr =  4.74E-07,  avg # of iterations = 12.5

     negative rho (up, down):  7.540E-04 0.000E+00

     total cpu time spent up to now is    12464.6 secs

     total energy              =  -35654.94996069 Ry
     estimated scf accuracy    <       0.00264233 Ry

     iteration # 13     ecut=    77.00 Ry     beta= 0.20
     Davidson diagonalization with overlap
     c_bands:  1 eigenvalues not converged
     ethr =  1.51E-07,  avg # of iterations = 17.5

     negative rho (up, down):  7.327E-04 0.000E+00

     total cpu time spent up to now is    13989.1 secs

     total energy              =  -35654.95650251 Ry
     estimated scf accuracy    <       0.01570161 Ry

     iteration # 14     ecut=    77.00 Ry     beta= 0.20
     Davidson diagonalization with overlap
     ethr =  1.51E-07,  avg # of iterations =  1.2

     negative rho (up, down):  7.175E-04 0.000E+00

     total cpu time spent up to now is    14381.8 secs

     total energy              =  -35654.95484880 Ry
     estimated scf accuracy    <       0.01153055 Ry

     iteration # 15     ecut=    77.00 Ry     beta= 0.20
     Davidson diagonalization with overlap
     ethr =  1.51E-07,  avg # of iterations =  2.0

     negative rho (up, down):  7.272E-04 0.000E+00

     total cpu time spent up to now is    14776.2 secs

     total energy              =  -35654.94925964 Ry
     estimated scf accuracy    <       0.00856572 Ry

     iteration # 16     ecut=    77.00 Ry     beta= 0.20
     Davidson diagonalization with overlap
     ethr =  1.51E-07,  avg # of iterations = 11.2

     negative rho (up, down):  8.160E-04 0.000E+00

     total cpu time spent up to now is    15734.5 secs

     total energy              =  -35654.95352967 Ry
     estimated scf accuracy    <       0.00224062 Ry

     iteration # 17     ecut=    77.00 Ry     beta= 0.20
     Davidson diagonalization with overlap
     ethr =  1.28E-07,  avg # of iterations =  1.0

     negative rho (up, down):  8.518E-04 0.000E+00

     total cpu time spent up to now is    16117.4 secs

     total energy              =  -35654.95334522 Ry
     estimated scf accuracy    <       0.00044374 Ry

     iteration # 18     ecut=    77.00 Ry     beta= 0.20
     Davidson diagonalization with overlap
     ethr =  2.54E-08,  avg # of iterations = 13.2

     negative rho (up, down):  8.629E-04 0.000E+00

     total cpu time spent up to now is    16959.6 secs

     total energy              =  -35654.95375270 Ry
     estimated scf accuracy    <       0.00015371 Ry

     iteration # 19     ecut=    77.00 Ry     beta= 0.20
     Davidson diagonalization with overlap
     ethr =  8.80E-09,  avg # of iterations =  8.8

     negative rho (up, down):  8.737E-04 0.000E+00

     total cpu time spent up to now is    17478.2 secs

     total energy              =  -35654.95376196 Ry
     estimated scf accuracy    <       0.00004514 Ry

     iteration # 20     ecut=    77.00 Ry     beta= 0.20
     Davidson diagonalization with overlap
     c_bands:  2 eigenvalues not converged
     ethr =  2.59E-09,  avg # of iterations = 19.8

     negative rho (up, down):  8.824E-04 0.000E+00

     total cpu time spent up to now is    18485.9 secs

     total energy              =  -35654.95379019 Ry
     estimated scf accuracy    <       0.00001780 Ry

     iteration # 21     ecut=    77.00 Ry     beta= 0.20
     Davidson diagonalization with overlap
     ethr =  1.02E-09,  avg # of iterations = 14.0

     negative rho (up, down):  8.926E-04 0.000E+00

     total cpu time spent up to now is    19305.2 secs

     total energy              =  -35654.95379717 Ry
     estimated scf accuracy    <       0.00000512 Ry

     iteration # 22     ecut=    77.00 Ry     beta= 0.20
     Davidson diagonalization with overlap
     ethr =  2.93E-10,  avg # of iterations = 16.0

     negative rho (up, down):  9.018E-04 0.000E+00

     total cpu time spent up to now is    20163.2 secs

     total energy              =  -35654.95379415 Ry
     estimated scf accuracy    <       0.00000399 Ry

     iteration # 23     ecut=    77.00 Ry     beta= 0.20
     Davidson diagonalization with overlap
     ethr =  2.29E-10,  avg # of iterations = 13.8

     negative rho (up, down):  9.047E-04 0.000E+00

     total cpu time spent up to now is    20974.0 secs

     total energy              =  -35654.95379440 Ry
     estimated scf accuracy    <       0.00000188 Ry

     iteration # 24     ecut=    77.00 Ry     beta= 0.20
     Davidson diagonalization with overlap
     ethr =  1.07E-10,  avg # of iterations =  2.8

     negative rho (up, down):  9.062E-04 0.000E+00

     total cpu time spent up to now is    21403.1 secs

     End of self-consistent calculation

          k = 0.0000 0.0000 0.0000 (386245 PWs)   bands (ev):

  -103.0594-103.0548 -88.5339 -71.4136 -71.4109 -71.3972 -71.3944 -71.3839
   -71.3814 -71.3568 -71.3543 -71.3420 -71.3395 -71.3219 -71.3191 -71.3141
   -71.3114 -66.6866 -66.6866 -66.6853 -66.6787 -66.6656 -66.6655 -66.6655
   -66.6653 -66.6653 -66.6653 -66.6653 -66.6653 -66.6653 -66.6653 -66.6652
   -66.6651 -66.6650 -66.6640 -66.6640 -66.6640 -66.6640 -66.6640 -66.6640
   -66.6605 -66.6590 -66.6499 -66.6443 -66.6442 -66.6441 -66.6440 -66.6439
   -66.6439 -66.6439 -66.6439 -66.6439 -66.6439 -66.6439 -66.6439 -66.6439
   -66.6439 -66.6438 -66.6437 -66.6436 -66.6434 -66.6432 -66.6426 -66.6426
   -66.6426 -66.6426 -66.6426 -66.6426 -66.6426 -66.6426 -66.6425 -66.6363
   -66.6343 -66.6296 -66.6235 -66.6192 -66.6177 -66.6166 -66.6155 -66.6113
   -66.6060 -57.4435 -57.3924 -57.2234 -57.2036 -57.1932 -57.1492 -54.4280
   -54.3018 -54.2546 -41.0141 -41.0141 -41.0140 -41.0140 -41.0140 -41.0139
   -41.0134 -41.0134 -41.0134 -40.9968 -40.9959 -40.9916 -40.9389 -40.9387
   -40.9387 -40.9387 -40.9387 -40.9387 -40.9387 -40.9387 -40.9387 -40.9386
   -40.9385 -40.9385 -40.9380 -40.9380 -40.9380 -40.9380 -40.9380 -40.9380
   -40.9289 -40.9222 -40.9210 -40.9163 -40.9042 -40.8973 -40.8671 -40.8463
   -40.8462 -40.8456 -40.8385 -40.8342 -40.8246 -40.8125 -40.8124 -40.8124
   -40.8124 -40.8124 -40.8124 -40.8124 -40.8124 -40.8123 -40.8122 -40.8122
   -40.8121 -40.8115 -40.8115 -40.8115 -40.8115 -40.8115 -40.8115 -40.8115
   -40.8049 -40.8047 -40.8046 -40.8046 -40.8046 -40.8046 -40.8046 -40.8045
   -40.8045 -40.8045 -40.8044 -40.8042 -40.8039 -40.8039 -40.8039 -40.8039
   -40.8039 -40.8039 -40.8031 -40.8016 -40.7998 -40.7949 -40.7937 -40.7862
   -40.7841 -40.7800 -40.7775 -40.7774 -40.7774 -40.7774 -40.7774 -40.7774
   -40.7774 -40.7773 -40.7773 -40.7773 -40.7772 -40.7771 -40.7764 -40.7764
   -40.7764 -40.7764 -40.7764 -40.7764 -40.7728 -40.7700 -40.7672 -40.7669
   -40.7635 -40.7633 -40.7631 -40.7629 -40.7628 -40.7626 -40.7626 -40.7626
   -40.7626 -40.7626 -40.7626 -40.7626 -40.7626 -40.7625 -40.7625 -40.7625
   -40.7625 -40.7623 -40.7623 -40.7620 -40.7619 -40.7619 -40.7619 -40.7619
   -40.7618 -40.7618 -40.7618 -40.7618 -40.7618 -40.7608 -40.7570 -40.7546
   -40.7528 -40.7498 -40.7431 -40.7410 -40.7409 -40.7338 -40.6991 -40.6990
   -40.6990 -40.6990 -40.6989 -40.6989 -40.6980 -40.6980 -40.6980 -40.6802
   -40.6742 -40.6718 -40.6520 -40.6520 -40.6519 -40.6519 -40.6519 -40.6519
   -40.6519 -40.6519 -40.6519 -40.6518 -40.6517 -40.6516 -40.6509 -40.6509
   -40.6509 -40.6509 -40.6509 -40.6509 -40.6330 -40.6304 -40.6262 -40.6234
   -40.6192 -40.6131 -40.6043 -40.6043 -40.6042 -40.6042 -40.6032 -40.6032
   -40.5770 -40.5685 -20.6756 -20.1740 -20.0859 -19.9839 -19.9192 -19.4644
   -19.4092 -19.3351 -19.3304 -19.3108 -19.3019 -19.2971 -19.2952 -19.2825
   -19.2808 -19.2501 -19.2185 -19.2071 -19.2047 -19.1943 -19.1935 -19.1662
   -19.1133 -19.1043 -19.1032 -19.0997 -19.0994 -19.0889 -18.9907 -18.9618
   -18.8667 -18.7019 -18.6536 -18.6352 -18.6248 -18.6028 -18.5650 -18.5365
   -18.5286 -18.5267 -18.4858 -18.4838 -18.4781 -18.4747 -18.4479 -18.4275
   -18.3592 -18.3569 -18.3484 -18.3461 -18.3377 -18.3160 -18.2721 -18.2612
   -18.2475 -18.2472 -18.2455 -18.2375 -18.2277 -18.2166 -18.1867 -18.1863
   -18.1829 -18.1828 -18.1819 -18.1818 -18.1627 -18.1617 -18.1486 -18.1485
   -18.1449 -18.1428 -18.1397 -18.1383 -18.1382 -18.1246 -18.1222 -18.1133
   -18.1105 -18.1104 -18.0991 -18.0981 -18.0936 -18.0855 -18.0753 -18.0714
   -18.0710 -18.0673 -18.0666 -18.0541 -18.0522 -18.0494 -18.0257 -18.0194
   -18.0131 -18.0078 -17.9913 -17.9891 -17.9852 -17.9811 -17.9800 -17.9611
   -17.9580 -17.9558 -17.9482 -17.9405 -17.9353 -17.9344 -17.9317 -17.9316
   -17.9218 -17.9200 -17.9196 -17.9039 -17.9035 -17.9031 -17.8947 -17.8917
   -17.8889 -17.8871 -17.8847 -17.8844 -17.8602 -17.8599 -17.8587 -17.8580
   -17.8575 -17.8572 -12.6754 -12.5621 -12.3647 -12.0573 -11.9882 -11.8687
   -11.8671 -11.8573 -11.7690 -11.7572 -11.7464 -11.7262 -11.6451 -11.6407
   -11.6180 -11.5962 -11.5824 -11.4853 -11.4616 -11.4440 -11.3223 -11.3129
   -11.3119 -11.3006 -11.2975 -11.2931 -11.2645 -11.2628 -11.1993 -11.1962
   -11.1938 -11.1911 -11.1904 -11.1886 -11.1804 -11.1527 -11.1492 -11.1293
   -11.1254 -11.1235 -11.1215 -11.1183 -11.1163 -11.1114 -11.0960 -11.0928
   -11.0627 -11.0449 -11.0358 -11.0296 -11.0232 -11.0103 -11.0071 -10.9949
   -10.9747 -10.9637 -10.9632 -10.9577 -10.9524 -10.9472 -10.9371 -10.9311
   -10.9129 -10.9099 -10.9092 -10.9042 -10.9031 -10.8962 -10.8936 -10.8905
   -10.8904 -10.8862 -10.8844 -10.8774 -10.8715 -10.8693 -10.8511 -10.8462
   -10.8443 -10.8422 -10.8405 -10.8380 -10.8344 -10.8336 -10.8227 -10.8019
   -10.8009 -10.8004 -10.8000 -10.7990 -10.7983 -10.7803 -10.7366 -10.7286
   -10.7122 -10.6841 -10.6674 -10.6622 -10.6516 -10.6488 -10.6360 -10.6034
   -10.5077 -10.3614 -10.2856 -10.2848 -10.2450 -10.1760 -10.1591 -10.0506
   -10.0350  -9.9828  -9.9571  -9.9081  -9.9069  -9.8794  -9.8720  -9.8717
    -9.8591  -9.8431  -9.8424  -9.8393  -9.8324  -9.8318  -9.8276  -9.8188
    -9.8168  -9.8150  -9.8120  -9.8098  -9.8057  -9.7944  -9.7879  -9.7829
    -9.7775  -9.7758  -9.7139  -9.7088  -9.6939  -9.6933  -9.6884  -9.6861
    -9.6831  -9.6820  -9.6804  -9.6793  -9.6783  -9.6702  -9.6562  -9.6343
    -9.6232  -9.6223  -9.6048  -9.6044  -9.6038  -9.6037  -9.6037  -9.6034
    -9.5997  -9.5881  -9.5788  -9.5662  -9.5660  -9.5461  -9.5448  -9.5439
    -9.5132  -9.4726  -9.4392  -9.4366  -9.4297  -9.4256  -9.4239  -9.4159
    -9.4059  -9.4017  -9.3992  -9.3947  -9.3791  -9.3704  -9.3461  -9.3302
    -9.3107  -9.2995  -9.2908  -9.2833  -9.2764  -9.2747  -9.2465  -9.2451
    -9.2442  -9.2429  -9.2421  -9.2383  -9.2204  -9.2021  -9.1852  -9.1785
    -9.1758  -9.1524  -9.1326  -9.0623  -9.0460  -9.0451  -9.0427  -9.0376
    -9.0242  -9.0218  -9.0113  -9.0050  -9.0046  -8.9931  -8.9802  -8.9799
    -8.9794  -8.9760  -8.9726  -8.9629  -8.9592  -8.9420  -8.9310  -8.8984
    -8.8848  -8.8840  -8.8837  -8.8832  -8.8831  -8.8778  -8.8392  -8.8218
    -8.8113  -8.8054  -8.8033  -8.7750  -8.7502  -8.7331  -8.7286  -8.7238
    -8.7233  -8.7009  -8.6902  -8.6560  -8.6555  -8.6538  -8.6538  -8.6489
    -8.6488  -8.5777  -8.5724  -8.5598  -8.4665  -8.4392  -8.4290  -8.4288
    -8.4262  -8.4235  -8.4222  -8.4172  -8.4168  -8.3738  -8.3613  -8.3438
    -8.3382  -8.3381  -8.3377  -8.3376  -8.3370  -8.3289  -8.3119  -8.3115
    -8.3112  -8.3105  -8.3098  -8.3050  -8.2895  -8.2833  -8.2833  -8.2828
    -8.2826  -8.2812  -8.2801  -8.1527  -8.1266  -8.0597  -8.0402  -7.9248
    -7.9197  -7.9193  -7.9085  -7.8656  -7.8425  -7.8308  -7.8298  -7.8200
    -7.7810  -7.7524  -7.7443  -7.7102  -7.7072  -7.7025  -7.6967  -7.6728
    -7.6728  -7.6675  -7.6666  -7.6578  -7.6560  -7.6293  -7.6177  -7.6014
    -7.5976  -7.5971  -7.5965  -7.5952  -7.5938  -7.5901  -7.5818  -7.5759
    -7.5703  -7.5696  -7.5684  -7.5681  -7.5680  -7.5669  -7.5533  -7.5451
    -7.5450  -7.5448  -7.5442  -7.5440  -7.5432  -7.5311  -7.5228  -7.5129
    -7.4913  -7.4903  -7.4826  -7.4811  -7.4673  -7.4593  -7.4416  -7.4337
    -7.4275  -7.4203  -7.4166  -7.3969  -7.3874  -7.3832  -7.3763  -7.3656
    -7.3655  -7.3561  -7.3554  -7.3480  -7.3386  -7.3144  -7.3129  -7.3124
    -7.2944  -7.2944  -7.2765  -7.2761  -7.2747  -7.2371  -7.2098  -7.2092
    -7.1885  -7.1837  -7.1608  -7.1392  -7.1094  -7.0627  -6.9766  -6.9607
    -6.9474  -6.9357  -6.9258  -6.8781  -6.8487  -6.8429  -6.8419  -6.8383
    -6.8091  -6.8056  -6.7842  -6.7612  -6.7609  -6.7595  -6.7382  -6.7364
    -6.7315  -6.6859  -6.6849  -6.6841  -6.6793  -6.6467  -6.6464  -6.6389
    -6.6325  -6.6323  -6.6204  -6.6013  -6.5922  -6.5853  -6.5774  -6.5760
    -6.5752  -6.5715  -6.5714  -6.5687  -6.5607  -6.5607  -6.5606  -6.5597
    -6.5596  -6.5594  -6.5588  -6.5567  -6.5466  -6.5154  -6.5103  -6.5087
    -6.4844  -6.4740  -6.4739  -6.4703  -6.4694  -6.4616  -6.4377  -6.4139
    -6.4028  -6.3986  -6.3944  -6.3937  -6.3922  -6.3874  -6.3870  -6.3706
    -6.3605  -6.3543  -6.3514  -6.3503  -6.3480  -6.3398  -6.3280  -6.3165
    -6.3149  -6.3146  -6.3138  -6.3122  -6.3081  -6.2416  -6.1472  -6.1332
    -6.0104  -5.7959  -5.7318  -5.6960  -5.5291  -5.4926  -5.3616  -5.2712
    -5.2118  -4.3590  -4.0217  -4.0005  -3.9140  -3.9134  -3.9079  -3.8965
    -3.8939  -3.8911  -3.8887  -3.8877  -3.8871  -3.8675  -3.8420  -3.8314
    -3.7650  -3.7611  -3.7549  -3.7535  -3.7510  -3.7501  -3.7376  -3.7363
    -3.7348  -3.6505  -3.6252  -3.6123  -3.5846  -3.5770  -3.5706  -3.5648
    -3.5599  -3.5479  -3.5417  -3.5339  -3.5335  -3.5299  -3.5280  -3.5256
    -3.5229  -3.5189  -3.5084  -3.5041  -3.5038  -3.5036  -3.5023  -3.4949
    -3.4888  -3.4878  -3.4837  -3.4748  -3.4703  -3.4702  -3.4702  -3.4658
    -3.4613  -3.4608  -3.4474  -3.4471  -3.4434  -3.4243  -3.4217  -3.4194
    -3.4131  -3.4112  -3.4058  -3.4040  -3.4005  -3.3995  -3.3786  -3.3741
    -3.3631  -3.3629  -3.3509  -3.3456  -3.3446  -3.3418  -3.3370  -3.3040
    -3.2920  -3.2723  -3.2681  -3.2576  -3.2570  -3.1797  -3.1593  -3.1352
    -3.1301  -3.1262  -3.1207  -3.1177  -3.1127  -3.1095  -3.1080  -3.0947
    -3.0807  -3.0579  -3.0538  -3.0499  -3.0403  -3.0355  -3.0340  -3.0315
    -3.0305  -3.0263  -3.0246  -3.0244  -3.0238  -3.0187  -3.0150  -3.0140
    -3.0043  -3.0002  -2.9984  -2.9956  -2.9951  -2.9938  -2.9907  -2.9893
    -2.9878  -2.9860  -2.9836  -2.9732  -2.9562  -2.9540  -2.9416  -2.9370
    -2.9334  -2.9319  -2.9291  -2.9274  -2.8717  -2.8676  -2.8674  -2.8672
    -2.8670  -2.8669  -2.8655  -2.8645  -2.8640  -2.8553  -2.8473  -2.8428
    -2.8329  -2.8199  -2.8029  -2.7956  -2.7862  -2.7794  -2.7755  -2.7361
    -2.7325  -2.7020  -2.7017  -2.6963  -2.6879  -2.6856  -2.6828  -2.6791
    -2.6772  -2.6635  -2.6287  -2.6253  -2.6058  -2.5975  -2.5947  -2.5286
    -2.5248  -2.5178  -2.4932  -2.4775  -2.4774  -2.4706  -2.4667  -2.4660

          k = 0.0000-0.5773 0.0000 (386352 PWs)   bands (ev):

  -103.0594-103.0548 -88.5339 -71.4136 -71.4109 -71.3972 -71.3944 -71.3838
   -71.3814 -71.3568 -71.3543 -71.3420 -71.3395 -71.3219 -71.3191 -71.3141
   -71.3114 -66.6805 -66.6804 -66.6804 -66.6803 -66.6791 -66.6791 -66.6776
   -66.6697 -66.6697 -66.6697 -66.6697 -66.6684 -66.6684 -66.6677 -66.6592
   -66.6592 -66.6548 -66.6548 -66.6546 -66.6546 -66.6546 -66.6546 -66.6545
   -66.6544 -66.6533 -66.6533 -66.6533 -66.6533 -66.6521 -66.6503 -66.6502
   -66.6502 -66.6501 -66.6489 -66.6488 -66.6442 -66.6439 -66.6439 -66.6439
   -66.6439 -66.6439 -66.6439 -66.6436 -66.6426 -66.6426 -66.6426 -66.6425
   -66.6412 -66.6395 -66.6395 -66.6394 -66.6394 -66.6381 -66.6381 -66.6371
   -66.6317 -66.6288 -66.6237 -66.6211 -66.6196 -66.6153 -66.6151 -66.6118
   -66.6054 -57.4435 -57.3924 -57.2234 -57.2036 -57.1932 -57.1492 -54.4280
   -54.3018 -54.2546 -40.9825 -40.9824 -40.9824 -40.9824 -40.9824 -40.9824
   -40.9823 -40.9822 -40.9817 -40.9817 -40.9817 -40.9817 -40.9808 -40.9700
   -40.9587 -40.9557 -40.9556 -40.9556 -40.9554 -40.9549 -40.9549 -40.9493
   -40.9436 -40.9435 -40.9435 -40.9435 -40.9428 -40.9428 -40.9365 -40.9271
   -40.9190 -40.9133 -40.8929 -40.8929 -40.8929 -40.8928 -40.8928 -40.8928
   -40.8928 -40.8928 -40.8921 -40.8921 -40.8921 -40.8921 -40.8779 -40.8698
   -40.8663 -40.8644 -40.8586 -40.8400 -40.8390 -40.8342 -40.8341 -40.8341
   -40.8339 -40.8334 -40.8334 -40.8246 -40.8246 -40.8245 -40.8245 -40.8237
   -40.8237 -40.8221 -40.8132 -40.8132 -40.8132 -40.8132 -40.8125 -40.8125
   -40.8123 -40.8051 -40.8014 -40.7936 -40.7879 -40.7837 -40.7837 -40.7836
   -40.7836 -40.7836 -40.7836 -40.7835 -40.7835 -40.7829 -40.7829 -40.7829
   -40.7829 -40.7788 -40.7750 -40.7749 -40.7749 -40.7747 -40.7742 -40.7741
   -40.7722 -40.7701 -40.7673 -40.7631 -40.7631 -40.7630 -40.7630 -40.7628
   -40.7627 -40.7626 -40.7626 -40.7626 -40.7626 -40.7625 -40.7622 -40.7622
   -40.7622 -40.7618 -40.7618 -40.7618 -40.7618 -40.7604 -40.7596 -40.7566
   -40.7539 -40.7539 -40.7539 -40.7539 -40.7531 -40.7531 -40.7514 -40.7445
   -40.7402 -40.7324 -40.7322 -40.7322 -40.7321 -40.7321 -40.7321 -40.7319
   -40.7319 -40.7316 -40.7312 -40.7312 -40.7312 -40.7312 -40.7178 -40.7125
   -40.7037 -40.6980 -40.6974 -40.6974 -40.6974 -40.6974 -40.6974 -40.6974
   -40.6973 -40.6973 -40.6964 -40.6964 -40.6964 -40.6964 -40.6853 -40.6853
   -40.6852 -40.6851 -40.6843 -40.6843 -40.6805 -40.6749 -40.6719 -40.6661
   -40.6659 -40.6659 -40.6657 -40.6653 -40.6650 -40.6649 -40.6579 -40.6490
   -40.6489 -40.6489 -40.6489 -40.6479 -40.6479 -40.6469 -40.6419 -40.6332
   -40.6289 -40.6183 -40.6183 -40.6183 -40.6181 -40.6174 -40.6172 -40.6172
   -40.5987 -40.5733 -20.6580 -19.9684 -19.9361 -19.9107 -19.8482 -19.8132
   -19.7444 -19.7135 -19.6788 -19.5603 -19.5007 -19.4862 -19.4254 -19.3918
   -19.3431 -19.2904 -19.2773 -18.9863 -18.9294 -18.8968 -18.8590 -18.8193
   -18.7871 -18.7832 -18.7822 -18.7799 -18.7725 -18.7380 -18.7224 -18.7151
   -18.7128 -18.7089 -18.6901 -18.6832 -18.6428 -18.6184 -18.6179 -18.6145
   -18.6101 -18.5991 -18.5744 -18.5683 -18.5581 -18.5408 -18.5330 -18.5045
   -18.4805 -18.4745 -18.4682 -18.4613 -18.4461 -18.4321 -18.4095 -18.3974
   -18.3848 -18.3843 -18.3813 -18.3184 -18.3125 -18.3071 -18.2723 -18.2722
   -18.2528 -18.2470 -18.2303 -18.2188 -18.1928 -18.1768 -18.1733 -18.1629
   -18.1611 -18.1604 -18.1582 -18.1392 -18.1342 -18.1341 -18.1328 -18.1294
   -18.1271 -18.1230 -18.1149 -18.1078 -18.1053 -18.0947 -18.0761 -18.0728
   -18.0691 -18.0643 -18.0629 -18.0620 -18.0577 -18.0542 -18.0517 -18.0406
   -18.0218 -18.0138 -17.9995 -17.9978 -17.9958 -17.9860 -17.9593 -17.9576
   -17.9467 -17.9401 -17.9263 -17.9217 -17.9109 -17.9055 -17.9005 -17.8985
   -17.8820 -17.8809 -17.8800 -17.8800 -17.8789 -17.8785 -17.8668 -17.8656
   -17.8476 -17.8451 -17.8230 -17.8210 -17.8038 -17.8015 -17.7888 -17.7876
   -17.7810 -17.7809 -12.6420 -12.5252 -12.3086 -11.8604 -11.7896 -11.7440
   -11.6823 -11.6412 -11.6014 -11.5759 -11.5640 -11.5637 -11.5531 -11.5431
   -11.5308 -11.5062 -11.5019 -11.4901 -11.4603 -11.4482 -11.4451 -11.4179
   -11.4080 -11.3922 -11.3852 -11.3777 -11.3703 -11.3464 -11.3366 -11.3281
   -11.3261 -11.3175 -11.3162 -11.2958 -11.2908 -11.2694 -11.2647 -11.2636
   -11.2546 -11.2416 -11.2368 -11.2257 -11.2231 -11.2191 -11.2117 -11.2081
   -11.2060 -11.1856 -11.1673 -11.1451 -11.1422 -11.1315 -11.0988 -11.0924
   -11.0334 -11.0235 -11.0153 -10.9959 -10.9773 -10.9747 -10.9691 -10.9572
   -10.9523 -10.9296 -10.9045 -10.9004 -10.8960 -10.8950 -10.8802 -10.8735
   -10.8733 -10.8723 -10.8715 -10.8686 -10.8624 -10.8603 -10.8542 -10.8541
   -10.8500 -10.8464 -10.8445 -10.8426 -10.8404 -10.8060 -10.8051 -10.8045
   -10.8043 -10.7552 -10.6705 -10.6334 -10.6028 -10.6008 -10.5900 -10.5636
   -10.5262 -10.4795 -10.4596 -10.4179 -10.4164 -10.3751 -10.3301 -10.2901
   -10.2312 -10.2185 -10.1965 -10.1855 -10.1739 -10.1730 -10.1529 -10.1341
   -10.1197 -10.1058 -10.0976 -10.0940 -10.0896 -10.0887 -10.0773 -10.0676
   -10.0554 -10.0302 -10.0037 -10.0028  -9.9827  -9.9769  -9.9655  -9.9615
    -9.9542  -9.9490  -9.9475  -9.9130  -9.9006  -9.8755  -9.8671  -9.8620
    -9.8416  -9.8407  -9.8248  -9.8173  -9.8097  -9.7821  -9.7749  -9.7544
    -9.7384  -9.7280  -9.7044  -9.6993  -9.6901  -9.6841  -9.6622  -9.6546
    -9.6421  -9.6329  -9.6292  -9.6254  -9.6104  -9.6020  -9.5816  -9.5551
    -9.5532  -9.5456  -9.5445  -9.5397  -9.5348  -9.5236  -9.5214  -9.5187
    -9.5067  -9.5001  -9.4890  -9.4721  -9.4629  -9.4269  -9.4204  -9.4014
    -9.3517  -9.3177  -9.3103  -9.2927  -9.2886  -9.2781  -9.2759  -9.2626
    -9.2406  -9.2326  -9.2247  -9.2056  -9.2051  -9.1822  -9.1751  -9.1626
    -9.1535  -9.1312  -9.1264  -9.1157  -9.1118  -9.1006  -9.0996  -9.0779
    -9.0568  -9.0484  -9.0265  -9.0210  -9.0165  -9.0158  -9.0004  -8.9883
    -8.9807  -8.9619  -8.9599  -8.9572  -8.9511  -8.9508  -8.9481  -8.9456
    -8.9453  -8.9317  -8.9300  -8.9288  -8.9219  -8.9193  -8.9127  -8.9107
    -8.9069  -8.9016  -8.9008  -8.8860  -8.8614  -8.8552  -8.8548  -8.8506
    -8.8498  -8.8454  -8.8333  -8.8251  -8.8230  -8.8056  -8.8017  -8.7949
    -8.7936  -8.7876  -8.7788  -8.7541  -8.7372  -8.7193  -8.7135  -8.6993
    -8.6529  -8.6089  -8.5941  -8.5660  -8.5638  -8.5104  -8.5069  -8.4756
    -8.4417  -8.4334  -8.4229  -8.4027  -8.3630  -8.3152  -8.2772  -8.2544
    -8.1895  -8.1889  -8.1825  -8.1797  -8.1739  -8.1685  -8.1670  -8.1667
    -8.1605  -8.1215  -8.0867  -8.0844  -8.0309  -8.0300  -7.9754  -7.9393
    -7.9135  -7.9118  -7.9011  -7.9004  -7.8958  -7.8884  -7.8803  -7.8769
    -7.8712  -7.8684  -7.8648  -7.8603  -7.8576  -7.8532  -7.8506  -7.8491
    -7.8428  -7.8425  -7.8311  -7.8310  -7.8300  -7.8282  -7.8265  -7.8245
    -7.8233  -7.8199  -7.8195  -7.8146  -7.8068  -7.8060  -7.7927  -7.7914
    -7.7905  -7.7878  -7.7586  -7.7582  -7.7578  -7.7577  -7.7283  -7.7279
    -7.7276  -7.7261  -7.7170  -7.7141  -7.7031  -7.6906  -7.6873  -7.6818
    -7.6697  -7.6687  -7.6683  -7.6633  -7.6563  -7.6471  -7.6460  -7.6311
    -7.6255  -7.6249  -7.6202  -7.6197  -7.6109  -7.5941  -7.5458  -7.5316
    -7.5253  -7.5227  -7.5200  -7.5087  -7.5010  -7.4748  -7.4501  -7.3985
    -7.3399  -7.2674  -7.2570  -7.2498  -7.2314  -7.2303  -7.2291  -7.2211
    -7.1842  -7.1773  -7.1744  -7.1736  -7.1538  -7.1390  -7.1259  -7.1070
    -7.0938  -7.0911  -7.0806  -7.0768  -7.0615  -7.0377  -7.0276  -7.0047
    -6.9766  -6.9710  -6.9709  -6.9474  -6.9468  -6.9388  -6.9211  -6.9197
    -6.9184  -6.8955  -6.8919  -6.8467  -6.8416  -6.8378  -6.8304  -6.8148
    -6.7800  -6.7543  -6.7430  -6.7319  -6.7176  -6.6857  -6.6857  -6.6807
    -6.6699  -6.6669  -6.6668  -6.6638  -6.6623  -6.6518  -6.6492  -6.6480
    -6.6476  -6.6420  -6.6402  -6.6400  -6.6400  -6.6370  -6.5921  -6.5720
    -6.5587  -6.5204  -6.4871  -6.4719  -6.4041  -6.3876  -6.3826  -6.3806
    -6.3793  -6.3786  -6.3727  -6.3573  -6.3388  -6.3379  -6.3371  -6.3338
    -6.3335  -6.3201  -6.3185  -6.3140  -6.3005  -6.2864  -6.2686  -6.2673
    -6.2654  -6.2554  -6.2447  -6.1835  -6.1714  -6.1344  -6.0558  -6.0494
    -6.0150  -5.9890  -5.9676  -5.9646  -5.9171  -5.9108  -5.8866  -5.8380
    -5.7743  -5.7442  -5.7078  -5.6818  -5.6598  -5.6283  -5.4935  -5.4139
    -5.2940  -4.3452  -4.1771  -4.1679  -4.1481  -4.1216  -4.0521  -4.0485
    -3.9877  -3.9797  -3.9746  -3.9301  -3.9045  -3.9032  -3.8941  -3.8912
    -3.8791  -3.8758  -3.8676  -3.8601  -3.8580  -3.8468  -3.7929  -3.7786
    -3.7515  -3.7025  -3.6959  -3.6759  -3.6620  -3.6609  -3.6574  -3.6480
    -3.6223  -3.6141  -3.6091  -3.6003  -3.5885  -3.5879  -3.5768  -3.5678
    -3.5565  -3.5536  -3.5445  -3.5408  -3.5370  -3.5340  -3.5231  -3.5134
    -3.5119  -3.5081  -3.5018  -3.5006  -3.4852  -3.4713  -3.4689  -3.4651
    -3.4283  -3.4157  -3.4152  -3.4096  -3.4027  -3.4013  -3.3958  -3.3956
    -3.3794  -3.3766  -3.3553  -3.3530  -3.3487  -3.3388  -3.3381  -3.3360
    -3.3331  -3.3320  -3.3240  -3.3087  -3.3066  -3.3006  -3.3000  -3.2885
    -3.2823  -3.2757  -3.2704  -3.2696  -3.2637  -3.2568  -3.2494  -3.2481
    -3.2443  -3.2339  -3.2245  -3.2213  -3.2211  -3.2184  -3.2015  -3.1824
    -3.1648  -3.1578  -3.1499  -3.1334  -3.1321  -3.1261  -3.1169  -3.0967
    -3.0865  -3.0855  -3.0813  -3.0812  -3.0803  -3.0777  -3.0773  -3.0717
    -3.0676  -3.0672  -3.0636  -3.0583  -3.0512  -3.0436  -3.0433  -3.0388
    -3.0346  -3.0313  -3.0250  -3.0240  -3.0221  -3.0099  -3.0056  -3.0055
    -2.9986  -2.9977  -2.9904  -2.9854  -2.9764  -2.9686  -2.9605  -2.9464
    -2.9432  -2.9366  -2.9317  -2.9291  -2.9169  -2.8625  -2.8562  -2.8485
    -2.8363  -2.8164  -2.7908  -2.7850  -2.7760  -2.6974  -2.6796  -2.6694
    -2.6529  -2.6519  -2.6363  -2.6157  -2.6064  -2.6000  -2.5926  -2.5886
    -2.5858  -2.5764  -2.5683  -2.5674  -2.5367  -2.4937  -2.4704  -2.4639
    -2.4614  -2.4558  -2.4476  -2.4464  -2.4362  -2.4288  -2.4009  -2.4007

          k =-0.5000-0.2887 0.0000 (386352 PWs)   bands (ev):

  -103.0594-103.0548 -88.5339 -71.4136 -71.4109 -71.3972 -71.3944 -71.3839
   -71.3814 -71.3568 -71.3543 -71.3420 -71.3395 -71.3219 -71.3191 -71.3141
   -71.3114 -66.6805 -66.6804 -66.6804 -66.6802 -66.6791 -66.6791 -66.6773
   -66.6697 -66.6697 -66.6697 -66.6697 -66.6684 -66.6684 -66.6684 -66.6608
   -66.6581 -66.6547 -66.6547 -66.6546 -66.6546 -66.6546 -66.6546 -66.6546
   -66.6544 -66.6533 -66.6533 -66.6533 -66.6533 -66.6503 -66.6502 -66.6502
   -66.6500 -66.6500 -66.6488 -66.6488 -66.6442 -66.6439 -66.6439 -66.6439
   -66.6439 -66.6439 -66.6437 -66.6436 -66.6426 -66.6426 -66.6426 -66.6426
   -66.6421 -66.6395 -66.6395 -66.6395 -66.6394 -66.6381 -66.6381 -66.6366
   -66.6337 -66.6293 -66.6233 -66.6195 -66.6173 -66.6171 -66.6156 -66.6124
   -66.6052 -57.4435 -57.3924 -57.2234 -57.2036 -57.1932 -57.1492 -54.4280
   -54.3018 -54.2546 -40.9826 -40.9825 -40.9824 -40.9824 -40.9824 -40.9824
   -40.9822 -40.9822 -40.9817 -40.9817 -40.9817 -40.9817 -40.9714 -40.9667
   -40.9592 -40.9565 -40.9557 -40.9556 -40.9556 -40.9554 -40.9549 -40.9549
   -40.9453 -40.9436 -40.9435 -40.9435 -40.9435 -40.9428 -40.9428 -40.9414
   -40.9185 -40.9017 -40.8929 -40.8929 -40.8928 -40.8928 -40.8928 -40.8928
   -40.8928 -40.8928 -40.8921 -40.8921 -40.8921 -40.8921 -40.8730 -40.8674
   -40.8648 -40.8629 -40.8569 -40.8432 -40.8342 -40.8341 -40.8341 -40.8339
   -40.8334 -40.8334 -40.8312 -40.8274 -40.8246 -40.8246 -40.8246 -40.8245
   -40.8237 -40.8237 -40.8145 -40.8132 -40.8132 -40.8132 -40.8132 -40.8125
   -40.8125 -40.8013 -40.7993 -40.7935 -40.7914 -40.7837 -40.7837 -40.7836
   -40.7836 -40.7836 -40.7836 -40.7835 -40.7835 -40.7829 -40.7829 -40.7829
   -40.7829 -40.7783 -40.7751 -40.7750 -40.7749 -40.7749 -40.7747 -40.7742
   -40.7741 -40.7705 -40.7679 -40.7631 -40.7631 -40.7631 -40.7630 -40.7629
   -40.7626 -40.7626 -40.7626 -40.7626 -40.7625 -40.7624 -40.7623 -40.7622
   -40.7622 -40.7618 -40.7618 -40.7618 -40.7618 -40.7615 -40.7581 -40.7556
   -40.7539 -40.7539 -40.7539 -40.7539 -40.7531 -40.7531 -40.7511 -40.7463
   -40.7405 -40.7350 -40.7323 -40.7322 -40.7322 -40.7321 -40.7321 -40.7321
   -40.7320 -40.7319 -40.7312 -40.7312 -40.7312 -40.7312 -40.7159 -40.7117
   -40.7074 -40.7021 -40.6974 -40.6974 -40.6974 -40.6974 -40.6974 -40.6974
   -40.6973 -40.6973 -40.6964 -40.6964 -40.6964 -40.6964 -40.6853 -40.6853
   -40.6852 -40.6851 -40.6843 -40.6843 -40.6776 -40.6724 -40.6699 -40.6672
   -40.6660 -40.6659 -40.6659 -40.6658 -40.6649 -40.6649 -40.6625 -40.6500
   -40.6490 -40.6489 -40.6489 -40.6488 -40.6479 -40.6479 -40.6456 -40.6324
   -40.6186 -40.6183 -40.6183 -40.6183 -40.6181 -40.6172 -40.6172 -40.6101
   -40.5915 -40.5859 -20.6586 -19.9597 -19.9366 -19.9045 -19.8504 -19.8096
   -19.7522 -19.7124 -19.6919 -19.5759 -19.5000 -19.4885 -19.4210 -19.3939
   -19.3289 -19.2912 -19.2670 -18.9663 -18.9255 -18.9114 -18.8727 -18.8162
   -18.7874 -18.7827 -18.7823 -18.7810 -18.7700 -18.7369 -18.7272 -18.7195
   -18.7110 -18.7077 -18.6901 -18.6744 -18.6440 -18.6183 -18.6174 -18.6169
   -18.6124 -18.5978 -18.5802 -18.5642 -18.5587 -18.5394 -18.5333 -18.5025
   -18.4919 -18.4749 -18.4709 -18.4659 -18.4447 -18.4259 -18.4014 -18.3952
   -18.3905 -18.3850 -18.3791 -18.3185 -18.3164 -18.3078 -18.2810 -18.2644
   -18.2523 -18.2509 -18.2332 -18.2124 -18.1951 -18.1778 -18.1707 -18.1626
   -18.1609 -18.1604 -18.1576 -18.1403 -18.1351 -18.1333 -18.1326 -18.1297
   -18.1269 -18.1219 -18.1157 -18.1087 -18.1038 -18.0911 -18.0749 -18.0729
   -18.0694 -18.0638 -18.0634 -18.0621 -18.0579 -18.0526 -18.0508 -18.0399
   -18.0191 -18.0118 -17.9995 -17.9991 -17.9954 -17.9828 -17.9602 -17.9548
   -17.9489 -17.9380 -17.9304 -17.9232 -17.9086 -17.9075 -17.9024 -17.9002
   -17.8814 -17.8811 -17.8806 -17.8802 -17.8795 -17.8785 -17.8663 -17.8661
   -17.8469 -17.8460 -17.8226 -17.8214 -17.8034 -17.8016 -17.7887 -17.7875
   -17.7810 -17.7808 -12.6523 -12.4962 -12.3229 -11.8877 -11.7902 -11.7527
   -11.6943 -11.6296 -11.5773 -11.5686 -11.5638 -11.5622 -11.5535 -11.5425
   -11.5353 -11.5140 -11.4915 -11.4760 -11.4610 -11.4535 -11.4478 -11.4305
   -11.4143 -11.3893 -11.3759 -11.3690 -11.3668 -11.3484 -11.3367 -11.3338
   -11.3236 -11.3184 -11.3145 -11.3105 -11.2784 -11.2720 -11.2658 -11.2606
   -11.2578 -11.2475 -11.2336 -11.2312 -11.2220 -11.2143 -11.2092 -11.2074
   -11.1964 -11.1891 -11.1704 -11.1455 -11.1361 -11.1197 -11.1148 -11.0791
   -11.0355 -11.0236 -11.0115 -11.0032 -10.9976 -10.9785 -10.9673 -10.9425
   -10.9405 -10.9117 -10.9051 -10.9025 -10.8967 -10.8928 -10.8820 -10.8754
   -10.8729 -10.8720 -10.8719 -10.8695 -10.8635 -10.8619 -10.8545 -10.8538
   -10.8494 -10.8461 -10.8436 -10.8428 -10.8328 -10.8071 -10.8051 -10.8045
   -10.8041 -10.7848 -10.6818 -10.6180 -10.6107 -10.5970 -10.5903 -10.5700
   -10.5442 -10.5059 -10.4665 -10.4458 -10.3977 -10.3444 -10.2890 -10.2727
   -10.2277 -10.2103 -10.2064 -10.1829 -10.1751 -10.1679 -10.1635 -10.1433
   -10.1168 -10.1046 -10.0999 -10.0965 -10.0908 -10.0898 -10.0884 -10.0617
   -10.0484 -10.0380 -10.0033  -9.9954  -9.9885  -9.9759  -9.9666  -9.9588
    -9.9550  -9.9500  -9.9483  -9.9238  -9.9041  -9.8771  -9.8657  -9.8540
    -9.8425  -9.8380  -9.8271  -9.8209  -9.8077  -9.7821  -9.7732  -9.7566
    -9.7351  -9.7265  -9.7128  -9.7038  -9.6954  -9.6827  -9.6749  -9.6590
    -9.6416  -9.6372  -9.6186  -9.6161  -9.6120  -9.6055  -9.5965  -9.5564
    -9.5548  -9.5478  -9.5439  -9.5424  -9.5373  -9.5239  -9.5233  -9.5200
    -9.5023  -9.4982  -9.4880  -9.4725  -9.4522  -9.4341  -9.4161  -9.3893
    -9.3439  -9.3257  -9.2991  -9.2924  -9.2792  -9.2766  -9.2728  -9.2557
    -9.2416  -9.2309  -9.2192  -9.2065  -9.2020  -9.1941  -9.1700  -9.1520
    -9.1383  -9.1299  -9.1172  -9.1157  -9.1080  -9.1024  -9.0907  -9.0769
    -9.0652  -9.0532  -9.0297  -9.0233  -9.0201  -9.0099  -9.0061  -9.0008
    -8.9969  -8.9601  -8.9588  -8.9559  -8.9521  -8.9495  -8.9460  -8.9447
    -8.9420  -8.9311  -8.9302  -8.9298  -8.9254  -8.9188  -8.9158  -8.9083
    -8.9014  -8.9012  -8.8931  -8.8835  -8.8588  -8.8553  -8.8541  -8.8530
    -8.8519  -8.8470  -8.8395  -8.8252  -8.8237  -8.8116  -8.7955  -8.7944
    -8.7933  -8.7920  -8.7773  -8.7411  -8.7315  -8.7211  -8.7167  -8.6977
    -8.6671  -8.6127  -8.6060  -8.5655  -8.5646  -8.5382  -8.5091  -8.5033
    -8.4342  -8.4194  -8.4097  -8.3902  -8.3545  -8.3196  -8.2693  -8.2533
    -8.1890  -8.1890  -8.1801  -8.1799  -8.1750  -8.1687  -8.1685  -8.1527
    -8.1303  -8.1163  -8.0857  -8.0756  -8.0305  -8.0274  -7.9674  -7.9480
    -7.9358  -7.9285  -7.9110  -7.9027  -7.8937  -7.8908  -7.8827  -7.8804
    -7.8770  -7.8721  -7.8671  -7.8621  -7.8603  -7.8590  -7.8504  -7.8484
    -7.8429  -7.8424  -7.8310  -7.8308  -7.8290  -7.8278  -7.8265  -7.8257
    -7.8205  -7.8198  -7.8195  -7.8123  -7.8077  -7.8012  -7.7938  -7.7909
    -7.7901  -7.7858  -7.7594  -7.7581  -7.7580  -7.7573  -7.7290  -7.7281
    -7.7274  -7.7262  -7.7217  -7.7174  -7.7067  -7.6914  -7.6887  -7.6770
    -7.6755  -7.6699  -7.6688  -7.6652  -7.6580  -7.6475  -7.6454  -7.6422
    -7.6294  -7.6255  -7.6246  -7.6213  -7.6132  -7.6011  -7.5910  -7.5364
    -7.5236  -7.5218  -7.5181  -7.5001  -7.4952  -7.4766  -7.4361  -7.3978
    -7.3735  -7.2673  -7.2395  -7.2336  -7.2302  -7.2234  -7.2139  -7.2047
    -7.1847  -7.1763  -7.1656  -7.1615  -7.1516  -7.1393  -7.1201  -7.1026
    -7.0928  -7.0860  -7.0802  -7.0750  -7.0635  -7.0378  -7.0320  -7.0112
    -6.9789  -6.9769  -6.9711  -6.9589  -6.9452  -6.9428  -6.9214  -6.9210
    -6.9084  -6.8951  -6.8915  -6.8626  -6.8407  -6.8281  -6.8197  -6.7980
    -6.7740  -6.7506  -6.7452  -6.7232  -6.7051  -6.6884  -6.6867  -6.6743
    -6.6672  -6.6664  -6.6653  -6.6637  -6.6508  -6.6493  -6.6481  -6.6478
    -6.6409  -6.6403  -6.6401  -6.6400  -6.6343  -6.6313  -6.6133  -6.5732
    -6.5648  -6.5150  -6.4915  -6.4794  -6.4349  -6.4090  -6.3858  -6.3800
    -6.3788  -6.3777  -6.3652  -6.3524  -6.3385  -6.3382  -6.3348  -6.3335
    -6.3324  -6.3206  -6.3188  -6.3158  -6.3032  -6.2911  -6.2689  -6.2664
    -6.2663  -6.2589  -6.2239  -6.1753  -6.1408  -6.1351  -6.0800  -6.0501
    -6.0421  -5.9879  -5.9766  -5.9574  -5.9198  -5.9123  -5.8899  -5.8393
    -5.7820  -5.7346  -5.6971  -5.6846  -5.6550  -5.6492  -5.4872  -5.4148
    -5.2977  -4.3830  -4.1694  -4.1665  -4.1542  -4.1259  -4.0509  -4.0162
    -3.9869  -3.9821  -3.9798  -3.9259  -3.9102  -3.9025  -3.8950  -3.8880
    -3.8752  -3.8722  -3.8698  -3.8595  -3.8586  -3.8115  -3.7924  -3.7819
    -3.7513  -3.7060  -3.6855  -3.6653  -3.6631  -3.6594  -3.6586  -3.6297
    -3.6174  -3.6098  -3.6094  -3.6055  -3.5864  -3.5838  -3.5785  -3.5680
    -3.5642  -3.5543  -3.5454  -3.5453  -3.5350  -3.5324  -3.5200  -3.5194
    -3.5092  -3.5064  -3.4980  -3.4885  -3.4857  -3.4777  -3.4679  -3.4646
    -3.4368  -3.4180  -3.4147  -3.4090  -3.4062  -3.4032  -3.4014  -3.3962
    -3.3757  -3.3703  -3.3580  -3.3534  -3.3458  -3.3419  -3.3397  -3.3371
    -3.3363  -3.3324  -3.3182  -3.3121  -3.3058  -3.3009  -3.2957  -3.2935
    -3.2867  -3.2744  -3.2712  -3.2707  -3.2657  -3.2599  -3.2520  -3.2437
    -3.2407  -3.2320  -3.2245  -3.2210  -3.2209  -3.2189  -3.1986  -3.1882
    -3.1670  -3.1571  -3.1473  -3.1390  -3.1295  -3.1243  -3.1197  -3.0930
    -3.0893  -3.0838  -3.0821  -3.0811  -3.0810  -3.0763  -3.0741  -3.0710
    -3.0690  -3.0677  -3.0620  -3.0517  -3.0502  -3.0474  -3.0446  -3.0391
    -3.0361  -3.0302  -3.0266  -3.0229  -3.0182  -3.0083  -3.0063  -3.0035
    -3.0027  -2.9936  -2.9904  -2.9872  -2.9800  -2.9654  -2.9569  -2.9523
    -2.9452  -2.9408  -2.9350  -2.9333  -2.9063  -2.8632  -2.8596  -2.8508
    -2.8419  -2.8245  -2.8060  -2.7849  -2.7748  -2.6932  -2.6790  -2.6732
    -2.6513  -2.6487  -2.6288  -2.6233  -2.6124  -2.6025  -2.6006  -2.5882
    -2.5868  -2.5843  -2.5823  -2.5615  -2.5471  -2.4842  -2.4696  -2.4642
    -2.4587  -2.4559  -2.4469  -2.4435  -2.4354  -2.4314  -2.4024  -2.4015

          k =-0.5000-0.8660 0.0000 (386352 PWs)   bands (ev):

  -103.0594-103.0548 -88.5339 -71.4136 -71.4109 -71.3972 -71.3944 -71.3839
   -71.3814 -71.3568 -71.3543 -71.3420 -71.3395 -71.3219 -71.3191 -71.3141
   -71.3114 -66.6805 -66.6804 -66.6804 -66.6802 -66.6791 -66.6791 -66.6773
   -66.6697 -66.6697 -66.6697 -66.6697 -66.6684 -66.6684 -66.6684 -66.6608
   -66.6581 -66.6547 -66.6547 -66.6546 -66.6546 -66.6546 -66.6546 -66.6546
   -66.6545 -66.6533 -66.6533 -66.6533 -66.6533 -66.6503 -66.6502 -66.6502
   -66.6500 -66.6500 -66.6489 -66.6488 -66.6442 -66.6440 -66.6439 -66.6439
   -66.6439 -66.6439 -66.6438 -66.6436 -66.6426 -66.6426 -66.6426 -66.6426
   -66.6422 -66.6395 -66.6395 -66.6395 -66.6394 -66.6381 -66.6381 -66.6366
   -66.6337 -66.6293 -66.6233 -66.6195 -66.6174 -66.6170 -66.6156 -66.6124
   -66.6052 -57.4435 -57.3924 -57.2234 -57.2036 -57.1932 -57.1492 -54.4280
   -54.3018 -54.2546 -40.9826 -40.9824 -40.9824 -40.9824 -40.9824 -40.9824
   -40.9822 -40.9822 -40.9817 -40.9817 -40.9817 -40.9817 -40.9714 -40.9666
   -40.9593 -40.9565 -40.9557 -40.9556 -40.9556 -40.9554 -40.9549 -40.9549
   -40.9454 -40.9435 -40.9435 -40.9435 -40.9435 -40.9428 -40.9428 -40.9415
   -40.9185 -40.9017 -40.8929 -40.8929 -40.8929 -40.8929 -40.8928 -40.8928
   -40.8928 -40.8928 -40.8921 -40.8921 -40.8921 -40.8921 -40.8730 -40.8675
   -40.8647 -40.8628 -40.8570 -40.8432 -40.8342 -40.8341 -40.8341 -40.8339
   -40.8334 -40.8334 -40.8312 -40.8274 -40.8246 -40.8246 -40.8246 -40.8245
   -40.8237 -40.8237 -40.8144 -40.8132 -40.8132 -40.8132 -40.8132 -40.8125
   -40.8125 -40.8012 -40.7993 -40.7936 -40.7914 -40.7837 -40.7837 -40.7836
   -40.7836 -40.7836 -40.7836 -40.7835 -40.7835 -40.7829 -40.7829 -40.7829
   -40.7829 -40.7782 -40.7752 -40.7750 -40.7749 -40.7749 -40.7747 -40.7742
   -40.7741 -40.7705 -40.7679 -40.7631 -40.7631 -40.7631 -40.7630 -40.7629
   -40.7626 -40.7626 -40.7626 -40.7626 -40.7626 -40.7624 -40.7623 -40.7622
   -40.7622 -40.7618 -40.7618 -40.7618 -40.7618 -40.7615 -40.7581 -40.7555
   -40.7539 -40.7539 -40.7539 -40.7539 -40.7531 -40.7531 -40.7511 -40.7463
   -40.7405 -40.7350 -40.7323 -40.7322 -40.7322 -40.7321 -40.7321 -40.7321
   -40.7320 -40.7319 -40.7312 -40.7312 -40.7312 -40.7312 -40.7159 -40.7117
   -40.7075 -40.7021 -40.6974 -40.6974 -40.6974 -40.6974 -40.6974 -40.6974
   -40.6973 -40.6973 -40.6964 -40.6964 -40.6964 -40.6964 -40.6853 -40.6853
   -40.6853 -40.6851 -40.6843 -40.6843 -40.6776 -40.6723 -40.6699 -40.6673
   -40.6660 -40.6659 -40.6659 -40.6658 -40.6650 -40.6649 -40.6625 -40.6500
   -40.6490 -40.6489 -40.6489 -40.6488 -40.6479 -40.6479 -40.6456 -40.6325
   -40.6184 -40.6183 -40.6183 -40.6183 -40.6181 -40.6172 -40.6172 -40.6104
   -40.5915 -40.5858 -20.6586 -19.9597 -19.9366 -19.9045 -19.8504 -19.8096
   -19.7521 -19.7124 -19.6917 -19.5763 -19.5000 -19.4885 -19.4210 -19.3939
   -19.3287 -19.2912 -19.2668 -18.9650 -18.9260 -18.9129 -18.8726 -18.8162
   -18.7874 -18.7827 -18.7823 -18.7811 -18.7699 -18.7358 -18.7272 -18.7194
   -18.7110 -18.7077 -18.6901 -18.6749 -18.6440 -18.6183 -18.6174 -18.6169
   -18.6123 -18.5978 -18.5803 -18.5642 -18.5587 -18.5395 -18.5333 -18.5027
   -18.4918 -18.4749 -18.4709 -18.4659 -18.4448 -18.4260 -18.4014 -18.3958
   -18.3903 -18.3849 -18.3788 -18.3186 -18.3164 -18.3080 -18.2808 -18.2644
   -18.2524 -18.2507 -18.2333 -18.2123 -18.1951 -18.1777 -18.1706 -18.1626
   -18.1609 -18.1604 -18.1576 -18.1402 -18.1352 -18.1333 -18.1328 -18.1296
   -18.1270 -18.1219 -18.1157 -18.1087 -18.1037 -18.0912 -18.0749 -18.0729
   -18.0695 -18.0638 -18.0634 -18.0621 -18.0580 -18.0527 -18.0508 -18.0399
   -18.0190 -18.0117 -17.9995 -17.9993 -17.9954 -17.9829 -17.9602 -17.9548
   -17.9489 -17.9381 -17.9300 -17.9233 -17.9086 -17.9073 -17.9027 -17.9001
   -17.8814 -17.8811 -17.8806 -17.8802 -17.8796 -17.8785 -17.8663 -17.8661
   -17.8468 -17.8459 -17.8226 -17.8214 -17.8034 -17.8017 -17.7887 -17.7875
   -17.7810 -17.7808 -12.6523 -12.4962 -12.3228 -11.8883 -11.7901 -11.7529
   -11.6936 -11.6297 -11.5775 -11.5687 -11.5638 -11.5622 -11.5536 -11.5425
   -11.5353 -11.5142 -11.4911 -11.4762 -11.4610 -11.4537 -11.4479 -11.4305
   -11.4142 -11.3892 -11.3765 -11.3686 -11.3670 -11.3485 -11.3367 -11.3338
   -11.3237 -11.3185 -11.3145 -11.3105 -11.2785 -11.2719 -11.2657 -11.2608
   -11.2578 -11.2476 -11.2335 -11.2312 -11.2222 -11.2142 -11.2092 -11.2074
   -11.1965 -11.1888 -11.1704 -11.1457 -11.1361 -11.1196 -11.1146 -11.0791
   -11.0354 -11.0236 -11.0114 -11.0025 -10.9973 -10.9785 -10.9672 -10.9419
   -10.9406 -10.9121 -10.9051 -10.9028 -10.8966 -10.8927 -10.8819 -10.8754
   -10.8729 -10.8720 -10.8719 -10.8694 -10.8636 -10.8620 -10.8545 -10.8538
   -10.8495 -10.8461 -10.8436 -10.8428 -10.8330 -10.8072 -10.8051 -10.8045
   -10.8041 -10.7853 -10.6818 -10.6183 -10.6109 -10.5969 -10.5902 -10.5701
[...]
     atom  172 type  2   force =    -0.00000012    0.00000278    0.00161583
     atom  173 type  2   force =    -0.00000024    0.00000225   -0.00236043
     atom  174 type  2   force =    -0.00000558   -0.00000022    0.00001005
     atom  175 type  1   force =    -0.00000418    0.00000767    0.00002034
     atom  176 type  1   force =    -0.00002782   -0.00001544   -0.00006596
     atom  177 type  2   force =    -0.00027888   -0.00021397   -0.00004427
     atom  178 type  2   force =    -0.00000347    0.00000479    0.00002671
     atom  179 type  2   force =     0.00001800    0.00000085    0.00000493
     atom  180 type  2   force =     0.00005495   -0.00010984   -0.00007138
     atom  181 type  1   force =     0.00000168    0.00000192    0.00068755
     atom  182 type  1   force =    -0.00000878   -0.00000488    0.00000321
     atom  183 type  2   force =    -0.00000172    0.00000118    0.00000442
     atom  184 type  2   force =    -0.00000017    0.00000275    0.00161580
     atom  185 type  2   force =    -0.00000031    0.00000232   -0.00236039
     atom  186 type  2   force =    -0.00000658    0.00000070    0.00001098
     atom  187 type  1   force =     0.00000129    0.00000750    0.00001470
     atom  188 type  1   force =    -0.00009620   -0.00010397    0.00007351
     atom  189 type  2   force =     0.00010385    0.00003366    0.00000675
     atom  190 type  2   force =     0.00000321    0.00000869    0.00003548
     atom  191 type  2   force =     0.00000244    0.00001644    0.00002467
     atom  192 type  2   force =     0.00011007    0.00018267    0.00010779
     atom  193 type  3   force =     0.00029602   -0.00048478    0.00003056
     atom  194 type  3   force =    -0.00035078   -0.00049302    0.00000349
     atom  195 type  4   force =    -0.00001815    0.00029760    0.00023892

     Total force =     0.001876     Total SCF correction =     0.001032
     SCF correction compared to forces is large: reduce conv_thr to get better values
     Energy error            =      1.0E-05 Ry
     Gradient error          =      7.5E-04 Ry/Bohr

     bfgs converged in  20 scf cycles and  19 bfgs steps
     (criteria: energy <  1.0E-04 Ry, force <  1.0E-03 Ry/Bohr)

     End of BFGS Geometry Optimization

     Final energy             =  -35654.9726274206 Ry

     File ./outdir/pwscf.bfgs deleted, as requested
Begin final coordinates

ATOMIC_POSITIONS (angstrom)
Mo               0.0000119917        1.8193638619       -9.1672481230    0   0   0
Mo               1.5756136568        0.9097075315       -3.0554901653    0   0   0
S                0.0000188998        1.8193822938       -4.6232556019    0   0   0
S                1.5756321638        0.9096773839       -7.6014065489    0   0   0
S                1.5756326175        0.9096785128      -10.7330757790    0   0   0
S                0.0000189190        1.8193860094       -1.4877129945    0   0   0
Mo               0.0003203715        1.8197525825        3.0568382191
Mo               1.5757842315        0.9120866932        9.1653275011
S                0.0048166298        1.8258178295        7.5897212451
S                1.5758916351        0.9097459589        4.6245169435
S                1.5758341463        0.9099217966        1.4889783373
S               -0.0007355357        1.8128954925       10.7420398877
Mo              -1.5756053507        4.5484193819       -9.1672481230    0   0   0
Mo               0.0000378379        3.6387394919       -3.0554952701    0   0   0
S               -1.5755913433        4.5484363582       -4.6232494962    0   0   0
S                0.0000148214        3.6387329039       -7.6014065489    0   0   0
S                0.0000152751        3.6387340328      -10.7330757790    0   0   0
S               -1.5755906502        4.5484413613       -1.4877305502    0   0   0
Mo              -1.5754780970        4.5486818707        3.0565326326
Mo              -0.0078470788        3.6267237774        9.1729521465
S               -1.5756060124        4.5555665415        7.6002492314
S                0.0000096001        3.6392909638        4.6246068003
S                0.0004656408        3.6390196648        1.4889918889
S               -1.5801280115        4.5456038339       10.7387022900
Mo              -3.1512226931        7.2774749019       -9.1672481230    0   0   0
Mo              -1.5755910988        6.3678216792       -3.0555115988    0   0   0
S               -3.1512162438        7.2774954350       -4.6232578178    0   0   0
S               -1.5756025210        6.3677884239       -7.6014065489    0   0   0
S               -1.5756020673        6.3677895528      -10.7330757790    0   0   0
S               -3.1512127704        7.2774877076       -1.4877200710    0   0   0
Mo              -3.1510809215        7.2776334401        3.0565636375
Mo              -1.5879351744        6.3733212215        9.1800649202
S               -3.1502174959        7.2792985204        7.6019568741
S               -1.5755193732        6.3678636785        4.6244114758
S               -1.5753409619        6.3680138243        1.4887363397
S               -3.1502810739        7.2876990292       10.7544451751
Mo              -4.7268400355       10.0065304219       -9.1672481230    0   0   0
Mo              -3.1512405618        9.0968403586       -3.0554816746    0   0   0
S               -4.7268341792       10.0065523623       -4.6232463762    0   0   0
S               -3.1512198634        9.0968439439       -7.6014065489    0   0   0
S               -3.1512194097        9.0968450728      -10.7330757790    0   0   0
S               -4.7268370797       10.0065537885       -1.4877176751    0   0   0
Mo              -4.7265933075       10.0066640255        3.0565650168
Mo              -3.1502364417        9.0991967251        9.1721803597
S               -4.7225023694       10.0075858007        7.5996080524
S               -3.1510664091        9.0968760061        4.6243185189
S               -3.1510897287        9.0969965929        1.4886817275
S               -4.7162478873       10.0193155257       10.7414056896
Mo               3.1512517547        1.8193638619       -9.1672481230    0   0   0
Mo               4.7269020221        0.9097289540       -3.0554823951    0   0   0
S                3.1512612351        1.8193882564       -4.6232320683    0   0   0
S                4.7268719268        0.9096773839       -7.6014065489    0   0   0
S                4.7268723805        0.9096785128      -10.7330757790    0   0   0
S                3.1512592485        1.8193890201       -1.4877261251    0   0   0
Mo               3.1513932734        1.8196171874        3.0568999330
Mo               4.7286421908        0.9120748674        9.1653707032
S                3.1522295996        1.8239515911        7.5984860132
S                4.7268975142        0.9097357588        4.6245207805
S                4.7269424226        0.9099311209        1.4889748377
S                3.1522087179        1.7991383843       10.7410797313
Mo               1.5756344123        4.5484193819       -9.1672481230    0   0   0
Mo               3.1512756394        3.6387769522       -3.0554814834    0   0   0
S                1.5756504879        4.5484423799       -4.6232390542    0   0   0
S                3.1512545844        3.6387329039       -7.6014065489    0   0   0
S                3.1512550381        3.6387340328      -10.7330757790    0   0   0
S                1.5756466253        4.5484431864       -1.4877251801    0   0   0
Mo               1.5758183670        4.5487953896        3.0571025578
Mo               3.1522137838        3.6235432808        9.1861661673
S                1.5711658622        4.5422637965        7.6224453889
S                3.1513916705        3.6391350428        4.6248624769
S                3.1513915392        3.6390814013        1.4892429951
S                1.5611515973        4.4638159024       10.7930167533
Mo               0.0000170699        7.2774749019       -9.1672481230    0   0   0
Mo               1.5756764447        6.3678236689       -3.0554877708    0   0   0
S                0.0000381981        7.2774979204       -4.6232454413    0   0   0
S                1.5756372420        6.3677884239       -7.6014065489    0   0   0
S                1.5756376957        6.3677895528      -10.7330757790    0   0   0
S                0.0000328088        7.2774946042       -1.4877307940    0   0   0
Mo               0.0001922048        7.2774841817        3.0566564777
Mo               1.5353472420        6.3531938818        9.1759301396
S               -0.0113726578        7.2787814645        7.6200186202
S                1.5752216276        6.3678471293        4.6257046105
S                1.5762968011        6.3681498477        1.4894941518
S               -0.0746184561        7.3142658618       10.8048113832
Mo              -1.5756002725       10.0065304219       -9.1672481230    0   0   0
Mo               0.0000873425        9.0968676911       -3.0554912329    0   0   0
S               -1.5755883952       10.0065504530       -4.6232240150    0   0   0
S                0.0000198996        9.0968439439       -7.6014065489    0   0   0
S                0.0000203533        9.0968450728      -10.7330757790    0   0   0
S               -1.5755859047       10.0065492576       -1.4877362381    0   0   0
Mo              -1.5755632440       10.0066618198        3.0565528701
Mo              -0.0091335947        9.1084956277        9.1787195866
S               -1.5779292913       10.0075639507        7.5996747757
S               -0.0001962867        9.0966542941        4.6241142256
S                0.0003764839        9.0970239459        1.4889748643
S               -1.5842761210       10.0193334132       10.7414927344
Mo               6.3024915177        1.8193638619       -9.1672481230    0   0   0
Mo               7.8781001445        0.9096521684       -3.0554919963    0   0   0
S                6.3025008696        1.8193826232       -4.6232480596    0   0   0
S                7.8781116898        0.9096773839       -7.6014065489    0   0   0
S                7.8781121435        0.9096785128      -10.7330757790    0   0   0
S                6.3025042007        1.8193849068       -1.4877147524    0   0   0
Mo               6.3024576093        1.8197534584        3.0568556961
Mo               7.8703849203        0.9224576982        9.1582247007
S                6.2995854277        1.8257532446        7.5897376819
S                7.8784364273        0.9106144303        4.6242026338
S                7.8780694218        0.9098543407        1.4890611127
S                6.3051746995        1.8129481334       10.7420271435
Mo               4.7268741753        4.5484193819       -9.1672481230    0   0   0
Mo               6.3024679138        3.6387501714       -3.0554895197    0   0   0
S                4.7268748770        4.5484386753       -4.6232519432    0   0   0
S                6.3024943474        3.6387329039       -7.6014065489    0   0   0
S                6.3024948011        3.6387340328      -10.7330757790    0   0   0
S                4.7268770533        4.5484432419       -1.4877137856    0   0   0
Mo               4.7269694043        4.5487955892        3.0571154612
Mo               6.3122991757        3.6267249971        9.1728794614
S                4.7332522510        4.5422635372        7.6224145188
S                6.3027835942        3.6392907388        4.6246266509
S                6.3023062840        3.6390212573        1.4890119945
S                4.7433474166        4.4638712492       10.7929020376
Mo               3.1512568329        7.2774749019       -9.1672481230    0   0   0
Mo               4.7268384135        6.3678043337       -3.0554959052    0   0   0
S                3.1512606125        7.2774972547       -4.6232589675    0   0   0
S                4.7268770050        6.3677884239       -7.6014065489    0   0   0
S                4.7268774587        6.3677895528      -10.7330757790    0   0   0
S                3.1512629079        7.2774963749       -1.4877081835    0   0   0
Mo               3.1513966066        7.2776339498        3.0581048791
Mo               4.7691537722        6.3532144036        9.1758504905
S                3.1522090499        7.2645743774        7.6334717297
S                4.7275782576        6.3678524503        4.6257095236
S                4.7264907436        6.3681504513        1.4895075882
S                3.1523382393        7.3491115861       10.6183833648
Mo               1.5756394905       10.0065304219       -9.1672481230    0   0   0
Mo               3.1512330605        9.0968514907       -3.0554878870    0   0   0
S                1.5756499830       10.0065443759       -4.6232632674    0   0   0
S                3.1512596626        9.0968439439       -7.6014065489    0   0   0
S                3.1512601163        9.0968450728      -10.7330757790    0   0   0
S                1.5756503041       10.0065459699       -1.4877044377    0   0   0
Mo               1.5757334393       10.0068424093        3.0571747685
Mo               3.1522551929        9.1635093460        9.1280841066
S                1.5510830496       10.0269265039        7.5858949065
S                3.1514041564        9.0974878569        4.6258587002
S                3.1513955778        9.0967845155        1.4898759627
S                1.5545738048       10.0434134575       10.7497914137
Mo               9.4537312807        1.8193638619       -9.1672481230    0   0   0
Mo              11.0293863460        0.9096952246       -3.0554894007    0   0   0
S                9.4537395970        1.8193770750       -4.6232328036    0   0   0
S               11.0293514528        0.9096773839       -7.6014065489    0   0   0
S               11.0293519066        0.9096785128      -10.7330757790    0   0   0
S                9.4537393632        1.8193794783       -1.4877366147    0   0   0
Mo               9.4538692803        1.8200119533        3.0563916942
Mo              11.0390021286        0.9224811943        9.1581968387
S                9.4546648639        1.8308161686        7.5893576297
S               11.0293194301        0.9106204942        4.6241931312
S               11.0296493329        0.9098511659        1.4890552767
S                9.4546945878        1.8240105850       10.7255525646
Mo               7.8781139383        4.5484193819       -9.1672481230    0   0   0
Mo               9.4537539161        3.6387607911       -3.0554933032    0   0   0
S                7.8781175448        4.5484378232       -4.6232366318    0   0   0
S                9.4537341104        3.6387329039       -7.6014065489    0   0   0
S                9.4537345641        3.6387340328      -10.7330757790    0   0   0
S                7.8781194018        4.5484411585       -1.4877377057    0   0   0
Mo               7.8782668757        4.5486833631        3.0565489884
Mo               9.4546815378        3.6435792137        9.1651746254
S                7.8800482144        4.5555795940        7.6001884134
S                9.4538857230        3.6393495547        4.6244381379
S                9.4538588538        3.6390816531        1.4885833378
S                7.8845256440        4.5456360102       10.7386594275
Mo               6.3024965959        7.2774749019       -9.1672481230    0   0   0
Mo               7.8781361655        6.3678242352       -3.0555014130    0   0   0
S                6.3024973331        7.2774953556       -4.6232392528    0   0   0
S                7.8781167680        6.3677884239       -7.6014065489    0   0   0
S                7.8781172217        6.3677895528      -10.7330757790    0   0   0
S                6.3024989866        7.2774929744       -1.4877349119    0   0   0
Mo               6.3026059283        7.2774878583        3.0566691536
Mo               7.8923886261        6.3733408364        9.1800047124
S                6.3158539432        7.2787921341        7.6199271400
S                7.8783324826        6.3678711486        4.6244240966
S                7.8781165368        6.3680091771        1.4887474371
S                6.3790307526        7.3142755206       10.8046755441
Mo               4.7268792535       10.0065304219       -9.1672481230    0   0   0
Mo               6.3025111524        9.0968738021       -3.0554915260    0   0   0
S                4.7268840634       10.0065452125       -4.6232380477    0   0   0
S                6.3024994256        9.0968439439       -7.6014065489    0   0   0
S                6.3024998793        9.0968450728      -10.7330757790    0   0   0
S                4.7268847312       10.0065459141       -1.4877283294    0   0   0
Mo               4.7270667921       10.0068424809        3.0571771466
Mo               6.3136044608        9.1085197796        9.1785943443
S                4.7533605634       10.0269955455        7.5858183842
S                6.3030067529        9.0966595737        4.6241274491
S                6.3024154421        9.0970215475        1.4889836131
S                4.7500064466       10.0434243853       10.7497424381
Pt               1.7414590912        6.4279740653       12.1136318455
Pt               4.5630376963        6.4278194532       12.1138179544
Pd               3.1526539788        8.8747907690       12.3025959933
End final coordinates



     Writing all to output data dir ./outdir/pwscf.save/ :
     XML data file, charge density, pseudopotentials, collected wavefunctions
 
     init_run     :    179.58s CPU    182.75s WALL (       1 calls)
     electrons    : 160399.95s CPU 162406.34s WALL (      20 calls)
     update_pot   :     38.01s CPU     39.16s WALL (      19 calls)
     forces       :   2661.90s CPU   2709.20s WALL (      20 calls)
     force_dftd3  :     13.79s CPU     14.40s WALL (      20 calls)

     Called by init_run:
     wfcinit      :    155.36s CPU    157.07s WALL (       1 calls)
     potinit      :      1.59s CPU      1.70s WALL (       1 calls)
     hinit0       :     12.85s CPU     12.93s WALL (       1 calls)

     Called by electrons:
     c_bands      : 142051.86s CPU 143384.98s WALL (     252 calls)
     sum_band     :  16347.63s CPU  16704.59s WALL (     252 calls)
     v_of_rho     :     92.02s CPU    103.81s WALL (     256 calls)
     newd         :   1630.12s CPU   1940.00s WALL (     256 calls)
     PAW_pot      :    322.90s CPU    325.76s WALL (     275 calls)
     mix_rho      :     24.60s CPU     28.25s WALL (     252 calls)
     energy_dftd3 :      8.77s CPU      8.82s WALL (      20 calls)

     Called by c_bands:
     init_us_2    :    555.03s CPU    557.67s WALL (    2176 calls)
     init_us_2:cp :    555.01s CPU    557.66s WALL (    2176 calls)
     cegterg      : 139613.87s CPU 140932.05s WALL (    1035 calls)

     Called by *egterg:
     cdiaghg      :   8223.20s CPU   8507.96s WALL (   12642 calls)
     h_psi        :  70498.61s CPU  70934.87s WALL (   12792 calls)
     s_psi        :  16516.92s CPU  16617.70s WALL (   12792 calls)
     g_psi        :    125.05s CPU    125.62s WALL (   11753 calls)

     Called by h_psi:
     h_psi:calbec :  16138.27s CPU  16193.52s WALL (   12792 calls)
     vloc_psi     :  37472.51s CPU  37653.92s WALL (   12792 calls)
     add_vuspsi   :  16602.41s CPU  16705.36s WALL (   12792 calls)

     General routines
     calbec       :  23179.31s CPU  23256.79s WALL (   14196 calls)
     fft          :     73.00s CPU     83.00s WALL (    3543 calls)
     ffts         :      4.72s CPU      5.05s WALL (     508 calls)
     fftw         :  28157.60s CPU  28294.00s WALL ( 7381178 calls)
     interpolate  :      7.94s CPU      8.72s WALL (     256 calls)
 
     Parallel routines
 
     PWSCF        :   1d21h34m CPU   1d22h10m WALL

 
   This run was terminated on:  20:12:17   5Apr2024            

=------------------------------------------------------------------------------=
   JOB DONE.
=------------------------------------------------------------------------------=
