
     Program PWSCF v.7.3 starts on  8Mar2024 at 16: 5:57 

     This program is part of the open-source Quantum ESPRESSO suite
     for quantum simulation of materials; please cite
         "P. Giannozzi et al., J. Phys.:Condens. Matter 21 395502 (2009);
         "P. Giannozzi et al., J. Phys.:Condens. Matter 29 465901 (2017);
         "P. Giannozzi et al., J. Chem. Phys. 152 154105 (2020);
          URL http://www.quantum-espresso.org", 
     in publications or presentations arising from this work. More details at
     http://www.quantum-espresso.org/quote

     Parallel version (MPI & OpenMP), running on      36 processor cores
     Number of MPI processes:                36
     Threads/MPI process:                     1

     MPI processes distributed on     1 nodes
     551635 MiB available memory on the printing compute node when the environment starts
 
     Waiting for input...
     Reading input from standard input
Warning: card &CELL ignored
Warning: card / ignored

     Current dimensions of program PWSCF are:
     Max number of different atomic species (ntypx) = 10
     Max number of k-points (npk) =  40000
     Max angular momentum in pseudopotentials (lmaxx) =  4
     file Mo.pbe-spn-kjpaw_psl.1.0.0.UPF: wavefunction(s)  4S 4D renormalized
     file S.pbe-n-kjpaw_psl.1.0.0.UPF: wavefunction(s)  3S 3P renormalized
     file Pt.pbe-spfn-kjpaw_psl.1.0.0.UPF: wavefunction(s)  5P 4F renormalized
     file Pd.pbe-spn-kjpaw_psl.1.0.0.UPF: wavefunction(s)  4S 5S 4D renormalized
 
     R & G space division:  proc/nbgrp/npool/nimage =      36
     Subspace diagonalization in iterative solution of the eigenvalue problem:
     one sub-group per band group will be used
     scalapack distributed-memory algorithm (size of sub-group:  6*  6 procs)

 
     Parallelization info
     --------------------
     sticks:   dense  smooth     PW     G-vecs:    dense   smooth      PW
     Min         586     335     89               165416    71459    9765
     Max         587     337     90               165425    71461    9778
     Sum       21109   12085   3205              5955087  2572543  351657
 
     Using Slab Decomposition
 


     bravais-lattice index     =            0
     lattice parameter (alat)  =      23.8395  a.u.
     unit-cell volume          =   28182.8498 (a.u.)^3
     number of atoms/cell      =          146
     number of atomic types    =            4
     number of electrons       =      1298.00
     number of Kohn-Sham states=          779
     kinetic-energy cutoff     =      77.0000  Ry
     charge density cutoff     =     539.0000  Ry
     scf convergence threshold =      1.0E-06
     mixing beta               =       0.2000
     number of iterations used =            8  plain     mixing
     energy convergence thresh.=      1.0E-04
     force convergence thresh. =      1.0E-03
     Exchange-correlation= SLA  PW   PBX  PBC
                           (   1   4   3   4   0   0   0)
     nstep                     =         1000


     Effective Screening Medium Method
     =================================
     Boundary Conditions: Vacuum-Slab-Vacuum
     total charge in unit cell        =   0.0000
     grid points for fit at edges     =        4 
 

     celldm(1)=  23.839504  celldm(2)=   0.000000  celldm(3)=   0.000000
     celldm(4)=   0.000000  celldm(5)=   0.000000  celldm(6)=   0.000000

     crystal axes: (cart. coord. in units of alat)
               a(1) = (   1.000000   0.000000   0.000000 )  
               a(2) = (  -0.500001   0.866026   0.000000 )  
               a(3) = (   0.000000   0.000000   2.401941 )  

     reciprocal axes: (cart. coord. in units 2 pi/alat)
               b(1) = (  1.000000  0.577351  0.000000 )  
               b(2) = (  0.000000  1.154700  0.000000 )  
               b(3) = (  0.000000  0.000000  0.416330 )  


     PseudoPot. # 1 for Mo read from file:
     ./pseudo/Mo.pbe-spn-kjpaw_psl.1.0.0.UPF
     MD5 check sum: 317bf72632116215fd98f72de1686f13
     Pseudo is Projector augmented-wave + core cor, Zval = 14.0
     Generated using 'atomic' code by A. Dal Corso  v.7.2
     Shape of augmentation charge: PSQ
     Using radial grid of 1229 points,  6 beta functions with: 
                l(1) =   0
                l(2) =   0
                l(3) =   1
                l(4) =   1
                l(5) =   2
                l(6) =   2
     Q(r) pseudized with 0 coefficients 


     PseudoPot. # 2 for S  read from file:
     ./pseudo/S.pbe-n-kjpaw_psl.1.0.0.UPF
     MD5 check sum: 8b7b5302570d38d5e87fed6a1065abda
     Pseudo is Projector augmented-wave + core cor, Zval =  6.0
     Generated using 'atomic' code by A. Dal Corso  v.7.2
     Shape of augmentation charge: PSQ
     Using radial grid of 1151 points,  6 beta functions with: 
                l(1) =   0
                l(2) =   0
                l(3) =   1
                l(4) =   1
                l(5) =   2
                l(6) =   2
     Q(r) pseudized with 0 coefficients 


     PseudoPot. # 3 for Pt read from file:
     ./pseudo/Pt.pbe-spfn-kjpaw_psl.1.0.0.UPF
     MD5 check sum: 620096ebf4e6ebacc94de60fd67efcb5
     Pseudo is Projector augmented-wave + core cor, Zval = 32.0
     Generated using 'atomic' code by A. Dal Corso  v.7.2
     Shape of augmentation charge: PSQ
     Using radial grid of 1277 points,  8 beta functions with: 
                l(1) =   0
                l(2) =   0
                l(3) =   1
                l(4) =   1
                l(5) =   2
                l(6) =   2
                l(7) =   3
                l(8) =   3
     Q(r) pseudized with 0 coefficients 


     PseudoPot. # 4 for Pd read from file:
     ./pseudo/Pd.pbe-spn-kjpaw_psl.1.0.0.UPF
     MD5 check sum: a60571a671f2502b8a6a4569d20a6edb
     Pseudo is Projector augmented-wave + core cor, Zval = 18.0
     Generated using 'atomic' code by A. Dal Corso  v.7.2
     Shape of augmentation charge: PSQ
     Using radial grid of 1235 points,  6 beta functions with: 
                l(1) =   0
                l(2) =   0
                l(3) =   1
                l(4) =   1
                l(5) =   2
                l(6) =   2
     Q(r) pseudized with 0 coefficients 


     atomic species   valence    mass     pseudopotential
     Mo               14.00    95.95000     Mo( 1.00)
     S                 6.00    32.06000     S ( 1.00)
     Pt               32.00   195.08400     Pt( 1.00)
     Pd               18.00   106.42000     Pd( 1.00)

     No symmetry found



   Cartesian axes

     site n.     atom                  positions (alat units)
         1        Mo     tau(   1) = (   0.1245066   0.2151403   0.4829270  )
         2        Mo     tau(   2) = (   0.1250004   0.0721694  -0.4825273  )
         3        Mo     tau(   3) = (   0.0000143   0.1443586  -0.0000404  )
         4        S      tau(   4) = (   0.0000004   0.0000006  -0.6064556  )
         5        S      tau(   5) = (   0.1249859   0.0722111  -0.1241825  )
         6        S      tau(   6) = (   0.0002990   0.1445714   0.3572522  )
         7        S      tau(   7) = (   0.0000004   0.0000005  -0.3584711  )
         8        S      tau(   8) = (   0.1250243   0.0721377   0.1241202  )
         9        S      tau(   9) = (  -0.0011552   0.1430195   0.6061730  )
        10        Mo     tau(  10) = (  -0.0014303   0.4332690   0.4829269  )
        11        Mo     tau(  11) = (   0.0000001   0.2886759  -0.4825273  )
        12        Mo     tau(  12) = (  -0.1249759   0.3608474  -0.0000404  )
        13        S      tau(  13) = (  -0.1249999   0.2165071  -0.6064556  )
        14        S      tau(  14) = (   0.0000250   0.2886908  -0.1241273  )
        15        S      tau(  15) = (  -0.1246483   0.3609863   0.3572522  )
        16        S      tau(  16) = (  -0.1249998   0.2165070  -0.3584711  )
        17        S      tau(  17) = (   0.0000923   0.2887297   0.1242244  )
        18        S      tau(  18) = (  -0.1267194   0.3605027   0.6061730  )
        19        Mo     tau(  19) = (  -0.1251617   0.6496109   0.4820319  )
        20        Mo     tau(  20) = (  -0.1250002   0.5051824  -0.4825273  )
        21        Mo     tau(  21) = (  -0.2500022   0.5773395  -0.0001503  )
        22        S      tau(  22) = (  -0.2500002   0.4330136  -0.6064556  )
        23        S      tau(  23) = (  -0.1249718   0.5051500  -0.1241823  )
        24        S      tau(  24) = (  -0.2500018   0.5776353   0.3574746  )
        25        S      tau(  25) = (  -0.2500001   0.4330135  -0.3584711  )
        26        S      tau(  26) = (  -0.1250162   0.5052198   0.1241203  )
        27        S      tau(  27) = (  -0.2500018   0.5771316   0.6060170  )
        28        Mo     tau(  28) = (   0.2499988  -0.0001852   0.4820322  )
        29        Mo     tau(  29) = (  -0.2500004   0.7216889  -0.4825273  )
        30        Mo     tau(  30) = (  -0.3750121   0.7938628  -0.0001504  )
        31        S      tau(  31) = (  -0.3750004   0.6495201  -0.6064556  )
        32        S      tau(  32) = (  -0.2500022   0.7216884  -0.1242395  )
        33        S      tau(  33) = (  -0.3747547   0.7937137   0.3574746  )
        34        S      tau(  34) = (  -0.3750004   0.6495200  -0.3584711  )
        35        S      tau(  35) = (  -0.2500023   0.7216883   0.1240244  )
        36        S      tau(  36) = (  -0.3751912   0.7939655   0.6060169  )
        37        Mo     tau(  37) = (   0.3754907   0.2151405   0.4829271  )
        38        Mo     tau(  38) = (   0.3750004   0.0721694  -0.4825273  )
        39        Mo     tau(  39) = (   0.2499984   0.1443573  -0.0000731  )
        40        S      tau(  40) = (   0.2500004   0.0000006  -0.6064556  )
        41        S      tau(  41) = (   0.3750112   0.0722112  -0.1241824  )
        42        S      tau(  42) = (   0.2499987   0.1444686   0.3583292  )
        43        S      tau(  43) = (   0.2500004   0.0000005  -0.3584711  )
        44        S      tau(  44) = (   0.3749727   0.0721378   0.1241202  )
        45        S      tau(  45) = (   0.2499989   0.1436262   0.6067914  )
        46        Mo     tau(  46) = (   0.2499982   0.4330120   0.4873213  )
        47        Mo     tau(  47) = (   0.2500001   0.2886759  -0.4825273  )
        48        Mo     tau(  48) = (   0.1250313   0.3608632  -0.0000369  )
        49        S      tau(  49) = (   0.1250001   0.2165071  -0.6064556  )
        50        S      tau(  50) = (   0.2499984   0.2886902  -0.1241509  )
        51        S      tau(  51) = (   0.1269276   0.3619573   0.3622727  )
        52        S      tau(  52) = (   0.1250002   0.2165070  -0.3584711  )
        53        S      tau(  53) = (   0.2499983   0.2886817   0.1242427  )
        54        S      tau(  54) = (   0.1143670   0.3547054   0.6129634  )
        55        Mo     tau(  55) = (   0.1240620   0.6506275   0.4829270  )
        56        Mo     tau(  56) = (   0.1249998   0.5051824  -0.4825273  )
        57        Mo     tau(  57) = (   0.0000150   0.5773409  -0.0000731  )
        58        S      tau(  58) = (  -0.0000002   0.4330136  -0.6064556  )
        59        S      tau(  59) = (   0.1250108   0.5051746  -0.1241509  )
        60        S      tau(  60) = (   0.0001121   0.5772840   0.3583290  )
        61        S      tau(  61) = (  -0.0000001   0.4330135  -0.3584711  )
        62        S      tau(  62) = (   0.1250034   0.5051788   0.1242428  )
        63        S      tau(  63) = (  -0.0006172   0.5777056   0.6067911  )
        64        Mo     tau(  64) = (   0.5000733   0.0000423   0.4811256  )
        65        Mo     tau(  65) = (  -0.0000004   0.7216889  -0.4825273  )
        66        Mo     tau(  66) = (  -0.1249927   0.7938628  -0.0001503  )
        67        S      tau(  67) = (  -0.1250004   0.6495201  -0.6064556  )
        68        S      tau(  68) = (   0.0000406   0.7216783  -0.1241824  )
        69        S      tau(  69) = (  -0.1252496   0.7937135   0.3574746  )
        70        S      tau(  70) = (  -0.1250004   0.6495200  -0.3584711  )
        71        S      tau(  71) = (  -0.0000422   0.7216817   0.1241204  )
        72        S      tau(  72) = (  -0.1248129   0.7939655   0.6060170  )
        73        Mo     tau(  73) = (   0.6251034   0.2164454   0.4813717  )
        74        Mo     tau(  74) = (   0.6250004   0.0721694  -0.4825273  )
        75        Mo     tau(  75) = (   0.4999826   0.1443587  -0.0000403  )
        76        S      tau(  76) = (   0.5000004   0.0000006  -0.6064556  )
        77        S      tau(  77) = (   0.6249765   0.0721563  -0.1241436  )
        78        S      tau(  78) = (   0.4996985   0.1445712   0.3572516  )
        79        S      tau(  79) = (   0.5000004   0.0000005  -0.3584711  )
        80        S      tau(  80) = (   0.6250052   0.0721729   0.1241442  )
        81        S      tau(  81) = (   0.5011529   0.1430194   0.6061729  )
        82        Mo     tau(  82) = (   0.5014272   0.4332689   0.4829269  )
        83        Mo     tau(  83) = (   0.5000001   0.2886759  -0.4825273  )
        84        Mo     tau(  84) = (   0.3749652   0.3608633  -0.0000370  )
        85        S      tau(  85) = (   0.3750001   0.2165071  -0.6064556  )
        86        S      tau(  86) = (   0.4999715   0.2886908  -0.1241272  )
        87        S      tau(  87) = (   0.3730698   0.3619571   0.3622724  )
        88        S      tau(  88) = (   0.3750002   0.2165070  -0.3584711  )
        89        S      tau(  89) = (   0.4999043   0.2887298   0.1242243  )
        90        S      tau(  90) = (   0.3856284   0.3547066   0.6129638  )
        91        Mo     tau(  91) = (   0.3759345   0.6506277   0.4829270  )
        92        Mo     tau(  92) = (   0.3749998   0.5051824  -0.4825273  )
        93        Mo     tau(  93) = (   0.2499980   0.5773127  -0.0000370  )
        94        S      tau(  94) = (   0.2499998   0.4330136  -0.6064556  )
        95        S      tau(  95) = (   0.3749852   0.5051745  -0.1241508  )
        96        S      tau(  96) = (   0.2499983   0.5751230   0.3622722  )
        97        S      tau(  97) = (   0.2499999   0.4330135  -0.3584711  )
        98        S      tau(  98) = (   0.3749925   0.5051788   0.1242430  )
        99        S      tau(  99) = (   0.2499985   0.5896211   0.6129642  )
       100        Mo     tau( 100) = (   0.7499990   0.0001203   0.4813716  )
       101        Mo     tau( 101) = (   0.2499996   0.7216889  -0.4825273  )
       102        Mo     tau( 102) = (   0.1250080   0.7938333  -0.0000403  )
       103        S      tau( 103) = (   0.1249996   0.6495201  -0.6064556  )
       104        S      tau( 104) = (   0.2499977   0.7216576  -0.1241273  )
       105        S      tau( 105) = (   0.1250507   0.7934796   0.3572514  )
       106        S      tau( 106) = (   0.1249996   0.6495200  -0.3584711  )
       107        S      tau( 107) = (   0.2499978   0.7215798   0.1242243  )
       108        S      tau( 108) = (   0.1244341   0.7955149   0.6061727  )
       109        Mo     tau( 109) = (  -0.1251058   0.2164455   0.4813720  )
       110        Mo     tau( 110) = (   0.8750004   0.0721694  -0.4825273  )
       111        Mo     tau( 111) = (   0.7499984   0.1443377  -0.0000951  )
       112        S      tau( 112) = (   0.7500004   0.0000006  -0.6064556  )
       113        S      tau( 113) = (   0.8750204   0.0721563  -0.1241436  )
       114        S      tau( 114) = (   0.7499989   0.1443372   0.3571897  )
       115        S      tau( 115) = (   0.7500004   0.0000005  -0.3584711  )
       116        S      tau( 116) = (   0.8749917   0.0721728   0.1241442  )
       117        S      tau( 117) = (   0.7499986   0.1443371   0.6056765  )
       118        Mo     tau( 118) = (  -0.2500015   0.4329261   0.4811261  )
       119        Mo     tau( 119) = (   0.7500001   0.2886759  -0.4825273  )
       120        Mo     tau( 120) = (   0.6249722   0.3608476  -0.0000403  )
       121        S      tau( 121) = (   0.6250001   0.2165071  -0.6064556  )
       122        S      tau( 122) = (   0.7499981   0.2887008  -0.1241435  )
       123        S      tau( 123) = (   0.6246456   0.3609863   0.3572519  )
       124        S      tau( 124) = (   0.6250002   0.2165070  -0.3584711  )
       125        S      tau( 125) = (   0.7499982   0.2886677   0.1241441  )
       126        S      tau( 126) = (   0.6267164   0.3605023   0.6061731  )
       127        Mo     tau( 127) = (  -0.3748420   0.6496111   0.4820319  )
       128        Mo     tau( 128) = (   0.6249998   0.5051824  -0.4825273  )
       129        Mo     tau( 129) = (   0.4999808   0.5773409  -0.0000733  )
       130        S      tau( 130) = (   0.4999998   0.4330136  -0.6064556  )
       131        S      tau( 131) = (   0.6249676   0.5051499  -0.1241823  )
       132        S      tau( 132) = (   0.4998845   0.5772841   0.3583289  )
       133        S      tau( 133) = (   0.4999999   0.4330135  -0.3584711  )
       134        S      tau( 134) = (   0.6250119   0.5052197   0.1241202  )
       135        S      tau( 135) = (   0.5006138   0.5777054   0.6067911  )
       136        Mo     tau( 136) = (  -0.0000756   0.0000425   0.4811258  )
       137        Mo     tau( 137) = (   0.4999996   0.7216889  -0.4825273  )
       138        Mo     tau( 138) = (   0.3749875   0.7938333  -0.0000404  )
       139        S      tau( 139) = (   0.3749996   0.6495201  -0.6064556  )
       140        S      tau( 140) = (   0.4999549   0.7216781  -0.1241825  )
       141        S      tau( 141) = (   0.3749453   0.7934797   0.3572516  )
       142        S      tau( 142) = (   0.3749996   0.6495200  -0.3584711  )
       143        S      tau( 143) = (   0.5000375   0.7216816   0.1241203  )
       144        S      tau( 144) = (   0.3755618   0.7955149   0.6061729  )
       145        Pt     tau( 145) = (   0.2499972   0.4330095   0.7045710  )
       146        Pd     tau( 146) = (   0.1250067   0.5051793   0.8366810  )

     --------------------------------------------
     DFT-D3 Dispersion Correction (3-body terms):
     --------------------------------------------
       Reference C6 values for interpolation: 

         atom   Coordination number   C6
         S          0.000           268.01
         S          0.995           261.99
         S          1.990           251.62
         Mo         0.000          1691.79
         Mo         1.942          1004.01
         Mo        11.056           674.22
         Pd         0.000          1217.01
         Pd         1.863           573.90
         Pd         5.710           531.75
         Pt         0.000           782.29
         Pt         1.919           692.72
         Pt         6.667           673.75

       Values used:

         atom   Coordination number  R0_AB[au]  C6      C8
         Mo        10.173            3.547    674.22  77634.20
         Mo        10.189            3.547    674.22  77634.20
         Mo        10.200            3.547    674.22  77634.20
         S          3.753            3.128    251.62  12327.25
         S          3.858            3.128    251.62  12327.25
         S          3.845            3.128    251.62  12327.25
         S          3.859            3.128    251.62  12327.25
         S          3.860            3.128    251.62  12327.25
         S          3.821            3.128    251.62  12327.25
         Mo        10.176            3.547    674.22  77634.20
         Mo        10.189            3.547    674.22  77634.20
         Mo        10.200            3.547    674.22  77634.20
         S          3.753            3.128    251.62  12327.25
         S          3.859            3.128    251.62  12327.25
         S          3.845            3.128    251.62  12327.25
         S          3.858            3.128    251.62  12327.25
         S          3.855            3.128    251.62  12327.25
         S          3.822            3.128    251.62  12327.25
         Mo        10.217            3.547    674.22  77634.20
         Mo        10.189            3.547    674.22  77634.20
         Mo        10.200            3.547    674.22  77634.20
         S          3.753            3.128    251.62  12327.25
         S          3.858            3.128    251.62  12327.25
         S          3.861            3.128    251.62  12327.25
         S          3.859            3.128    251.62  12327.25
         S          3.860            3.128    251.62  12327.25
         S          3.762            3.128    251.62  12327.25
         Mo        10.217            3.547    674.22  77634.20
         Mo        10.189            3.547    674.22  77634.20
         Mo        10.200            3.547    674.22  77634.20
         S          3.753            3.128    251.62  12327.25
         S          3.858            3.128    251.62  12327.25
         S          3.861            3.128    251.62  12327.25
         S          3.859            3.128    251.62  12327.25
         S          3.863            3.128    251.62  12327.25
         S          3.762            3.128    251.62  12327.25
         Mo        10.173            3.547    674.22  77634.20
         Mo        10.189            3.547    674.22  77634.20
         Mo        10.201            3.547    674.22  77634.20
         S          3.753            3.128    251.62  12327.25
         S          3.858            3.128    251.62  12327.25
         S          3.858            3.128    251.62  12327.25
         S          3.859            3.128    251.62  12327.25
         S          3.860            3.128    251.62  12327.25
         S          3.752            3.128    251.62  12327.25
         Mo        10.891            3.547    674.22  77634.20
         Mo        10.189            3.547    674.22  77634.20
         Mo        10.203            3.547    674.22  77634.20
         S          3.753            3.128    251.62  12327.25
         S          3.859            3.128    251.62  12327.25
         S          3.864            3.128    251.62  12327.25
         S          3.859            3.128    251.62  12327.25
         S          3.851            3.128    251.62  12327.25
         S          4.708            3.128    251.62  12327.25
         Mo        10.176            3.547    674.22  77634.20
         Mo        10.189            3.547    674.22  77634.20
         Mo        10.201            3.547    674.22  77634.20
         S          3.753            3.128    251.62  12327.25
         S          3.859            3.128    251.62  12327.25
         S          3.858            3.128    251.62  12327.25
         S          3.859            3.128    251.62  12327.25
         S          3.851            3.128    251.62  12327.25
         S          3.802            3.128    251.62  12327.25
         Mo        10.230            3.547    674.22  77634.20
         Mo        10.189            3.547    674.22  77634.20
         Mo        10.200            3.547    674.22  77634.20
         S          3.753            3.128    251.62  12327.25
         S          3.858            3.128    251.62  12327.25
         S          3.861            3.128    251.62  12327.25
         S          3.859            3.128    251.62  12327.25
         S          3.860            3.128    251.62  12327.25
         S          3.762            3.128    251.62  12327.25
         Mo        10.215            3.547    674.22  77634.20
         Mo        10.189            3.547    674.22  77634.20
         Mo        10.200            3.547    674.22  77634.20
         S          3.753            3.128    251.62  12327.25
         S          3.858            3.128    251.62  12327.25
         S          3.845            3.128    251.62  12327.25
         S          3.859            3.128    251.62  12327.25
         S          3.860            3.128    251.62  12327.25
         S          3.821            3.128    251.62  12327.25
         Mo        10.173            3.547    674.22  77634.20
         Mo        10.189            3.547    674.22  77634.20
         Mo        10.203            3.547    674.22  77634.20
         S          3.753            3.128    251.62  12327.25
         S          3.859            3.128    251.62  12327.25
         S          3.864            3.128    251.62  12327.25
         S          3.859            3.128    251.62  12327.25
         S          3.855            3.128    251.62  12327.25
         S          4.654            3.128    251.62  12327.25
         Mo        10.173            3.547    674.22  77634.20
         Mo        10.189            3.547    674.22  77634.20
         Mo        10.203            3.547    674.21  77634.20
         S          3.753            3.128    251.62  12327.25
         S          3.859            3.128    251.62  12327.25
         S          3.864            3.128    251.62  12327.25
         S          3.859            3.128    251.62  12327.25
         S          3.851            3.128    251.62  12327.25
         S          4.708            3.128    251.62  12327.25
         Mo        10.215            3.547    674.22  77634.20
         Mo        10.189            3.547    674.22  77634.20
         Mo        10.200            3.547    674.22  77634.20
         S          3.753            3.128    251.62  12327.25
         S          3.859            3.128    251.62  12327.25
         S          3.845            3.128    251.62  12327.25
         S          3.859            3.128    251.62  12327.25
         S          3.855            3.128    251.62  12327.25
         S          3.822            3.128    251.62  12327.25
         Mo        10.215            3.547    674.22  77634.20
         Mo        10.189            3.547    674.22  77634.20
         Mo        10.200            3.547    674.22  77634.20
         S          3.753            3.128    251.62  12327.25
         S          3.858            3.128    251.62  12327.25
         S          3.853            3.128    251.62  12327.25
         S          3.858            3.128    251.62  12327.25
         S          3.860            3.128    251.62  12327.25
         S          3.785            3.128    251.62  12327.25
         Mo        10.230            3.547    674.22  77634.20
         Mo        10.189            3.547    674.22  77634.20
         Mo        10.200            3.547    674.22  77634.20
         S          3.753            3.128    251.62  12327.25
         S          3.858            3.128    251.62  12327.25
         S          3.845            3.128    251.62  12327.25
         S          3.858            3.128    251.62  12327.25
         S          3.860            3.128    251.62  12327.25
         S          3.821            3.128    251.62  12327.25
         Mo        10.217            3.547    674.22  77634.20
         Mo        10.189            3.547    674.22  77634.20
         Mo        10.201            3.547    674.22  77634.20
         S          3.753            3.128    251.62  12327.25
         S          3.858            3.128    251.62  12327.25
         S          3.858            3.128    251.62  12327.25
         S          3.859            3.128    251.62  12327.25
         S          3.860            3.128    251.62  12327.25
         S          3.752            3.128    251.62  12327.25
         Mo        10.230            3.547    674.22  77634.20
         Mo        10.189            3.547    674.22  77634.20
         Mo        10.200            3.547    674.22  77634.20
         S          3.753            3.128    251.62  12327.25
         S          3.858            3.128    251.62  12327.25
         S          3.845            3.128    251.62  12327.25
         S          3.859            3.128    251.62  12327.25
         S          3.860            3.128    251.62  12327.25
         S          3.821            3.128    251.62  12327.25
         Pt         4.979            3.168    673.75  70061.90
         Pd         1.139            3.168    595.72  54581.98

         Molecular C6 ( Ry / a.u.^6 ) =   7938019.36


     number of k points=     4  Gaussian smearing, width (Ry)=  0.0100
                       cart. coord. in units 2pi/alat
        k(    1) = (   0.0000000   0.0000000   0.0000000), wk =   0.5000000
        k(    2) = (   0.0000000  -0.5773499   0.0000000), wk =   0.5000000
        k(    3) = (  -0.5000000  -0.2886755   0.0000000), wk =   0.5000000
        k(    4) = (  -0.5000000  -0.8660254   0.0000000), wk =   0.5000000

     Dense  grid:  5955087 G-vectors     FFT dimensions: ( 180, 180, 432)

     Smooth grid:  2572543 G-vectors     FFT dimensions: ( 135, 135, 320)

     Estimated max dynamical RAM per process >       3.07 GB

     Estimated total dynamical RAM >     110.53 GB

     Initial potential from superposition of free atoms

     starting charge    1297.9541, renormalised to    1298.0000

     negative rho (up, down):  8.741E-04 0.000E+00
     Starting wfcs are  891 randomized atomic wfcs
     Checking if some PAW data can be deallocated... 

     total cpu time spent up to now is       98.0 secs

     Self-consistent Calculation

     iteration #  1     ecut=    77.00 Ry     beta= 0.20
     Davidson diagonalization with overlap
     ethr =  1.00E-02,  avg # of iterations =  2.0

     Threshold (ethr) on eigenvalues was too large:
     Diagonalizing with lowered threshold

     Davidson diagonalization with overlap
     ethr =  1.84E-04,  avg # of iterations = 15.8

     negative rho (up, down):  2.862E-04 0.000E+00

     total cpu time spent up to now is     1105.3 secs

     total energy              =  -26031.70476665 Ry
     estimated scf accuracy    <       5.10064254 Ry

     iteration #  2     ecut=    77.00 Ry     beta= 0.20
     Davidson diagonalization with overlap
     ethr =  3.93E-04,  avg # of iterations =  5.8

     negative rho (up, down):  4.829E-05 0.000E+00

     total cpu time spent up to now is     1332.8 secs

     total energy              =  -26030.73336518 Ry
     estimated scf accuracy    <       2.57093829 Ry

     iteration #  3     ecut=    77.00 Ry     beta= 0.20
     Davidson diagonalization with overlap
     ethr =  1.98E-04,  avg # of iterations = 17.2

     negative rho (up, down):  4.575E-05 0.000E+00

     total cpu time spent up to now is     1616.5 secs

     total energy              =  -26031.02937080 Ry
     estimated scf accuracy    <       2.29001478 Ry

     iteration #  4     ecut=    77.00 Ry     beta= 0.20
     Davidson diagonalization with overlap
     ethr =  1.76E-04,  avg # of iterations =  2.0

     negative rho (up, down):  3.160E-05 0.000E+00

     total cpu time spent up to now is     1833.7 secs

     total energy              =  -26031.05318066 Ry
     estimated scf accuracy    <       0.57094886 Ry

     iteration #  5     ecut=    77.00 Ry     beta= 0.20
     Davidson diagonalization with overlap
     c_bands:  1 eigenvalues not converged
     c_bands:  2 eigenvalues not converged
     ethr =  4.40E-05,  avg # of iterations = 15.5

     negative rho (up, down):  4.165E-05 0.000E+00

     total cpu time spent up to now is     2499.8 secs

     total energy              =  -26031.62625653 Ry
     estimated scf accuracy    <       0.38809893 Ry

     iteration #  6     ecut=    77.00 Ry     beta= 0.20
     Davidson diagonalization with overlap
     ethr =  2.99E-05,  avg # of iterations =  6.2

     negative rho (up, down):  6.546E-05 0.000E+00

     total cpu time spent up to now is     2730.2 secs

     total energy              =  -26031.63887219 Ry
     estimated scf accuracy    <       0.21987832 Ry

     iteration #  7     ecut=    77.00 Ry     beta= 0.20
     Davidson diagonalization with overlap
     c_bands:  2 eigenvalues not converged
     c_bands:  2 eigenvalues not converged
     ethr =  1.69E-05,  avg # of iterations = 16.5

     negative rho (up, down):  1.758E-04 0.000E+00

     total cpu time spent up to now is     3032.2 secs

     total energy              =  -26031.63476873 Ry
     estimated scf accuracy    <       0.11879297 Ry

     iteration #  8     ecut=    77.00 Ry     beta= 0.20
     Davidson diagonalization with overlap
     c_bands:  5 eigenvalues not converged
     c_bands:  5 eigenvalues not converged
     c_bands:  5 eigenvalues not converged
     ethr =  9.15E-06,  avg # of iterations = 32.2

     negative rho (up, down):  2.901E-04 0.000E+00

     total cpu time spent up to now is     3590.7 secs

     total energy              =  -26031.69737484 Ry
     estimated scf accuracy    <       0.03137922 Ry

     iteration #  9     ecut=    77.00 Ry     beta= 0.20
     Davidson diagonalization with overlap
     c_bands:  3 eigenvalues not converged
     c_bands:  1 eigenvalues not converged
     c_bands:  4 eigenvalues not converged
     c_bands:  5 eigenvalues not converged
     ethr =  2.42E-06,  avg # of iterations = 40.0

     negative rho (up, down):  3.838E-04 0.000E+00

     total cpu time spent up to now is     4383.8 secs

     total energy              =  -26031.71921474 Ry
     estimated scf accuracy    <       0.03825943 Ry

     iteration # 10     ecut=    77.00 Ry     beta= 0.20
     Davidson diagonalization with overlap
     c_bands:  3 eigenvalues not converged
     c_bands:  3 eigenvalues not converged
     ethr =  2.42E-06,  avg # of iterations = 23.2

     negative rho (up, down):  4.716E-04 0.000E+00

     total cpu time spent up to now is     4749.3 secs

     total energy              =  -26031.72660419 Ry
     estimated scf accuracy    <       0.00701610 Ry

     iteration # 11     ecut=    77.00 Ry     beta= 0.20
     Davidson diagonalization with overlap
     c_bands:  2 eigenvalues not converged
     c_bands:  2 eigenvalues not converged
     c_bands:  3 eigenvalues not converged
     ethr =  5.41E-07,  avg # of iterations = 16.8

     negative rho (up, down):  5.564E-04 0.000E+00

     total cpu time spent up to now is     5176.9 secs

     total energy              =  -26031.73112795 Ry
     estimated scf accuracy    <       0.00430760 Ry

     iteration # 12     ecut=    77.00 Ry     beta= 0.20
     Davidson diagonalization with overlap
     c_bands:  2 eigenvalues not converged
     c_bands:  2 eigenvalues not converged
     ethr =  3.32E-07,  avg # of iterations = 16.2

     negative rho (up, down):  7.457E-04 0.000E+00

     total cpu time spent up to now is     5451.7 secs

     total energy              =  -26031.73183875 Ry
     estimated scf accuracy    <       0.00067278 Ry

     iteration # 13     ecut=    77.00 Ry     beta= 0.20
     Davidson diagonalization with overlap
     c_bands:  4 eigenvalues not converged
     c_bands:  1 eigenvalues not converged
     ethr =  5.18E-08,  avg # of iterations = 17.0

     negative rho (up, down):  7.523E-04 0.000E+00

     total cpu time spent up to now is     6230.4 secs

     total energy              =  -26031.73343757 Ry
     estimated scf accuracy    <       0.00101584 Ry

     iteration # 14     ecut=    77.00 Ry     beta= 0.20
     Davidson diagonalization with overlap
     c_bands:  2 eigenvalues not converged
     ethr =  5.18E-08,  avg # of iterations =  8.8

     negative rho (up, down):  8.025E-04 0.000E+00

     total cpu time spent up to now is     6462.0 secs

     total energy              =  -26031.73336054 Ry
     estimated scf accuracy    <       0.00027143 Ry

     iteration # 15     ecut=    77.00 Ry     beta= 0.20
     Davidson diagonalization with overlap
     c_bands:  1 eigenvalues not converged
     ethr =  2.09E-08,  avg # of iterations = 21.5

     negative rho (up, down):  8.627E-04 0.000E+00

     total cpu time spent up to now is     7002.6 secs

     total energy              =  -26031.73362192 Ry
     estimated scf accuracy    <       0.00012618 Ry

     iteration # 16     ecut=    77.00 Ry     beta= 0.20
     Davidson diagonalization with overlap
     ethr =  9.72E-09,  avg # of iterations = 10.2

     negative rho (up, down):  8.736E-04 0.000E+00

     total cpu time spent up to now is     7327.7 secs

     total energy              =  -26031.73359563 Ry
     estimated scf accuracy    <       0.00014429 Ry

     iteration # 17     ecut=    77.00 Ry     beta= 0.20
     Davidson diagonalization with overlap
     ethr =  9.72E-09,  avg # of iterations =  5.0

     negative rho (up, down):  8.809E-04 0.000E+00

     total cpu time spent up to now is     7550.8 secs

     total energy              =  -26031.73359255 Ry
     estimated scf accuracy    <       0.00002632 Ry

     iteration # 18     ecut=    77.00 Ry     beta= 0.20
     Davidson diagonalization with overlap
     c_bands:  1 eigenvalues not converged
     ethr =  2.03E-09,  avg # of iterations = 17.8

     negative rho (up, down):  8.851E-04 0.000E+00

     total cpu time spent up to now is     8168.5 secs

     total energy              =  -26031.73363340 Ry
     estimated scf accuracy    <       0.00000940 Ry

     iteration # 19     ecut=    77.00 Ry     beta= 0.20
     Davidson diagonalization with overlap
     c_bands:  2 eigenvalues not converged
     c_bands:  1 eigenvalues not converged
     ethr =  7.25E-10,  avg # of iterations = 17.2

     negative rho (up, down):  8.866E-04 0.000E+00

     total cpu time spent up to now is     8568.5 secs

     total energy              =  -26031.73363759 Ry
     estimated scf accuracy    <       0.00000230 Ry

     iteration # 20     ecut=    77.00 Ry     beta= 0.20
     Davidson diagonalization with overlap
     c_bands:  1 eigenvalues not converged
     c_bands:  4 eigenvalues not converged
     ethr =  1.77E-10,  avg # of iterations = 17.0

     negative rho (up, down):  8.904E-04 0.000E+00

     total cpu time spent up to now is     9091.4 secs

     total energy              =  -26031.73363793 Ry
     estimated scf accuracy    <       0.00000136 Ry

     iteration # 21     ecut=    77.00 Ry     beta= 0.20
     Davidson diagonalization with overlap
     c_bands:  1 eigenvalues not converged
     ethr =  1.04E-10,  avg # of iterations = 13.8

     negative rho (up, down):  8.936E-04 0.000E+00

     total cpu time spent up to now is     9360.6 secs

     End of self-consistent calculation

          k = 0.0000 0.0000 0.0000 (321495 PWs)   bands (ev):

  -103.1331 -87.1552 -71.4854 -71.4609 -71.4592 -71.4112 -71.3960 -71.3877
   -71.3827 -66.6288 -66.6077 -66.6077 -66.6077 -66.6077 -66.6076 -66.6076
   -66.5865 -66.5865 -66.5865 -66.5865 -66.5865 -66.5865 -66.5864 -66.5864
   -66.5864 -66.5630 -66.5423 -66.5423 -66.5420 -66.5418 -66.5417 -66.5416
   -66.5214 -66.5211 -66.5211 -66.5210 -66.5207 -66.5206 -66.5203 -66.5203
   -66.5203 -66.5061 -66.4956 -66.4864 -66.4861 -66.4797 -66.4797 -66.4691
   -66.4689 -66.4672 -66.4516 -66.4470 -66.4358 -66.4272 -66.4270 -66.4166
   -66.4127 -57.4325 -57.3090 -57.2858 -53.2079 -52.8955 -52.8096 -40.9552
   -40.9552 -40.9552 -40.8884 -40.8882 -40.8882 -40.8804 -40.8804 -40.8804
   -40.8804 -40.8804 -40.8804 -40.8225 -40.8222 -40.8195 -40.8138 -40.8137
   -40.8135 -40.8134 -40.8134 -40.8134 -40.7889 -40.7548 -40.7548 -40.7548
   -40.7548 -40.7548 -40.7548 -40.7524 -40.7518 -40.7475 -40.7475 -40.7475
   -40.7475 -40.7474 -40.7474 -40.7448 -40.7400 -40.7250 -40.7237 -40.7200
   -40.7200 -40.7200 -40.7200 -40.7199 -40.7199 -40.7196 -40.7058 -40.7058
   -40.7058 -40.7058 -40.7058 -40.7058 -40.7057 -40.7057 -40.7057 -40.6884
   -40.6881 -40.6881 -40.6880 -40.6880 -40.6879 -40.6826 -40.6825 -40.6823
   -40.6821 -40.6821 -40.6820 -40.6697 -40.6535 -40.6535 -40.6533 -40.6532
   -40.6531 -40.6531 -40.6492 -40.6422 -40.6422 -40.6422 -40.6411 -40.6409
   -40.6408 -40.6408 -40.6407 -40.6406 -40.6402 -40.6402 -40.6402 -40.6378
   -40.6292 -40.6290 -40.6280 -40.6262 -40.6253 -40.6189 -40.6154 -40.6114
   -40.6095 -40.5997 -40.5954 -40.5954 -40.5954 -40.5954 -40.5953 -40.5953
   -40.5931 -40.5917 -40.5909 -40.5898 -40.5839 -40.5834 -40.5783 -40.5757
   -40.5755 -40.5755 -40.5743 -40.5715 -40.5672 -40.5622 -40.5614 -40.5597
   -40.5567 -40.5489 -40.5481 -40.5481 -40.5292 -40.5288 -40.5288 -40.5287
   -40.5286 -40.5285 -40.5071 -40.5064 -40.5036 -40.4815 -40.4815 -40.4592
   -40.4539 -40.4502 -40.4481 -40.4475 -40.4386 -40.3922 -40.3851 -20.0640
   -19.9671 -19.8437 -19.2290 -19.2100 -19.2017 -19.1947 -19.1943 -19.1941
   -19.1724 -19.1588 -19.1415 -19.0863 -19.0835 -19.0822 -19.0278 -19.0236
   -19.0176 -18.9651 -18.9591 -18.9586 -18.8140 -18.6553 -18.5085 -18.4970
   -18.4786 -18.4105 -18.3998 -18.3977 -18.3977 -18.3520 -18.3453 -18.3121
   -18.2509 -18.2467 -18.2457 -18.1872 -18.1843 -18.1538 -18.1134 -18.1088
   -18.1074 -18.0889 -18.0888 -18.0885 -18.0885 -18.0882 -18.0882 -18.0635
   -18.0611 -18.0482 -18.0481 -18.0481 -18.0163 -18.0114 -18.0097 -18.0093
   -18.0013 -18.0011 -17.9773 -17.9764 -17.9764 -17.9425 -17.9294 -17.9264
   -17.9252 -17.9153 -17.9120 -17.9111 -17.8897 -17.8889 -17.8822 -17.8705
   -17.8693 -17.8634 -17.8610 -17.8610 -17.8598 -17.8300 -17.8285 -17.8210
   -17.8042 -17.8042 -17.7925 -17.7897 -17.7891 -17.7874 -17.7632 -17.7618
   -17.7508 -17.7281 -17.7273 -17.7196 -17.7116 -17.7089 -17.7070 -11.9524
   -11.8556 -11.7097 -11.7084 -11.7022 -11.6689 -11.6624 -11.6194 -11.6020
   -11.5990 -11.5322 -11.2855 -11.2156 -11.2069 -11.1547 -11.1527 -11.1515
   -11.1350 -11.1331 -11.1330 -11.0824 -11.0785 -11.0760 -11.0758 -11.0734
   -11.0725 -11.0571 -10.9672 -10.9618 -10.9545 -10.9506 -10.9490 -10.9357
   -10.8929 -10.8911 -10.8878 -10.8685 -10.8648 -10.8629 -10.8612 -10.8584
   -10.8516 -10.8311 -10.8301 -10.7883 -10.7866 -10.7857 -10.7808 -10.7792
   -10.7791 -10.7722 -10.7701 -10.7699 -10.7505 -10.7501 -10.7499 -10.7366
   -10.7296 -10.7294 -10.7257 -10.7253 -10.7242 -10.6862 -10.6760 -10.6728
   -10.6725 -10.6348 -10.6257 -10.6217 -10.5886 -10.5625 -10.5595 -10.5451
   -10.5444 -10.5425 -10.3414 -10.3331 -10.0002  -9.9961  -9.9959  -9.9047
    -9.8677  -9.8425  -9.8418  -9.7564  -9.7333  -9.7310  -9.7221  -9.7206
    -9.7195  -9.7119  -9.6765  -9.6741  -9.6550  -9.6377  -9.6370  -9.6296
    -9.6270  -9.6245  -9.5784  -9.5747  -9.5744  -9.5657  -9.5649  -9.5639
    -9.5251  -9.5243  -9.5240  -9.5232  -9.5201  -9.5200  -9.5195  -9.5055
    -9.4938  -9.4918  -9.4818  -9.4693  -9.4681  -9.4673  -9.4605  -9.4012
    -9.3989  -9.3840  -9.3785  -9.3776  -9.3772  -9.3187  -9.3129  -9.3084
    -9.2827  -9.2788  -9.2518  -9.2359  -9.2349  -9.1922  -9.1767  -9.1733
    -9.1733  -9.1460  -9.1419  -9.1382  -9.1378  -9.1365  -9.1135  -9.0316
    -9.0182  -9.0133  -9.0092  -8.9679  -8.9675  -8.9669  -8.9668  -8.9666
    -8.9590  -8.9580  -8.9233  -8.8958  -8.8892  -8.8890  -8.8709  -8.8283
    -8.8258  -8.8014  -8.8001  -8.7978  -8.7565  -8.7548  -8.7495  -8.7486
    -8.7476  -8.7423  -8.7409  -8.7292  -8.7287  -8.7006  -8.6981  -8.6710
    -8.6667  -8.6655  -8.6645  -8.6385  -8.6359  -8.6352  -8.5209  -8.4053
    -8.3780  -8.3780  -8.3620  -8.3056  -8.3055  -8.2888  -8.2660  -8.2660
    -8.2659  -8.2658  -8.2658  -8.2658  -8.2333  -8.2316  -8.2008  -8.1980
    -8.1973  -8.1938  -8.1890  -8.1879  -8.1644  -8.1607  -8.1574  -8.1180
    -8.0103  -7.9874  -7.9132  -7.8916  -7.8881  -7.6982  -7.6858  -7.6642
    -7.6422  -7.5983  -7.5808  -7.5306  -7.5304  -7.5304  -7.5303  -7.5299
    -7.5298  -7.4857  -7.4856  -7.4846  -7.4845  -7.4838  -7.4837  -7.4791
    -7.4668  -7.4609  -7.4606  -7.4560  -7.4534  -7.4520  -7.4513  -7.4497
    -7.4219  -7.4188  -7.4151  -7.4122  -7.4120  -7.4102  -7.4061  -7.3903
    -7.3841  -7.3745  -7.3690  -7.3682  -7.3675  -7.3666  -7.3655  -7.3633
    -7.3627  -7.3346  -7.3278  -7.3072  -7.2633  -7.2491  -7.2491  -7.2233
    -7.1984  -7.1981  -7.1796  -7.1779  -7.1321  -7.1272  -7.1133  -7.0752
    -7.0312  -7.0255  -6.9222  -6.8718  -6.8372  -6.8131  -6.8068  -6.7851
    -6.7531  -6.7528  -6.7476  -6.7342  -6.7060  -6.6594  -6.6575  -6.6340
    -6.6036  -6.5642  -6.5626  -6.5607  -6.5604  -6.5561  -6.5530  -6.5512
    -6.5211  -6.4708  -6.4678  -6.4673  -6.4624  -6.4530  -6.4503  -6.4493
    -6.4457  -6.4299  -6.3995  -6.3875  -6.3786  -6.3745  -6.3713  -6.3691
    -6.3687  -6.3680  -6.3167  -6.2971  -6.2971  -6.2971  -6.2971  -6.2971
    -6.2971  -6.2750  -6.2653  -6.2321  -6.2219  -6.2208  -6.2201  -6.2197
    -6.2196  -6.2095  -6.1873  -6.1684  -6.1595  -6.1371  -6.1194  -6.1063
    -6.0128  -5.7823  -5.5200  -5.3884  -5.3472  -5.2969  -5.1406  -5.0904
    -4.9450  -4.5208  -3.7859  -3.7833  -3.7810  -3.7765  -3.7739  -3.7608
    -3.7487  -3.7483  -3.7468  -3.7457  -3.7452  -3.7348  -3.5568  -3.5496
    -3.5377  -3.5344  -3.5320  -3.5290  -3.5205  -3.5199  -3.5172  -3.5143
    -3.5086  -3.4377  -3.4376  -3.4375  -3.4260  -3.4210  -3.4209  -3.4202
    -3.4194  -3.4179  -3.4118  -3.3711  -3.3707  -3.3706  -3.3566  -3.3410
    -3.3342  -3.3255  -3.3249  -3.3221  -3.3203  -3.3176  -3.3055  -3.3050
    -3.3024  -3.2954  -3.2873  -3.2818  -3.2818  -3.2475  -3.2314  -3.2179
    -3.2160  -3.2110  -3.2091  -3.2007  -3.1862  -3.1795  -3.1591  -3.1453
    -3.0261  -2.9715  -2.9713  -2.9706  -2.9663  -2.9663  -2.9085  -2.9021
    -2.8995  -2.8993  -2.8992  -2.8991  -2.8989  -2.8985  -2.8932  -2.8839
    -2.8779  -2.8754  -2.8740  -2.8690  -2.8505  -2.8428  -2.8380  -2.8368
    -2.8335  -2.8313  -2.8273  -2.8259  -2.8221  -2.8148  -2.8146  -2.7969
    -2.7863  -2.7736  -2.7545  -2.7501  -2.7460  -2.7442  -2.7240  -2.7094
    -2.7089  -2.6923  -2.6885  -2.6882  -2.6810  -2.6706  -2.6689  -2.6583
    -2.6391  -2.6353  -2.6142  -2.5931  -2.5844  -2.5771  -2.5764  -2.5598
    -2.5586  -2.5206  -2.4803  -2.4767  -2.4699  -2.4308  -2.4209  -2.4143
    -2.3979  -2.3963  -2.3915

          k = 0.0000-0.5773 0.0000 (321564 PWs)   bands (ev):

  -103.1331 -87.1552 -71.4854 -71.4609 -71.4592 -71.4112 -71.3960 -71.3877
   -71.3827 -66.6226 -66.6226 -66.6121 -66.6120 -66.5971 -66.5971 -66.5971
   -66.5971 -66.5927 -66.5927 -66.5865 -66.5865 -66.5865 -66.5865 -66.5821
   -66.5821 -66.5570 -66.5567 -66.5464 -66.5462 -66.5315 -66.5315 -66.5314
   -66.5310 -66.5272 -66.5268 -66.5210 -66.5209 -66.5208 -66.5203 -66.5164
   -66.5163 -66.5033 -66.5002 -66.4869 -66.4842 -66.4813 -66.4757 -66.4711
   -66.4685 -66.4678 -66.4514 -66.4465 -66.4362 -66.4274 -66.4268 -66.4167
   -66.4126 -57.4325 -57.3090 -57.2858 -53.2079 -52.8955 -52.8096 -40.9238
   -40.9238 -40.9238 -40.9238 -40.8971 -40.8971 -40.8852 -40.8852 -40.8571
   -40.8570 -40.8569 -40.8565 -40.8348 -40.8348 -40.8348 -40.8348 -40.8304
   -40.8301 -40.8184 -40.8182 -40.8046 -40.7954 -40.7879 -40.7768 -40.7768
   -40.7716 -40.7696 -40.7681 -40.7680 -40.7679 -40.7679 -40.7668 -40.7668
   -40.7632 -40.7561 -40.7561 -40.7471 -40.7295 -40.7267 -40.7267 -40.7267
   -40.7267 -40.7180 -40.7180 -40.7117 -40.7114 -40.7058 -40.7058 -40.7058
   -40.7058 -40.7058 -40.7058 -40.7002 -40.7001 -40.6978 -40.6971 -40.6971
   -40.6922 -40.6909 -40.6908 -40.6897 -40.6751 -40.6751 -40.6751 -40.6751
   -40.6720 -40.6616 -40.6616 -40.6615 -40.6613 -40.6598 -40.6578 -40.6530
   -40.6527 -40.6475 -40.6409 -40.6408 -40.6406 -40.6406 -40.6406 -40.6406
   -40.6406 -40.6402 -40.6392 -40.6391 -40.6321 -40.6320 -40.6315 -40.6285
   -40.6285 -40.6219 -40.6198 -40.6192 -40.6123 -40.6093 -40.6093 -40.6087
   -40.6087 -40.6083 -40.6081 -40.6044 -40.5989 -40.5952 -40.5924 -40.5924
   -40.5906 -40.5875 -40.5806 -40.5752 -40.5741 -40.5740 -40.5739 -40.5739
   -40.5691 -40.5644 -40.5621 -40.5620 -40.5620 -40.5618 -40.5617 -40.5611
   -40.5483 -40.5448 -40.5430 -40.5425 -40.5417 -40.5398 -40.5302 -40.5260
   -40.5258 -40.5083 -40.4990 -40.4956 -40.4952 -40.4952 -40.4933 -40.4799
   -40.4756 -40.4710 -40.4617 -40.4466 -40.4266 -40.4196 -40.3912 -19.8318
   -19.8254 -19.7579 -19.7151 -19.6268 -19.5919 -19.3922 -19.3919 -19.3053
   -19.3020 -19.1914 -19.1881 -18.7941 -18.7600 -18.7121 -18.6828 -18.6814
   -18.6808 -18.6721 -18.6679 -18.6301 -18.5808 -18.5724 -18.5577 -18.5494
   -18.4995 -18.4949 -18.4850 -18.4804 -18.4714 -18.4339 -18.4333 -18.3952
   -18.3880 -18.3569 -18.3446 -18.3388 -18.3300 -18.3048 -18.2439 -18.2425
   -18.2078 -18.1744 -18.1669 -18.1587 -18.1569 -18.1093 -18.1067 -18.0690
   -18.0688 -18.0687 -18.0684 -18.0566 -18.0496 -18.0475 -18.0371 -18.0057
   -18.0012 -17.9964 -17.9938 -17.9886 -17.9842 -17.9601 -17.9502 -17.9410
   -17.9284 -17.9217 -17.9181 -17.9166 -17.9152 -17.8831 -17.8818 -17.8736
   -17.8689 -17.8680 -17.8559 -17.8231 -17.8140 -17.8053 -17.8052 -17.8033
   -17.8029 -17.7568 -17.7497 -17.7456 -17.7455 -17.7313 -17.7307 -17.7291
   -17.7270 -17.6966 -17.6887 -17.6831 -17.6755 -17.6316 -17.6229 -11.8253
   -11.6197 -11.6072 -11.5122 -11.4886 -11.4166 -11.4163 -11.4125 -11.4120
   -11.3917 -11.3845 -11.3384 -11.3368 -11.3213 -11.3196 -11.2998 -11.2818
   -11.2629 -11.2585 -11.2471 -11.2265 -11.2240 -11.2237 -11.1980 -11.1980
   -11.1841 -11.1807 -11.1524 -11.1522 -11.1227 -11.1000 -11.0932 -11.0926
   -11.0917 -11.0157 -10.9415 -10.9400 -10.9214 -10.9164 -10.9078 -10.9000
   -10.8595 -10.8580 -10.8479 -10.8290 -10.8242 -10.8155 -10.8073 -10.7927
   -10.7796 -10.7726 -10.7716 -10.7706 -10.7699 -10.7566 -10.7490 -10.7374
   -10.7326 -10.7212 -10.7076 -10.7036 -10.7009 -10.6919 -10.6267 -10.5276
   -10.5194 -10.5159 -10.4885 -10.4336 -10.4274 -10.3293 -10.3027 -10.2148
   -10.1643 -10.0816 -10.0677 -10.0619 -10.0582 -10.0137  -9.9814  -9.9712
    -9.9558  -9.9216  -9.9061  -9.8860  -9.8784  -9.8754  -9.8725  -9.8616
    -9.8447  -9.8425  -9.8358  -9.8330  -9.8251  -9.7883  -9.7609  -9.7378
    -9.7226  -9.7085  -9.6985  -9.6954  -9.6768  -9.6703  -9.6520  -9.6513
    -9.6415  -9.6367  -9.6086  -9.5961  -9.5850  -9.5817  -9.5676  -9.5573
    -9.5524  -9.5505  -9.5438  -9.5003  -9.4731  -9.4714  -9.4682  -9.4474
    -9.4251  -9.4101  -9.4100  -9.3834  -9.3653  -9.2940  -9.2541  -9.2269
    -9.2087  -9.2017  -9.1525  -9.1318  -9.1024  -9.0985  -9.0799  -9.0759
    -9.0730  -9.0658  -9.0643  -9.0482  -9.0170  -9.0039  -8.9805  -8.9788
    -8.9681  -8.9521  -8.9477  -8.9287  -8.9261  -8.9169  -8.9044  -8.9016
    -8.8851  -8.8803  -8.8737  -8.8727  -8.8689  -8.8585  -8.8429  -8.8412
    -8.8245  -8.8061  -8.8017  -8.7973  -8.7887  -8.7854  -8.7807  -8.7799
    -8.7693  -8.7641  -8.7619  -8.7567  -8.7424  -8.7253  -8.7108  -8.7041
    -8.6997  -8.6832  -8.6791  -8.6540  -8.6446  -8.5885  -8.4905  -8.4562
    -8.4530  -8.4370  -8.3711  -8.3654  -8.3506  -8.3014  -8.2853  -8.1838
    -8.1344  -8.1344  -8.0637  -8.0622  -8.0582  -8.0300  -8.0190  -7.9622
    -7.9500  -7.9159  -7.8738  -7.8723  -7.8082  -7.8073  -7.8021  -7.7955
    -7.7899  -7.7884  -7.7877  -7.7877  -7.7845  -7.7821  -7.7429  -7.7422
    -7.7417  -7.7409  -7.7301  -7.7187  -7.7181  -7.7076  -7.7019  -7.7015
    -7.6914  -7.6865  -7.6785  -7.6695  -7.6648  -7.6598  -7.6577  -7.6406
    -7.6382  -7.6339  -7.6332  -7.6270  -7.6105  -7.6025  -7.6024  -7.6009
    -7.5949  -7.5905  -7.5632  -7.5603  -7.5431  -7.5409  -7.5340  -7.5332
    -7.5256  -7.5143  -7.4948  -7.4885  -7.4537  -7.4440  -7.4043  -7.3963
    -7.3396  -7.2910  -7.2675  -7.2055  -7.1900  -7.1818  -7.1791  -7.1658
    -7.1241  -7.0992  -7.0713  -7.0586  -7.0402  -7.0236  -6.9892  -6.9562
    -6.9537  -6.9475  -6.9216  -6.8967  -6.8881  -6.8822  -6.8734  -6.8631
    -6.8498  -6.8383  -6.7950  -6.7747  -6.7706  -6.7626  -6.7526  -6.6926
    -6.6658  -6.6603  -6.6334  -6.5994  -6.5993  -6.5993  -6.5993  -6.5871
    -6.5491  -6.5397  -6.5333  -6.5326  -6.5300  -6.5267  -6.4941  -6.4737
    -6.4593  -6.4564  -6.4491  -6.4120  -6.3869  -6.3602  -6.2765  -6.2686
    -6.2680  -6.2679  -6.2675  -6.2319  -6.2019  -6.1990  -6.1910  -6.1896
    -6.1887  -6.1786  -6.1467  -6.1353  -6.1279  -6.1225  -6.1165  -6.1085
    -6.0236  -5.9193  -5.9192  -5.8502  -5.8453  -5.8317  -5.7860  -5.7390
    -5.6992  -5.6735  -5.5244  -5.4970  -5.3883  -5.3459  -5.2521  -5.1360
    -4.9459  -4.5251  -3.9625  -3.9595  -3.9533  -3.9387  -3.8347  -3.8346
    -3.8146  -3.8067  -3.7701  -3.7700  -3.7256  -3.7163  -3.7099  -3.7029
    -3.6912  -3.6633  -3.6128  -3.5870  -3.5383  -3.5375  -3.5354  -3.5347
    -3.5206  -3.5202  -3.4983  -3.4890  -3.4844  -3.4589  -3.4455  -3.4443
    -3.4341  -3.4229  -3.4160  -3.4122  -3.4103  -3.4042  -3.4042  -3.3785
    -3.3644  -3.3566  -3.3107  -3.3041  -3.3005  -3.2888  -3.2877  -3.2862
    -3.2588  -3.2580  -3.2549  -3.2483  -3.2193  -3.2125  -3.2120  -3.2110
    -3.2105  -3.2076  -3.1893  -3.1795  -3.1780  -3.1692  -3.1549  -3.1497
    -3.1481  -3.1445  -3.1333  -3.1280  -3.1274  -3.0929  -3.0689  -3.0571
    -3.0493  -3.0451  -3.0267  -3.0091  -3.0083  -2.9953  -2.9708  -2.9686
    -2.9649  -2.9486  -2.9478  -2.9474  -2.9469  -2.9344  -2.9206  -2.9013
    -2.8988  -2.8949  -2.8857  -2.8742  -2.8609  -2.8576  -2.8513  -2.8492
    -2.8392  -2.8314  -2.8271  -2.8133  -2.8051  -2.8014  -2.7751  -2.7712
    -2.7658  -2.7452  -2.7409  -2.7374  -2.7305  -2.6847  -2.6745  -2.6577
    -2.6404  -2.6244  -2.5862  -2.5856  -2.5750  -2.5654  -2.5637  -2.5538
    -2.5055  -2.4984  -2.4461  -2.4420  -2.4347  -2.4243  -2.4183  -2.3907
    -2.3022  -2.2722  -2.2458

          k =-0.5000-0.2887 0.0000 (321564 PWs)   bands (ev):

  -103.1331 -87.1552 -71.4854 -71.4609 -71.4592 -71.4112 -71.3960 -71.3877
   -71.3827 -66.6226 -66.6226 -66.6121 -66.6120 -66.5971 -66.5971 -66.5971
   -66.5971 -66.5927 -66.5927 -66.5865 -66.5865 -66.5865 -66.5865 -66.5821
   -66.5821 -66.5570 -66.5567 -66.5464 -66.5462 -66.5315 -66.5315 -66.5314
   -66.5310 -66.5272 -66.5268 -66.5210 -66.5209 -66.5208 -66.5203 -66.5164
   -66.5163 -66.5033 -66.5002 -66.4869 -66.4842 -66.4813 -66.4757 -66.4711
   -66.4685 -66.4678 -66.4514 -66.4465 -66.4362 -66.4274 -66.4268 -66.4167
   -66.4126 -57.4325 -57.3090 -57.2858 -53.2079 -52.8955 -52.8096 -40.9238
   -40.9238 -40.9238 -40.9238 -40.8971 -40.8971 -40.8852 -40.8852 -40.8571
   -40.8570 -40.8569 -40.8566 -40.8348 -40.8348 -40.8348 -40.8348 -40.8304
   -40.8302 -40.8184 -40.8182 -40.8046 -40.7954 -40.7879 -40.7768 -40.7768
   -40.7716 -40.7696 -40.7681 -40.7680 -40.7679 -40.7679 -40.7669 -40.7668
   -40.7632 -40.7561 -40.7561 -40.7471 -40.7295 -40.7267 -40.7267 -40.7267
   -40.7267 -40.7180 -40.7180 -40.7117 -40.7114 -40.7058 -40.7058 -40.7058
   -40.7058 -40.7057 -40.7057 -40.7002 -40.7001 -40.6978 -40.6971 -40.6971
   -40.6922 -40.6909 -40.6908 -40.6898 -40.6751 -40.6751 -40.6751 -40.6751
   -40.6720 -40.6616 -40.6616 -40.6615 -40.6613 -40.6598 -40.6578 -40.6530
   -40.6527 -40.6475 -40.6409 -40.6407 -40.6406 -40.6406 -40.6406 -40.6406
   -40.6406 -40.6403 -40.6392 -40.6391 -40.6321 -40.6319 -40.6315 -40.6285
   -40.6285 -40.6219 -40.6198 -40.6192 -40.6123 -40.6093 -40.6093 -40.6087
   -40.6086 -40.6083 -40.6081 -40.6044 -40.5989 -40.5952 -40.5924 -40.5924
   -40.5906 -40.5875 -40.5806 -40.5752 -40.5741 -40.5740 -40.5739 -40.5739
   -40.5691 -40.5644 -40.5621 -40.5620 -40.5620 -40.5618 -40.5617 -40.5611
   -40.5483 -40.5448 -40.5430 -40.5425 -40.5417 -40.5398 -40.5302 -40.5260
   -40.5258 -40.5083 -40.4990 -40.4956 -40.4952 -40.4952 -40.4933 -40.4799
   -40.4756 -40.4710 -40.4617 -40.4466 -40.4266 -40.4196 -40.3911 -19.8318
   -19.8254 -19.7579 -19.7151 -19.6268 -19.5919 -19.3922 -19.3919 -19.3053
   -19.3020 -19.1914 -19.1881 -18.7942 -18.7600 -18.7121 -18.6828 -18.6814
   -18.6808 -18.6721 -18.6679 -18.6301 -18.5808 -18.5724 -18.5577 -18.5494
   -18.4995 -18.4949 -18.4850 -18.4804 -18.4714 -18.4339 -18.4333 -18.3952
   -18.3880 -18.3569 -18.3446 -18.3388 -18.3300 -18.3048 -18.2439 -18.2425
   -18.2078 -18.1744 -18.1669 -18.1587 -18.1569 -18.1093 -18.1067 -18.0690
   -18.0688 -18.0687 -18.0684 -18.0566 -18.0496 -18.0475 -18.0371 -18.0057
   -18.0012 -17.9964 -17.9938 -17.9886 -17.9841 -17.9601 -17.9502 -17.9410
   -17.9284 -17.9217 -17.9181 -17.9166 -17.9152 -17.8831 -17.8818 -17.8736
   -17.8689 -17.8680 -17.8559 -17.8230 -17.8140 -17.8053 -17.8052 -17.8033
   -17.8029 -17.7568 -17.7497 -17.7456 -17.7455 -17.7313 -17.7307 -17.7291
   -17.7270 -17.6966 -17.6887 -17.6831 -17.6755 -17.6316 -17.6229 -11.8253
   -11.6197 -11.6072 -11.5123 -11.4886 -11.4166 -11.4163 -11.4125 -11.4120
   -11.3917 -11.3845 -11.3384 -11.3368 -11.3213 -11.3196 -11.2998 -11.2818
   -11.2629 -11.2585 -11.2471 -11.2265 -11.2240 -11.2237 -11.1980 -11.1980
   -11.1841 -11.1807 -11.1524 -11.1522 -11.1227 -11.1000 -11.0932 -11.0926
   -11.0917 -11.0157 -10.9415 -10.9400 -10.9214 -10.9164 -10.9078 -10.9000
   -10.8595 -10.8580 -10.8479 -10.8290 -10.8242 -10.8155 -10.8073 -10.7927
   -10.7796 -10.7726 -10.7716 -10.7706 -10.7699 -10.7566 -10.7490 -10.7374
   -10.7326 -10.7212 -10.7076 -10.7036 -10.7009 -10.6919 -10.6267 -10.5276
   -10.5194 -10.5159 -10.4885 -10.4336 -10.4274 -10.3293 -10.3027 -10.2148
   -10.1643 -10.0816 -10.0677 -10.0619 -10.0582 -10.0137  -9.9814  -9.9712
    -9.9558  -9.9216  -9.9061  -9.8860  -9.8784  -9.8754  -9.8725  -9.8616
    -9.8447  -9.8425  -9.8358  -9.8330  -9.8251  -9.7883  -9.7609  -9.7378
    -9.7226  -9.7085  -9.6985  -9.6954  -9.6768  -9.6703  -9.6520  -9.6513
    -9.6415  -9.6367  -9.6086  -9.5961  -9.5851  -9.5817  -9.5676  -9.5573
    -9.5524  -9.5505  -9.5438  -9.5003  -9.4731  -9.4714  -9.4682  -9.4474
    -9.4251  -9.4101  -9.4100  -9.3834  -9.3653  -9.2940  -9.2541  -9.2269
    -9.2087  -9.2017  -9.1525  -9.1318  -9.1023  -9.0984  -9.0799  -9.0759
    -9.0730  -9.0658  -9.0643  -9.0482  -9.0170  -9.0039  -8.9805  -8.9788
    -8.9681  -8.9521  -8.9477  -8.9287  -8.9261  -8.9169  -8.9044  -8.9016
    -8.8851  -8.8803  -8.8737  -8.8727  -8.8689  -8.8585  -8.8429  -8.8412
    -8.8245  -8.8061  -8.8017  -8.7973  -8.7886  -8.7854  -8.7807  -8.7799
    -8.7693  -8.7641  -8.7619  -8.7567  -8.7424  -8.7253  -8.7108  -8.7041
    -8.6997  -8.6832  -8.6791  -8.6540  -8.6446  -8.5885  -8.4905  -8.4562
    -8.4530  -8.4370  -8.3711  -8.3654  -8.3506  -8.3014  -8.2853  -8.1838
    -8.1345  -8.1344  -8.0638  -8.0622  -8.0582  -8.0300  -8.0190  -7.9622
    -7.9500  -7.9159  -7.8738  -7.8723  -7.8082  -7.8073  -7.8021  -7.7955
    -7.7899  -7.7884  -7.7877  -7.7877  -7.7845  -7.7820  -7.7429  -7.7422
    -7.7417  -7.7409  -7.7301  -7.7187  -7.7181  -7.7076  -7.7019  -7.7015
    -7.6914  -7.6865  -7.6785  -7.6695  -7.6648  -7.6598  -7.6577  -7.6406
    -7.6382  -7.6339  -7.6332  -7.6270  -7.6105  -7.6025  -7.6024  -7.6009
    -7.5949  -7.5905  -7.5632  -7.5603  -7.5431  -7.5409  -7.5340  -7.5332
    -7.5256  -7.5143  -7.4948  -7.4885  -7.4537  -7.4440  -7.4043  -7.3963
    -7.3396  -7.2910  -7.2675  -7.2055  -7.1900  -7.1818  -7.1791  -7.1658
    -7.1241  -7.0992  -7.0713  -7.0586  -7.0402  -7.0236  -6.9892  -6.9562
    -6.9537  -6.9476  -6.9216  -6.8967  -6.8882  -6.8822  -6.8734  -6.8631
    -6.8498  -6.8383  -6.7950  -6.7747  -6.7706  -6.7626  -6.7526  -6.6926
    -6.6658  -6.6603  -6.6334  -6.5994  -6.5994  -6.5993  -6.5993  -6.5871
    -6.5491  -6.5397  -6.5333  -6.5326  -6.5300  -6.5267  -6.4941  -6.4737
    -6.4593  -6.4565  -6.4491  -6.4120  -6.3869  -6.3602  -6.2764  -6.2686
    -6.2680  -6.2679  -6.2674  -6.2319  -6.2019  -6.1990  -6.1910  -6.1896
    -6.1887  -6.1786  -6.1467  -6.1352  -6.1279  -6.1225  -6.1165  -6.1085
    -6.0236  -5.9193  -5.9192  -5.8502  -5.8453  -5.8317  -5.7860  -5.7390
    -5.6992  -5.6735  -5.5244  -5.4970  -5.3883  -5.3459  -5.2521  -5.1360
    -4.9459  -4.5251  -3.9627  -3.9596  -3.9536  -3.9390  -3.8347  -3.8347
    -3.8146  -3.8068  -3.7700  -3.7699  -3.7259  -3.7165  -3.7102  -3.7030
    -3.6913  -3.6635  -3.6130  -3.5872  -3.5384  -3.5376  -3.5356  -3.5348
    -3.5205  -3.5202  -3.4985  -3.4891  -3.4846  -3.4590  -3.4455  -3.4444
    -3.4343  -3.4229  -3.4161  -3.4125  -3.4102  -3.4043  -3.4041  -3.3785
    -3.3646  -3.3567  -3.3107  -3.3041  -3.3006  -3.2888  -3.2877  -3.2862
    -3.2587  -3.2579  -3.2551  -3.2483  -3.2195  -3.2124  -3.2119  -3.2110
    -3.2104  -3.2075  -3.1889  -3.1794  -3.1777  -3.1693  -3.1548  -3.1495
    -3.1481  -3.1444  -3.1333  -3.1281  -3.1273  -3.0926  -3.0690  -3.0569
    -3.0495  -3.0451  -3.0266  -3.0091  -3.0082  -2.9950  -2.9712  -2.9686
    -2.9648  -2.9490  -2.9481  -2.9478  -2.9473  -2.9343  -2.9202  -2.9013
    -2.8990  -2.8948  -2.8856  -2.8742  -2.8606  -2.8576  -2.8512  -2.8489
    -2.8388  -2.8315  -2.8270  -2.8131  -2.8049  -2.8015  -2.7753  -2.7714
    -2.7660  -2.7453  -2.7411  -2.7374  -2.7323  -2.6854  -2.6754  -2.6588
    -2.6453  -2.6252  -2.5862  -2.5856  -2.5748  -2.5653  -2.5638  -2.5537
    -2.5054  -2.4984  -2.4463  -2.4424  -2.4349  -2.4242  -2.4183  -2.3906
    -2.3022  -2.2731  -2.2473

          k =-0.5000-0.8660 0.0000 (321564 PWs)   bands (ev):

  -103.1331 -87.1552 -71.4854 -71.4609 -71.4592 -71.4112 -71.3960 -71.3877
   -71.3827 -66.6226 -66.6226 -66.6121 -66.6120 -66.5971 -66.5971 -66.5971
   -66.5971 -66.5927 -66.5927 -66.5865 -66.5865 -66.5864 -66.5864 -66.5821
   -66.5821 -66.5570 -66.5567 -66.5464 -66.5462 -66.5315 -66.5315 -66.5314
   -66.5311 -66.5271 -66.5268 -66.5209 -66.5209 -66.5208 -66.5204 -66.5164
   -66.5163 -66.5033 -66.5000 -66.4873 -66.4853 -66.4781 -66.4778 -66.4699
   -66.4697 -66.4677 -66.4511 -66.4471 -66.4360 -66.4271 -66.4270 -66.4168
   -66.4126 -57.4325 -57.3090 -57.2858 -53.2079 -52.8955 -52.8096 -40.9238
   -40.9238 -40.9238 -40.9237 -40.8972 -40.8971 -40.8852 -40.8852 -40.8570
   -40.8570 -40.8569 -40.8566 -40.8348 -40.8348 -40.8348 -40.8348 -40.8304
   -40.8302 -40.8184 -40.8182 -40.8055 -40.7919 -40.7860 -40.7768 -40.7768
   -40.7726 -40.7700 -40.7688 -40.7680 -40.7680 -40.7679 -40.7679 -40.7669
   -40.7668 -40.7561 -40.7561 -40.7478 -40.7268 -40.7267 -40.7267 -40.7267
   -40.7267 -40.7180 -40.7180 -40.7117 -40.7115 -40.7058 -40.7058 -40.7058
   -40.7058 -40.7057 -40.7057 -40.7010 -40.7002 -40.7001 -40.6971 -40.6971
   -40.6918 -40.6909 -40.6908 -40.6908 -40.6751 -40.6751 -40.6751 -40.6750
   -40.6651 -40.6616 -40.6616 -40.6615 -40.6613 -40.6602 -40.6580 -40.6530
   -40.6527 -40.6464 -40.6408 -40.6407 -40.6407 -40.6406 -40.6406 -40.6406
   -40.6406 -40.6403 -40.6392 -40.6391 -40.6320 -40.6320 -40.6315 -40.6285
   -40.6285 -40.6224 -40.6215 -40.6206 -40.6094 -40.6093 -40.6087 -40.6087
   -40.6083 -40.6081 -40.6069 -40.6053 -40.6018 -40.5957 -40.5924 -40.5924
   -40.5916 -40.5836 -40.5817 -40.5759 -40.5741 -40.5740 -40.5739 -40.5739
   -40.5686 -40.5658 -40.5623 -40.5620 -40.5620 -40.5619 -40.5618 -40.5607
   -40.5482 -40.5434 -40.5429 -40.5425 -40.5414 -40.5351 -40.5351 -40.5259
   -40.5258 -40.5115 -40.5008 -40.4964 -40.4956 -40.4953 -40.4933 -40.4802
   -40.4800 -40.4697 -40.4582 -40.4454 -40.4240 -40.4116 -40.3990 -19.8325
   -19.8250 -19.7598 -19.7129 -19.6274 -19.5890 -19.3928 -19.3918 -19.3081
   -19.3017 -19.1933 -19.1878 -18.7943 -18.7375 -18.7333 -18.6824 -18.6814
   -18.6807 -18.6738 -18.6654 -18.6300 -18.5795 -18.5731 -18.5549 -18.5520
   -18.4987 -18.4943 -18.4848 -18.4838 -18.4668 -18.4341 -18.4332 -18.3968
   -18.3860 -18.3594 -18.3456 -18.3390 -18.3306 -18.3046 -18.2487 -18.2450
   -18.2056 -18.1729 -18.1661 -18.1601 -18.1551 -18.1089 -18.1056 -18.0689
   -18.0688 -18.0687 -18.0685 -18.0600 -18.0481 -18.0473 -18.0345 -18.0078
   -17.9994 -17.9956 -17.9947 -17.9881 -17.9851 -17.9601 -17.9452 -17.9421
   -17.9261 -17.9236 -17.9193 -17.9150 -17.9148 -17.8840 -17.8820 -17.8722
   -17.8716 -17.8677 -17.8554 -17.8252 -17.8113 -17.8070 -17.8053 -17.8052
   -17.8021 -17.7591 -17.7492 -17.7455 -17.7448 -17.7349 -17.7292 -17.7289
   -17.7276 -17.6958 -17.6885 -17.6835 -17.6733 -17.6313 -17.6230 -11.8253
   -11.6197 -11.6076 -11.5206 -11.4796 -11.4165 -11.4161 -11.4125 -11.4115
   -11.3923 -11.3850 -11.3359 -11.3358 -11.3222 -11.3192 -11.3039 -11.2811
   -11.2616 -11.2516 -11.2453 -11.2253 -11.2252 -11.2238 -11.1980 -11.1980
   -11.1864 -11.1839 -11.1524 -11.1522 -11.1235 -11.1005 -11.0931 -11.0926
   -11.0918 -11.0165 -10.9466 -10.9392 -10.9174 -10.9152 -10.9126 -10.9067
   -10.8587 -10.8580 -10.8475 -10.8289 -10.8266 -10.8135 -10.8048 -10.7968
   -10.7777 -10.7730 -10.7716 -10.7707 -10.7700 -10.7606 -10.7496 -10.7372
   -10.7287 -10.7201 -10.7077 -10.7037 -10.7009 -10.6915 -10.6303 -10.5269
   -10.5162 -10.5100 -10.4736 -10.4341 -10.4265 -10.3341 -10.3017 -10.2249
   -10.1606 -10.0833 -10.0672 -10.0608 -10.0590 -10.0167  -9.9804  -9.9718
    -9.9575  -9.9276  -9.9083  -9.8864  -9.8784  -9.8751  -9.8722  -9.8620
    -9.8453  -9.8399  -9.8365  -9.8330  -9.8250  -9.7832  -9.7586  -9.7378
    -9.7224  -9.7083  -9.6986  -9.6954  -9.6778  -9.6723  -9.6519  -9.6505
    -9.6410  -9.6354  -9.6075  -9.5962  -9.5846  -9.5843  -9.5638  -9.5563
    -9.5526  -9.5522  -9.5443  -9.4973  -9.4737  -9.4701  -9.4683  -9.4471
    -9.4209  -9.4104  -9.4100  -9.3810  -9.3618  -9.2951  -9.2521  -9.2269
    -9.2191  -9.1962  -9.1500  -9.1253  -9.1051  -9.0962  -9.0831  -9.0788
    -9.0733  -9.0656  -9.0631  -9.0499  -9.0181  -9.0050  -8.9786  -8.9782
    -8.9715  -8.9531  -8.9463  -8.9336  -8.9283  -8.9149  -8.9032  -8.9017
    -8.8898  -8.8809  -8.8737  -8.8728  -8.8691  -8.8583  -8.8430  -8.8417
    -8.8254  -8.8062  -8.8024  -8.7981  -8.7905  -8.7825  -8.7807  -8.7796
    -8.7693  -8.7628  -8.7585  -8.7536  -8.7420  -8.7311  -8.7106  -8.7039
    -8.6976  -8.6806  -8.6797  -8.6547  -8.6442  -8.5933  -8.5135  -8.4610
    -8.4532  -8.4474  -8.3722  -8.3667  -8.3530  -8.3025  -8.2595  -8.1866
    -8.1345  -8.1344  -8.0639  -8.0621  -8.0510  -8.0491  -8.0201  -7.9690
    -7.9174  -7.9033  -7.8739  -7.8699  -7.8087  -7.8062  -7.7996  -7.7964
    -7.7906  -7.7880  -7.7880  -7.7877  -7.7877  -7.7812  -7.7427  -7.7419
    -7.7417  -7.7414  -7.7292  -7.7197  -7.7179  -7.7092  -7.7035  -7.7017
    -7.6915  -7.6842  -7.6780  -7.6701  -7.6655  -7.6597  -7.6529  -7.6406
    -7.6384  -7.6340  -7.6320  -7.6273  -7.6060  -7.6028  -7.6025  -7.6024
    -7.5955  -7.5934  -7.5589  -7.5579  -7.5457  -7.5395  -7.5359  -7.5333
    -7.5197  -7.5085  -7.4930  -7.4843  -7.4533  -7.4371  -7.4092  -7.4001
    -7.3589  -7.2886  -7.2432  -7.2008  -7.1820  -7.1767  -7.1672  -7.1457
    -7.1265  -7.1155  -7.0618  -7.0608  -7.0457  -7.0261  -7.0075  -6.9917
    -6.9541  -6.9506  -6.9176  -6.9166  -6.8867  -6.8835  -6.8710  -6.8616
    -6.8474  -6.8354  -6.8239  -6.7823  -6.7699  -6.7630  -6.7598  -6.7106
    -6.6813  -6.6505  -6.6302  -6.5994  -6.5994  -6.5993  -6.5993  -6.5628
    -6.5551  -6.5487  -6.5327  -6.5319  -6.5297  -6.5268  -6.4800  -6.4701
    -6.4591  -6.4515  -6.4412  -6.4177  -6.3709  -6.3623  -6.2846  -6.2681
    -6.2680  -6.2679  -6.2668  -6.2088  -6.2033  -6.1956  -6.1904  -6.1895
    -6.1888  -6.1682  -6.1513  -6.1403  -6.1235  -6.1199  -6.1120  -6.1036
    -6.0174  -5.9193  -5.9192  -5.8815  -5.8447  -5.8404  -5.7779  -5.7239
    -5.7033  -5.6825  -5.5289  -5.4992  -5.3892  -5.3465  -5.2361  -5.1363
    -4.9506  -4.5320  -3.9619  -3.9600  -3.9524  -3.9440  -3.8347  -3.8347
    -3.8155  -3.8018  -3.7701  -3.7701  -3.7238  -3.7189  -3.7076  -3.7021
    -3.6938  -3.6787  -3.6162  -3.5772  -3.5379  -3.5378  -3.5356  -3.5334
    -3.5205  -3.5202  -3.5009  -3.4941  -3.4838  -3.4696  -3.4464  -3.4418
    -3.4330  -3.4220  -3.4174  -3.4139  -3.4095  -3.4047  -3.4039  -3.3667
    -3.3591  -3.3545  -3.3086  -3.3053  -3.2985  -3.2882  -3.2877  -3.2792
    -3.2590  -3.2578  -3.2542  -3.2483  -3.2212  -3.2124  -3.2122  -3.2111
    -3.2102  -3.2095  -3.1854  -3.1804  -3.1754  -3.1669  -3.1525  -3.1503
    -3.1487  -3.1421  -3.1344  -3.1330  -3.1277  -3.1014  -3.0705  -3.0617
    -3.0508  -3.0402  -3.0250  -3.0087  -3.0063  -2.9743  -2.9709  -2.9653
    -2.9634  -2.9483  -2.9477  -2.9474  -2.9470  -2.9195  -2.9085  -2.9023
    -2.8984  -2.8939  -2.8858  -2.8752  -2.8695  -2.8552  -2.8509  -2.8498
    -2.8424  -2.8336  -2.8260  -2.8144  -2.8116  -2.7979  -2.7973  -2.7740
    -2.7640  -2.7428  -2.7389  -2.7376  -2.7316  -2.6892  -2.6765  -2.6698
    -2.6477  -2.6421  -2.5930  -2.5858  -2.5853  -2.5741  -2.5633  -2.5520
    -2.5068  -2.4990  -2.4520  -2.4462  -2.4336  -2.4261  -2.4091  -2.3863
    -2.2971  -2.2802  -2.2586

     the Fermi energy is    -4.7363 ev

!    total energy              =  -26031.73363557 Ry
     total all-electron energy =   -512284.303263 Ry
     estimated scf accuracy    <       0.00000068 Ry
     smearing contrib. (-TS)   =      -0.00103370 Ry
     internal energy E=F+TS    =  -26031.73260187 Ry

     The total energy is F=E-TS. E is the sum of the following terms:
     one-electron contribution =  494360.40079343 Ry
     hartree contribution      = -247319.09265598 Ry
     xc contribution           =   -1534.48524440 Ry
     ewald contribution        = -255345.83323637 Ry
     DFT-D3 Dispersion         =      -4.00692461 Ry
     one-center paw contrib.   =  -16188.71533395 Ry

     convergence has been achieved in  21 iterations

     negative rho (up, down):  8.936E-04 0.000E+00

     Forces acting on atoms (cartesian axes, Ry/au):

     atom    1 type  1   force =     0.00228877   -0.00241891    0.00081226
     atom    2 type  1   force =     0.00000852    0.00001054    0.00189209
     atom    3 type  1   force =     0.00000395    0.00001389   -0.00001128
     atom    4 type  2   force =     0.00000067   -0.00000060   -0.00325071
     atom    5 type  2   force =     0.00000614    0.00001277    0.00003860
     atom    6 type  2   force =    -0.00002125   -0.00000721   -0.00011071
     atom    7 type  2   force =     0.00000408   -0.00000397    0.00145323
     atom    8 type  2   force =     0.00001950    0.00002587   -0.00004438
     atom    9 type  2   force =    -0.00071926    0.00006785    0.00003380
     atom   10 type  1   force =    -0.00238166    0.00026787    0.00102229
     atom   11 type  1   force =     0.00001350    0.00001731    0.00188989
     atom   12 type  1   force =    -0.00000813   -0.00000451    0.00000276
     atom   13 type  2   force =    -0.00000259    0.00000579   -0.00325726
     atom   14 type  2   force =    -0.00001685   -0.00000753    0.00005396
     atom   15 type  2   force =     0.00013545    0.00017925   -0.00023415
     atom   16 type  2   force =    -0.00000251    0.00000352    0.00147465
     atom   17 type  2   force =    -0.00000740   -0.00000274   -0.00006058
     atom   18 type  2   force =     0.00018307   -0.00002866    0.00004771
     atom   19 type  1   force =    -0.00055292    0.00032407    0.00119957
     atom   20 type  1   force =     0.00002170   -0.00000077    0.00189036
     atom   21 type  1   force =     0.00000588    0.00001859   -0.00003735
     atom   22 type  2   force =    -0.00000193    0.00000249   -0.00325701
     atom   23 type  2   force =     0.00001021    0.00000387    0.00003528
     atom   24 type  2   force =    -0.00001195    0.00026684   -0.00013676
     atom   25 type  2   force =    -0.00000247    0.00000465    0.00146050
     atom   26 type  2   force =     0.00001339    0.00002496   -0.00006834
     atom   27 type  2   force =    -0.00041131   -0.00000489   -0.00044278
     atom   28 type  1   force =    -0.00042065   -0.00021385   -0.00008849
     atom   29 type  1   force =    -0.00000487    0.00001078    0.00189378
     atom   30 type  1   force =     0.00002993   -0.00000706    0.00000499
     atom   31 type  2   force =    -0.00000506    0.00000083   -0.00325093
     atom   32 type  2   force =    -0.00000208    0.00000465   -0.00000549
     atom   33 type  2   force =     0.00011768   -0.00006761   -0.00010265
     atom   34 type  2   force =    -0.00001194   -0.00000081    0.00146000
     atom   35 type  2   force =     0.00000092   -0.00000041   -0.00010653
     atom   36 type  2   force =     0.00033383   -0.00019430    0.00004839
     atom   37 type  1   force =    -0.00177934    0.00065042   -0.00239630
     atom   38 type  1   force =    -0.00001999    0.00001314    0.00188787
     atom   39 type  1   force =     0.00003016    0.00001077   -0.00004177
     atom   40 type  2   force =    -0.00000297    0.00000611   -0.00324568
     atom   41 type  2   force =    -0.00000669    0.00000892    0.00004486
     atom   42 type  2   force =    -0.00004533    0.00071365   -0.00032764
     atom   43 type  2   force =    -0.00000304    0.00001344    0.00145362
     atom   44 type  2   force =    -0.00002338    0.00002217   -0.00006190
     atom   45 type  2   force =    -0.00007465    0.00027904    0.00068788
     atom   46 type  1   force =     0.00297172   -0.00170606   -0.00436505
     atom   47 type  1   force =    -0.00001160    0.00000611    0.00188844
     atom   48 type  1   force =     0.00001305   -0.00000320   -0.00000646
     atom   49 type  2   force =     0.00000269    0.00000795   -0.00324593
     atom   50 type  2   force =    -0.00000125    0.00003027    0.00005045
     atom   51 type  2   force =    -0.00038132    0.00020760   -0.00033052
     atom   52 type  2   force =     0.00000365    0.00001462    0.00144878
     atom   53 type  2   force =    -0.00001077    0.00000051   -0.00009782
     atom   54 type  2   force =     0.00456590    0.00274884    0.00011645
     atom   55 type  1   force =    -0.00142715    0.00192943    0.00102090
     atom   56 type  1   force =    -0.00000526    0.00000065    0.00188026
     atom   57 type  1   force =     0.00000003    0.00001548   -0.00004756
     atom   58 type  2   force =     0.00000211    0.00000262   -0.00324599
     atom   59 type  2   force =     0.00002557   -0.00001193    0.00005183
     atom   60 type  2   force =     0.00053264   -0.00030103    0.00005738
     atom   61 type  2   force =     0.00001207   -0.00000092    0.00145291
     atom   62 type  2   force =    -0.00000640    0.00000710   -0.00010013
     atom   63 type  2   force =     0.00539357   -0.00311293    0.00451871
     atom   64 type  1   force =     0.00066781   -0.00027072    0.00070834
     atom   65 type  1   force =     0.00000919   -0.00001721    0.00189133
     atom   66 type  1   force =    -0.00000660    0.00000037   -0.00003572
     atom   67 type  2   force =     0.00000294    0.00000235   -0.00324900
     atom   68 type  2   force =     0.00000363   -0.00000549    0.00004318
     atom   69 type  2   force =    -0.00023310   -0.00012276   -0.00013730
     atom   70 type  2   force =     0.00000878   -0.00000109    0.00146139
     atom   71 type  2   force =    -0.00001033   -0.00002224   -0.00006990
     atom   72 type  2   force =    -0.00019883    0.00035714   -0.00044143
     atom   73 type  1   force =    -0.00024630    0.00013939    0.00012100
     atom   74 type  1   force =    -0.00000802   -0.00001468    0.00188962
     atom   75 type  1   force =    -0.00000892    0.00000454    0.00002798
     atom   76 type  2   force =    -0.00000216   -0.00000003   -0.00325071
     atom   77 type  2   force =     0.00003873    0.00002288    0.00006345
     atom   78 type  2   force =     0.00021089    0.00009357   -0.00037883
     atom   79 type  2   force =    -0.00000235    0.00000046    0.00145505
     atom   80 type  2   force =    -0.00004231   -0.00001563   -0.00002421
     atom   81 type  2   force =     0.00024351    0.00018707    0.00060126
     atom   82 type  1   force =    -0.00145751    0.00121077   -0.00239508
     atom   83 type  1   force =    -0.00003326    0.00000950    0.00189353
     atom   84 type  1   force =    -0.00000044   -0.00001365    0.00006200
     atom   85 type  2   force =    -0.00000545    0.00000499   -0.00325033
     atom   86 type  2   force =     0.00001251   -0.00000765    0.00005309
     atom   87 type  2   force =    -0.00114337    0.00066163   -0.00047531
     atom   88 type  2   force =    -0.00000326    0.00001411    0.00145438
     atom   89 type  2   force =     0.00000965   -0.00000641   -0.00005912
     atom   90 type  2   force =     0.00289611   -0.00166840    0.00101377
     atom   91 type  1   force =     0.00323134   -0.00077981    0.00081296
     atom   92 type  1   force =    -0.00002324    0.00000151    0.00189260
     atom   93 type  1   force =    -0.00000741   -0.00000437   -0.00000420
     atom   94 type  2   force =    -0.00000002    0.00000329   -0.00323813
     atom   95 type  2   force =    -0.00003047   -0.00001183    0.00004528
     atom   96 type  2   force =    -0.00037189    0.00022223   -0.00032578
     atom   97 type  2   force =     0.00000036    0.00000167    0.00144758
     atom   98 type  2   force =    -0.00001068    0.00001156   -0.00009517
     atom   99 type  2   force =    -0.00009574   -0.00531328    0.00010530
     atom  100 type  1   force =    -0.00029142   -0.00003441    0.00058834
     atom  101 type  1   force =    -0.00001186   -0.00002313    0.00189090
     atom  102 type  1   force =    -0.00001141   -0.00000188   -0.00000637
     atom  103 type  2   force =    -0.00000000   -0.00000130   -0.00323988
     atom  104 type  2   force =    -0.00000311    0.00001924    0.00005741
     atom  105 type  2   force =    -0.00008940   -0.00020808   -0.00022431
     atom  106 type  2   force =     0.00000641   -0.00000447    0.00145327
     atom  107 type  2   force =    -0.00000096    0.00001137   -0.00006203
     atom  108 type  2   force =     0.00012031   -0.00014553    0.00005038
     atom  109 type  1   force =    -0.00011616    0.00026290    0.00058341
     atom  110 type  1   force =    -0.00000021   -0.00000043    0.00188509
     atom  111 type  1   force =    -0.00000829    0.00000098    0.00010992
     atom  112 type  2   force =    -0.00000638   -0.00000223   -0.00324972
     atom  113 type  2   force =    -0.00004450    0.00002306    0.00005954
     atom  114 type  2   force =     0.00002334   -0.00001794   -0.00037768
     atom  115 type  2   force =    -0.00000637   -0.00000256    0.00147063
     atom  116 type  2   force =     0.00003286   -0.00002082   -0.00000906
     atom  117 type  2   force =    -0.00018477    0.00010415   -0.00010119
     atom  118 type  1   force =     0.00056174   -0.00043467    0.00071101
     atom  119 type  1   force =     0.00000958    0.00000590    0.00188926
     atom  120 type  1   force =    -0.00001167   -0.00001404    0.00002932
     atom  121 type  2   force =    -0.00000473    0.00000283   -0.00325713
     atom  122 type  2   force =    -0.00000455   -0.00004783    0.00005887
     atom  123 type  2   force =     0.00002440   -0.00023120   -0.00037821
     atom  124 type  2   force =    -0.00000858    0.00000268    0.00147581
     atom  125 type  2   force =    -0.00000899    0.00004325   -0.00002948
     atom  126 type  2   force =    -0.00004181   -0.00030148    0.00059450
     atom  127 type  1   force =    -0.00002410    0.00047813   -0.00009067
     atom  128 type  1   force =    -0.00001494    0.00000185    0.00188824
     atom  129 type  1   force =     0.00000273   -0.00002465   -0.00004050
     atom  130 type  2   force =    -0.00001121    0.00000311   -0.00325153
     atom  131 type  2   force =    -0.00001080    0.00000017    0.00004048
     atom  132 type  2   force =    -0.00064804   -0.00031454   -0.00032286
     atom  133 type  2   force =    -0.00001907   -0.00000251    0.00146101
     atom  134 type  2   force =    -0.00003106    0.00001285   -0.00006028
     atom  135 type  2   force =    -0.00027833   -0.00007821    0.00068479
     atom  136 type  1   force =    -0.00020390    0.00011856    0.00009391
     atom  137 type  1   force =    -0.00001070   -0.00000425    0.00189191
     atom  138 type  1   force =    -0.00001750   -0.00000705   -0.00001123
     atom  139 type  2   force =    -0.00000763   -0.00000532   -0.00324587
     atom  140 type  2   force =    -0.00001034   -0.00000744    0.00004408
     atom  141 type  2   force =    -0.00000778    0.00002042   -0.00010143
     atom  142 type  2   force =    -0.00001219   -0.00000997    0.00145133
     atom  143 type  2   force =    -0.00001719   -0.00002755   -0.00004486
     atom  144 type  2   force =    -0.00042424    0.00058635    0.00002613
     atom  145 type  3   force =     0.02208163   -0.01274056   -0.01719272
     atom  146 type  4   force =    -0.03201896    0.01848709    0.01444218

     Total force =     0.052444     Total SCF correction =     0.003553

     BFGS Geometry Optimization
     Energy error            =      0.0E+00 Ry
     Gradient error          =      3.2E-02 Ry/Bohr

     number of scf cycles    =   1
     number of bfgs steps    =   0

     energy             new  =  -26031.7336355745 Ry

     new trust radius        =       0.0396933614 bohr
[...]
     atom   70 type  2   force =     0.00001597   -0.00000925    0.00151446
     atom   71 type  2   force =    -0.00001136    0.00001196   -0.00000380
     atom   72 type  2   force =    -0.00030593    0.00016650    0.00033945
     atom   73 type  1   force =     0.00002818   -0.00001667   -0.00005557
     atom   74 type  1   force =     0.00000285   -0.00000265    0.00190558
     atom   75 type  1   force =     0.00002476   -0.00001619    0.00001374
     atom   76 type  2   force =     0.00000126   -0.00000101   -0.00328020
     atom   77 type  2   force =     0.00007145   -0.00001362    0.00004872
     atom   78 type  2   force =    -0.00011148   -0.00013481    0.00001025
     atom   79 type  2   force =     0.00000866   -0.00000443    0.00150490
     atom   80 type  2   force =     0.00002448   -0.00002291   -0.00000793
     atom   81 type  2   force =     0.00010087    0.00008231   -0.00011738
     atom   82 type  1   force =     0.00043982   -0.00022232   -0.00046276
     atom   83 type  1   force =     0.00000267   -0.00000183    0.00189965
     atom   84 type  1   force =     0.00004182   -0.00002333    0.00003687
     atom   85 type  2   force =     0.00000158   -0.00000108   -0.00327975
     atom   86 type  2   force =     0.00006316   -0.00003666   -0.00000611
     atom   87 type  2   force =     0.00087780   -0.00050758   -0.00094035
     atom   88 type  2   force =     0.00000828    0.00000210    0.00150803
     atom   89 type  2   force =     0.00005213   -0.00003068   -0.00003142
     atom   90 type  2   force =     0.00066428   -0.00038420   -0.00037691
     atom   91 type  1   force =    -0.00026618    0.00026208   -0.00015307
     atom   92 type  1   force =     0.00000399   -0.00000407    0.00189697
     atom   93 type  1   force =     0.00004314   -0.00001978    0.00004102
     atom   94 type  2   force =     0.00000125   -0.00000069   -0.00328050
     atom   95 type  2   force =     0.00001259   -0.00002761    0.00006816
     atom   96 type  2   force =    -0.00009838    0.00018501    0.00015946
     atom   97 type  2   force =     0.00001786   -0.00001035    0.00151315
     atom   98 type  2   force =     0.00002568   -0.00004540    0.00004129
     atom   99 type  2   force =    -0.00047456    0.00039356   -0.00022477
     atom  100 type  1   force =    -0.00007425   -0.00009077    0.00000399
     atom  101 type  1   force =     0.00000473   -0.00000372    0.00190177
     atom  102 type  1   force =     0.00002396   -0.00001507    0.00003308
     atom  103 type  2   force =     0.00000121   -0.00000050   -0.00328004
     atom  104 type  2   force =     0.00004506   -0.00002139    0.00006798
     atom  105 type  2   force =    -0.00005054   -0.00030541   -0.00008111
     atom  106 type  2   force =     0.00002314   -0.00001526    0.00151349
     atom  107 type  2   force =     0.00000667   -0.00001302    0.00004416
     atom  108 type  2   force =    -0.00017559    0.00007156   -0.00001222
     atom  109 type  1   force =     0.00004042    0.00010939    0.00000261
     atom  110 type  1   force =     0.00000482   -0.00000310    0.00190404
     atom  111 type  1   force =     0.00005935   -0.00003382    0.00004430
     atom  112 type  2   force =     0.00000131   -0.00000086   -0.00328003
     atom  113 type  2   force =     0.00000693   -0.00000434    0.00003784
     atom  114 type  2   force =     0.00020515   -0.00011855    0.00021074
     atom  115 type  2   force =     0.00001413   -0.00000619    0.00153160
     atom  116 type  2   force =     0.00002983   -0.00001747    0.00009568
     atom  117 type  2   force =     0.00011235   -0.00006546   -0.00021448
     atom  118 type  1   force =     0.00002042    0.00032858   -0.00006315
     atom  119 type  1   force =     0.00000342   -0.00000156    0.00190557
     atom  120 type  1   force =     0.00002658   -0.00001158    0.00001382
     atom  121 type  2   force =     0.00000162   -0.00000091   -0.00327965
     atom  122 type  2   force =     0.00004698   -0.00005638    0.00004737
     atom  123 type  2   force =     0.00006172    0.00016370    0.00001059
     atom  124 type  2   force =     0.00000736   -0.00000424    0.00152133
     atom  125 type  2   force =     0.00003086   -0.00001148   -0.00000540
     atom  126 type  2   force =    -0.00002031   -0.00012826   -0.00011782
     atom  127 type  1   force =     0.00001724    0.00022162    0.00003358
     atom  128 type  1   force =     0.00000288   -0.00000371    0.00190146
     atom  129 type  1   force =     0.00000882   -0.00003462    0.00004023
     atom  130 type  2   force =     0.00000174   -0.00000079   -0.00327974
     atom  131 type  2   force =     0.00002619   -0.00002570    0.00003100
     atom  132 type  2   force =     0.00011008   -0.00026079    0.00010179
     atom  133 type  2   force =     0.00000230   -0.00000828    0.00150801
     atom  134 type  2   force =     0.00002272    0.00000689    0.00005523
     atom  135 type  2   force =     0.00020188   -0.00023900   -0.00032851
     atom  136 type  1   force =    -0.00041516    0.00023990    0.00006118
     atom  137 type  1   force =     0.00000292   -0.00000278    0.00189913
     atom  138 type  1   force =     0.00000805    0.00001296    0.00006746
     atom  139 type  2   force =     0.00000140   -0.00000053   -0.00328025
     atom  140 type  2   force =     0.00004284    0.00002064    0.00005978
     atom  141 type  2   force =    -0.00026103    0.00037761   -0.00028813
     atom  142 type  2   force =     0.00000913   -0.00000931    0.00151144
     atom  143 type  2   force =     0.00001090   -0.00003733    0.00000477
     atom  144 type  2   force =    -0.00009774    0.00015026    0.00025756
     atom  145 type  3   force =    -0.00025458    0.00014786   -0.00077709
     atom  146 type  4   force =     0.00020769   -0.00011982   -0.00039353

     Total force =     0.003424     Total SCF correction =     0.000523
     SCF correction compared to forces is large: reduce conv_thr to get better values
     Energy error            =      2.2E-05 Ry
     Gradient error          =      9.4E-04 Ry/Bohr

     bfgs converged in  36 scf cycles and  33 bfgs steps
     (criteria: energy <  1.0E-04 Ry, force <  1.0E-03 Ry/Bohr)

     End of BFGS Geometry Optimization

     Final energy             =  -26031.7897253377 Ry

     File ./outdir/pwscf.bfgs deleted, as requested
Begin final coordinates

ATOMIC_POSITIONS (angstrom)
Mo               1.5910087565        2.6909695313        6.0885375809
Mo               1.5769197498        0.9104407117       -6.0872367793    0   0   0
Mo               0.0021290606        1.8199074241        0.0014838312
S                0.0000044503        0.0000077495       -7.6506323570    0   0   0
S                1.5784824283        0.9099049923       -1.5648925450
S                0.0190135564        1.8083711150        4.5071219984
S                0.0000053241        0.0000068460       -4.5222282367    0   0   0
S                1.5797847029        0.9085014917        1.5680185086
S                0.0018348760        1.7918448117        7.6470399153
Mo              -0.0050978120        5.4452410080        6.0728840067
Mo               0.0000011799        3.6417399547       -6.0872367793    0   0   0
Mo              -1.5750894006        4.5509717127        0.0005789040
S               -1.5769141197        2.7313069925       -7.6506323570    0   0   0
S                0.0021224234        3.6405275983       -1.5642646899
S               -1.5773064941        4.5381619210        4.5067420991
S               -1.5769132459        2.7313060890       -4.5222282367    0   0   0
S                0.0024721721        3.6412987489        1.5687644208
S               -1.5709687440        4.5345859779        7.6499358979
Mo              -1.5495502873        8.1780907534        6.1110216591
Mo              -1.5769173901        6.3730391977       -6.0872367793    0   0   0
Mo              -3.1515691059        7.2821166928       -0.0013836637
S               -3.1538326896        5.4626062355       -7.6506323570    0   0   0
S               -1.5745434821        6.3711216642       -1.5660751742
S               -3.1278454496        7.2745477773        4.5346988649
S               -3.1538318159        5.4626053320       -4.5222282367    0   0   0
S               -1.5747735743        6.3723637663        1.5665194052
S               -3.1300029547        7.2656214825        7.6675601839
Mo               3.1770234332       -0.0147234867        6.0989944131
Mo              -3.1538359601        9.1043384407       -6.0872367793    0   0   0
Mo              -4.7287074500       10.0135565680       -0.0002689336
S               -4.7307512596        8.1939054785       -7.6506323570    0   0   0
S               -3.1522120963        9.1033667095       -1.5667149110
S               -4.6972810274        9.9954356585        4.5228126108
S               -4.7307503859        8.1939045750       -4.5222282367    0   0   0
S               -3.1509937028        9.1026622509        1.5655819837
S               -4.7147864771       10.0055402546        7.6566453820
Mo               4.7434301499        2.7154116794        6.1252504256
Mo               4.7307503218        0.9104407117       -6.0872367793    0   0   0
Mo               3.1559520263        1.8196067356        0.0006025431
S                3.1538350223        0.0000077495       -7.6506323570    0   0   0
S                4.7325060162        0.9099373613       -1.5657770152
S                3.1864440764        1.8069104146        4.5324553082
S                3.1538358961        0.0000068460       -4.5222282367    0   0   0
S                4.7330578215        0.9079795382        1.5669782599
S                3.1597177883        1.7998479869        7.6735268091
Mo               3.1555501969        5.4615914568        6.1468382630
Mo               3.1538317519        3.6417399547       -6.0872367793    0   0   0
Mo               1.5791092796        4.5511475660        0.0013877630
S                1.5769164523        2.7313069925       -7.6506323570    0   0   0
S                3.1553522028        3.6407275455       -1.5646745477
S                1.6178983252        4.5456906600        4.5595833801
S                1.5769173261        2.7313060890       -4.5222282367    0   0   0
S                3.1562768819        3.6401689707        1.5687489088
S                1.4489776304        4.4473921620        7.7082090339
Mo               1.5893966300        8.2069821698        6.0728828762
Mo               1.5769131819        6.3730391977       -6.0872367793    0   0   0
Mo               0.0022679317        7.2821293871       -0.0003928689
S               -0.0000021176        5.4626062355       -7.6506323570    0   0   0
S                1.5794785551        6.3715264697       -1.5647738462
S                0.0132055917        7.2758316922        4.5239355633
S               -0.0000012439        5.4626053320       -4.5222282367    0   0   0
S                1.5784678081        6.3721089455        1.5690108900
S                0.0685880914        7.2438621548        7.6690965676
Mo               6.3270824334       -0.0042677667        6.0916612753
Mo              -0.0000053881        9.1043384407       -6.0872367793    0   0   0
Mo              -1.5746437063       10.0134388568       -0.0013814187
S               -1.5769206876        8.1939054785       -7.6506323570    0   0   0
S                0.0028161530        9.1031953258       -1.5660723697
S               -1.5562111325        9.9967077019        4.5347000101
S               -1.5769198139        8.1939045750       -4.5222282367    0   0   0
S                0.0016246849        9.1027705494        1.5665194172
S               -1.5495552792       10.0030398598        7.6675596278
Mo               7.8960863182        2.7246525374        6.0964640276
Mo               7.8845808939        0.9104407117       -6.0872367793    0   0   0
Mo               6.3090598089        1.8202343486        0.0004126306
S                6.3076655943        0.0000077495       -7.6506323570    0   0   0
S                7.8859661280        0.9095777306       -1.5651152941
S                6.3097080356        1.8250772136        4.5355444486
S                6.3076664681        0.0000068460       -4.5222282367    0   0   0
S                7.8857325817        0.9099919074        1.5673726903
S                6.3339488517        1.8003107504        7.6747782631
Mo               6.3277557202        5.4595577112        6.1252515086
Mo               6.3076623239        3.6417399547       -6.0872367793    0   0   0
Mo               4.7322253773        4.5512844698        0.0008541612
S                4.7307470244        2.7313069925       -7.6506323570    0   0   0
S                6.3086351111        3.6411441908       -1.5649205343
S                4.7180708028        4.5594801477        4.5954984042
S                4.7307478981        2.7313060890       -4.5222282367    0   0   0
S                6.3083837660        3.6412914621        1.5688106196
S                4.8250345279        4.4977230006        7.7705733690
Mo               4.7727078590        8.2018474548        6.0885377073
Mo               4.7307437539        6.3730391977       -6.0872367793    0   0   0
Mo               3.1557846104        7.2820360863        0.0013880871
S                3.1538284544        5.4626062355       -7.6506323570    0   0   0
S                4.7323531396        6.3721777226       -1.5646756768
S                3.1799225419        7.2511956363        4.5595828197
S                3.1538293281        5.4626053320       -4.5222282367    0   0   0
S                4.7332992631        6.3716550994        1.5687490664
S                3.1805908789        7.4466102573        7.7082091327
Mo               9.4781672047       -0.0044375381        6.0764009999
Mo               3.1538251839        9.1043384407       -6.0872367793    0   0   0
Mo               1.5788317293       10.0137408579        0.0005783493
S                1.5769098844        8.1939054785       -7.6506323570    0   0   0
S                3.1559089939        9.1030612252       -1.5642628245
S                1.5888376547       10.0221010358        4.5067334180
S                1.5769107581        8.1939045750       -4.5222282367    0   0   0
S                3.1554172359        9.1023713258        1.5687659637
S                1.5951052039       10.0183993786        7.6499315634
Mo              -1.5647352929        2.7190764070        6.0764068743
Mo              11.0384114659        0.9104407117       -6.0872367793    0   0   0
Mo               9.4628464253        1.8200614313        0.0002162339
S                9.4614961663        0.0000077495       -7.6506323570    0   0   0
S               11.0404558627        0.9092291449       -1.5641794560
S                9.4650065990        1.8188387019        4.5157175912
S                9.4614970401        0.0000068460       -4.5222282367    0   0   0
S               11.0396854447        0.9096742699        1.5678073466
S                9.4811770254        1.8094995154        7.6513215357
Mo              -3.1404326043        5.4479116201        6.0916651750
Mo               9.4614928959        3.6417399547       -6.0872367793    0   0   0
Mo               7.8857988216        4.5512347717        0.0004108923
S                7.8845775964        2.7313069925       -7.6506323570    0   0   0
S                9.4629059250        3.6409251884       -1.5651141129
S                7.8819453118        4.5482857846        4.5355457321
S                7.8845784701        2.7313060890       -4.5222282367    0   0   0
S                9.4624310243        3.6409219389        1.5673681989
S                7.9155126165        4.5396735110        7.6747808418
Mo              -4.7064083424        8.1811715556        6.0989921820
Mo               7.8845743259        6.3730391977       -6.0872367793    0   0   0
Mo               6.3097851267        7.2822225670        0.0006022732
S                6.3076590264        5.4626062355       -7.6506323570    0   0   0
S                7.8858577887        6.3717203041       -1.5657802718
S                6.3360479169        7.2621944991        4.5324514719
S                6.3076599001        5.4626053320       -4.5222282367    0   0   0
S                7.8878304753        6.3722204186        1.5669787746
S                6.3288001158        7.2888752693        7.6735278761
Mo               0.0205399312       -0.0118620975        6.0722109239
Mo               6.3076557559        9.1043384407       -6.0872367793    0   0   0
Mo               4.7326107595       10.0133668702        0.0014845751
S                4.7307404564        8.1939054785       -7.6506323570    0   0   0
S                6.3088712410        9.1032017082       -1.5648959525
S                4.7510599224       10.0045414892        4.5071159877
S                4.7307413301        8.1939045750       -4.5222282367    0   0   0
S                6.3107382775        9.1027741365        1.5680220831
S                4.7567803377       10.0276827548        7.6470380461
Pt               3.0500523450        5.5224969741        8.9157699413
Pd               0.7652034131        6.8416864060        9.7638268363
End final coordinates



     Writing all to output data dir ./outdir/pwscf.save/ :
     XML data file, charge density, pseudopotentials, collected wavefunctions
 
     init_run     :     95.01s CPU     97.26s WALL (       1 calls)
     electrons    : 174848.82s CPU 177553.37s WALL (      36 calls)
     update_pot   :     45.64s CPU     47.10s WALL (      35 calls)
     forces       :   2568.51s CPU   2625.67s WALL (      36 calls)
     force_dftd3  :     13.63s CPU     14.21s WALL (      36 calls)

     Called by init_run:
     wfcinit      :     76.95s CPU     78.06s WALL (       1 calls)
     potinit      :      1.09s CPU      1.19s WALL (       1 calls)
     hinit0       :      9.26s CPU      9.33s WALL (       1 calls)

     Called by electrons:
     c_bands      : 152093.54s CPU 153740.25s WALL (     530 calls)
     sum_band     :  19430.50s CPU  19969.75s WALL (     530 calls)
     v_of_rho     :    157.60s CPU    176.15s WALL (     553 calls)
     newd         :   2789.74s CPU   3295.89s WALL (     553 calls)
     PAW_pot      :    442.99s CPU    446.58s WALL (     588 calls)
     mix_rho      :     44.30s CPU     49.67s WALL (     530 calls)
     energy_dftd3 :      7.70s CPU      7.74s WALL (      36 calls)

     Called by c_bands:
     init_us_2    :    730.89s CPU    734.16s WALL (    4528 calls)
     init_us_2:cp :    730.86s CPU    734.14s WALL (    4528 calls)
     cegterg      : 149146.82s CPU 150780.56s WALL (    2177 calls)

     Called by *egterg:
     cdiaghg      :   7934.03s CPU   8302.81s WALL (   26982 calls)
     h_psi        :  76781.10s CPU  77296.98s WALL (   27222 calls)
     s_psi        :  15755.27s CPU  15821.66s WALL (   27222 calls)
     g_psi        :    170.04s CPU    170.98s WALL (   25041 calls)

     Called by h_psi:
     h_psi:calbec :  16037.20s CPU  16101.30s WALL (   27222 calls)
     vloc_psi     :  44569.57s CPU  44824.61s WALL (   27222 calls)
     add_vuspsi   :  15800.58s CPU  15871.68s WALL (   27222 calls)

     General routines
     calbec       :  22660.40s CPU  22750.55s WALL (   30058 calls)
     fft          :    132.25s CPU    149.65s WALL (    7561 calls)
     ffts         :      6.95s CPU      7.13s WALL (    1083 calls)
     fftw         :  33095.28s CPU  33280.03s WALL (11701904 calls)
     interpolate  :     12.96s CPU     14.21s WALL (     553 calls)
 
     Parallel routines
 
     PWSCF        :   2d 1h34m CPU   2d 2h21m WALL

 
   This run was terminated on:  18:27:37  10Mar2024            

=------------------------------------------------------------------------------=
   JOB DONE.
=------------------------------------------------------------------------------=
