
     Program PWSCF v.7.2 starts on  4Oct2023 at  5:41:20 

     This program is part of the open-source Quantum ESPRESSO suite
     for quantum simulation of materials; please cite
         "P. Giannozzi et al., J. Phys.:Condens. Matter 21 395502 (2009);
         "P. Giannozzi et al., J. Phys.:Condens. Matter 29 465901 (2017);
         "P. Giannozzi et al., J. Chem. Phys. 152 154105 (2020);
          URL http://www.quantum-espresso.org", 
     in publications or presentations arising from this work. More details at
     http://www.quantum-espresso.org/quote

     Parallel version (MPI), running on    36 processors

     MPI processes distributed on     1 nodes
     770098 MiB available memory on the printing compute node when the environment starts
 
     Waiting for input...
     Reading input from standard input
Warning: card &CELL ignored
Warning: card / ignored

     Current dimensions of program PWSCF are:
     Max number of different atomic species (ntypx) = 10
     Max number of k-points (npk) =  40000
     Max angular momentum in pseudopotentials (lmaxx) =  4
     file Mo.pbe-spn-kjpaw_psl.1.0.0.UPF: wavefunction(s)  4S 4D renormalized
     file S.pbe-n-kjpaw_psl.1.0.0.UPF: wavefunction(s)  3S 3P renormalized
     file Pd.pbe-spn-kjpaw_psl.1.0.0.UPF: wavefunction(s)  4S 5S 4D renormalized
 
     R & G space division:  proc/nbgrp/npool/nimage =      36
     Subspace diagonalization in iterative solution of the eigenvalue problem:
     one sub-group per band group will be used
     custom distributed-memory algorithm (size of sub-group:  6*  6 procs)

 
     Parallelization info
     --------------------
     sticks:   dense  smooth     PW     G-vecs:    dense   smooth      PW
     Min         586     335     89               165416    71459    9765
     Max         587     337     90               165425    71461    9778
     Sum       21109   12085   3205              5955087  2572543  351657
 
     Using Slab Decomposition
 


     bravais-lattice index     =            0
     lattice parameter (alat)  =      23.8395  a.u.
     unit-cell volume          =   28182.8498 (a.u.)^3
     number of atoms/cell      =          146
     number of atomic types    =            3
     number of electrons       =      1284.00
     number of Kohn-Sham states=          770
     kinetic-energy cutoff     =      77.0000  Ry
     charge density cutoff     =     539.0000  Ry
     scf convergence threshold =      1.0E-06
     mixing beta               =       0.2000
     number of iterations used =            8  plain     mixing
     energy convergence thresh.=      1.0E-04
     force convergence thresh. =      1.0E-03
     Exchange-correlation= SLA  PW   PBX  PBC
                           (   1   4   3   4   0   0   0)
     nstep                     =         1000


     Effective Screening Medium Method
     =================================
     Boundary Conditions: Vacuum-Slab-Vacuum
     total charge in unit cell        =   0.0000
     grid points for fit at edges     =        4 
 

     celldm(1)=  23.839504  celldm(2)=   0.000000  celldm(3)=   0.000000
     celldm(4)=   0.000000  celldm(5)=   0.000000  celldm(6)=   0.000000

     crystal axes: (cart. coord. in units of alat)
               a(1) = (   1.000000   0.000000   0.000000 )  
               a(2) = (  -0.500001   0.866026   0.000000 )  
               a(3) = (   0.000000   0.000000   2.401941 )  

     reciprocal axes: (cart. coord. in units 2 pi/alat)
               b(1) = (  1.000000  0.577351  0.000000 )  
               b(2) = (  0.000000  1.154700  0.000000 )  
               b(3) = (  0.000000  0.000000  0.416330 )  


     PseudoPot. # 1 for Mo read from file:
     ./pseudo/Mo.pbe-spn-kjpaw_psl.1.0.0.UPF
     MD5 check sum: 317bf72632116215fd98f72de1686f13
     Pseudo is Projector augmented-wave + core cor, Zval = 14.0
     Generated using 'atomic' code by A. Dal Corso  v.7.2
     Shape of augmentation charge: PSQ
     Using radial grid of 1229 points,  6 beta functions with: 
                l(1) =   0
                l(2) =   0
                l(3) =   1
                l(4) =   1
                l(5) =   2
                l(6) =   2
     Q(r) pseudized with 0 coefficients 


     PseudoPot. # 2 for S  read from file:
     ./pseudo/S.pbe-n-kjpaw_psl.1.0.0.UPF
     MD5 check sum: 8b7b5302570d38d5e87fed6a1065abda
     Pseudo is Projector augmented-wave + core cor, Zval =  6.0
     Generated using 'atomic' code by A. Dal Corso  v.7.2
     Shape of augmentation charge: PSQ
     Using radial grid of 1151 points,  6 beta functions with: 
                l(1) =   0
                l(2) =   0
                l(3) =   1
                l(4) =   1
                l(5) =   2
                l(6) =   2
     Q(r) pseudized with 0 coefficients 


     PseudoPot. # 3 for Pd read from file:
     ./pseudo/Pd.pbe-spn-kjpaw_psl.1.0.0.UPF
     MD5 check sum: a60571a671f2502b8a6a4569d20a6edb
     Pseudo is Projector augmented-wave + core cor, Zval = 18.0
     Generated using 'atomic' code by A. Dal Corso  v.7.2
     Shape of augmentation charge: PSQ
     Using radial grid of 1235 points,  6 beta functions with: 
                l(1) =   0
                l(2) =   0
                l(3) =   1
                l(4) =   1
                l(5) =   2
                l(6) =   2
     Q(r) pseudized with 0 coefficients 


     atomic species   valence    mass     pseudopotential
        Mo            14.00    95.95000     Mo( 1.00)
        S              6.00    32.06000     S ( 1.00)
        Pd            18.00   106.42000     Pd( 1.00)

     No symmetry found



   Cartesian axes

     site n.     atom                  positions (alat units)
         1           Mo  tau(   1) = (   0.1244805   0.2154429   0.4826124  )
         2           Mo  tau(   2) = (   0.1250004   0.0721694  -0.4825273  )
         3           Mo  tau(   3) = (   0.0000154   0.1443583  -0.0000534  )
         4           S   tau(   4) = (   0.0000004   0.0000006  -0.6064556  )
         5           S   tau(   5) = (   0.1249822   0.0722030  -0.1241916  )
         6           S   tau(   6) = (   0.0001873   0.1444894   0.3573292  )
         7           S   tau(   7) = (   0.0000004   0.0000005  -0.3584711  )
         8           S   tau(   8) = (   0.1250220   0.0721432   0.1241096  )
         9           S   tau(   9) = (  -0.0009222   0.1433430   0.6062350  )
        10           Mo  tau(  10) = (  -0.0011812   0.4330952   0.4826123  )
        11           Mo  tau(  11) = (   0.0000001   0.2886759  -0.4825273  )
        12           Mo  tau(  12) = (  -0.1249761   0.3608493  -0.0000533  )
        13           S   tau(  13) = (  -0.1249999   0.2165071  -0.6064556  )
        14           S   tau(  14) = (   0.0000232   0.2886904  -0.1241345  )
        15           S   tau(  15) = (  -0.1247753   0.3609305   0.3573291  )
        16           S   tau(  16) = (  -0.1249998   0.2165070  -0.3584711  )
        17           S   tau(  17) = (   0.0000901   0.2887289   0.1242236  )
        18           S   tau(  18) = (  -0.1263226   0.3605428   0.6062351  )
        19           Mo  tau(  19) = (  -0.1251400   0.6495983   0.4819363  )
        20           Mo  tau(  20) = (  -0.1250002   0.5051824  -0.4825273  )
        21           Mo  tau(  21) = (  -0.2500026   0.5773383  -0.0001491  )
        22           S   tau(  22) = (  -0.2500002   0.4330136  -0.6064556  )
        23           S   tau(  23) = (  -0.1249812   0.5051509  -0.1241919  )
        24           S   tau(  24) = (  -0.2500015   0.5775831   0.3575295  )
        25           S   tau(  25) = (  -0.2500001   0.4330135  -0.3584711  )
        26           S   tau(  26) = (  -0.1250129   0.5052153   0.1241101  )
        27           S   tau(  27) = (  -0.2500018   0.5771934   0.6060379  )
        28           Mo  tau(  28) = (   0.2499987  -0.0001601   0.4819365  )
        29           Mo  tau(  29) = (  -0.2500004   0.7216889  -0.4825273  )
        30           Mo  tau(  30) = (  -0.3750135   0.7938631  -0.0001491  )
        31           S   tau(  31) = (  -0.3750004   0.6495201  -0.6064556  )
        32           S   tau(  32) = (  -0.2500026   0.7216883  -0.1242347  )
        33           S   tau(  33) = (  -0.3747997   0.7937400   0.3575295  )
        34           S   tau(  34) = (  -0.3750004   0.6495200  -0.3584711  )
        35           S   tau(  35) = (  -0.2500029   0.7216883   0.1240299  )
        36           S   tau(  36) = (  -0.3751376   0.7939346   0.6060379  )
        37           Mo  tau(  37) = (   0.3755166   0.2154425   0.4826119  )
        38           Mo  tau(  38) = (   0.3750004   0.0721694  -0.4825273  )
        39           Mo  tau(  39) = (   0.2499990   0.1443474  -0.0000968  )
        40           S   tau(  40) = (   0.2500004   0.0000006  -0.6064556  )
        41           S   tau(  41) = (   0.3750152   0.0722028  -0.1241921  )
        42           S   tau(  42) = (   0.2499983   0.1443201   0.3580593  )
        43           S   tau(  43) = (   0.2500004   0.0000005  -0.3584711  )
        44           S   tau(  44) = (   0.3749754   0.0721432   0.1241106  )
        45           S   tau(  45) = (   0.2499987   0.1437775   0.6065499  )
        46           Mo  tau(  46) = (   0.2499984   0.4330123   0.4872880  )
        47           Mo  tau(  47) = (   0.2500001   0.2886759  -0.4825273  )
        48           Mo  tau(  48) = (   0.1250277   0.3608616  -0.0000572  )
        49           S   tau(  49) = (   0.1250001   0.2165071  -0.6064556  )
        50           S   tau(  50) = (   0.2499987   0.2886898  -0.1241693  )
        51           S   tau(  51) = (   0.1266397   0.3617911   0.3615924  )
        52           S   tau(  52) = (   0.1250002   0.2165070  -0.3584711  )
        53           S   tau(  53) = (   0.2499988   0.2886671   0.1241958  )
        54           S   tau(  54) = (   0.1173054   0.3564020   0.6108885  )
        55           Mo  tau(  55) = (   0.1243363   0.6504991   0.4826116  )
        56           Mo  tau(  56) = (   0.1249998   0.5051824  -0.4825273  )
        57           Mo  tau(  57) = (   0.0000060   0.5773464  -0.0000969  )
        58           S   tau(  58) = (  -0.0000002   0.4330136  -0.6064556  )
        59           S   tau(  59) = (   0.1250101   0.5051751  -0.1241696  )
        60           S   tau(  60) = (  -0.0000165   0.5773581   0.3580590  )
        61           S   tau(  61) = (  -0.0000001   0.4330135  -0.3584711  )
        62           S   tau(  62) = (   0.1249907   0.5051868   0.1241956  )
        63           S   tau(  63) = (  -0.0004863   0.5776299   0.6065497  )
        64           Mo  tau(  64) = (   0.5000682   0.0000393   0.4813064  )
        65           Mo  tau(  65) = (  -0.0000004   0.7216889  -0.4825273  )
        66           Mo  tau(  66) = (  -0.1249919   0.7938635  -0.0001489  )
        67           S   tau(  67) = (  -0.1250004   0.6495201  -0.6064556  )
        68           S   tau(  68) = (   0.0000350   0.7216859  -0.1241920  )
        69           S   tau(  69) = (  -0.1252051   0.7937392   0.3575294  )
        70           S   tau(  70) = (  -0.1250004   0.6495200  -0.3584711  )
        71           S   tau(  71) = (  -0.0000364   0.7216812   0.1241103  )
        72           S   tau(  72) = (  -0.1248667   0.7939344   0.6060378  )
        73           Mo  tau(  73) = (   0.6250985   0.2164481   0.4814760  )
        74           Mo  tau(  74) = (   0.6250004   0.0721694  -0.4825273  )
        75           Mo  tau(  75) = (   0.4999807   0.1443583  -0.0000532  )
        76           S   tau(  76) = (   0.5000004   0.0000006  -0.6064556  )
        77           S   tau(  77) = (   0.6249710   0.0721537  -0.1241599  )
        78           S   tau(  78) = (   0.4998101   0.1444887   0.3573287  )
        79           S   tau(  79) = (   0.5000004   0.0000005  -0.3584711  )
        80           S   tau(  80) = (   0.6250072   0.0721744   0.1241160  )
        81           S   tau(  81) = (   0.5009199   0.1433424   0.6062338  )
        82           Mo  tau(  82) = (   0.5011786   0.4330950   0.4826115  )
        83           Mo  tau(  83) = (   0.5000001   0.2886759  -0.4825273  )
        84           Mo  tau(  84) = (   0.3749686   0.3608615  -0.0000573  )
        85           S   tau(  85) = (   0.3750001   0.2165071  -0.6064556  )
        86           S   tau(  86) = (   0.4999725   0.2886900  -0.1241349  )
        87           S   tau(  87) = (   0.3733572   0.3617909   0.3615920  )
        88           S   tau(  88) = (   0.3750002   0.2165070  -0.3584711  )
        89           S   tau(  89) = (   0.4999057   0.2887288   0.1242238  )
        90           S   tau(  90) = (   0.3826919   0.3564018   0.6108876  )
        91           Mo  tau(  91) = (   0.3756598   0.6504996   0.4826113  )
        92           Mo  tau(  92) = (   0.3749998   0.5051824  -0.4825273  )
        93           Mo  tau(  93) = (   0.2499978   0.5773166  -0.0000576  )
        94           S   tau(  94) = (   0.2499998   0.4330136  -0.6064556  )
        95           S   tau(  95) = (   0.3749857   0.5051746  -0.1241697  )
        96           S   tau(  96) = (   0.2499981   0.5754545   0.3615919  )
        97           S   tau(  97) = (   0.2499999   0.4330135  -0.3584711  )
        98           S   tau(  98) = (   0.3750048   0.5051860   0.1241960  )
        99           S   tau(  99) = (   0.2499983   0.5862331   0.6108872  )
       100           Mo  tau( 100) = (   0.7499988   0.0001148   0.4814756  )
       101           Mo  tau( 101) = (   0.2499996   0.7216889  -0.4825273  )
       102           Mo  tau( 102) = (   0.1250062   0.7938321  -0.0000534  )
       103           S   tau( 103) = (   0.1249996   0.6495201  -0.6064556  )
       104           S   tau( 104) = (   0.2499971   0.7216593  -0.1241350  )
       105           S   tau( 105) = (   0.1250350   0.7936175   0.3573284  )
       106           S   tau( 106) = (   0.1249996   0.6495200  -0.3584711  )
       107           S   tau( 107) = (   0.2499972   0.7215818   0.1242234  )
       108           S   tau( 108) = (   0.1245975   0.7951515   0.6062336  )
       109           Mo  tau( 109) = (  -0.1251006   0.2164484   0.4814769  )
       110           Mo  tau( 110) = (   0.8750004   0.0721694  -0.4825273  )
       111           Mo  tau( 111) = (   0.7499976   0.1443379  -0.0001196  )
       112           S   tau( 112) = (   0.7500004   0.0000006  -0.6064556  )
       113           S   tau( 113) = (   0.8750246   0.0721533  -0.1241599  )
       114           S   tau( 114) = (   0.7499994   0.1443376   0.3572937  )
       115           S   tau( 115) = (   0.7500004   0.0000005  -0.3584711  )
       116           S   tau( 116) = (   0.8749884   0.0721739   0.1241157  )
       117           S   tau( 117) = (   0.7499987   0.1443370   0.6058240  )
       118           Mo  tau( 118) = (  -0.2500010   0.4329316   0.4813070  )
       119           Mo  tau( 119) = (   0.7500001   0.2886759  -0.4825273  )
       120           Mo  tau( 120) = (   0.6249710   0.3608493  -0.0000534  )
       121           S   tau( 121) = (   0.6250001   0.2165071  -0.6064556  )
       122           S   tau( 122) = (   0.7499973   0.2887067  -0.1241600  )
       123           S   tau( 123) = (   0.6247737   0.3609305   0.3573287  )
       124           S   tau( 124) = (   0.6250002   0.2165070  -0.3584711  )
       125           S   tau( 125) = (   0.7499971   0.2886649   0.1241160  )
       126           S   tau( 126) = (   0.6263203   0.3605423   0.6062340  )
       127           Mo  tau( 127) = (  -0.3748636   0.6495986   0.4819361  )
       128           Mo  tau( 128) = (   0.6249998   0.5051824  -0.4825273  )
       129           Mo  tau( 129) = (   0.4999891   0.5773453  -0.0000967  )
       130           S   tau( 130) = (   0.4999998   0.4330136  -0.6064556  )
       131           S   tau( 131) = (   0.6249761   0.5051506  -0.1241920  )
       132           S   tau( 132) = (   0.5000130   0.5773585   0.3580587  )
       133           S   tau( 133) = (   0.4999999   0.4330135  -0.3584711  )
       134           S   tau( 134) = (   0.6250081   0.5052147   0.1241104  )
       135           S   tau( 135) = (   0.5004826   0.5776298   0.6065487  )
       136           Mo  tau( 136) = (  -0.0000706   0.0000401   0.4813070  )
       137           Mo  tau( 137) = (   0.4999996   0.7216889  -0.4825273  )
       138           Mo  tau( 138) = (   0.3749881   0.7938314  -0.0000535  )
       139           S   tau( 139) = (   0.3749996   0.6495201  -0.6064556  )
       140           S   tau( 140) = (   0.4999594   0.7216844  -0.1241918  )
       141           S   tau( 141) = (   0.3749610   0.7936184   0.3573285  )
       142           S   tau( 142) = (   0.3749996   0.6495200  -0.3584711  )
       143           S   tau( 143) = (   0.5000310   0.7216802   0.1241101  )
       144           S   tau( 144) = (   0.3753979   0.7951517   0.6062337  )
       145           Pd  tau( 145) = (   0.2499985   0.4330123   0.7148096  )
       146           Pd  tau( 146) = (  -0.0009512   0.1433178   0.7806380  )

     --------------------------------------------
     DFT-D3 Dispersion Correction (3-body terms):
     --------------------------------------------
       Reference C6 values for interpolation: 

         atom   Coordination number   C6
         S          0.000           268.01
         S          0.995           261.99
         S          1.990           251.62
         Mo         0.000          1691.79
         Mo         1.942          1004.01
         Mo        11.056           674.22
         Pd         0.000          1217.01
         Pd         1.863           573.90
         Pd         5.710           531.75

       Values used:

         atom   Coordination number  R0_AB[au]  C6      C8
         Mo        10.188            3.547    674.22  77634.20
         Mo        10.189            3.547    674.22  77634.20
         Mo        10.201            3.547    674.22  77634.20
         S          3.753            3.128    251.62  12327.25
         S          3.858            3.128    251.62  12327.25
         S          3.848            3.128    251.62  12327.25
         S          3.859            3.128    251.62  12327.25
         S          3.860            3.128    251.62  12327.25
         S          4.786            3.128    251.62  12327.25
         Mo        10.174            3.547    674.22  77634.20
         Mo        10.189            3.547    674.22  77634.20
         Mo        10.201            3.547    674.22  77634.20
         S          3.753            3.128    251.62  12327.25
         S          3.859            3.128    251.62  12327.25
         S          3.848            3.128    251.62  12327.25
         S          3.858            3.128    251.62  12327.25
         S          3.855            3.128    251.62  12327.25
         S          3.811            3.128    251.62  12327.25
         Mo        10.208            3.547    674.22  77634.20
         Mo        10.189            3.547    674.22  77634.20
         Mo        10.200            3.547    674.22  77634.20
         S          3.753            3.128    251.62  12327.25
         S          3.858            3.128    251.62  12327.25
         S          3.862            3.128    251.62  12327.25
         S          3.859            3.128    251.62  12327.25
         S          3.860            3.128    251.62  12327.25
         S          3.759            3.128    251.62  12327.25
         Mo        10.210            3.547    674.22  77634.20
         Mo        10.189            3.547    674.22  77634.20
         Mo        10.200            3.547    674.22  77634.20
         S          3.753            3.128    251.62  12327.25
         S          3.858            3.128    251.62  12327.25
         S          3.862            3.128    251.62  12327.25
         S          3.859            3.128    251.62  12327.25
         S          3.862            3.128    251.62  12327.25
         S          3.772            3.128    251.62  12327.25
         Mo        10.173            3.547    674.22  77634.20
         Mo        10.189            3.547    674.22  77634.20
         Mo        10.202            3.547    674.22  77634.20
         S          3.753            3.128    251.62  12327.25
         S          3.858            3.128    251.62  12327.25
         S          3.857            3.128    251.62  12327.25
         S          3.859            3.128    251.62  12327.25
         S          3.860            3.128    251.62  12327.25
         S          3.763            3.128    251.62  12327.25
         Mo        10.810            3.547    674.22  77634.20
         Mo        10.189            3.547    674.22  77634.20
         Mo        10.202            3.547    674.22  77634.20
         S          3.753            3.128    251.62  12327.25
         S          3.859            3.128    251.62  12327.25
         S          3.866            3.128    251.62  12327.25
         S          3.859            3.128    251.62  12327.25
         S          3.853            3.128    251.62  12327.25
         S          4.663            3.128    251.62  12327.25
         Mo        10.173            3.547    674.22  77634.20
         Mo        10.189            3.547    674.22  77634.20
         Mo        10.202            3.547    674.22  77634.20
         S          3.753            3.128    251.62  12327.25
         S          3.859            3.128    251.62  12327.25
         S          3.857            3.128    251.62  12327.25
         S          3.859            3.128    251.62  12327.25
         S          3.853            3.128    251.62  12327.25
         S          3.751            3.128    251.62  12327.25
         Mo        10.223            3.547    674.22  77634.20
         Mo        10.189            3.547    674.22  77634.20
         Mo        10.200            3.547    674.22  77634.20
         S          3.753            3.128    251.62  12327.25
         S          3.858            3.128    251.62  12327.25
         S          3.862            3.128    251.62  12327.25
         S          3.859            3.128    251.62  12327.25
         S          3.860            3.128    251.62  12327.25
         S          3.759            3.128    251.62  12327.25
         Mo        10.213            3.547    674.22  77634.20
         Mo        10.189            3.547    674.22  77634.20
         Mo        10.201            3.547    674.22  77634.20
         S          3.753            3.128    251.62  12327.25
         S          3.858            3.128    251.62  12327.25
         S          3.848            3.128    251.62  12327.25
         S          3.859            3.128    251.62  12327.25
         S          3.860            3.128    251.62  12327.25
         S          3.798            3.128    251.62  12327.25
         Mo        10.173            3.547    674.22  77634.20
         Mo        10.189            3.547    674.22  77634.20
         Mo        10.202            3.547    674.22  77634.20
         S          3.753            3.128    251.62  12327.25
         S          3.859            3.128    251.62  12327.25
         S          3.866            3.128    251.62  12327.25
         S          3.859            3.128    251.62  12327.25
         S          3.855            3.128    251.62  12327.25
         S          4.646            3.128    251.62  12327.25
         Mo        10.173            3.547    674.22  77634.20
         Mo        10.189            3.547    674.22  77634.20
         Mo        10.202            3.547    674.22  77634.20
         S          3.753            3.128    251.62  12327.25
         S          3.859            3.128    251.62  12327.25
         S          3.866            3.128    251.62  12327.25
         S          3.859            3.128    251.62  12327.25
         S          3.853            3.128    251.62  12327.25
         S          4.646            3.128    251.62  12327.25
         Mo        10.214            3.547    674.22  77634.20
         Mo        10.189            3.547    674.22  77634.20
         Mo        10.201            3.547    674.22  77634.20
         S          3.753            3.128    251.62  12327.25
         S          3.859            3.128    251.62  12327.25
         S          3.848            3.128    251.62  12327.25
         S          3.859            3.128    251.62  12327.25
         S          3.855            3.128    251.62  12327.25
         S          3.798            3.128    251.62  12327.25
         Mo        10.228            3.547    674.22  77634.20
         Mo        10.189            3.547    674.22  77634.20
         Mo        10.199            3.547    674.22  77634.20
         S          3.753            3.128    251.62  12327.25
         S          3.858            3.128    251.62  12327.25
         S          3.855            3.128    251.62  12327.25
         S          3.858            3.128    251.62  12327.25
         S          3.860            3.128    251.62  12327.25
         S          3.790            3.128    251.62  12327.25
         Mo        10.223            3.547    674.22  77634.20
         Mo        10.189            3.547    674.22  77634.20
         Mo        10.201            3.547    674.22  77634.20
         S          3.753            3.128    251.62  12327.25
         S          3.858            3.128    251.62  12327.25
         S          3.848            3.128    251.62  12327.25
         S          3.858            3.128    251.62  12327.25
         S          3.860            3.128    251.62  12327.25
         S          3.798            3.128    251.62  12327.25
         Mo        10.209            3.547    674.22  77634.20
         Mo        10.189            3.547    674.22  77634.20
         Mo        10.202            3.547    674.22  77634.20
         S          3.753            3.128    251.62  12327.25
         S          3.858            3.128    251.62  12327.25
         S          3.857            3.128    251.62  12327.25
         S          3.859            3.128    251.62  12327.25
         S          3.860            3.128    251.62  12327.25
         S          3.751            3.128    251.62  12327.25
         Mo        10.238            3.547    674.22  77634.20
         Mo        10.189            3.547    674.22  77634.20
         Mo        10.201            3.547    674.22  77634.20
         S          3.753            3.128    251.62  12327.25
         S          3.858            3.128    251.62  12327.25
         S          3.848            3.128    251.62  12327.25
         S          3.859            3.128    251.62  12327.25
         S          3.860            3.128    251.62  12327.25
         S          3.812            3.128    251.62  12327.25
         Pd         3.773            3.168    556.65  51001.83
         Pd         1.131            3.168    598.50  54836.88

         Molecular C6 ( Ry / a.u.^6 ) =   7924744.85


     number of k points=     4  Gaussian smearing, width (Ry)=  0.0100
                       cart. coord. in units 2pi/alat
        k(    1) = (   0.0000000   0.0000000   0.0000000), wk =   0.5000000
        k(    2) = (   0.0000000  -0.5773499   0.0000000), wk =   0.5000000
        k(    3) = (  -0.5000000  -0.2886755   0.0000000), wk =   0.5000000
        k(    4) = (  -0.5000000  -0.8660254   0.0000000), wk =   0.5000000

     Dense  grid:  5955087 G-vectors     FFT dimensions: ( 180, 180, 432)

     Smooth grid:  2572543 G-vectors     FFT dimensions: ( 135, 135, 320)

     Estimated max dynamical RAM per process >       2.14 GB

     Estimated total dynamical RAM >      76.86 GB

     Initial potential from superposition of free atoms

     starting charge    1283.9538, renormalised to    1284.0000

     negative rho (up, down):  1.011E-03 0.000E+00
     Starting wfcs are  884 randomized atomic wfcs
     Checking if some PAW data can be deallocated... 

     total cpu time spent up to now is      106.2 secs

     Self-consistent Calculation

     iteration #  1     ecut=    77.00 Ry     beta= 0.20
     Davidson diagonalization with overlap
     ethr =  1.00E-02,  avg # of iterations =  2.0

     Threshold (ethr) on eigenvalues was too large:
     Diagonalizing with lowered threshold

     Davidson diagonalization with overlap
     ethr =  2.22E-04,  avg # of iterations = 15.5

     negative rho (up, down):  3.338E-04 0.000E+00

     total cpu time spent up to now is     1099.4 secs

     total energy              =  -24868.97170946 Ry
     estimated scf accuracy    <       4.77654025 Ry

     iteration #  2     ecut=    77.00 Ry     beta= 0.20
     Davidson diagonalization with overlap
     ethr =  3.72E-04,  avg # of iterations =  6.0

     negative rho (up, down):  6.778E-05 0.000E+00

     total cpu time spent up to now is     1339.7 secs

     total energy              =  -24868.28397095 Ry
     estimated scf accuracy    <       2.31450964 Ry

     iteration #  3     ecut=    77.00 Ry     beta= 0.20
     Davidson diagonalization with overlap
     ethr =  1.80E-04,  avg # of iterations = 10.8

     negative rho (up, down):  3.675E-05 0.000E+00

     total cpu time spent up to now is     1604.0 secs

     total energy              =  -24868.36873395 Ry
     estimated scf accuracy    <       0.81693932 Ry

     iteration #  4     ecut=    77.00 Ry     beta= 0.20
     Davidson diagonalization with overlap
     ethr =  6.36E-05,  avg # of iterations =  7.8

     negative rho (up, down):  3.694E-05 0.000E+00

     total cpu time spent up to now is     2055.3 secs

     total energy              =  -24868.83020558 Ry
     estimated scf accuracy    <       0.19644144 Ry

     iteration #  5     ecut=    77.00 Ry     beta= 0.20
     Davidson diagonalization with overlap
     c_bands:  2 eigenvalues not converged
     c_bands:  2 eigenvalues not converged
     c_bands:  3 eigenvalues not converged
     c_bands:  2 eigenvalues not converged
     ethr =  1.53E-05,  avg # of iterations = 45.0

     negative rho (up, down):  6.876E-05 0.000E+00

     total cpu time spent up to now is     2973.2 secs

     total energy              =  -24869.04500274 Ry
     estimated scf accuracy    <       0.12033779 Ry

     iteration #  6     ecut=    77.00 Ry     beta= 0.20
     Davidson diagonalization with overlap
     c_bands:  2 eigenvalues not converged
     c_bands:  2 eigenvalues not converged
     ethr =  9.37E-06,  avg # of iterations = 20.2

     negative rho (up, down):  3.015E-04 0.000E+00

     total cpu time spent up to now is     3368.2 secs

     total energy              =  -24869.03769569 Ry
     estimated scf accuracy    <       0.08208509 Ry

     iteration #  7     ecut=    77.00 Ry     beta= 0.20
     Davidson diagonalization with overlap
     c_bands:  2 eigenvalues not converged
     c_bands:  2 eigenvalues not converged
     ethr =  6.39E-06,  avg # of iterations = 16.8

     negative rho (up, down):  8.190E-04 0.000E+00

     total cpu time spent up to now is     3669.9 secs

     total energy              =  -24869.04912676 Ry
     estimated scf accuracy    <       0.04570272 Ry

     iteration #  8     ecut=    77.00 Ry     beta= 0.20
     Davidson diagonalization with overlap
     c_bands:  4 eigenvalues not converged
     c_bands:  3 eigenvalues not converged
     c_bands:  5 eigenvalues not converged
     ethr =  3.56E-06,  avg # of iterations = 29.2

     negative rho (up, down):  7.211E-04 0.000E+00

     total cpu time spent up to now is     4267.6 secs

     total energy              =  -24869.06413030 Ry
     estimated scf accuracy    <       0.05689292 Ry

     iteration #  9     ecut=    77.00 Ry     beta= 0.20
     Davidson diagonalization with overlap
     c_bands:  4 eigenvalues not converged
     c_bands:  3 eigenvalues not converged
     ethr =  3.56E-06,  avg # of iterations = 10.8

     negative rho (up, down):  5.555E-04 0.000E+00

     total cpu time spent up to now is     4519.7 secs

     total energy              =  -24869.05854086 Ry
     estimated scf accuracy    <       0.01385759 Ry

     iteration # 10     ecut=    77.00 Ry     beta= 0.20
     Davidson diagonalization with overlap
     c_bands:  3 eigenvalues not converged
     c_bands:  2 eigenvalues not converged
     ethr =  1.08E-06,  avg # of iterations = 31.0

     negative rho (up, down):  6.433E-04 0.000E+00

     total cpu time spent up to now is     5378.0 secs

     total energy              =  -24869.07532918 Ry
     estimated scf accuracy    <       0.01032964 Ry

     iteration # 11     ecut=    77.00 Ry     beta= 0.20
     Davidson diagonalization with overlap
     c_bands:  4 eigenvalues not converged
     ethr =  8.04E-07,  avg # of iterations = 14.2

     negative rho (up, down):  7.556E-04 0.000E+00

     total cpu time spent up to now is     5679.2 secs

     total energy              =  -24869.07369292 Ry
     estimated scf accuracy    <       0.00484868 Ry

     iteration # 12     ecut=    77.00 Ry     beta= 0.20
     Davidson diagonalization with overlap
     c_bands:  5 eigenvalues not converged
     ethr =  3.78E-07,  avg # of iterations = 14.8

     negative rho (up, down):  9.905E-04 0.000E+00

     total cpu time spent up to now is     6020.0 secs

     total energy              =  -24869.07359693 Ry
     estimated scf accuracy    <       0.00127114 Ry

     iteration # 13     ecut=    77.00 Ry     beta= 0.20
     Davidson diagonalization with overlap
     c_bands:  3 eigenvalues not converged
     c_bands:  1 eigenvalues not converged
     ethr =  9.90E-08,  avg # of iterations = 19.5

     negative rho (up, down):  9.308E-04 0.000E+00

     total cpu time spent up to now is     7039.7 secs

     total energy              =  -24869.07634802 Ry
     estimated scf accuracy    <       0.00585847 Ry

     iteration # 14     ecut=    77.00 Ry     beta= 0.20
     Davidson diagonalization with overlap
     c_bands:  4 eigenvalues not converged
     c_bands:  2 eigenvalues not converged
     ethr =  9.90E-08,  avg # of iterations = 17.5

     negative rho (up, down):  9.145E-04 0.000E+00

     total cpu time spent up to now is     7369.8 secs

     total energy              =  -24869.07540622 Ry
     estimated scf accuracy    <       0.00290024 Ry

     iteration # 15     ecut=    77.00 Ry     beta= 0.20
     Davidson diagonalization with overlap
     c_bands:  2 eigenvalues not converged
     ethr =  9.90E-08,  avg # of iterations =  9.5

     negative rho (up, down):  9.361E-04 0.000E+00

     total cpu time spent up to now is     7741.3 secs

     total energy              =  -24869.07598087 Ry
     estimated scf accuracy    <       0.00033981 Ry

     iteration # 16     ecut=    77.00 Ry     beta= 0.20
     Davidson diagonalization with overlap
     c_bands:  4 eigenvalues not converged
     ethr =  2.65E-08,  avg # of iterations = 14.5

     negative rho (up, down):  9.788E-04 0.000E+00

     total cpu time spent up to now is     8170.7 secs

     total energy              =  -24869.07623671 Ry
     estimated scf accuracy    <       0.00008005 Ry

     iteration # 17     ecut=    77.00 Ry     beta= 0.20
     Davidson diagonalization with overlap
     ethr =  6.23E-09,  avg # of iterations = 15.0

     negative rho (up, down):  9.832E-04 0.000E+00

     total cpu time spent up to now is     8776.3 secs

     total energy              =  -24869.07632979 Ry
     estimated scf accuracy    <       0.00004252 Ry

     iteration # 18     ecut=    77.00 Ry     beta= 0.20
     Davidson diagonalization with overlap
     ethr =  3.31E-09,  avg # of iterations =  9.0

     negative rho (up, down):  9.824E-04 0.000E+00

     total cpu time spent up to now is     9102.6 secs

     total energy              =  -24869.07633727 Ry
     estimated scf accuracy    <       0.00001257 Ry

     iteration # 19     ecut=    77.00 Ry     beta= 0.20
     Davidson diagonalization with overlap
     ethr =  9.79E-10,  avg # of iterations = 15.5

     negative rho (up, down):  9.783E-04 0.000E+00

     total cpu time spent up to now is     9739.1 secs

     total energy              =  -24869.07636286 Ry
     estimated scf accuracy    <       0.00000990 Ry

     iteration # 20     ecut=    77.00 Ry     beta= 0.20
     Davidson diagonalization with overlap
     ethr =  7.71E-10,  avg # of iterations =  2.2

     negative rho (up, down):  9.821E-04 0.000E+00

     total cpu time spent up to now is     9963.6 secs

     total energy              =  -24869.07635723 Ry
     estimated scf accuracy    <       0.00000862 Ry

     iteration # 21     ecut=    77.00 Ry     beta= 0.20
     Davidson diagonalization with overlap
     ethr =  6.72E-10,  avg # of iterations =  2.0

     negative rho (up, down):  9.829E-04 0.000E+00

     total cpu time spent up to now is    10191.7 secs

     total energy              =  -24869.07635542 Ry
     estimated scf accuracy    <       0.00000230 Ry

     iteration # 22     ecut=    77.00 Ry     beta= 0.20
     Davidson diagonalization with overlap
     c_bands:  3 eigenvalues not converged
     c_bands:  2 eigenvalues not converged
     ethr =  1.79E-10,  avg # of iterations = 18.8

     negative rho (up, down):  9.825E-04 0.000E+00

     total cpu time spent up to now is    10822.6 secs

     total energy              =  -24869.07635948 Ry
     estimated scf accuracy    <       0.00000255 Ry

     iteration # 23     ecut=    77.00 Ry     beta= 0.20
     Davidson diagonalization with overlap
     ethr =  1.79E-10,  avg # of iterations =  1.2

     negative rho (up, down):  9.820E-04 0.000E+00

     total cpu time spent up to now is    11035.7 secs

     total energy              =  -24869.07635925 Ry
     estimated scf accuracy    <       0.00000148 Ry

     iteration # 24     ecut=    77.00 Ry     beta= 0.20
     Davidson diagonalization with overlap
     ethr =  1.15E-10,  avg # of iterations =  2.8

     negative rho (up, down):  9.805E-04 0.000E+00

     total cpu time spent up to now is    11266.8 secs

     End of self-consistent calculation

          k = 0.0000 0.0000 0.0000 (321495 PWs)   bands (ev):

   -88.5195 -87.2142 -66.5324 -66.5113 -66.5113 -66.5113 -66.5113 -66.5113
   -66.5113 -66.4902 -66.4902 -66.4901 -66.4901 -66.4901 -66.4901 -66.4901
   -66.4901 -66.4901 -66.4664 -66.4457 -66.4456 -66.4453 -66.4452 -66.4452
   -66.4451 -66.4246 -66.4244 -66.4244 -66.4243 -66.4241 -66.4241 -66.4239
   -66.4239 -66.4238 -66.3984 -66.3886 -66.3836 -66.3797 -66.3756 -66.3735
   -66.3665 -66.3631 -66.3516 -66.3511 -66.3483 -66.3438 -66.3407 -66.3343
   -66.3252 -66.3026 -54.3411 -54.3156 -54.3081 -53.3381 -52.8799 -52.8754
   -40.8588 -40.8588 -40.8588 -40.7918 -40.7917 -40.7917 -40.7840 -40.7840
   -40.7840 -40.7840 -40.7840 -40.7840 -40.7171 -40.7171 -40.7171 -40.7169
   -40.7169 -40.7169 -40.7168 -40.7154 -40.7141 -40.6925 -40.6585 -40.6585
   -40.6585 -40.6585 -40.6585 -40.6584 -40.6511 -40.6511 -40.6511 -40.6511
   -40.6511 -40.6510 -40.6458 -40.6437 -40.6392 -40.6359 -40.6330 -40.6306
   -40.6270 -40.6236 -40.6236 -40.6236 -40.6236 -40.6236 -40.6236 -40.6094
   -40.6094 -40.6094 -40.6094 -40.6094 -40.6094 -40.6093 -40.6093 -40.6093
   -40.5917 -40.5916 -40.5915 -40.5915 -40.5915 -40.5914 -40.5859 -40.5858
   -40.5857 -40.5855 -40.5855 -40.5854 -40.5774 -40.5569 -40.5569 -40.5567
   -40.5567 -40.5567 -40.5566 -40.5514 -40.5458 -40.5458 -40.5458 -40.5443
   -40.5442 -40.5441 -40.5441 -40.5440 -40.5440 -40.5438 -40.5438 -40.5436
   -40.5252 -40.5233 -40.5212 -40.5193 -40.5172 -40.5156 -40.5148 -40.5118
   -40.5094 -40.5000 -40.4990 -40.4990 -40.4990 -40.4990 -40.4990 -40.4990
   -40.4989 -40.4899 -40.4880 -40.4851 -40.4827 -40.4815 -40.4791 -40.4790
   -40.4790 -40.4784 -40.4775 -40.4746 -40.4738 -40.4701 -40.4698 -40.4645
   -40.4627 -40.4517 -40.4517 -40.4485 -40.4354 -40.4326 -40.4323 -40.4322
   -40.4321 -40.4321 -40.4320 -40.4050 -40.4012 -40.3972 -40.3850 -40.3850
   -40.3595 -40.3551 -40.3528 -40.3500 -40.3465 -40.3449 -40.3035 -40.2993
   -19.9657 -19.8582 -19.7356 -19.1180 -19.1008 -19.0993 -19.0977 -19.0972
   -19.0971 -19.0655 -19.0206 -19.0098 -18.9909 -18.9835 -18.9826 -18.9271
   -18.9068 -18.9011 -18.8769 -18.8572 -18.8553 -18.7156 -18.5439 -18.3715
   -18.3569 -18.3296 -18.3188 -18.3043 -18.2999 -18.2995 -18.2253 -18.2081
   -18.2023 -18.1801 -18.1464 -18.1455 -18.0856 -18.0640 -18.0585 -18.0458
   -18.0079 -18.0064 -17.9926 -17.9921 -17.9921 -17.9920 -17.9916 -17.9916
   -17.9829 -17.9518 -17.9516 -17.9516 -17.9470 -17.9191 -17.9145 -17.9116
   -17.9109 -17.9068 -17.8999 -17.8818 -17.8792 -17.8788 -17.8689 -17.8329
   -17.8241 -17.8230 -17.8183 -17.8109 -17.8077 -17.7948 -17.7911 -17.7833
   -17.7781 -17.7700 -17.7665 -17.7630 -17.7618 -17.7615 -17.7355 -17.7305
   -17.7208 -17.7119 -17.7050 -17.6984 -17.6905 -17.6893 -17.6888 -17.6679
   -17.6626 -17.6438 -17.6351 -17.6252 -17.6179 -17.6102 -17.6047 -17.6023
   -11.7891 -11.6213 -11.6094 -11.6093 -11.5911 -11.5459 -11.5445 -11.5127
   -11.4839 -11.4821 -11.4341 -11.1126 -11.0783 -11.0590 -11.0582 -11.0557
   -11.0550 -11.0132 -10.9933 -10.9869 -10.9826 -10.9806 -10.9797 -10.9794
   -10.9434 -10.9266 -10.8975 -10.8838 -10.8640 -10.8535 -10.8472 -10.8227
   -10.8197 -10.8127 -10.7830 -10.7730 -10.7714 -10.7684 -10.7603 -10.7586
   -10.7473 -10.7418 -10.7024 -10.6998 -10.6871 -10.6844 -10.6838 -10.6834
   -10.6800 -10.6795 -10.6660 -10.6565 -10.6559 -10.6519 -10.6407 -10.6376
   -10.6350 -10.6333 -10.6315 -10.6229 -10.6128 -10.6068 -10.5871 -10.5790
   -10.5742 -10.5739 -10.5512 -10.5169 -10.5032 -10.4861 -10.4755 -10.4599
   -10.4541 -10.4453 -10.4439 -10.0339 -10.0024  -9.9422  -9.9003  -9.8967
    -9.8949  -9.7615  -9.7366  -9.7267  -9.6449  -9.6315  -9.6279  -9.6242
    -9.6237  -9.6209  -9.6184  -9.5612  -9.5559  -9.5477  -9.5405  -9.5362
    -9.5295  -9.5217  -9.5156  -9.4887  -9.4777  -9.4745  -9.4733  -9.4672
    -9.4654  -9.4571  -9.4267  -9.4265  -9.4260  -9.4253  -9.4235  -9.4221
    -9.4032  -9.3943  -9.3877  -9.3813  -9.3679  -9.3584  -9.3529  -9.3498
    -9.3125  -9.2981  -9.2852  -9.2822  -9.2796  -9.2794  -9.2002  -9.1892
    -9.1842  -9.1816  -9.1683  -9.1584  -9.1549  -9.1371  -9.1117  -9.0807
    -9.0547  -9.0474  -9.0407  -9.0395  -9.0371  -9.0330  -9.0289  -9.0168
    -8.9024  -8.8953  -8.8794  -8.8716  -8.8707  -8.8705  -8.8702  -8.8665
    -8.8604  -8.8400  -8.8321  -8.7997  -8.7890  -8.7873  -8.7634  -8.7524
    -8.7418  -8.7210  -8.7121  -8.6975  -8.6948  -8.6526  -8.6511  -8.6507
    -8.6494  -8.6493  -8.6451  -8.6222  -8.6176  -8.5916  -8.5871  -8.5777
    -8.5758  -8.5689  -8.5676  -8.5643  -8.5436  -8.5343  -8.5218  -8.3163
    -8.2816  -8.2815  -8.2202  -8.2096  -8.2087  -8.1986  -8.1694  -8.1694
    -8.1694  -8.1693  -8.1692  -8.1692  -8.1306  -8.1183  -8.1012  -8.0993
    -8.0981  -8.0978  -8.0910  -8.0896  -8.0546  -8.0442  -8.0348  -8.0294
    -7.9792  -7.9524  -7.8614  -7.8115  -7.7780  -7.7539  -7.7528  -7.5792
    -7.5429  -7.5211  -7.4643  -7.4342  -7.4340  -7.4340  -7.4339  -7.4339
    -7.4338  -7.3891  -7.3886  -7.3879  -7.3877  -7.3872  -7.3872  -7.3793
    -7.3686  -7.3663  -7.3640  -7.3615  -7.3603  -7.3530  -7.3516  -7.3411
    -7.3298  -7.3264  -7.3195  -7.3165  -7.3150  -7.3126  -7.3113  -7.3092
    -7.3055  -7.2871  -7.2804  -7.2731  -7.2701  -7.2690  -7.2680  -7.2661
    -7.2641  -7.2635  -7.2412  -7.2302  -7.1679  -7.1527  -7.1527  -7.1096
    -7.0881  -7.0842  -7.0767  -7.0641  -7.0458  -7.0286  -7.0210  -7.0108
    -6.9228  -6.8130  -6.8030  -6.7798  -6.7611  -6.7451  -6.7063  -6.7014
    -6.6889  -6.6583  -6.6472  -6.6461  -6.5787  -6.5571  -6.5386  -6.5271
    -6.5010  -6.4861  -6.4831  -6.4729  -6.4665  -6.4626  -6.4570  -6.4338
    -6.4319  -6.3797  -6.3738  -6.3696  -6.3682  -6.3626  -6.3577  -6.3523
    -6.3497  -6.3316  -6.3092  -6.3007  -6.2920  -6.2797  -6.2740  -6.2730
    -6.2709  -6.2693  -6.2239  -6.2007  -6.2006  -6.2006  -6.2006  -6.2006
    -6.2006  -6.1926  -6.1753  -6.1498  -6.1298  -6.1249  -6.1239  -6.1225
    -6.1224  -6.1187  -6.1090  -6.0796  -6.0626  -6.0253  -6.0024  -5.9756
    -5.7033  -5.6685  -5.6221  -5.5063  -5.4933  -5.3328  -5.3272  -5.2980
    -5.0746  -4.9908  -3.7754  -3.7318  -3.6864  -3.6852  -3.6827  -3.6811
    -3.6542  -3.6532  -3.6506  -3.6498  -3.6485  -3.6476  -3.5787  -3.5596
    -3.4479  -3.4471  -3.4358  -3.4301  -3.4276  -3.4231  -3.4202  -3.4183
    -3.4169  -3.4154  -3.3413  -3.3413  -3.3411  -3.3262  -3.3237  -3.3232
    -3.3232  -3.3216  -3.3216  -3.2741  -3.2741  -3.2740  -3.2550  -3.2460
    -3.2399  -3.2261  -3.2252  -3.2221  -3.2183  -3.2171  -3.2137  -3.2124
    -3.2095  -3.2088  -3.1954  -3.1901  -3.1853  -3.1776  -3.1632  -3.1399
    -3.1161  -3.1134  -3.1126  -3.1043  -3.0960  -3.0916  -3.0834  -3.0696
    -3.0683  -2.8748  -2.8745  -2.8743  -2.8694  -2.8692  -2.8410  -2.8108
    -2.8035  -2.8034  -2.8021  -2.8020  -2.8018  -2.8017  -2.8015  -2.8014
    -2.7818  -2.7796  -2.7793  -2.7659  -2.7610  -2.7481  -2.7454  -2.7433
    -2.7396  -2.7339  -2.7314  -2.7291  -2.7284  -2.7191  -2.7178  -2.7055
    -2.6891  -2.6886  -2.6729  -2.6439  -2.6397  -2.6390  -2.6363  -2.6296
    -2.6156  -2.6150  -2.5874  -2.5857  -2.5854  -2.5822  -2.5804  -2.5796
    -2.5569  -2.5454  -2.5430  -2.5168  -2.4985  -2.4922  -2.4798  -2.4769
    -2.4639  -2.4626  -2.4025  -2.3814  -2.3760  -2.3469  -2.3159  -2.3129
    -2.3009  -2.2982

          k = 0.0000-0.5773 0.0000 (321564 PWs)   bands (ev):

   -88.5195 -87.2142 -66.5263 -66.5262 -66.5157 -66.5157 -66.5007 -66.5007
   -66.5007 -66.5007 -66.4963 -66.4963 -66.4901 -66.4901 -66.4901 -66.4901
   -66.4857 -66.4857 -66.4603 -66.4602 -66.4498 -66.4497 -66.4349 -66.4349
   -66.4347 -66.4345 -66.4305 -66.4303 -66.4243 -66.4242 -66.4242 -66.4239
   -66.4198 -66.4197 -66.3952 -66.3916 -66.3880 -66.3764 -66.3758 -66.3704
   -66.3670 -66.3645 -66.3525 -66.3500 -66.3484 -66.3435 -66.3404 -66.3353
   -66.3250 -66.3026 -54.3411 -54.3156 -54.3081 -53.3381 -52.8800 -52.8754
   -40.8274 -40.8274 -40.8274 -40.8274 -40.8008 -40.8008 -40.7889 -40.7889
   -40.7605 -40.7604 -40.7603 -40.7601 -40.7384 -40.7384 -40.7384 -40.7384
   -40.7338 -40.7336 -40.7218 -40.7217 -40.6916 -40.6913 -40.6804 -40.6804
   -40.6768 -40.6748 -40.6715 -40.6714 -40.6714 -40.6714 -40.6705 -40.6705
   -40.6652 -40.6597 -40.6597 -40.6593 -40.6393 -40.6343 -40.6303 -40.6303
   -40.6303 -40.6303 -40.6216 -40.6216 -40.6150 -40.6149 -40.6095 -40.6095
   -40.6094 -40.6094 -40.6093 -40.6093 -40.6036 -40.6036 -40.6007 -40.6007
   -40.5944 -40.5942 -40.5942 -40.5931 -40.5921 -40.5861 -40.5787 -40.5787
   -40.5787 -40.5787 -40.5747 -40.5650 -40.5650 -40.5647 -40.5647 -40.5563
   -40.5561 -40.5488 -40.5442 -40.5442 -40.5442 -40.5442 -40.5442 -40.5440
   -40.5439 -40.5437 -40.5426 -40.5426 -40.5400 -40.5354 -40.5353 -40.5322
   -40.5321 -40.5290 -40.5196 -40.5192 -40.5146 -40.5130 -40.5130 -40.5120
   -40.5120 -40.5119 -40.5117 -40.4996 -40.4972 -40.4961 -40.4961 -40.4918
   -40.4893 -40.4818 -40.4783 -40.4775 -40.4774 -40.4774 -40.4773 -40.4731
   -40.4701 -40.4696 -40.4658 -40.4656 -40.4656 -40.4654 -40.4653 -40.4600
   -40.4479 -40.4463 -40.4460 -40.4390 -40.4380 -40.4364 -40.4344 -40.4294
   -40.4293 -40.4271 -40.4032 -40.3990 -40.3988 -40.3987 -40.3976 -40.3948
   -40.3882 -40.3762 -40.3694 -40.3649 -40.3491 -40.3384 -40.3239 -40.3095
   -19.7305 -19.7281 -19.6357 -19.6152 -19.5144 -19.4923 -19.2955 -19.2932
   -19.2057 -19.1864 -19.0918 -19.0698 -18.6360 -18.6086 -18.5879 -18.5866
   -18.5845 -18.5844 -18.5422 -18.5234 -18.5189 -18.4956 -18.4638 -18.4520
   -18.4412 -18.4299 -18.3938 -18.3911 -18.3821 -18.3790 -18.3371 -18.3365
   -18.2827 -18.2754 -18.2674 -18.2451 -18.2418 -18.2283 -18.2024 -18.1560
   -18.1173 -18.0999 -18.0823 -18.0685 -18.0611 -18.0596 -18.0060 -17.9901
   -17.9727 -17.9723 -17.9722 -17.9720 -17.9685 -17.9492 -17.9485 -17.9452
   -17.9078 -17.9002 -17.8994 -17.8975 -17.8894 -17.8839 -17.8736 -17.8485
   -17.8457 -17.8368 -17.8248 -17.8203 -17.8175 -17.8146 -17.7857 -17.7815
   -17.7796 -17.7709 -17.7688 -17.7563 -17.7230 -17.7132 -17.7113 -17.7087
   -17.7087 -17.7031 -17.6585 -17.6496 -17.6489 -17.6434 -17.6410 -17.6327
   -17.6323 -17.6241 -17.5947 -17.5925 -17.5822 -17.5775 -17.5258 -17.5239
   -11.5394 -11.5236 -11.3829 -11.3225 -11.3199 -11.3196 -11.3151 -11.3004
   -11.2967 -11.2672 -11.2513 -11.2446 -11.2397 -11.2333 -11.2101 -11.2009
   -11.1886 -11.1637 -11.1618 -11.1504 -11.1294 -11.1257 -11.1178 -11.1016
   -11.1016 -11.0884 -11.0591 -11.0558 -11.0550 -11.0118 -10.9992 -10.9986
   -10.9964 -10.9958 -10.8926 -10.8579 -10.8255 -10.8217 -10.8191 -10.8073
   -10.7619 -10.7603 -10.7522 -10.7415 -10.7195 -10.7165 -10.6874 -10.6788
   -10.6780 -10.6761 -10.6740 -10.6731 -10.6649 -10.6563 -10.6557 -10.6394
   -10.6279 -10.6151 -10.6128 -10.6118 -10.5921 -10.5671 -10.5608 -10.5442
   -10.4552 -10.4141 -10.3450 -10.3355 -10.2874 -10.2205 -10.1882 -10.1245
   -10.0909 -10.0032  -9.9783  -9.9713  -9.9675  -9.9578  -9.9467  -9.8859
    -9.8801  -9.8664  -9.8511  -9.7849  -9.7817  -9.7805  -9.7778  -9.7770
    -9.7721  -9.7651  -9.7431  -9.7383  -9.7358  -9.7222  -9.7183  -9.6408
    -9.6354  -9.6198  -9.5986  -9.5943  -9.5922  -9.5759  -9.5669  -9.5614
    -9.5525  -9.5464  -9.5418  -9.5036  -9.4889  -9.4834  -9.4788  -9.4639
    -9.4576  -9.4544  -9.4528  -9.4416  -9.3865  -9.3747  -9.3732  -9.3583
    -9.3422  -9.3333  -9.3130  -9.3127  -9.2751  -9.2627  -9.1648  -9.1605
    -9.1323  -9.0933  -9.0472  -9.0207  -9.0151  -8.9954  -8.9906  -8.9829
    -8.9769  -8.9705  -8.9701  -8.9652  -8.9266  -8.8941  -8.8877  -8.8750
    -8.8656  -8.8578  -8.8450  -8.8385  -8.8244  -8.8185  -8.8046  -8.7998
    -8.7946  -8.7798  -8.7791  -8.7768  -8.7756  -8.7699  -8.7626  -8.7518
    -8.7324  -8.7222  -8.7081  -8.7005  -8.6975  -8.6844  -8.6842  -8.6818
    -8.6765  -8.6712  -8.6572  -8.6544  -8.6405  -8.6390  -8.6235  -8.6141
    -8.6067  -8.5964  -8.5812  -8.5763  -8.5523  -8.5417  -8.3754  -8.3577
    -8.3550  -8.3184  -8.2962  -8.2720  -8.2704  -8.2478  -8.0921  -8.0655
    -8.0380  -8.0379  -8.0060  -7.9806  -7.9664  -7.9657  -7.9098  -7.8979
    -7.8837  -7.8313  -7.7779  -7.7763  -7.7369  -7.7163  -7.7075  -7.7062
    -7.6956  -7.6920  -7.6912  -7.6912  -7.6896  -7.6818  -7.6645  -7.6489
    -7.6456  -7.6451  -7.6444  -7.6390  -7.6224  -7.6209  -7.6170  -7.6064
    -7.6032  -7.5847  -7.5812  -7.5755  -7.5735  -7.5717  -7.5682  -7.5508
    -7.5471  -7.5381  -7.5366  -7.5333  -7.5253  -7.5191  -7.5100  -7.5060
    -7.5060  -7.4937  -7.4866  -7.4641  -7.4598  -7.4525  -7.4383  -7.4367
    -7.4362  -7.4184  -7.4044  -7.3796  -7.3732  -7.3531  -7.3427  -7.3013
    -7.3007  -7.2164  -7.1709  -7.1041  -7.0954  -7.0894  -7.0752  -7.0432
    -7.0243  -7.0204  -6.9655  -6.9616  -6.9145  -6.9135  -6.8724  -6.8619
    -6.8598  -6.8534  -6.8304  -6.8077  -6.8010  -6.7864  -6.7840  -6.7790
    -6.7416  -6.7303  -6.7202  -6.6828  -6.6758  -6.6720  -6.6145  -6.6025
    -6.5627  -6.5361  -6.5041  -6.5030  -6.5029  -6.5028  -6.5017  -6.4774
    -6.4617  -6.4443  -6.4401  -6.4367  -6.4334  -6.4271  -6.4191  -6.4138
    -6.3847  -6.3573  -6.3451  -6.3011  -6.2753  -6.2631  -6.1774  -6.1717
    -6.1715  -6.1714  -6.1673  -6.1104  -6.1077  -6.1018  -6.0964  -6.0932
    -6.0911  -6.0781  -6.0635  -6.0527  -6.0428  -6.0336  -6.0242  -6.0098
    -5.8231  -5.8228  -5.8120  -5.7634  -5.7456  -5.7414  -5.7354  -5.6439
    -5.6035  -5.5868  -5.4956  -5.4776  -5.4659  -5.3866  -5.3402  -5.3152
    -5.2998  -5.0798  -3.8781  -3.8663  -3.8623  -3.8586  -3.7432  -3.7383
    -3.7383  -3.7339  -3.6750  -3.6737  -3.6695  -3.6546  -3.6188  -3.6091
    -3.6071  -3.5922  -3.5511  -3.5431  -3.4480  -3.4415  -3.4412  -3.4380
    -3.4273  -3.4240  -3.4238  -3.4210  -3.3884  -3.3863  -3.3508  -3.3479
    -3.3454  -3.3446  -3.3247  -3.3188  -3.3141  -3.3125  -3.3072  -3.3045
    -3.2617  -3.2511  -3.2316  -3.2304  -3.2057  -3.1981  -3.1916  -3.1910
    -3.1752  -3.1704  -3.1568  -3.1546  -3.1515  -3.1457  -3.1192  -3.1148
    -3.1147  -3.1138  -3.1132  -3.0981  -3.0871  -3.0796  -3.0741  -3.0653
    -3.0485  -3.0474  -3.0461  -3.0359  -3.0322  -3.0303  -2.9956  -2.9762
    -2.9601  -2.9586  -2.9480  -2.9384  -2.9120  -2.9103  -2.8846  -2.8728
    -2.8700  -2.8687  -2.8514  -2.8512  -2.8510  -2.8507  -2.8201  -2.8090
    -2.8033  -2.8024  -2.7869  -2.7814  -2.7642  -2.7615  -2.7573  -2.7560
    -2.7396  -2.7366  -2.7242  -2.7231  -2.7145  -2.7124  -2.7042  -2.6826
    -2.6700  -2.6601  -2.6482  -2.6453  -2.6379  -2.6355  -2.5663  -2.5479
    -2.5400  -2.5255  -2.4887  -2.4883  -2.4863  -2.4741  -2.4665  -2.4440
    -2.4074  -2.4038  -2.3467  -2.3438  -2.3261  -2.3237  -2.3226  -2.2989
    -2.1811  -2.1450

          k =-0.5000-0.2887 0.0000 (321564 PWs)   bands (ev):

   -88.5195 -87.2142 -66.5263 -66.5262 -66.5157 -66.5157 -66.5007 -66.5007
   -66.5007 -66.5007 -66.4963 -66.4963 -66.4901 -66.4901 -66.4901 -66.4901
   -66.4857 -66.4857 -66.4604 -66.4601 -66.4498 -66.4497 -66.4349 -66.4348
   -66.4348 -66.4345 -66.4305 -66.4302 -66.4243 -66.4243 -66.4242 -66.4238
   -66.4198 -66.4197 -66.3947 -66.3925 -66.3875 -66.3781 -66.3737 -66.3704
   -66.3671 -66.3647 -66.3519 -66.3506 -66.3487 -66.3435 -66.3404 -66.3349
   -66.3251 -66.3026 -54.3411 -54.3156 -54.3081 -53.3381 -52.8800 -52.8754
   -40.8274 -40.8274 -40.8274 -40.8274 -40.8008 -40.8008 -40.7889 -40.7889
   -40.7605 -40.7604 -40.7603 -40.7601 -40.7384 -40.7384 -40.7384 -40.7384
   -40.7338 -40.7336 -40.7218 -40.7217 -40.6876 -40.6854 -40.6839 -40.6804
   -40.6804 -40.6790 -40.6715 -40.6714 -40.6714 -40.6714 -40.6705 -40.6705
   -40.6654 -40.6604 -40.6597 -40.6597 -40.6428 -40.6303 -40.6303 -40.6303
   -40.6302 -40.6289 -40.6216 -40.6216 -40.6150 -40.6148 -40.6095 -40.6095
   -40.6094 -40.6094 -40.6094 -40.6093 -40.6036 -40.6036 -40.6007 -40.6007
   -40.5948 -40.5943 -40.5942 -40.5936 -40.5880 -40.5868 -40.5787 -40.5787
   -40.5787 -40.5787 -40.5751 -40.5650 -40.5649 -40.5648 -40.5647 -40.5563
   -40.5561 -40.5473 -40.5442 -40.5442 -40.5442 -40.5442 -40.5441 -40.5441
   -40.5440 -40.5437 -40.5426 -40.5426 -40.5417 -40.5354 -40.5353 -40.5322
   -40.5321 -40.5285 -40.5230 -40.5202 -40.5130 -40.5130 -40.5121 -40.5120
   -40.5118 -40.5116 -40.5084 -40.4999 -40.4980 -40.4961 -40.4961 -40.4942
   -40.4887 -40.4828 -40.4776 -40.4775 -40.4774 -40.4773 -40.4773 -40.4737
   -40.4700 -40.4689 -40.4656 -40.4656 -40.4655 -40.4652 -40.4644 -40.4609
   -40.4483 -40.4463 -40.4460 -40.4391 -40.4374 -40.4367 -40.4335 -40.4300
   -40.4294 -40.4292 -40.4025 -40.4020 -40.3990 -40.3987 -40.3967 -40.3933
   -40.3843 -40.3783 -40.3727 -40.3646 -40.3486 -40.3347 -40.3192 -40.3155
   -19.7297 -19.7287 -19.6289 -19.6217 -19.5095 -19.5006 -19.2950 -19.2932
   -19.2022 -19.1861 -19.0884 -19.0700 -18.6521 -18.6145 -18.5900 -18.5849
   -18.5848 -18.5839 -18.5611 -18.5228 -18.4999 -18.4802 -18.4651 -18.4556
   -18.4364 -18.4208 -18.3943 -18.3933 -18.3824 -18.3640 -18.3372 -18.3369
   -18.2978 -18.2735 -18.2689 -18.2453 -18.2421 -18.2287 -18.2022 -18.1612
   -18.1172 -18.1010 -18.0867 -18.0682 -18.0608 -18.0579 -18.0041 -17.9902
   -17.9734 -17.9722 -17.9722 -17.9721 -17.9691 -17.9503 -17.9475 -17.9349
   -17.9129 -17.9024 -17.8986 -17.8960 -17.8904 -17.8815 -17.8787 -17.8490
   -17.8423 -17.8353 -17.8218 -17.8192 -17.8174 -17.8139 -17.7907 -17.7820
   -17.7774 -17.7709 -17.7692 -17.7567 -17.7249 -17.7128 -17.7107 -17.7087
   -17.7087 -17.7041 -17.6605 -17.6498 -17.6489 -17.6468 -17.6383 -17.6331
   -17.6323 -17.6243 -17.5973 -17.5910 -17.5851 -17.5706 -17.5302 -17.5195
   -11.5372 -11.5261 -11.3753 -11.3219 -11.3209 -11.3202 -11.3163 -11.3033
   -11.2951 -11.2694 -11.2599 -11.2498 -11.2375 -11.2255 -11.2117 -11.1926
   -11.1877 -11.1735 -11.1688 -11.1491 -11.1308 -11.1260 -11.1237 -11.1016
   -11.1016 -11.0823 -11.0562 -11.0558 -11.0445 -11.0132 -11.0016 -10.9969
   -10.9964 -10.9954 -10.8852 -10.8620 -10.8342 -10.8226 -10.8163 -10.7990
   -10.7633 -10.7596 -10.7479 -10.7416 -10.7295 -10.7091 -10.6865 -10.6823
   -10.6792 -10.6755 -10.6744 -10.6718 -10.6647 -10.6583 -10.6492 -10.6406
   -10.6333 -10.6180 -10.6153 -10.6092 -10.5945 -10.5772 -10.5674 -10.5346
   -10.4407 -10.4091 -10.3410 -10.3366 -10.2561 -10.2299 -10.1733 -10.1653
   -10.1107 -10.0245  -9.9793  -9.9708  -9.9654  -9.9577  -9.9431  -9.8833
    -9.8699  -9.8675  -9.8483  -9.7849  -9.7835  -9.7819  -9.7780  -9.7744
    -9.7721  -9.7502  -9.7416  -9.7378  -9.7343  -9.7224  -9.7195  -9.6465
    -9.6334  -9.6218  -9.6024  -9.5940  -9.5914  -9.5755  -9.5640  -9.5565
    -9.5533  -9.5486  -9.5414  -9.5038  -9.4932  -9.4859  -9.4763  -9.4598
    -9.4574  -9.4553  -9.4513  -9.4449  -9.3869  -9.3741  -9.3713  -9.3504
    -9.3407  -9.3179  -9.3133  -9.3124  -9.2872  -9.2694  -9.1957  -9.1549
    -9.1025  -9.0986  -9.0460  -9.0250  -9.0149  -8.9942  -8.9917  -8.9811
    -8.9754  -8.9732  -8.9708  -8.9641  -8.9305  -8.8918  -8.8833  -8.8754
    -8.8646  -8.8504  -8.8471  -8.8370  -8.8262  -8.8167  -8.8097  -8.8027
    -8.7923  -8.7843  -8.7787  -8.7766  -8.7744  -8.7721  -8.7607  -8.7569
    -8.7288  -8.7234  -8.7059  -8.7013  -8.6970  -8.6843  -8.6842  -8.6752
    -8.6743  -8.6715  -8.6671  -8.6565  -8.6466  -8.6384  -8.6266  -8.6132
    -8.6073  -8.5983  -8.5766  -8.5751  -8.5541  -8.5392  -8.3750  -8.3577
    -8.3549  -8.3135  -8.3005  -8.2779  -8.2685  -8.2478  -8.1143  -8.0597
    -8.0380  -8.0380  -8.0025  -7.9666  -7.9658  -7.9442  -7.9129  -7.9017
    -7.8813  -7.8161  -7.7775  -7.7768  -7.7405  -7.7185  -7.7082  -7.7064
    -7.6942  -7.6921  -7.6912  -7.6912  -7.6843  -7.6822  -7.6765  -7.6540
    -7.6452  -7.6451  -7.6449  -7.6398  -7.6225  -7.6217  -7.6131  -7.6043
    -7.6027  -7.5863  -7.5859  -7.5795  -7.5727  -7.5712  -7.5654  -7.5533
    -7.5526  -7.5386  -7.5376  -7.5296  -7.5283  -7.5126  -7.5061  -7.5060
    -7.5044  -7.4906  -7.4834  -7.4724  -7.4585  -7.4500  -7.4450  -7.4364
    -7.4361  -7.4232  -7.4008  -7.3824  -7.3659  -7.3596  -7.3437  -7.3119
    -7.2924  -7.2228  -7.1471  -7.1358  -7.0953  -7.0871  -7.0746  -7.0660
    -7.0279  -6.9865  -6.9647  -6.9607  -6.9253  -6.9101  -6.8872  -6.8630
    -6.8554  -6.8436  -6.8292  -6.8027  -6.7927  -6.7921  -6.7854  -6.7746
    -6.7420  -6.7356  -6.7063  -6.6854  -6.6753  -6.6739  -6.6185  -6.6008
    -6.5680  -6.5333  -6.5032  -6.5029  -6.5029  -6.5028  -6.4924  -6.4773
    -6.4715  -6.4577  -6.4430  -6.4357  -6.4340  -6.4312  -6.4272  -6.3816
    -6.3766  -6.3642  -6.3447  -6.3032  -6.2704  -6.2689  -6.1797  -6.1718
    -6.1717  -6.1713  -6.1686  -6.1086  -6.1074  -6.1012  -6.0996  -6.0923
    -6.0914  -6.0752  -6.0613  -6.0541  -6.0424  -6.0376  -6.0316  -6.0128
    -5.8229  -5.8228  -5.7888  -5.7795  -5.7442  -5.7414  -5.7214  -5.6508
    -5.6087  -5.5851  -5.4980  -5.4745  -5.4638  -5.3889  -5.3392  -5.3165
    -5.3022  -5.0801  -3.8782  -3.8655  -3.8616  -3.8572  -3.7522  -3.7383
    -3.7383  -3.7253  -3.6738  -3.6736  -3.6696  -3.6511  -3.6156  -3.6090
    -3.6045  -3.5924  -3.5703  -3.5281  -3.4467  -3.4444  -3.4406  -3.4386
    -3.4264  -3.4241  -3.4236  -3.4183  -3.3876  -3.3806  -3.3707  -3.3483
    -3.3451  -3.3424  -3.3259  -3.3187  -3.3136  -3.3105  -3.3078  -3.3053
    -3.2667  -3.2527  -3.2318  -3.2297  -3.2036  -3.1974  -3.1917  -3.1910
    -3.1755  -3.1712  -3.1571  -3.1563  -3.1520  -3.1447  -3.1165  -3.1149
    -3.1146  -3.1138  -3.1112  -3.0965  -3.0840  -3.0805  -3.0696  -3.0646
    -3.0493  -3.0478  -3.0453  -3.0347  -3.0330  -3.0298  -3.0109  -2.9751
    -2.9616  -2.9565  -2.9478  -2.9388  -2.9119  -2.9103  -2.8753  -2.8728
    -2.8712  -2.8640  -2.8515  -2.8512  -2.8510  -2.8508  -2.8195  -2.8094
    -2.8038  -2.8022  -2.7922  -2.7789  -2.7671  -2.7644  -2.7582  -2.7554
    -2.7475  -2.7360  -2.7268  -2.7227  -2.7151  -2.7070  -2.7025  -2.6811
    -2.6663  -2.6611  -2.6515  -2.6471  -2.6407  -2.6390  -2.5735  -2.5621
    -2.5444  -2.5366  -2.5231  -2.4889  -2.4886  -2.4873  -2.4714  -2.4679
    -2.4494  -2.4081  -2.4043  -2.3465  -2.3449  -2.3295  -2.3257  -2.3214
    -2.3042  -2.1810

          k =-0.5000-0.8660 0.0000 (321564 PWs)   bands (ev):

   -88.5195 -87.2142 -66.5263 -66.5262 -66.5157 -66.5157 -66.5007 -66.5007
   -66.5007 -66.5007 -66.4964 -66.4963 -66.4901 -66.4901 -66.4901 -66.4901
   -66.4857 -66.4857 -66.4604 -66.4602 -66.4498 -66.4496 -66.4349 -66.4348
   -66.4348 -66.4345 -66.4305 -66.4302 -66.4243 -66.4243 -66.4242 -66.4238
   -66.4198 -66.4197 -66.3959 -66.3914 -66.3856 -66.3801 -66.3746 -66.3710
   -66.3668 -66.3631 -66.3513 -66.3501 -66.3491 -66.3449 -66.3403 -66.3346
   -66.3251 -66.3026 -54.3411 -54.3156 -54.3081 -53.3381 -52.8799 -52.8754
   -40.8274 -40.8274 -40.8274 -40.8274 -40.8008 -40.8008 -40.7889 -40.7889
   -40.7604 -40.7604 -40.7603 -40.7601 -40.7384 -40.7384 -40.7384 -40.7384
   -40.7338 -40.7336 -40.7218 -40.7217 -40.6993 -40.6890 -40.6804 -40.6804
   -40.6775 -40.6715 -40.6714 -40.6714 -40.6713 -40.6705 -40.6705 -40.6673
   -40.6628 -40.6597 -40.6597 -40.6545 -40.6427 -40.6367 -40.6303 -40.6303
   -40.6303 -40.6303 -40.6216 -40.6216 -40.6150 -40.6148 -40.6095 -40.6095
   -40.6094 -40.6094 -40.6093 -40.6093 -40.6036 -40.6035 -40.6007 -40.6007
   -40.5968 -40.5943 -40.5942 -40.5939 -40.5914 -40.5882 -40.5787 -40.5787
   -40.5787 -40.5787 -40.5751 -40.5650 -40.5649 -40.5648 -40.5647 -40.5563
   -40.5561 -40.5518 -40.5442 -40.5442 -40.5442 -40.5442 -40.5441 -40.5440
   -40.5440 -40.5437 -40.5426 -40.5425 -40.5354 -40.5353 -40.5337 -40.5322
   -40.5321 -40.5275 -40.5236 -40.5195 -40.5159 -40.5130 -40.5129 -40.5121
   -40.5120 -40.5118 -40.5117 -40.5010 -40.4961 -40.4961 -40.4958 -40.4876
   -40.4861 -40.4848 -40.4794 -40.4775 -40.4774 -40.4773 -40.4773 -40.4768
   -40.4705 -40.4682 -40.4656 -40.4656 -40.4654 -40.4653 -40.4630 -40.4610
   -40.4481 -40.4463 -40.4460 -40.4424 -40.4385 -40.4357 -40.4311 -40.4294
   -40.4292 -40.4226 -40.4020 -40.4007 -40.3990 -40.3988 -40.3979 -40.3938
   -40.3922 -40.3738 -40.3702 -40.3628 -40.3503 -40.3417 -40.3268 -40.3056
   -19.7316 -19.7275 -19.6425 -19.6095 -19.5188 -19.4818 -19.2961 -19.2931
   -19.2093 -19.1860 -19.0937 -19.0698 -18.6431 -18.6055 -18.5943 -18.5855
   -18.5846 -18.5839 -18.5625 -18.5232 -18.5004 -18.4802 -18.4753 -18.4481
   -18.4424 -18.4208 -18.3963 -18.3858 -18.3833 -18.3639 -18.3379 -18.3365
   -18.3053 -18.2806 -18.2469 -18.2444 -18.2410 -18.2365 -18.1945 -18.1440
   -18.1197 -18.1164 -18.0832 -18.0655 -18.0611 -18.0578 -18.0231 -17.9902
   -17.9734 -17.9723 -17.9722 -17.9721 -17.9717 -17.9528 -17.9476 -17.9353
   -17.9303 -17.8987 -17.8983 -17.8960 -17.8904 -17.8849 -17.8621 -17.8524
   -17.8438 -17.8344 -17.8203 -17.8194 -17.8161 -17.8140 -17.7926 -17.7795
   -17.7727 -17.7695 -17.7693 -17.7533 -17.7289 -17.7107 -17.7087 -17.7087
   -17.7042 -17.7036 -17.6620 -17.6494 -17.6489 -17.6417 -17.6333 -17.6324
   -17.6272 -17.6243 -17.6080 -17.5919 -17.5881 -17.5731 -17.5306 -17.5204
   -11.5456 -11.5184 -11.3997 -11.3229 -11.3198 -11.3194 -11.3153 -11.3029
   -11.2974 -11.2752 -11.2472 -11.2402 -11.2354 -11.2328 -11.2122 -11.1936
   -11.1813 -11.1561 -11.1461 -11.1419 -11.1377 -11.1262 -11.1164 -11.1016
   -11.1016 -11.0843 -11.0663 -11.0558 -11.0555 -11.0175 -11.0045 -10.9974
   -10.9955 -10.9948 -10.9033 -10.8510 -10.8306 -10.8208 -10.8097 -10.8031
   -10.7730 -10.7613 -10.7593 -10.7369 -10.7181 -10.7092 -10.6896 -10.6806
   -10.6769 -10.6761 -10.6752 -10.6707 -10.6671 -10.6579 -10.6499 -10.6460
   -10.6302 -10.6199 -10.6134 -10.6098 -10.5945 -10.5811 -10.5633 -10.5216
   -10.4495 -10.4093 -10.3474 -10.3353 -10.2835 -10.2183 -10.1788 -10.1299
   -10.0873 -10.0119  -9.9898  -9.9729  -9.9671  -9.9574  -9.9528  -9.8889
    -9.8753  -9.8668  -9.8489  -9.7907  -9.7830  -9.7802  -9.7786  -9.7761
    -9.7611  -9.7563  -9.7449  -9.7365  -9.7333  -9.7261  -9.7207  -9.6459
    -9.6356  -9.6319  -9.6008  -9.5984  -9.5928  -9.5770  -9.5655  -9.5560
    -9.5532  -9.5486  -9.5415  -9.5032  -9.4905  -9.4891  -9.4813  -9.4778
    -9.4572  -9.4551  -9.4517  -9.4388  -9.4125  -9.3742  -9.3736  -9.3570
    -9.3393  -9.3137  -9.3133  -9.3128  -9.2683  -9.2616  -9.1735  -9.1563
    -9.1013  -9.0962  -9.0403  -9.0252  -9.0040  -8.9930  -8.9882  -8.9835
    -8.9730  -8.9702  -8.9698  -8.9639  -8.9208  -8.8953  -8.8877  -8.8802
    -8.8712  -8.8566  -8.8508  -8.8342  -8.8205  -8.8091  -8.8053  -8.7998
    -8.7947  -8.7867  -8.7847  -8.7802  -8.7755  -8.7698  -8.7568  -8.7543
    -8.7371  -8.7220  -8.7069  -8.7014  -8.6998  -8.6844  -8.6842  -8.6821
    -8.6762  -8.6689  -8.6583  -8.6492  -8.6439  -8.6363  -8.6217  -8.6124
    -8.6071  -8.5997  -8.5790  -8.5770  -8.5578  -8.5438  -8.3752  -8.3577
    -8.3551  -8.3470  -8.2921  -8.2717  -8.2596  -8.2421  -8.1426  -8.0541
    -8.0380  -8.0379  -8.0050  -7.9665  -7.9658  -7.9337  -7.9215  -7.8985
    -7.8717  -7.8252  -7.7779  -7.7746  -7.7376  -7.7207  -7.7078  -7.7074
    -7.6960  -7.6923  -7.6912  -7.6912  -7.6888  -7.6795  -7.6658  -7.6522
    -7.6463  -7.6452  -7.6446  -7.6404  -7.6236  -7.6214  -7.6128  -7.6049
    -7.5998  -7.5968  -7.5836  -7.5768  -7.5758  -7.5712  -7.5651  -7.5484
    -7.5463  -7.5380  -7.5346  -7.5333  -7.5196  -7.5134  -7.5082  -7.5060
    -7.5059  -7.4929  -7.4902  -7.4632  -7.4587  -7.4432  -7.4377  -7.4361
    -7.4258  -7.4215  -7.4139  -7.3747  -7.3716  -7.3626  -7.3110  -7.3026
    -7.2917  -7.2319  -7.2030  -7.1264  -7.0982  -7.0878  -7.0754  -7.0671
    -7.0418  -6.9821  -6.9667  -6.9626  -6.9221  -6.9171  -6.8797  -6.8679
    -6.8581  -6.8478  -6.8272  -6.8081  -6.7916  -6.7849  -6.7840  -6.7740
    -6.7424  -6.7234  -6.7092  -6.6790  -6.6725  -6.6661  -6.6220  -6.6134
    -6.5617  -6.5309  -6.5036  -6.5029  -6.5029  -6.5028  -6.4975  -6.4798
    -6.4646  -6.4576  -6.4361  -6.4357  -6.4331  -6.4309  -6.4164  -6.3943
    -6.3680  -6.3598  -6.3432  -6.3100  -6.2820  -6.2650  -6.1805  -6.1719
    -6.1714  -6.1713  -6.1679  -6.1241  -6.1068  -6.1058  -6.0949  -6.0927
    -6.0916  -6.0830  -6.0622  -6.0574  -6.0362  -6.0248  -6.0205  -5.9998
    -5.8422  -5.8228  -5.8227  -5.7883  -5.7456  -5.7430  -5.7130  -5.6294
    -5.5945  -5.5855  -5.5019  -5.4762  -5.4622  -5.3775  -5.3503  -5.3279
    -5.2931  -5.0765  -3.8874  -3.8652  -3.8615  -3.8561  -3.7584  -3.7382
    -3.7382  -3.7226  -3.6790  -3.6735  -3.6727  -3.6384  -3.6157  -3.6070
    -3.6030  -3.5946  -3.5460  -3.5349  -3.4524  -3.4428  -3.4393  -3.4387
    -3.4257  -3.4240  -3.4238  -3.4236  -3.3862  -3.3805  -3.3605  -3.3475
    -3.3445  -3.3435  -3.3307  -3.3207  -3.3154  -3.3130  -3.3088  -3.3062
    -3.2686  -3.2626  -3.2504  -3.2190  -3.2011  -3.1977  -3.1917  -3.1908
    -3.1849  -3.1626  -3.1573  -3.1557  -3.1516  -3.1296  -3.1163  -3.1149
    -3.1146  -3.1141  -3.1073  -3.1007  -3.0851  -3.0798  -3.0734  -3.0657
    -3.0517  -3.0468  -3.0460  -3.0386  -3.0317  -3.0299  -3.0016  -2.9771
    -2.9631  -2.9547  -2.9468  -2.9394  -2.9121  -2.9103  -2.8738  -2.8717
    -2.8711  -2.8672  -2.8515  -2.8511  -2.8509  -2.8506  -2.8202  -2.8093
    -2.8042  -2.8021  -2.7889  -2.7789  -2.7669  -2.7620  -2.7575  -2.7553
    -2.7459  -2.7332  -2.7268  -2.7242  -2.7165  -2.7092  -2.7013  -2.6841
    -2.6684  -2.6661  -2.6470  -2.6421  -2.6408  -2.6357  -2.5690  -2.5613
    -2.5371  -2.5217  -2.4888  -2.4885  -2.4865  -2.4729  -2.4678  -2.4443
    -2.4073  -2.4046  -2.3456  -2.3446  -2.3287  -2.3248  -2.3191  -2.3079
    -2.1860  -2.1724

     the Fermi energy is    -4.4500 ev

!    total energy              =  -24869.07635878 Ry
     total all-electron energy =   -485548.979855 Ry
     estimated scf accuracy    <       0.00000072 Ry
     smearing contrib. (-TS)   =      -0.00000000 Ry
     internal energy E=F+TS    =  -24869.07635878 Ry

     The total energy is F=E-TS. E is the sum of the following terms:
     one-electron contribution =  479404.30852361 Ry
     hartree contribution      = -239800.08975886 Ry
     xc contribution           =   -1489.89083611 Ry
     ewald contribution        = -247126.39079417 Ry
     DFT-D3 Dispersion         =      -4.01036465 Ry
     one-center paw contrib.   =  -15853.00312860 Ry

     convergence has been achieved in  24 iterations

     negative rho (up, down):  9.805E-04 0.000E+00

     Forces acting on atoms (cartesian axes, Ry/au):

     atom    1 type  1   force =     0.00305693    0.00212030   -0.00292606
     atom    2 type  1   force =    -0.00000508   -0.00001318    0.00189059
     atom    3 type  1   force =    -0.00002582   -0.00002522   -0.00005562
     atom    4 type  2   force =     0.00000029   -0.00000125   -0.00315495
     atom    5 type  2   force =     0.00000695   -0.00000181    0.00009253
     atom    6 type  2   force =     0.00008810   -0.00006724    0.00188028
     atom    7 type  2   force =     0.00000062   -0.00000215    0.00138339
     atom    8 type  2   force =    -0.00002832    0.00000724   -0.00007981
     atom    9 type  2   force =     0.00094929    0.00023688    0.01945506
     atom   10 type  1   force =     0.00043676    0.00011323    0.00167961
     atom   11 type  1   force =    -0.00000627   -0.00000389    0.00188980
     atom   12 type  1   force =    -0.00004573   -0.00000585   -0.00000059
     atom   13 type  2   force =     0.00000013    0.00000190   -0.00315712
     atom   14 type  2   force =    -0.00002792   -0.00001114    0.00010007
     atom   15 type  2   force =     0.00014482    0.00061264    0.00002494
     atom   16 type  2   force =    -0.00000080    0.00000150    0.00140398
     atom   17 type  2   force =    -0.00004492   -0.00006584   -0.00009018
     atom   18 type  2   force =     0.00010591   -0.00171702    0.00013003
     atom   19 type  1   force =    -0.00009432   -0.00008933   -0.00012042
     atom   20 type  1   force =    -0.00001145    0.00000053    0.00189726
     atom   21 type  1   force =    -0.00000008    0.00002105   -0.00005653
     atom   22 type  2   force =    -0.00000056   -0.00000146   -0.00315235
     atom   23 type  2   force =     0.00000490    0.00000480    0.00009211
     atom   24 type  2   force =     0.00008541   -0.00002682    0.00022605
     atom   25 type  2   force =    -0.00000005    0.00000375    0.00138173
     atom   26 type  2   force =    -0.00000914    0.00002758   -0.00012668
     atom   27 type  2   force =     0.00011773    0.00024651   -0.00044625
     atom   28 type  1   force =    -0.00029848    0.00017425    0.00118838
     atom   29 type  1   force =    -0.00000003    0.00000592    0.00189979
     atom   30 type  1   force =    -0.00000292   -0.00003513   -0.00001804
     atom   31 type  2   force =    -0.00000091    0.00000113   -0.00315725
     atom   32 type  2   force =    -0.00000293   -0.00000229    0.00006957
     atom   33 type  2   force =     0.00051577   -0.00012314   -0.00017017
     atom   34 type  2   force =    -0.00000351   -0.00000112    0.00139447
     atom   35 type  2   force =     0.00000788   -0.00000974   -0.00011791
     atom   36 type  2   force =    -0.00112337    0.00093213    0.00014983
     atom   37 type  1   force =     0.00031164   -0.00043560    0.00063090
     atom   38 type  1   force =     0.00000008   -0.00000940    0.00189354
     atom   39 type  1   force =     0.00001253    0.00002472   -0.00000093
     atom   40 type  2   force =     0.00000077   -0.00000222   -0.00315601
     atom   41 type  2   force =    -0.00001065    0.00000199    0.00008902
     atom   42 type  2   force =     0.00049669    0.00009425    0.00002148
     atom   43 type  2   force =     0.00000069    0.00000035    0.00138984
     atom   44 type  2   force =    -0.00000263   -0.00001507   -0.00013391
     atom   45 type  2   force =    -0.00150904    0.00083466   -0.00010414
     atom   46 type  1   force =    -0.00069588    0.00056121   -0.00027412
     atom   47 type  1   force =     0.00000703    0.00000896    0.00188973
     atom   48 type  1   force =     0.00000636   -0.00000098    0.00000022
     atom   49 type  2   force =    -0.00000143    0.00000137   -0.00316238
     atom   50 type  2   force =    -0.00000129    0.00000456    0.00010268
     atom   51 type  2   force =     0.00022653    0.00061026   -0.00005618
     atom   52 type  2   force =    -0.00000403    0.00000623    0.00139268
     atom   53 type  2   force =     0.00000159    0.00001069   -0.00012854
     atom   54 type  2   force =     0.00050502   -0.00146119    0.00000399
     atom   55 type  1   force =     0.00011107   -0.00020487    0.00008721
     atom   56 type  1   force =     0.00000745    0.00000224    0.00188974
     atom   57 type  1   force =     0.00000281    0.00000312   -0.00003396
     atom   58 type  2   force =     0.00000015    0.00000062   -0.00316203
     atom   59 type  2   force =     0.00000201   -0.00000380    0.00010299
     atom   60 type  2   force =     0.00040030   -0.00041720    0.00021768
     atom   61 type  2   force =     0.00000183   -0.00000267    0.00139214
     atom   62 type  2   force =     0.00000795    0.00000504   -0.00012195
     atom   63 type  2   force =     0.00020861   -0.00022285   -0.00016052
     atom   64 type  1   force =    -0.00003672    0.00006868    0.00009896
     atom   65 type  1   force =    -0.00000661    0.00000186    0.00189550
     atom   66 type  1   force =    -0.00000463   -0.00001875   -0.00004753
     atom   67 type  2   force =     0.00000139    0.00000341   -0.00315667
     atom   68 type  2   force =    -0.00000443   -0.00001027    0.00008929
     atom   69 type  2   force =     0.00008519    0.00009381   -0.00006371
     atom   70 type  2   force =     0.00000335   -0.00000018    0.00139310
     atom   71 type  2   force =    -0.00001575   -0.00000403   -0.00012398
     atom   72 type  2   force =    -0.00028235    0.00002542   -0.00006957
     atom   73 type  1   force =    -0.00034299   -0.00072499    0.00021558
     atom   74 type  1   force =     0.00000543   -0.00000500    0.00189372
     atom   75 type  1   force =     0.00001698   -0.00001010   -0.00004100
     atom   76 type  2   force =     0.00000228   -0.00000187   -0.00316339
     atom   77 type  2   force =     0.00005011    0.00002985    0.00012975
     atom   78 type  2   force =    -0.00010645   -0.00013767    0.00034000
     atom   79 type  2   force =    -0.00000152   -0.00000320    0.00138856
     atom   80 type  2   force =    -0.00004549   -0.00002515   -0.00005606
     atom   81 type  2   force =     0.00007422    0.00001236   -0.00042528
     atom   82 type  1   force =    -0.00009447    0.00001332    0.00004249
     atom   83 type  1   force =    -0.00000034    0.00000794    0.00188941
     atom   84 type  1   force =     0.00001844   -0.00001860   -0.00002607
     atom   85 type  2   force =     0.00000309    0.00000263   -0.00315736
     atom   86 type  2   force =     0.00002721   -0.00000969    0.00011278
     atom   87 type  2   force =    -0.00031749    0.00000138    0.00003503
     atom   88 type  2   force =     0.00000339    0.00000730    0.00138886
     atom   89 type  2   force =     0.00004346   -0.00003087   -0.00013464
     atom   90 type  2   force =     0.00010887   -0.00045261   -0.00078286
     atom   91 type  1   force =    -0.00083182    0.00010159    0.00046948
     atom   92 type  1   force =     0.00000524   -0.00000664    0.00188926
     atom   93 type  1   force =    -0.00000571    0.00002903   -0.00003642
     atom   94 type  2   force =     0.00000078    0.00000091   -0.00315903
     atom   95 type  2   force =    -0.00000118   -0.00000018    0.00010849
     atom   96 type  2   force =    -0.00009940   -0.00020726    0.00034508
     atom   97 type  2   force =     0.00000037    0.00000102    0.00138662
     atom   98 type  2   force =    -0.00001407   -0.00000018   -0.00011456
     atom   99 type  2   force =    -0.00016402    0.00052804   -0.00082387
     atom  100 type  1   force =     0.00029071    0.00007917    0.00110524
     atom  101 type  1   force =     0.00000342    0.00001243    0.00189069
     atom  102 type  1   force =    -0.00000920    0.00001065   -0.00002369
     atom  103 type  2   force =     0.00000026    0.00000264   -0.00316183
     atom  104 type  2   force =     0.00000385    0.00002751    0.00009840
     atom  105 type  2   force =    -0.00000967   -0.00003754    0.00009936
     atom  106 type  2   force =     0.00000448    0.00000016    0.00139255
     atom  107 type  2   force =    -0.00000734    0.00004302   -0.00013065
     atom  108 type  2   force =     0.00032255    0.00007178    0.00000163
     atom  109 type  1   force =    -0.00388545    0.00199864   -0.00336390
     atom  110 type  1   force =    -0.00000205   -0.00001084    0.00189796
     atom  111 type  1   force =    -0.00000215    0.00002018    0.00012910
     atom  112 type  2   force =    -0.00000182   -0.00000078   -0.00315309
     atom  113 type  2   force =    -0.00004841    0.00002581    0.00014055
     atom  114 type  2   force =    -0.00042178   -0.00038015   -0.00034041
     atom  115 type  2   force =    -0.00000077   -0.00000127    0.00140060
     atom  116 type  2   force =     0.00007407   -0.00000249   -0.00001804
     atom  117 type  2   force =     0.00150807    0.00069681   -0.00005299
     atom  118 type  1   force =     0.00049999    0.00060109    0.00036749
     atom  119 type  1   force =    -0.00000374    0.00000911    0.00189328
     atom  120 type  1   force =     0.00002596   -0.00001137   -0.00003341
     atom  121 type  2   force =    -0.00000017    0.00000126   -0.00315772
     atom  122 type  2   force =     0.00000134   -0.00005536    0.00013687
     atom  123 type  2   force =     0.00010692   -0.00000555    0.00008971
     atom  124 type  2   force =    -0.00000098    0.00000056    0.00140302
     atom  125 type  2   force =    -0.00000108    0.00004496   -0.00006432
     atom  126 type  2   force =     0.00011447   -0.00031146   -0.00013892
     atom  127 type  1   force =     0.00073192    0.00013441    0.00021416
     atom  128 type  1   force =    -0.00000233   -0.00000911    0.00189501
     atom  129 type  1   force =     0.00000403    0.00001028   -0.00002795
     atom  130 type  2   force =     0.00000074   -0.00000073   -0.00315304
     atom  131 type  2   force =    -0.00000744    0.00000735    0.00009770
     atom  132 type  2   force =    -0.00043732   -0.00007507    0.00018337
     atom  133 type  2   force =    -0.00000418   -0.00000254    0.00138689
     atom  134 type  2   force =     0.00000904    0.00002135   -0.00012760
     atom  135 type  2   force =    -0.00017800    0.00016021   -0.00026134
     atom  136 type  1   force =    -0.00018459   -0.00439591   -0.00302379
     atom  137 type  1   force =    -0.00000038    0.00000472    0.00189530
     atom  138 type  1   force =     0.00001718    0.00000731    0.00000197
     atom  139 type  2   force =     0.00000079    0.00000145   -0.00316009
     atom  140 type  2   force =     0.00000307   -0.00000509    0.00008852
     atom  141 type  2   force =    -0.00053488   -0.00027001   -0.00000528
     atom  142 type  2   force =    -0.00000481    0.00000026    0.00139223
     atom  143 type  2   force =     0.00001674   -0.00000481   -0.00013359
     atom  144 type  2   force =     0.00116665    0.00093172    0.00012093
     atom  145 type  3   force =    -0.00127131   -0.00106355   -0.00001437
     atom  146 type  3   force =     0.00016421    0.00075538   -0.01790070
     The non-local contrib.  to forces
     atom    1 type  1   force =    -0.00527353   -0.00274661    0.00714487
     atom    2 type  1   force =    -0.00000371   -0.00000647   -0.00195992
     atom    3 type  1   force =     0.00008531   -0.00012970   -0.00074962
     atom    4 type  2   force =    -0.00000119   -0.00000075    0.26311747
     atom    5 type  2   force =     0.00001788   -0.00007940    0.26636661
     atom    6 type  2   force =    -0.00123575   -0.00183229    0.26686468
     atom    7 type  2   force =     0.00000126   -0.00000090   -0.26455055
     atom    8 type  2   force =    -0.00016640    0.00009560   -0.26474085
     atom    9 type  2   force =    -0.00565595   -0.00187068   -0.05723252
     atom   10 type  1   force =     0.00149810   -0.00070707   -0.00128986
[...]
     atom   65 type  1   force =    -0.00000030   -0.00000011    0.00260476
     atom   66 type  1   force =    -0.00000215    0.00000069   -0.00001999
     atom   67 type  2   force =    -0.00000007    0.00000003    0.00441098
     atom   68 type  2   force =    -0.00000187   -0.00000016   -0.00004782
     atom   69 type  2   force =     0.00000431   -0.00000448   -0.00019480
     atom   70 type  2   force =    -0.00000011    0.00000008    0.00023643
     atom   71 type  2   force =    -0.00001578    0.00001284    0.00009313
     atom   72 type  2   force =    -0.00008103    0.00007197   -0.00435220
     atom   73 type  1   force =     0.00005940    0.00001200   -0.00241548
     atom   74 type  1   force =    -0.00000024   -0.00000020    0.00260392
     atom   75 type  1   force =     0.00000718   -0.00000853   -0.00002661
     atom   76 type  2   force =    -0.00000001    0.00000001    0.00441083
     atom   77 type  2   force =    -0.00000077   -0.00000031   -0.00004681
     atom   78 type  2   force =     0.00000899    0.00000577   -0.00015140
     atom   79 type  2   force =    -0.00000053   -0.00000034    0.00023627
     atom   80 type  2   force =     0.00000490    0.00000160    0.00010010
     atom   81 type  2   force =    -0.00017714    0.00021365   -0.00429282
     atom   82 type  1   force =    -0.00023007    0.00000627   -0.00234113
     atom   83 type  1   force =    -0.00000022    0.00000009    0.00260414
     atom   84 type  1   force =     0.00000796   -0.00000709   -0.00005836
     atom   85 type  2   force =     0.00000000   -0.00000002    0.00441070
     atom   86 type  2   force =    -0.00000009   -0.00000031   -0.00005018
     atom   87 type  2   force =    -0.00003501    0.00002211    0.00013188
     atom   88 type  2   force =    -0.00000030    0.00000005    0.00023623
     atom   89 type  2   force =     0.00001077   -0.00000907    0.00009925
     atom   90 type  2   force =     0.00094600   -0.00064880   -0.00529731
     atom   91 type  1   force =    -0.00006907   -0.00006956   -0.00222234
     atom   92 type  1   force =    -0.00000001    0.00000003    0.00260443
     atom   93 type  1   force =    -0.00000068    0.00001202   -0.00005813
     atom   94 type  2   force =    -0.00000002    0.00000000    0.00441061
     atom   95 type  2   force =     0.00000080    0.00000078   -0.00005372
     atom   96 type  2   force =     0.00000208   -0.00004363    0.00012849
     atom   97 type  2   force =    -0.00000002    0.00000002    0.00023632
     atom   98 type  2   force =     0.00001391    0.00001057    0.00008314
     atom   99 type  2   force =     0.00002026    0.00123030   -0.00532711
     atom  100 type  1   force =     0.00024679    0.00005811   -0.00222532
     atom  101 type  1   force =    -0.00000004   -0.00000022    0.00260424
     atom  102 type  1   force =    -0.00000139    0.00001103   -0.00002733
     atom  103 type  2   force =     0.00000001    0.00000001    0.00441078
     atom  104 type  2   force =     0.00000015   -0.00000004   -0.00004998
     atom  105 type  2   force =     0.00000104    0.00000250   -0.00014784
     atom  106 type  2   force =    -0.00000009   -0.00000030    0.00023629
     atom  107 type  2   force =     0.00000135    0.00001473    0.00009893
     atom  108 type  2   force =     0.00019917   -0.00020120   -0.00426896
     atom  109 type  1   force =     0.00020777   -0.00003646   -0.00218393
     atom  110 type  1   force =     0.00000018   -0.00000019    0.00260384
     atom  111 type  1   force =     0.00000136   -0.00000107   -0.00001244
     atom  112 type  2   force =    -0.00000001   -0.00000002    0.00441064
     atom  113 type  2   force =     0.00000122   -0.00000027   -0.00004641
     atom  114 type  2   force =     0.00004263    0.00000242   -0.00010659
     atom  115 type  2   force =    -0.00000005   -0.00000050    0.00023625
     atom  116 type  2   force =    -0.00000270    0.00000108    0.00010223
     atom  117 type  2   force =     0.00035703   -0.00000887   -0.00415096
     atom  118 type  1   force =     0.00009163   -0.00011386   -0.00243209
     atom  119 type  1   force =     0.00000005    0.00000025    0.00260379
     atom  120 type  1   force =     0.00001201   -0.00000381   -0.00002743
     atom  121 type  2   force =    -0.00000001   -0.00000000    0.00441067
     atom  122 type  2   force =     0.00000014    0.00000085   -0.00004682
     atom  123 type  2   force =    -0.00000072   -0.00000831   -0.00014803
     atom  124 type  2   force =    -0.00000041    0.00000020    0.00023623
     atom  125 type  2   force =     0.00000263   -0.00000484    0.00010237
     atom  126 type  2   force =    -0.00016793   -0.00001003   -0.00426270
     atom  127 type  1   force =    -0.00013457    0.00007569   -0.00242302
     atom  128 type  1   force =     0.00000008    0.00000034    0.00260451
     atom  129 type  1   force =     0.00001180    0.00000928   -0.00003938
     atom  130 type  2   force =     0.00000001   -0.00000000    0.00441079
     atom  131 type  2   force =     0.00000099    0.00000186   -0.00004816
     atom  132 type  2   force =    -0.00002253   -0.00001575   -0.00010660
     atom  133 type  2   force =    -0.00000023    0.00000023    0.00023600
     atom  134 type  2   force =     0.00002046    0.00000889    0.00009171
     atom  135 type  2   force =    -0.00034405   -0.00007884   -0.00419272
     atom  136 type  1   force =    -0.00001376    0.00016263   -0.00219874
     atom  137 type  1   force =     0.00000030   -0.00000005    0.00260449
     atom  138 type  1   force =     0.00000293    0.00001182   -0.00002460
     atom  139 type  2   force =    -0.00000000    0.00000003    0.00441069
     atom  140 type  2   force =     0.00000187   -0.00000002   -0.00004784
     atom  141 type  2   force =     0.00001731    0.00004252   -0.00007733
     atom  142 type  2   force =     0.00000004   -0.00000030    0.00023624
     atom  143 type  2   force =     0.00001574    0.00001584    0.00009418
     atom  144 type  2   force =     0.00007498    0.00004456   -0.00406357
     atom  145 type  3   force =    -0.00043198   -0.00044475    0.00278779
     atom  146 type  3   force =     0.00027172    0.00029187   -0.00537906

     Total force =     0.003082     Total SCF correction =     0.000362
     SCF correction compared to forces is large: reduce conv_thr to get better values
     Energy error            =      1.6E-05 Ry
     Gradient error          =      9.9E-04 Ry/Bohr

     bfgs converged in  10 scf cycles and   9 bfgs steps
     (criteria: energy <  1.0E-04 Ry, force <  1.0E-03 Ry/Bohr)

     End of BFGS Geometry Optimization

     Final energy             =  -24869.0774337673 Ry

     File ./outdir/pwscf.bfgs deleted, as requested
Begin final coordinates

ATOMIC_POSITIONS (angstrom)
Mo            1.5773902504        2.7224707892        6.0794419731
Mo            1.5769197498        0.9104407117       -6.0872367793    0   0   0
Mo            0.0001561702        1.8210507246       -0.0005801014
S             0.0000044503        0.0000077495       -7.6506323570    0   0   0
S             1.5766867049        0.9108770666       -1.5667430327
S             0.0027205211        1.8220009292        4.5081768350
S             0.0000053241        0.0000068460       -4.5222282367    0   0   0
S             1.5770992901        0.9101387380        1.5658199421
S            -0.0090118479        1.8089670895        7.6363669657
Mo           -0.0136408174        5.4617471710        6.0940439904
Mo            0.0000011799        3.6417399547       -6.0872367793    0   0   0
Mo           -1.5766069991        4.5522058442       -0.0004337767
S            -1.5769141197        2.7313069925       -7.6506323570    0   0   0
S             0.0000818955        3.6418564219       -1.5658807610
S            -1.5729236591        4.5591326385        4.5075696039
S            -1.5769132459        2.7313060890       -4.5222282367    0   0   0
S             0.0009566277        3.6420337663        1.5673650384
S            -1.5941043500        4.5416755430        7.6501279127
Mo           -1.5780055922        8.1946174367        6.0815292749
Mo           -1.5769173901        6.3730391977       -6.0872367793    0   0   0
Mo           -3.1538824125        7.2833597151       -0.0022462464
S            -3.1538326896        5.4626062355       -7.6506323570    0   0   0
S            -1.5766341045        6.3724508482       -1.5669064318
S            -3.1525546425        7.2865218738        4.5119586722
S            -3.1538318159        5.4626053320       -4.5222282367    0   0   0
S            -1.5770984182        6.3738455139        1.5653473403
S            -3.1526583699        7.2830088638        7.6468512285
Mo            3.1520213492       -0.0005076535        6.0833113866
Mo           -3.1538359601        9.1043384407       -6.0872367793    0   0   0
Mo           -4.7308481635       10.0149033543       -0.0019080301
S            -4.7307512596        8.1939054785       -7.6506323570    0   0   0
S            -3.1539602441        9.1044180987       -1.5676758302
S            -4.7238298493       10.0109778899        4.5082646278
S            -4.7307503859        8.1939045750       -4.5222282367    0   0   0
S            -3.1536699759        9.1042265552        1.5643306579
S            -4.7367714441       10.0174951178        7.6468204800
Mo            4.7377555256        2.7166877410        6.0904292086
Mo            4.7307503218        0.9104407117       -6.0872367793    0   0   0
Mo            3.1537300346        1.8209619397       -0.0012010539
S             3.1538350223        0.0000077495       -7.6506323570    0   0   0
S             4.7308498686        0.9109457919       -1.5669136501
S             3.1588027530        1.8196333751        4.5149724563
S             3.1538358961        0.0000068460       -4.5222282367    0   0   0
S             4.7304715059        0.9098867140        1.5653005344
S             3.1493600778        1.8181053735        7.6527145725
Mo            3.1525038353        5.4640245845        6.1473538066
Mo            3.1538317519        3.6417399547       -6.0872367793    0   0   0
Mo            1.5771070135        4.5522948723       -0.0006032511
S             1.5769164523        2.7313069925       -7.6506323570    0   0   0
S             3.1537369917        3.6419535833       -1.5663545086
S             1.5978569847        4.5702965701        4.5591352818
S             1.5769173261        2.7313060890       -4.5222282367    0   0   0
S             3.1537790358        3.6416516200        1.5668434800
S             1.4804912063        4.4891416174        7.7079342211
Mo            1.5691776710        8.2059888854        6.0911876394
Mo            1.5769131819        6.3730391977       -6.0872367793    0   0   0
Mo            0.0000985188        7.2834709785       -0.0014544626
S            -0.0000021176        5.4626062355       -7.6506323570    0   0   0
S             1.5770767511        6.3727758685       -1.5665707486
S             0.0016557020        7.2807947309        4.5210089511
S            -0.0000012439        5.4626053320       -4.5222282367    0   0   0
S             1.5768150894        6.3732837458        1.5664269543
S            -0.0052727202        7.2863086427        7.6548690825
Mo            6.3084926759        0.0003141288        6.0747322574
Mo           -0.0000053881        9.1043384407       -6.0872367793    0   0   0
Mo           -1.5767914993       10.0147694580       -0.0021790420
S            -1.5769206876        8.1939054785       -7.6506323570    0   0   0
S             0.0005108777        9.1043038758       -1.5670107963
S            -1.5799205778       10.0141016961        4.5132932163
S            -1.5769198139        8.1939045750       -4.5222282367    0   0   0
S            -0.0006183381        9.1041403360        1.5657616442
S            -1.5769233386       10.0159559994        7.6474101171
Mo            7.8856861952        2.7283656123        6.0752022165
Mo            7.8845808939        0.9104407117       -6.0872367793    0   0   0
Mo            6.3074480564        1.8210581000       -0.0007714484
S             6.3076655943        0.0000077495       -7.6506323570    0   0   0
S             7.8847228506        0.9104995593       -1.5660046640
S             6.3047832890        1.8209020696        4.5098340200
S             6.3076664681        0.0000068460       -4.5222282367    0   0   0
S             7.8841129139        0.9101769745        1.5660670055
S             6.3197674951        1.8075739526        7.6498878274
Mo            6.3223935239        5.4632858066        6.0888973952
Mo            6.3076623239        3.6417399547       -6.0872367793    0   0   0
Mo            4.7303886558        4.5523242526       -0.0006582224
S             4.7307470244        2.7313069925       -7.6506323570    0   0   0
S             6.3075323737        3.6418838111       -1.5660232227
S             4.7094527235        4.5635114200        4.5627512030
S             4.7307478981        2.7313060890       -4.5222282367    0   0   0
S             6.3066695604        3.6422080821        1.5671425657
S             4.8265499980        4.4965743992        7.7058383103
Mo            4.7364141711        8.2068651447        6.0909205863
Mo            4.7307437539        6.3730391977       -6.0872367793    0   0   0
Mo            3.1538057333        7.2830952578       -0.0009358410
S             3.1538284544        5.4626062355       -7.6506323570    0   0   0
S             4.7305674838        6.3728579006       -1.5665070499
S             3.1527068500        7.2605822538        4.5626657842
S             3.1538293281        5.4626053320       -4.5222282367    0   0   0
S             4.7306974761        6.3730949607        1.5666852864
S             3.1526471852        7.3944678359        7.7085647043
Mo            9.4633148346        0.0025283440        6.0776872279
Mo            3.1538251839        9.1043384407       -6.0872367793    0   0   0
Mo            1.5768643125       10.0144683860       -0.0007062803
S             1.5769098844        8.1939054785       -7.6506323570    0   0   0
S             3.1538804516        9.1042893616       -1.5660545448
S             1.5779413055       10.0120495284        4.5114218236
S             1.5769107581        8.1939045750       -4.5222282367    0   0   0
S             3.1535907948        9.1030958947        1.5668589825
S             1.5735875607       10.0318327202        7.6506412004
Mo           -1.5846453550        2.7339412088        6.0654661388
Mo           11.0384114659        0.9104407117       -6.0872367793    0   0   0
Mo            9.4615206157        1.8208300694       -0.0005083836
S             9.4614961663        0.0000077495       -7.6506323570    0   0   0
S            11.0382737366        0.9104296311       -1.5658602193
S             9.4571699869        1.8179587442        4.5043777802
S             9.4614970401        0.0000068460       -4.5222282367    0   0   0
S            11.0388372320        0.9103993082        1.5665547646
S             9.4663016492        1.8242946292        7.6433805941
Mo           -3.1520679379        5.4628153635        6.0745760294
Mo            9.4614928959        3.6417399547       -6.0872367793    0   0   0
Mo            7.8843290297        4.5522224850       -0.0004865320
S             7.8845775964        2.7313069925       -7.6506323570    0   0   0
S             9.4615339452        3.6416377720       -1.5657874437
S             7.8832083930        4.5531211639        4.5101211171
S             7.8845784701        2.7313060890       -4.5222282367    0   0   0
S             9.4615227812        3.6420063739        1.5665175252
S             7.9013609999        4.5470815090        7.6483421235
Mo           -4.7275255551        8.1954984306        6.0811044050
Mo            7.8845743259        6.3730391977       -6.0872367793    0   0   0
Mo            6.3074899000        7.2834112042       -0.0012454737
S             6.3076590264        5.4626062355       -7.6506323570    0   0   0
S             7.8841775524        6.3725315514       -1.5668692084
S             6.3059809112        7.2841349788        4.5195121737
S             6.3076599001        5.4626053320       -4.5222282367    0   0   0
S             7.8847530878        6.3736648757        1.5656127108
S             6.3132687995        7.2872180551        7.6519649839
Mo           -0.0007349511       -0.0077571819        6.0644237178
Mo            6.3076557559        9.1043384407       -6.0872367793    0   0   0
Mo            4.7306186263       10.0145805107       -0.0004555679
S             4.7307404564        8.1939054785       -7.6506323570    0   0   0
S             6.3070824095        9.1043847707       -1.5667062685
S             4.7257198799       10.0087428423        4.5065551309
S             4.7307413301        8.1939045750       -4.5222282367    0   0   0
S             6.3082025286        9.1042092353        1.5657478368
S             4.7402422437       10.0334777176        7.6499749314
Pd            3.1435173406        5.4543298225        9.0191019490
Pd           -0.0105985320        1.8187285918        9.7939908240
End final coordinates



     Writing all to output data dir ./outdir/pwscf.save/
 
     init_run     :    103.33s CPU    105.83s WALL (       1 calls)
     electrons    :  45185.12s CPU  45730.95s WALL (      10 calls)
     update_pot   :     37.62s CPU     37.77s WALL (       9 calls)
     forces       :    669.97s CPU    689.53s WALL (      10 calls)
     force_dftd3  :      4.60s CPU      4.60s WALL (      10 calls)

     Called by init_run:
     wfcinit      :     84.59s CPU     85.90s WALL (       1 calls)
     potinit      :      1.82s CPU      1.89s WALL (       1 calls)
     hinit0       :     11.65s CPU     11.68s WALL (       1 calls)

     Called by electrons:
     c_bands      :  40309.40s CPU  40566.54s WALL (     125 calls)
     sum_band     :   4477.33s CPU   4645.68s WALL (     125 calls)
     v_of_rho     :     50.33s CPU     51.05s WALL (     125 calls)
     newd         :    259.49s CPU    384.84s WALL (     125 calls)
     PAW_pot      :     73.28s CPU     73.32s WALL (     134 calls)
     mix_rho      :     11.80s CPU     11.79s WALL (     125 calls)
     energy_dftd3 :      2.05s CPU      2.05s WALL (      10 calls)

     Called by c_bands:
     init_us_2    :    197.07s CPU    197.15s WALL (    1080 calls)
     init_us_2:cp :    197.06s CPU    197.15s WALL (    1080 calls)
     cegterg      :  39656.95s CPU  39911.84s WALL (     515 calls)

     Called by *egterg:
     cdiaghg      :   2612.43s CPU   2620.67s WALL (    6494 calls)
     h_psi        :  21259.69s CPU  21334.66s WALL (    6574 calls)
     s_psi        :   4334.53s CPU   4335.08s WALL (    6574 calls)
     g_psi        :     46.58s CPU     46.61s WALL (    6055 calls)

     Called by h_psi:
     h_psi:calbec :   4283.46s CPU   4284.48s WALL (    6574 calls)
     vloc_psi     :  12539.62s CPU  12569.87s WALL (    6574 calls)
     add_vuspsi   :   4381.64s CPU   4382.49s WALL (    6574 calls)

     General routines
     calbec       :   6048.85s CPU   6050.21s WALL (    7270 calls)
     fft          :     46.59s CPU     47.68s WALL (    1734 calls)
     ffts         :      2.15s CPU      2.23s WALL (     250 calls)
     fftw         :   9931.98s CPU   9953.51s WALL ( 2786586 calls)
     interpolate  :      5.04s CPU      5.08s WALL (     125 calls)
 
     Parallel routines
 
     PWSCF        :     12h50m CPU     13h 0m WALL

 
   This run was terminated on:  18:41:23   4Oct2023            

=------------------------------------------------------------------------------=
   JOB DONE.
=------------------------------------------------------------------------------=
Application 11264999 resources: utime ~1663910s, stime ~20940s, Rss ~2364376, inblocks ~0, outblocks ~34682336
