
     Program PWSCF v.7.2 starts on  7Mar2024 at 23:12:22 

     This program is part of the open-source Quantum ESPRESSO suite
     for quantum simulation of materials; please cite
         "P. Giannozzi et al., J. Phys.:Condens. Matter 21 395502 (2009);
         "P. Giannozzi et al., J. Phys.:Condens. Matter 29 465901 (2017);
         "P. Giannozzi et al., J. Chem. Phys. 152 154105 (2020);
          URL http://www.quantum-espresso.org", 
     in publications or presentations arising from this work. More details at
     http://www.quantum-espresso.org/quote

     Parallel version (MPI), running on    48 processors

     MPI processes distributed on     1 nodes
     975788 MiB available memory on the printing compute node when the environment starts
 
     Waiting for input...
     Reading input from standard input
Warning: card &CELL ignored
Warning: card / ignored

     Current dimensions of program PWSCF are:
     Max number of different atomic species (ntypx) = 10
     Max number of k-points (npk) =  40000
     Max angular momentum in pseudopotentials (lmaxx) =  4
     file O.pbe-n-kjpaw_psl.1.0.0.UPF: wavefunction(s)  2S 2P renormalized
     file N.pbe-n-kjpaw_psl.1.0.0.UPF: wavefunction(s)  2S renormalized
     file C.pbe-n-kjpaw_psl.1.0.0.UPF: wavefunction(s)  2S 2P renormalized
     file H.pbe-kjpaw_psl.1.0.0.UPF: wavefunction(s)  1S renormalized
 
     R & G space division:  proc/nbgrp/npool/nimage =      48
     Subspace diagonalization in iterative solution of the eigenvalue problem:
     one sub-group per band group will be used
     ELPA distributed-memory algorithm (size of sub-group:  3*  3 procs)

 
     Parallelization info
     --------------------
     sticks:   dense  smooth     PW     G-vecs:    dense   smooth      PW
     Min         196      70     19                26847     5797     859
     Max         197      71     20                26857     5808     873
     Sum        9427    3389    955              1288795   278483   41689
 
     Using Slab Decomposition
 


     bravais-lattice index     =            0
     lattice parameter (alat)  =      32.1505  a.u.
     unit-cell volume          =    9540.1310 (a.u.)^3
     number of atoms/cell      =          144
     number of atomic types    =            4
     number of electrons       =       440.00
     number of Kohn-Sham states=          264
     kinetic-energy cutoff     =      36.0000  Ry
     charge density cutoff     =     400.0000  Ry
     scf convergence threshold =      1.0E-06
     mixing beta               =       0.2000
     number of iterations used =            8  plain     mixing
     energy convergence thresh.=      1.0E-04
     force convergence thresh. =      1.0E-03
     Exchange-correlation= SLA  PW   PBX  PBC
                           (   1   4   3   4   0   0   0)
     nstep                     =         9999


     celldm(1)=  32.150477  celldm(2)=   0.000000  celldm(3)=   0.000000
     celldm(4)=   0.000000  celldm(5)=   0.000000  celldm(6)=   0.000000

     crystal axes: (cart. coord. in units of alat)
               a(1) = (   1.000000   0.000000   0.000000 )  
               a(2) = (   0.000000   0.286188   0.000000 )  
               a(3) = (  -0.059595   0.000000   1.003092 )  

     reciprocal axes: (cart. coord. in units 2 pi/alat)
               b(1) = (  1.000000  0.000000  0.059411 )  
               b(2) = (  0.000000  3.494208  0.000000 )  
               b(3) = (  0.000000  0.000000  0.996917 )  


     PseudoPot. # 1 for O  read from file:
     ./pseudo/O.pbe-n-kjpaw_psl.1.0.0.UPF
     MD5 check sum: 54880130194cacfd11baed2e72b13d2a
     Pseudo is Projector augmented-wave + core cor, Zval =  6.0
     Generated using 'atomic' code by A. Dal Corso  v.7.2
     Shape of augmentation charge: PSQ
     Using radial grid of 1095 points,  4 beta functions with: 
                l(1) =   0
                l(2) =   0
                l(3) =   1
                l(4) =   1
     Q(r) pseudized with 0 coefficients 


     PseudoPot. # 2 for N  read from file:
     ./pseudo/N.pbe-n-kjpaw_psl.1.0.0.UPF
     MD5 check sum: 6654930a71f78718b13e91073ae2a058
     Pseudo is Projector augmented-wave + core cor, Zval =  5.0
     Generated using 'atomic' code by A. Dal Corso  v.7.2
     Shape of augmentation charge: PSQ
     Using radial grid of 1085 points,  4 beta functions with: 
                l(1) =   0
                l(2) =   0
                l(3) =   1
                l(4) =   1
     Q(r) pseudized with 0 coefficients 


     PseudoPot. # 3 for C  read from file:
     ./pseudo/C.pbe-n-kjpaw_psl.1.0.0.UPF
     MD5 check sum: 6b0792899573946bb42fe395835041da
     Pseudo is Projector augmented-wave + core cor, Zval =  4.0
     Generated using 'atomic' code by A. Dal Corso  v.7.2
     Shape of augmentation charge: PSQ
     Using radial grid of 1073 points,  4 beta functions with: 
                l(1) =   0
                l(2) =   0
                l(3) =   1
                l(4) =   1
     Q(r) pseudized with 0 coefficients 


     PseudoPot. # 4 for H  read from file:
     ./pseudo/H.pbe-kjpaw_psl.1.0.0.UPF
     MD5 check sum: b3cb3c48ee3b58cc53e4d592112d0ca6
     Pseudo is Projector augmented-wave, Zval =  1.0
     Generated using 'atomic' code by A. Dal Corso  v.7.2
     Shape of augmentation charge: PSQ
     Using radial grid of  929 points,  2 beta functions with: 
                l(1) =   0
                l(2) =   0
     Q(r) pseudized with 0 coefficients 


     atomic species   valence    mass     pseudopotential
        O              6.00    15.99900     O ( 1.00)
        N              5.00    14.00700     N ( 1.00)
        C              4.00    12.01100     C ( 1.00)
        H              1.00     1.00800     H ( 1.00)

     No symmetry found



   Cartesian axes

     site n.     atom                  positions (alat units)
         1           O   tau(   1) = (   0.6543535   0.2353323   0.3205883  )
         2           O   tau(   2) = (   0.3158491   0.0922383   0.1809578  )
         3           O   tau(   3) = (   0.2860518   0.0508556   0.6825039  )
         4           O   tau(   4) = (   0.6245562   0.1939495   0.8221343  )
         5           O   tau(   5) = (   0.7830233   0.1337928   0.1763436  )
         6           O   tau(   6) = (   0.1871794   0.2768868   0.3252025  )
         7           O   tau(   7) = (   0.1573821   0.1523950   0.8267486  )
         8           O   tau(   8) = (   0.7532259   0.0093011   0.6778897  )
         9           N   tau(   9) = (   0.7228695   0.0369182   0.2462591  )
        10           N   tau(  10) = (   0.2473332   0.1800122   0.2552870  )
        11           N   tau(  11) = (   0.2175358   0.2492696   0.7568330  )
        12           N   tau(  12) = (   0.6930722   0.1061757   0.7478052  )
        13           C   tau(  13) = (   0.4897627   0.1968114   0.1403326  )
        14           C   tau(  14) = (   0.4804400   0.0537175   0.3612135  )
        15           C   tau(  15) = (   0.4506426   0.0893765   0.8627596  )
        16           C   tau(  16) = (   0.4599654   0.2324704   0.6418787  )
        17           C   tau(  17) = (   0.5442811   0.2071714   0.2006184  )
        18           C   tau(  18) = (   0.4259216   0.0640775   0.3009277  )
        19           C   tau(  19) = (   0.3961243   0.0790165   0.8024737  )
        20           C   tau(  20) = (   0.5144837   0.2221104   0.7021645  )
        21           C   tau(  21) = (   0.6040102   0.2606885   0.1933962  )
        22           C   tau(  22) = (   0.3661925   0.1175946   0.3081499  )
        23           C   tau(  23) = (   0.3363952   0.0254993   0.8096960  )
        24           C   tau(  24) = (   0.5742128   0.1685933   0.6949423  )
        25           C   tau(  25) = (   0.6106341   0.0196325   0.1239822  )
        26           C   tau(  26) = (   0.3595686   0.1627264   0.3775639  )
        27           C   tau(  27) = (   0.3297712   0.2665554   0.8791100  )
        28           C   tau(  28) = (   0.5808368   0.1234614   0.6255283  )
        29           C   tau(  29) = (   0.6726049   0.0747237   0.1160578  )
        30           C   tau(  30) = (   0.2975978   0.2178176   0.3854883  )
        31           C   tau(  31) = (   0.2678004   0.2114642   0.8870344  )
        32           C   tau(  32) = (   0.6428076   0.0683703   0.6176039  )
        33           C   tau(  33) = (   0.6796335   0.1177377   0.0482487  )
        34           C   tau(  34) = (   0.2905692   0.2608316   0.4532974  )
        35           C   tau(  35) = (   0.2607718   0.1684502   0.9548434  )
        36           C   tau(  36) = (   0.6498362   0.0253562   0.5497948  )
        37           C   tau(  37) = (   0.5662741   0.1084938   0.9901523  )
        38           C   tau(  38) = (   0.3443339   0.2515878   0.5144860  )
        39           C   tau(  39) = (   0.3741312   0.1776940   0.0129399  )
        40           C   tau(  40) = (   0.5960714   0.0346001   0.4886062  )
        41           C   tau(  41) = (   0.5041583   0.0558353   0.9954687  )
        42           C   tau(  42) = (   0.4064498   0.1989292   0.5091696  )
        43           C   tau(  43) = (   0.4362471   0.2303526   0.0076235  )
        44           C   tau(  44) = (   0.5339556   0.0872587   0.4939226  )
        45           C   tau(  45) = (   0.5553932   0.0103600   0.0623923  )
        46           C   tau(  46) = (   0.4148095   0.1534539   0.4391538  )
        47           C   tau(  47) = (   0.3850121   0.2758279   0.9406998  )
        48           C   tau(  48) = (   0.5255959   0.1327339   0.5639384  )
        49           C   tau(  49) = (   0.4936509   0.2401689   0.0715205  )
        50           C   tau(  50) = (   0.4765518   0.0970749   0.4300256  )
        51           C   tau(  51) = (   0.4467544   0.0460190   0.9315717  )
        52           C   tau(  52) = (   0.4638536   0.1891129   0.5730666  )
        53           C   tau(  53) = (   0.6611544   0.2708196   0.2582962  )
        54           C   tau(  54) = (   0.3090483   0.1277256   0.2432499  )
        55           C   tau(  55) = (   0.2792510   0.0153683   0.7447959  )
        56           C   tau(  56) = (   0.6313570   0.1584622   0.7598423  )
        57           C   tau(  57) = (   0.7308147   0.0852840   0.1798544  )
        58           C   tau(  58) = (   0.2393880   0.2283779   0.3216917  )
        59           C   tau(  59) = (   0.2095907   0.2009039   0.8232377  )
        60           C   tau(  60) = (   0.7010174   0.0578099   0.6814005  )
        61           C   tau(  61) = (   0.7825223   0.0431857   0.3076484  )
        62           C   tau(  62) = (   0.1876804   0.1862797   0.1938977  )
        63           C   tau(  63) = (   0.1578830   0.2430021   0.6954438  )
        64           C   tau(  64) = (   0.7527250   0.0999082   0.8091945  )
        65           C   tau(  65) = (   0.8511468   0.0006296   0.2988212  )
        66           C   tau(  66) = (   0.1190559   0.1437235   0.2027249  )
        67           C   tau(  67) = (   0.0892586   0.2855583   0.7042710  )
        68           C   tau(  68) = (   0.8213494   0.1424643   0.8003672  )
        69           C   tau(  69) = (   0.9105154   0.0088432   0.3548940  )
        70           C   tau(  70) = (   0.0596873   0.1519371   0.1466521  )
        71           C   tau(  71) = (   0.0298899   0.2773447   0.6481982  )
        72           C   tau(  72) = (   0.8807181   0.1342507   0.8564401  )
        73           C   tau(  73) = (   0.8972729   0.0582392   0.4178882  )
        74           C   tau(  74) = (   0.0729298   0.2013332   0.0836579  )
        75           C   tau(  75) = (   0.0431325   0.2279486   0.5852040  )
        76           C   tau(  76) = (   0.8674755   0.0848547   0.9194343  )
        77           C   tau(  77) = (   0.8281425   0.1008812   0.4268157  )
        78           C   tau(  78) = (   0.1420602   0.2439752   0.0747304  )
        79           C   tau(  79) = (   0.1122629   0.1853066   0.5762765  )
        80           C   tau(  80) = (   0.7983451   0.0422127   0.9283618  )
        81           C   tau(  81) = (   0.7699155   0.0928966   0.3700407  )
        82           C   tau(  82) = (   0.2002871   0.2359905   0.1315054  )
        83           C   tau(  83) = (   0.1704898   0.1932913   0.6330515  )
        84           C   tau(  84) = (   0.7401182   0.0501974   0.8715868  )
        85           C   tau(  85) = (  -0.0137078   0.2498420   0.3468693  )
        86           C   tau(  86) = (   0.9839105   0.1067481   0.1546768  )
        87           C   tau(  87) = (   0.9541132   0.0363459   0.6562229  )
        88           C   tau(  88) = (  -0.0435052   0.1794398   0.8484154  )
        89           C   tau(  89) = (   0.8165483   0.1553714   0.4957282  )
        90           C   tau(  90) = (   0.1536544   0.0122775   0.0058179  )
        91           C   tau(  91) = (   0.1238570   0.1308165   0.5073640  )
        92           C   tau(  92) = (   0.7867510   0.2739104   0.9972742  )
        93           H   tau(  93) = (   0.4489932   0.1590632   0.1465518  )
        94           H   tau(  94) = (   0.5212095   0.0159693   0.3549943  )
        95           H   tau(  95) = (   0.4914121   0.1271246   0.8565404  )
        96           H   tau(  96) = (   0.4191959   0.2702186   0.6480979  )
        97           H   tau(  97) = (   0.5399099   0.1767782   0.2472622  )
        98           H   tau(  98) = (   0.4302928   0.0336843   0.2542839  )
        99           H   tau(  99) = (   0.4004954   0.1094096   0.7558300  )
       100           H   tau( 100) = (   0.5101126   0.2525036   0.7488083  )
       101           H   tau( 101) = (   0.7251136   0.1622113   0.0435342  )
       102           H   tau( 102) = (   0.2450891   0.0191173   0.4580119  )
       103           H   tau( 103) = (   0.2152918   0.1239766   0.9595580  )
       104           H   tau( 104) = (   0.6953163   0.2670705   0.5450803  )
       105           H   tau( 105) = (   0.5763790   0.1402321   0.9378912  )
       106           H   tau( 106) = (   0.3342290   0.2833260   0.5667471  )
       107           H   tau( 107) = (   0.3640263   0.1459558   0.0652010  )
       108           H   tau( 108) = (   0.6061763   0.0028619   0.4363451  )
       109           H   tau( 109) = (   0.8582715   0.2387093   0.2512746  )
       110           H   tau( 110) = (   0.1119311   0.0956154   0.2502715  )
       111           H   tau( 111) = (   0.0821338   0.0474786   0.7518176  )
       112           H   tau( 112) = (   0.8284742   0.1905725   0.7528207  )
       113           H   tau( 113) = (   0.9378911   0.0600422   0.4630273  )
       114           H   tau( 114) = (   0.0323116   0.2031361   0.0385187  )
       115           H   tau( 115) = (   0.0025142   0.2261457   0.5400648  )
       116           H   tau( 116) = (   0.9080938   0.0830517   0.9645734  )
       117           H   tau( 117) = (   0.7108665   0.1275253   0.3725484  )
       118           H   tau( 118) = (   0.2593361   0.2706192   0.1289977  )
       119           H   tau( 119) = (   0.2295388   0.1586626   0.6305437  )
       120           H   tau( 120) = (   0.6810692   0.0155686   0.8740945  )
       121           H   tau( 121) = (   0.9755743   0.1952946   0.3471702  )
       122           H   tau( 122) = (  -0.0053716   0.0522007   0.1543759  )
       123           H   tau( 123) = (  -0.0351689   0.0908933   0.6559220  )
       124           H   tau( 124) = (   0.9457770   0.2339872   0.8487163  )
       125           H   tau( 125) = (   0.0110527   0.2639224   0.2987208  )
       126           H   tau( 126) = (   0.9591500   0.1208285   0.2028252  )
       127           H   tau( 127) = (   0.9293526   0.0222654   0.7043713  )
       128           H   tau( 128) = (  -0.0187446   0.1653593   0.8002669  )
       129           H   tau( 129) = (   0.0200594   0.2627491   0.3895007  )
       130           H   tau( 130) = (   0.9501433   0.1196551   0.1120454  )
       131           H   tau( 131) = (   0.9203459   0.0234388   0.6135915  )
       132           H   tau( 132) = (  -0.0097379   0.1665327   0.8910468  )
       133           H   tau( 133) = (   0.8618055   0.1539118   0.5284290  )
       134           H   tau( 134) = (   0.0488025   0.0108179   0.9762093  )
       135           H   tau( 135) = (   0.0785998   0.1322760   0.4746632  )
       136           H   tau( 136) = (   0.8916029   0.2753700   0.0268829  )
       137           H   tau( 137) = (   0.8086508   0.2074003   0.4771709  )
       138           H   tau( 138) = (   0.1615518   0.0643064   0.0243751  )
       139           H   tau( 139) = (   0.1317545   0.0787875   0.5259212  )
       140           H   tau( 140) = (   0.7788535   0.2218815   0.9787170  )
       141           H   tau( 141) = (   0.7719082   0.1390587   0.5250184  )
       142           H   tau( 142) = (   0.1386999   0.2821526   0.9796198  )
       143           H   tau( 143) = (   0.1684972   0.1471292   0.4780737  )
       144           H   tau( 144) = (   0.8017055   0.0040352   0.0234724  )

     --------------------------------------------
     DFT-D3 Dispersion Correction (3-body terms):
     --------------------------------------------
       Reference C6 values for interpolation: 

         atom   Coordination number   C6
         H          0.912             6.05
         H          0.000            15.18
         C          0.000            98.23
         C          0.987            86.49
         C          1.998            58.72
         C          2.999            51.56
         C          3.984            36.41
         N          0.000            50.54
         N          0.994            44.25
         N          2.014            39.35
         N          2.990            31.16
         O          0.000            31.01
         O          0.993            25.63
         O          1.989            20.74

       Values used:

         atom   Coordination number  R0_AB[au]  C6      C8
         O          1.082            2.345     25.49    514.31
         O          1.082            2.345     25.49    514.31
         O          1.082            2.345     25.49    514.31
         O          1.082            2.345     25.49    514.31
         O          1.080            2.345     25.49    514.37
         O          1.080            2.345     25.49    514.37
         O          1.080            2.345     25.49    514.37
         O          1.080            2.345     25.49    514.37
         N          3.215            2.478     31.19    688.13
         N          3.215            2.478     31.19    688.13
         N          3.215            2.478     31.19    688.13
         N          3.215            2.478     31.19    688.13
         C          3.200            2.750     50.06   1447.75
         C          3.200            2.750     50.06   1447.75
         C          3.200            2.750     50.06   1447.75
         C          3.200            2.750     50.06   1447.75
         C          3.203            2.750     50.02   1446.63
         C          3.203            2.750     50.02   1446.63
         C          3.203            2.750     50.02   1446.63
         C          3.203            2.750     50.02   1446.63
         C          3.261            2.750     49.25   1424.39
         C          3.261            2.750     49.25   1424.39
         C          3.261            2.750     49.25   1424.39
         C          3.261            2.750     49.25   1424.39
         C          3.332            2.750     47.90   1385.45
         C          3.332            2.750     47.90   1385.45
         C          3.332            2.750     47.90   1385.45
         C          3.332            2.750     47.90   1385.45
         C          3.256            2.750     49.32   1426.43
         C          3.256            2.750     49.32   1426.43
         C          3.256            2.750     49.32   1426.43
         C          3.256            2.750     49.32   1426.43
         C          3.190            2.750     50.16   1450.79
         C          3.190            2.750     50.16   1450.79
         C          3.190            2.750     50.16   1450.79
         C          3.190            2.750     50.16   1450.79
         C          3.192            2.750     50.14   1450.15
         C          3.192            2.750     50.14   1450.15
         C          3.192            2.750     50.14   1450.15
         C          3.192            2.750     50.14   1450.15
         C          3.253            2.750     49.37   1427.86
         C          3.253            2.750     49.37   1427.86
         C          3.253            2.750     49.37   1427.86
         C          3.253            2.750     49.37   1427.86
         C          3.328            2.750     47.99   1387.83
         C          3.328            2.750     47.99   1387.83
         C          3.328            2.750     47.99   1387.83
         C          3.328            2.750     47.99   1387.83
         C          3.258            2.750     49.29   1425.49
         C          3.258            2.750     49.29   1425.49
         C          3.258            2.750     49.29   1425.49
         C          3.258            2.750     49.29   1425.49
         C          3.200            2.750     50.06   1447.85
         C          3.200            2.750     50.06   1447.85
         C          3.200            2.750     50.06   1447.85
         C          3.200            2.750     50.06   1447.85
         C          3.196            2.750     50.10   1449.09
         C          3.196            2.750     50.10   1449.09
         C          3.196            2.750     50.10   1449.09
         C          3.196            2.750     50.10   1449.09
         C          3.277            2.750     48.97   1416.43
         C          3.277            2.750     48.97   1416.43
         C          3.277            2.750     48.97   1416.43
         C          3.277            2.750     48.97   1416.43
         C          3.206            2.750     49.99   1445.90
         C          3.206            2.750     49.99   1445.90
         C          3.206            2.750     49.99   1445.90
         C          3.206            2.750     49.99   1445.90
         C          3.172            2.750     50.35   1456.11
         C          3.172            2.750     50.35   1456.11
         C          3.172            2.750     50.35   1456.11
         C          3.172            2.750     50.35   1456.11
         C          3.233            2.750     49.65   1436.06
         C          3.233            2.750     49.65   1436.06
         C          3.233            2.750     49.65   1436.06
         C          3.233            2.750     49.65   1436.06
         C          3.175            2.750     50.31   1455.12
         C          3.175            2.750     50.31   1455.12
         C          3.175            2.750     50.31   1455.12
         C          3.175            2.750     50.31   1455.12
         C          3.201            2.750     50.05   1447.51
         C          3.201            2.750     50.05   1447.51
         C          3.201            2.750     50.05   1447.51
         C          3.201            2.750     50.05   1447.51
         C          4.078            2.750     36.54   1056.88
         C          4.078            2.750     36.54   1056.88
         C          4.078            2.750     36.54   1056.88
         C          4.078            2.750     36.54   1056.88
         C          4.079            2.750     36.54   1056.86
         C          4.079            2.750     36.54   1056.86
         C          4.079            2.750     36.54   1056.86
         C          4.079            2.750     36.54   1056.86
         H          1.022            2.062      6.16     74.49
         H          1.022            2.062      6.16     74.49
         H          1.022            2.062      6.16     74.49
         H          1.022            2.062      6.16     74.49
         H          1.022            2.062      6.16     74.49
         H          1.022            2.062      6.16     74.49
         H          1.022            2.062      6.16     74.49
         H          1.022            2.062      6.16     74.49
         H          1.008            2.062      6.17     74.64
         H          1.008            2.062      6.17     74.64
         H          1.008            2.062      6.17     74.64
         H          1.008            2.062      6.17     74.64
         H          1.013            2.062      6.17     74.58
         H          1.013            2.062      6.17     74.58
         H          1.013            2.062      6.17     74.58
         H          1.013            2.062      6.17     74.58
         H          0.988            2.062      6.19     74.86
         H          0.988            2.062      6.19     74.86
         H          0.988            2.062      6.19     74.86
         H          0.988            2.062      6.19     74.86
         H          1.015            2.062      6.17     74.57
         H          1.015            2.062      6.17     74.57
         H          1.015            2.062      6.17     74.57
         H          1.015            2.062      6.17     74.57
         H          0.985            2.062      6.20     74.89
         H          0.985            2.062      6.20     74.89
         H          0.985            2.062      6.20     74.89
         H          0.985            2.062      6.20     74.89
         H          1.014            2.062      6.17     74.57
         H          1.014            2.062      6.17     74.57
         H          1.014            2.062      6.17     74.57
         H          1.014            2.062      6.17     74.57
         H          1.014            2.062      6.17     74.58
         H          1.014            2.062      6.17     74.58
         H          1.014            2.062      6.17     74.58
         H          1.014            2.062      6.17     74.58
         H          1.014            2.062      6.17     74.58
         H          1.014            2.062      6.17     74.58
         H          1.014            2.062      6.17     74.58
         H          1.014            2.062      6.17     74.58
         H          1.014            2.062      6.17     74.58
         H          1.014            2.062      6.17     74.58
         H          1.014            2.062      6.17     74.58
         H          1.014            2.062      6.17     74.58
         H          1.014            2.062      6.17     74.57
         H          1.014            2.062      6.17     74.57
         H          1.014            2.062      6.17     74.57
         H          1.014            2.062      6.17     74.57
         H          1.014            2.062      6.17     74.57
         H          1.014            2.062      6.17     74.57
         H          1.014            2.062      6.17     74.57
         H          1.014            2.062      6.17     74.57

         Molecular C6 ( Ry / a.u.^6 ) =    556642.42


     number of k points=     8  Gaussian smearing, width (Ry)=  0.0100
                       cart. coord. in units 2pi/alat
        k(    1) = (   0.0000000   0.0000000   0.0000000), wk =   0.2500000
        k(    2) = (   0.0000000   0.0000000  -0.4984587), wk =   0.2500000
        k(    3) = (   0.0000000  -1.7471041   0.0000000), wk =   0.2500000
        k(    4) = (   0.0000000  -1.7471041  -0.4984587), wk =   0.2500000
        k(    5) = (  -0.5000000   0.0000000  -0.0297055), wk =   0.2500000
        k(    6) = (  -0.5000000   0.0000000  -0.5281642), wk =   0.2500000
        k(    7) = (  -0.5000000  -1.7471041  -0.0297055), wk =   0.2500000
        k(    8) = (  -0.5000000  -1.7471041  -0.5281642), wk =   0.2500000

     Dense  grid:  1288795 G-vectors     FFT dimensions: ( 216,  60, 216)

     Smooth grid:   278483 G-vectors     FFT dimensions: ( 125,  36, 125)

     Estimated max dynamical RAM per process >     170.66 MB

     Estimated total dynamical RAM >       8.00 GB

     Check: negative core charge=   -0.000005

     Initial potential from superposition of free atoms

     starting charge     439.9961, renormalised to     440.0000
     Starting wfcs are  420 randomized atomic wfcs
     Checking if some PAW data can be deallocated... 

     total cpu time spent up to now is        5.5 secs

     Self-consistent Calculation

     iteration #  1     ecut=    36.00 Ry     beta= 0.20
     Davidson diagonalization with overlap
     ethr =  1.00E-02,  avg # of iterations =  3.0

     total cpu time spent up to now is       15.9 secs

     total energy              =   -1984.20433012 Ry
     estimated scf accuracy    <      18.32849454 Ry

     iteration #  2     ecut=    36.00 Ry     beta= 0.20
     Davidson diagonalization with overlap
     ethr =  4.17E-03,  avg # of iterations =  2.0

     total cpu time spent up to now is       22.3 secs

     total energy              =   -1980.55465981 Ry
     estimated scf accuracy    <       8.28623948 Ry

     iteration #  3     ecut=    36.00 Ry     beta= 0.20
     Davidson diagonalization with overlap
     ethr =  1.88E-03,  avg # of iterations =  5.6

     total cpu time spent up to now is       32.0 secs

     total energy              =   -1981.75050813 Ry
     estimated scf accuracy    <       0.81742880 Ry

     iteration #  4     ecut=    36.00 Ry     beta= 0.20
     Davidson diagonalization with overlap
     ethr =  1.86E-04,  avg # of iterations = 12.0

     total cpu time spent up to now is       42.0 secs

     total energy              =   -1981.72300732 Ry
     estimated scf accuracy    <       0.28186015 Ry

     iteration #  5     ecut=    36.00 Ry     beta= 0.20
     Davidson diagonalization with overlap
     ethr =  6.41E-05,  avg # of iterations =  5.0

     total cpu time spent up to now is       50.6 secs

     total energy              =   -1981.75301550 Ry
     estimated scf accuracy    <       0.02803505 Ry

     iteration #  6     ecut=    36.00 Ry     beta= 0.20
     Davidson diagonalization with overlap
     ethr =  6.37E-06,  avg # of iterations = 11.2

     total cpu time spent up to now is       62.6 secs

     total energy              =   -1981.75531574 Ry
     estimated scf accuracy    <       0.01044746 Ry

     iteration #  7     ecut=    36.00 Ry     beta= 0.20
     Davidson diagonalization with overlap
     ethr =  2.37E-06,  avg # of iterations =  3.2

     total cpu time spent up to now is       70.6 secs

     total energy              =   -1981.75638578 Ry
     estimated scf accuracy    <       0.00294730 Ry

     iteration #  8     ecut=    36.00 Ry     beta= 0.20
     Davidson diagonalization with overlap
     ethr =  6.70E-07,  avg # of iterations =  3.2

     total cpu time spent up to now is       78.3 secs

     total energy              =   -1981.75682799 Ry
     estimated scf accuracy    <       0.00056797 Ry

     iteration #  9     ecut=    36.00 Ry     beta= 0.20
     Davidson diagonalization with overlap
     ethr =  1.29E-07,  avg # of iterations =  4.0

     total cpu time spent up to now is       86.5 secs

     total energy              =   -1981.75695837 Ry
     estimated scf accuracy    <       0.00013711 Ry

     iteration # 10     ecut=    36.00 Ry     beta= 0.20
     Davidson diagonalization with overlap
     ethr =  3.12E-08,  avg # of iterations =  3.8

     total cpu time spent up to now is       94.1 secs

     total energy              =   -1981.75700836 Ry
     estimated scf accuracy    <       0.00003314 Ry

     iteration # 11     ecut=    36.00 Ry     beta= 0.20
     Davidson diagonalization with overlap
     ethr =  7.53E-09,  avg # of iterations =  4.0

     total cpu time spent up to now is      102.7 secs

     total energy              =   -1981.75704179 Ry
     estimated scf accuracy    <       0.00001036 Ry

     iteration # 12     ecut=    36.00 Ry     beta= 0.20
     Davidson diagonalization with overlap
     ethr =  2.35E-09,  avg # of iterations =  2.5

     total cpu time spent up to now is      109.4 secs

     total energy              =   -1981.75706081 Ry
     estimated scf accuracy    <       0.00000174 Ry

     iteration # 13     ecut=    36.00 Ry     beta= 0.20
     Davidson diagonalization with overlap
     ethr =  3.94E-10,  avg # of iterations =  4.0

     total cpu time spent up to now is      117.5 secs

     End of self-consistent calculation

          k = 0.0000 0.0000 0.0000 ( 34799 PWs)   bands (ev):

   -20.1973 -20.1969 -20.1968 -20.1966 -19.6768 -19.6766 -19.6765 -19.6762
   -17.0686 -17.0664 -17.0630 -17.0629 -16.4187 -16.4060 -15.8465 -15.8203
   -14.9134 -14.8795 -14.7373 -14.7286 -14.6167 -14.6118 -14.4394 -14.3701
   -14.2790 -14.2650 -13.1109 -13.0927 -12.8681 -12.8470 -12.7790 -12.7645
   -12.7296 -12.7213 -12.7069 -12.6596 -12.3712 -12.2963 -12.2856 -12.2805
   -12.0422 -12.0327 -11.6864 -11.6420 -10.8774 -10.8429 -10.7328 -10.6967
   -10.6130 -10.5634 -10.3071 -10.2717 -10.2709 -10.2443 -10.1712 -10.1679
    -9.9667  -9.9563  -9.7536  -9.7313  -9.4601  -9.3912  -9.2618  -9.2487
    -9.0394  -8.9981  -8.8483  -8.7910  -8.3589  -8.3513  -7.7746  -7.7539
    -7.5952  -7.5931  -7.4347  -7.4290  -7.3906  -7.3739  -7.1320  -7.1140
    -7.0874  -7.0156  -6.6738  -6.6711  -6.4414  -6.4149  -6.2599  -6.2354
    -6.0755  -5.9785  -5.6084  -5.5608  -5.5217  -5.5012  -5.3303  -5.3111
    -5.3068  -5.2620  -5.2598  -5.2260  -5.2199  -5.2105  -5.1015  -4.9841
    -4.9358  -4.8724  -4.7312  -4.6763  -4.6506  -4.5322  -4.4373  -4.4300
    -4.3933  -4.3486  -4.2590  -4.2264  -4.2239  -4.1716  -4.1067  -4.0195
    -4.0004  -3.9646  -3.9555  -3.9238  -3.8904  -3.8718  -3.8494  -3.8410
    -3.8246  -3.7880  -3.7650  -3.7633  -3.7334  -3.7255  -3.6998  -3.6471
    -3.5948  -3.5881  -3.5803  -3.5663  -3.5194  -3.4503  -3.4444  -3.3342
    -3.3200  -3.3009  -3.2804  -3.2230  -3.1369  -3.0931  -2.9676  -2.9506
    -2.9419  -2.9356  -2.9104  -2.8661  -2.8470  -2.8273  -2.7641  -2.7636
    -2.7076  -2.7036  -2.6765  -2.6369  -2.6112  -2.5967  -2.4594  -2.4072
    -2.3675  -2.2317  -1.9511  -1.9404  -1.9277  -1.8847  -1.8677  -1.8357
    -1.7731  -1.7637  -1.6045  -1.5966  -1.5864  -1.5409  -1.5124  -1.4819
    -1.3243  -1.3225  -1.1009  -1.0914  -1.0363  -1.0064  -0.6103  -0.5924
    -0.5909  -0.5707  -0.4541  -0.4233  -0.2500  -0.2457  -0.2325  -0.1896
    -0.0392  -0.0053  -0.0017   0.0328   0.0339   0.0389   0.4340   0.4398
     0.4536   0.4573   0.7166   0.7182   0.7274   0.7308   0.7399   0.8164
     0.8692   0.8706   0.9929   1.0149   2.6398   2.7895   3.8484   3.9966
     4.2485   4.2794   4.3658   4.3892   4.8407   4.8878   5.1655   5.2668
     5.4332   5.5095   5.6368   5.6527   5.7492   5.7546   5.9245   5.9450
     5.9603   5.9888   6.1756   6.2083   6.6004   7.0050   7.0447   7.0811
     7.1089   7.1858   7.2960   7.2962   7.4747   7.5770   7.6411   7.6788
     7.7803   8.1393   8.2170   8.3385   8.3532   8.4256   8.4277   8.5134

          k = 0.0000 0.0000-0.4985 ( 34798 PWs)   bands (ev):

   -20.1972 -20.1970 -20.1968 -20.1966 -19.6768 -19.6767 -19.6764 -19.6762
   -17.0676 -17.0675 -17.0629 -17.0629 -16.4125 -16.4125 -15.8334 -15.8334
   -14.8976 -14.8976 -14.7240 -14.7240 -14.6280 -14.6280 -14.4031 -14.4031
   -14.2664 -14.2664 -13.1095 -13.1095 -12.8578 -12.8578 -12.7695 -12.7695
   -12.7308 -12.7308 -12.6790 -12.6790 -12.3330 -12.3329 -12.2443 -12.2443
   -12.0775 -12.0775 -11.6641 -11.6641 -10.8489 -10.8488 -10.7183 -10.7183
   -10.5905 -10.5904 -10.2958 -10.2958 -10.2508 -10.2508 -10.1625 -10.1625
    -9.9615  -9.9615  -9.7421  -9.7421  -9.4242  -9.4241  -9.2830  -9.2830
    -9.0219  -9.0219  -8.8184  -8.8184  -8.2959  -8.2959  -7.7640  -7.7640
    -7.6547  -7.6547  -7.4326  -7.4326  -7.3830  -7.3829  -7.1283  -7.1283
    -7.0485  -7.0484  -6.6383  -6.6383  -6.4133  -6.4133  -6.2722  -6.2722
    -6.0260  -6.0260  -5.5844  -5.5844  -5.5080  -5.5080  -5.3236  -5.3235
    -5.2792  -5.2791  -5.2295  -5.2295  -5.1666  -5.1666  -5.1036  -5.1036
    -4.8665  -4.8665  -4.7795  -4.7795  -4.6228  -4.6228  -4.4303  -4.4303
    -4.3883  -4.3883  -4.2487  -4.2487  -4.1402  -4.1402  -4.0583  -4.0583
    -3.9622  -3.9622  -3.9179  -3.9178  -3.8730  -3.8730  -3.8580  -3.8580
    -3.8105  -3.8104  -3.7487  -3.7487  -3.7278  -3.7278  -3.6690  -3.6690
    -3.6236  -3.6236  -3.5399  -3.5399  -3.4630  -3.4630  -3.3878  -3.3878
    -3.3370  -3.3370  -3.2507  -3.2507  -3.1212  -3.1212  -3.0022  -3.0022
    -2.9677  -2.9677  -2.8891  -2.8891  -2.8330  -2.8330  -2.7720  -2.7720
    -2.6926  -2.6925  -2.6611  -2.6611  -2.5456  -2.5456  -2.4949  -2.4949
    -2.2509  -2.2509  -1.9618  -1.9618  -1.8866  -1.8866  -1.8480  -1.8480
    -1.7638  -1.7637  -1.6092  -1.6092  -1.5759  -1.5759  -1.4901  -1.4901
    -1.3252  -1.3252  -1.1036  -1.1036  -1.0158  -1.0157  -0.6044  -0.6044
    -0.5737  -0.5737  -0.4393  -0.4393  -0.2450  -0.2449  -0.2103  -0.2103
    -0.0275  -0.0275   0.0110   0.0112   0.0386   0.0387   0.4368   0.4370
     0.4561   0.4562   0.7191   0.7192   0.7296   0.7297   0.7762   0.7763
     0.8701   0.8702   1.0042   1.0042   2.7098   2.7098   3.9287   3.9287
     4.2619   4.2619   4.3756   4.3756   4.8751   4.8751   5.2096   5.2096
     5.4673   5.4673   5.6442   5.6443   5.7513   5.7514   5.9290   5.9290
     5.9824   5.9825   6.1888   6.1888   6.7180   6.7181   7.0815   7.0816
     7.2149   7.2149   7.3517   7.3517   7.5386   7.5386   7.6381   7.6381
     7.9196   7.9196   8.1559   8.1560   8.3388   8.3389   8.5292   8.5296

          k = 0.0000-1.7471 0.0000 ( 34846 PWs)   bands (ev):

   -20.1581 -20.1581 -20.1579 -20.1579 -19.7018 -19.7018 -19.7015 -19.7015
   -17.0921 -17.0921 -17.0889 -17.0889 -16.3184 -16.3184 -15.7434 -15.7434
   -14.9823 -14.9823 -14.6652 -14.6652 -14.5564 -14.5564 -14.4669 -14.4669
   -14.2139 -14.2139 -13.0431 -13.0431 -12.9317 -12.9316 -12.7948 -12.7948
   -12.7803 -12.7803 -12.7599 -12.7599 -12.4051 -12.4051 -12.2260 -12.2260
   -12.0048 -12.0048 -11.7089 -11.7089 -10.9121 -10.9121 -10.7797 -10.7797
   -10.5908 -10.5908 -10.3101 -10.3101 -10.2969 -10.2969 -10.1705 -10.1705
    -9.9770  -9.9770  -9.7640  -9.7640  -9.4126  -9.4126  -9.2562  -9.2562
    -9.0086  -9.0086  -8.8563  -8.8563  -8.3109  -8.3108  -7.7820  -7.7819
    -7.5805  -7.5805  -7.4508  -7.4508  -7.4398  -7.4398  -7.1026  -7.1026
    -7.0681  -7.0681  -6.6324  -6.6324  -6.3747  -6.3747  -6.2291  -6.2291
    -6.0244  -6.0244  -5.6948  -5.6948  -5.5541  -5.5541  -5.4853  -5.4853
    -5.4357  -5.4357  -5.2624  -5.2624  -5.2407  -5.2407  -4.9495  -4.9495
    -4.9046  -4.9046  -4.7651  -4.7651  -4.7314  -4.7314  -4.6499  -4.6499
    -4.5297  -4.5297  -4.3112  -4.3112  -4.2808  -4.2808  -4.2454  -4.2454
    -4.2296  -4.2296  -4.1552  -4.1552  -4.0793  -4.0793  -3.9465  -3.9465
    -3.8888  -3.8888  -3.8093  -3.8093  -3.7709  -3.7709  -3.7031  -3.7031
    -3.5473  -3.5473  -3.4175  -3.4175  -3.3433  -3.3433  -3.3320  -3.3320
    -3.2809  -3.2809  -3.2239  -3.2238  -3.1593  -3.1593  -3.0804  -3.0804
    -2.9679  -2.9679  -2.8634  -2.8634  -2.7740  -2.7740  -2.6644  -2.6644
    -2.6392  -2.6392  -2.6192  -2.6192  -2.4863  -2.4863  -2.3511  -2.3511
    -2.1579  -2.1579  -1.9304  -1.9303  -1.8765  -1.8765  -1.7187  -1.7187
    -1.6811  -1.6811  -1.5584  -1.5583  -1.5075  -1.5075  -1.4359  -1.4359
    -1.3666  -1.3666  -1.1366  -1.1366  -1.1344  -1.1344  -0.5318  -0.5318
    -0.1275  -0.1275  -0.0700  -0.0700  -0.0525  -0.0525  -0.0205  -0.0205
     0.0243   0.0243   0.1095   0.1095   0.1885   0.1885   0.4260   0.4260
     0.4392   0.4392   0.8199   0.8199   0.8282   0.8282   1.1927   1.1927
     1.2100   1.2100   1.2963   1.2963   2.6472   2.6472   3.8882   3.8882
     4.0701   4.0701   4.8037   4.8037   5.1158   5.1158   5.2480   5.2480
     5.3061   5.3061   5.6587   5.6588   5.6833   5.6833   6.0263   6.0263
     6.1522   6.1522   6.2783   6.2783   6.9611   6.9611   7.3687   7.3687
     7.6453   7.6453   7.8123   7.8123   7.9293   7.9293   8.2619   8.2619
     8.2982   8.2983   8.3769   8.3769   8.4407   8.4407   8.5087   8.5088

          k = 0.0000-1.7471-0.4985 ( 34824 PWs)   bands (ev):

   -20.1581 -20.1581 -20.1579 -20.1579 -19.7018 -19.7018 -19.7016 -19.7016
   -17.0921 -17.0921 -17.0889 -17.0889 -16.3185 -16.3184 -15.7434 -15.7434
   -14.9823 -14.9823 -14.6628 -14.6628 -14.5599 -14.5599 -14.4672 -14.4672
   -14.2119 -14.2119 -13.0459 -13.0458 -12.9311 -12.9311 -12.7958 -12.7958
   -12.7802 -12.7802 -12.7592 -12.7592 -12.4045 -12.4045 -12.2129 -12.2129
   -12.0176 -12.0176 -11.7097 -11.7096 -10.8962 -10.8962 -10.7976 -10.7976
   -10.5903 -10.5903 -10.3167 -10.3167 -10.2902 -10.2902 -10.1623 -10.1623
    -9.9781  -9.9781  -9.7620  -9.7620  -9.4154  -9.4154  -9.2667  -9.2666
    -9.0054  -9.0054  -8.8596  -8.8596  -8.2920  -8.2920  -7.7818  -7.7817
    -7.5962  -7.5962  -7.4474  -7.4474  -7.4438  -7.4438  -7.0985  -7.0985
    -7.0757  -7.0757  -6.6307  -6.6307  -6.3633  -6.3633  -6.2334  -6.2334
    -6.0211  -6.0210  -5.6774  -5.6774  -5.5668  -5.5668  -5.4716  -5.4716
    -5.4663  -5.4663  -5.2635  -5.2635  -5.2064  -5.2064  -4.9743  -4.9743
    -4.8988  -4.8988  -4.7888  -4.7888  -4.7283  -4.7283  -4.6189  -4.6188
    -4.5780  -4.5780  -4.3276  -4.3276  -4.2855  -4.2855  -4.2090  -4.2090
    -4.1964  -4.1964  -4.1699  -4.1699  -4.0701  -4.0701  -3.9473  -3.9473
    -3.8776  -3.8776  -3.8404  -3.8404  -3.7468  -3.7468  -3.7211  -3.7211
    -3.4946  -3.4946  -3.4868  -3.4867  -3.3291  -3.3291  -3.3117  -3.3117
    -3.2536  -3.2536  -3.2427  -3.2427  -3.1711  -3.1711  -3.1019  -3.1019
    -2.9586  -2.9586  -2.8454  -2.8454  -2.7871  -2.7871  -2.6617  -2.6617
    -2.6459  -2.6459  -2.5585  -2.5585  -2.5560  -2.5560  -2.2958  -2.2958
    -2.2188  -2.2188  -1.9253  -1.9253  -1.8759  -1.8759  -1.7147  -1.7147
    -1.6768  -1.6768  -1.5505  -1.5505  -1.5238  -1.5238  -1.3985  -1.3985
    -1.3895  -1.3895  -1.1367  -1.1367  -1.1353  -1.1353  -0.5310  -0.5310
    -0.1141  -0.1141  -0.0775  -0.0775  -0.0577  -0.0577  -0.0274  -0.0274
     0.0235   0.0235   0.1164   0.1164   0.1917   0.1917   0.4304   0.4304
     0.4336   0.4336   0.8210   0.8210   0.8270   0.8270   1.1923   1.1923
     1.2102   1.2102   1.2954   1.2954   2.6467   2.6467   3.8880   3.8880
     4.0718   4.0719   4.8043   4.8043   5.1112   5.1112   5.2422   5.2422
     5.3157   5.3157   5.6575   5.6575   5.6843   5.6843   6.0237   6.0237
     6.1596   6.1596   6.2709   6.2709   6.9602   6.9602   7.3671   7.3671
     7.6941   7.6941   7.7274   7.7274   8.0150   8.0150   8.2755   8.2755
     8.3113   8.3114   8.3186   8.3186   8.3843   8.3844   8.5768   8.5768

          k =-0.5000 0.0000-0.0297 ( 34810 PWs)   bands (ev):

   -20.1972 -20.1969 -20.1969 -20.1966 -19.6769 -19.6766 -19.6765 -19.6762
   -17.0685 -17.0664 -17.0629 -17.0629 -16.4187 -16.4060 -15.8464 -15.8204
   -14.9134 -14.8795 -14.7283 -14.7215 -14.6356 -14.6186 -14.4374 -14.3700
   -14.2713 -14.2623 -13.1187 -13.1000 -12.8690 -12.8481 -12.7817 -12.7491
   -12.7440 -12.7097 -12.7042 -12.6668 -12.3704 -12.2967 -12.2463 -12.2435
   -12.0812 -12.0726 -11.6860 -11.6420 -10.8635 -10.8300 -10.7446 -10.7062
   -10.6067 -10.5624 -10.3085 -10.2724 -10.2703 -10.2419 -10.1693 -10.1558
    -9.9664  -9.9569  -9.7530  -9.7307  -9.4609  -9.3940  -9.2857  -9.2798
    -9.0392  -8.9972  -8.8491  -8.7915  -8.3017  -8.2912  -7.7740  -7.7575
    -7.6601  -7.6456  -7.4389  -7.4051  -7.3935  -7.3891  -7.1361  -7.1183
    -7.0864  -7.0139  -6.6543  -6.6298  -6.4352  -6.3847  -6.2880  -6.2527
    -6.0764  -5.9755  -5.6031  -5.5509  -5.5291  -5.5032  -5.3258  -5.3103
    -5.3072  -5.3006  -5.2365  -5.2151  -5.1923  -5.1457  -5.1430  -5.0459
    -4.9005  -4.8032  -4.7900  -4.7800  -4.6857  -4.5298  -4.4209  -4.4099
    -4.4053  -4.3796  -4.2587  -4.2116  -4.2088  -4.1562  -4.1043  -3.9973
    -3.9631  -3.9424  -3.9345  -3.9161  -3.8971  -3.8911  -3.8798  -3.8331
    -3.7906  -3.7869  -3.7416  -3.7400  -3.7322  -3.7202  -3.7150  -3.7041
    -3.5938  -3.5805  -3.5653  -3.5641  -3.5267  -3.4488  -3.4213  -3.3728
    -3.3585  -3.2740  -3.2336  -3.2306  -3.1478  -3.1209  -2.9889  -2.9734
    -2.9716  -2.9589  -2.9079  -2.8636  -2.8626  -2.8180  -2.7926  -2.7703
    -2.6902  -2.6781  -2.6673  -2.6169  -2.5573  -2.5301  -2.4880  -2.4778
    -2.3666  -2.2205  -1.9688  -1.9502  -1.9109  -1.8650  -1.8604  -1.8333
    -1.7839  -1.7588  -1.6104  -1.5974  -1.5939  -1.5505  -1.5047  -1.4773
    -1.3263  -1.3232  -1.1092  -1.0738  -1.0315  -1.0150  -0.6120  -0.5979
    -0.5929  -0.5653  -0.4551  -0.4283  -0.2575  -0.2259  -0.2156  -0.2047
    -0.0336  -0.0155  -0.0051   0.0240   0.0398   0.0403   0.4421   0.4448
     0.4470   0.4503   0.7162   0.7183   0.7222   0.7313   0.8054   0.8076
     0.8077   0.8726   0.9955   1.0192   2.6402   2.7922   3.8490   3.9956
     4.2485   4.2794   4.3600   4.3920   4.8411   4.8884   5.1607   5.2692
     5.4272   5.5036   5.6481   5.6721   5.7358   5.7574   5.9213   5.9297
     5.9629   6.0168   6.1621   6.2058   6.6625   6.8833   7.0134   7.0753
     7.1203   7.1544   7.2898   7.4436   7.4720   7.5790   7.7280   7.7356
     7.8516   7.9393   8.1442   8.2351   8.2790   8.3621   8.4443   8.4835

          k =-0.5000 0.0000-0.5282 ( 34786 PWs)   bands (ev):

   -20.1971 -20.1970 -20.1968 -20.1966 -19.6768 -19.6767 -19.6764 -19.6762
   -17.0675 -17.0675 -17.0629 -17.0629 -16.4125 -16.4125 -15.8333 -15.8333
   -14.8975 -14.8975 -14.7326 -14.7326 -14.6148 -14.6147 -14.4036 -14.4036
   -14.2722 -14.2722 -13.1021 -13.1021 -12.8576 -12.8576 -12.7723 -12.7723
   -12.7185 -12.7185 -12.6914 -12.6914 -12.3316 -12.3316 -12.2826 -12.2825
   -12.0381 -12.0381 -11.6641 -11.6641 -10.8629 -10.8629 -10.7113 -10.7113
   -10.5895 -10.5895 -10.2969 -10.2968 -10.2500 -10.2499 -10.1688 -10.1688
    -9.9626  -9.9626  -9.7423  -9.7423  -9.4235  -9.4235  -9.2554  -9.2554
    -9.0219  -9.0219  -8.8176  -8.8176  -8.3553  -8.3553  -7.7650  -7.7650
    -7.5947  -7.5947  -7.4234  -7.4233  -7.3910  -7.3909  -7.1243  -7.1243
    -7.0498  -7.0498  -6.6660  -6.6660  -6.4342  -6.4342  -6.2482  -6.2482
    -6.0272  -6.0272  -5.5966  -5.5966  -5.4988  -5.4988  -5.3247  -5.3246
    -5.2789  -5.2789  -5.2343  -5.2343  -5.2132  -5.2132  -5.0455  -5.0455
    -4.9213  -4.9212  -4.6820  -4.6820  -4.6244  -4.6244  -4.4564  -4.4564
    -4.3540  -4.3539  -4.2438  -4.2438  -4.1469  -4.1469  -4.0682  -4.0682
    -3.9933  -3.9933  -3.9192  -3.9192  -3.9029  -3.9029  -3.8832  -3.8832
    -3.7809  -3.7809  -3.7428  -3.7428  -3.7335  -3.7334  -3.6987  -3.6987
    -3.6045  -3.6045  -3.5423  -3.5423  -3.4524  -3.4524  -3.3930  -3.3930
    -3.3361  -3.3360  -3.2443  -3.2443  -3.1233  -3.1233  -2.9683  -2.9683
    -2.9420  -2.9420  -2.8857  -2.8856  -2.8449  -2.8449  -2.7791  -2.7790
    -2.6951  -2.6951  -2.6605  -2.6605  -2.5913  -2.5913  -2.4610  -2.4610
    -2.2431  -2.2431  -1.9682  -1.9682  -1.9057  -1.9057  -1.8485  -1.8485
    -1.7681  -1.7681  -1.5962  -1.5962  -1.5757  -1.5757  -1.4895  -1.4895
    -1.3225  -1.3225  -1.0959  -1.0959  -1.0225  -1.0225  -0.6039  -0.6039
    -0.5775  -0.5775  -0.4372  -0.4372  -0.2385  -0.2385  -0.2210  -0.2210
    -0.0218  -0.0218   0.0169   0.0171   0.0316   0.0318   0.4444   0.4444
     0.4493   0.4493   0.7189   0.7189   0.7263   0.7263   0.8047   0.8047
     0.8408   0.8408   1.0076   1.0076   2.7113   2.7113   3.9282   3.9282
     4.2617   4.2617   4.3746   4.3746   4.8753   4.8753   5.2073   5.2073
     5.4585   5.4586   5.6577   5.6577   5.7470   5.7471   5.9453   5.9454
     5.9786   5.9786   6.1827   6.1827   6.7638   6.7639   7.0118   7.0118
     7.0894   7.0894   7.5304   7.5304   7.6053   7.6053   7.6771   7.6771
     7.8571   7.8571   8.0717   8.0717   8.2315   8.2315   8.4552   8.4553

          k =-0.5000-1.7471-0.0297 ( 34824 PWs)   bands (ev):

   -20.1581 -20.1581 -20.1578 -20.1578 -19.7019 -19.7018 -19.7015 -19.7015
   -17.0921 -17.0921 -17.0889 -17.0888 -16.3184 -16.3184 -15.7434 -15.7434
   -14.9823 -14.9823 -14.6623 -14.6623 -14.5607 -14.5607 -14.4670 -14.4670
   -14.2118 -14.2118 -13.0452 -13.0452 -12.9315 -12.9315 -12.7938 -12.7938
   -12.7834 -12.7833 -12.7580 -12.7580 -12.4052 -12.4052 -12.2129 -12.2129
   -12.0175 -12.0175 -11.7092 -11.7092 -10.8966 -10.8966 -10.7977 -10.7977
   -10.5891 -10.5891 -10.3157 -10.3157 -10.2927 -10.2927 -10.1624 -10.1624
    -9.9758  -9.9758  -9.7644  -9.7644  -9.4143  -9.4142  -9.2667  -9.2667
    -9.0083  -9.0083  -8.8569  -8.8569  -8.2921  -8.2921  -7.7815  -7.7815
    -7.5962  -7.5962  -7.4519  -7.4519  -7.4399  -7.4399  -7.1055  -7.1055
    -7.0675  -7.0675  -6.6258  -6.6258  -6.3684  -6.3684  -6.2321  -6.2321
    -6.0255  -6.0255  -5.6878  -5.6878  -5.5610  -5.5610  -5.4784  -5.4784
    -5.4562  -5.4562  -5.2646  -5.2645  -5.2092  -5.2092  -4.9539  -4.9539
    -4.8793  -4.8792  -4.8230  -4.8230  -4.7229  -4.7229  -4.6715  -4.6715
    -4.5091  -4.5091  -4.3071  -4.3071  -4.2721  -4.2721  -4.2586  -4.2586
    -4.2049  -4.2049  -4.1354  -4.1354  -4.0973  -4.0973  -3.9807  -3.9807
    -3.8930  -3.8930  -3.7621  -3.7621  -3.7488  -3.7488  -3.7413  -3.7413
    -3.5510  -3.5510  -3.4347  -3.4347  -3.3370  -3.3370  -3.2951  -3.2951
    -3.2793  -3.2793  -3.2526  -3.2526  -3.1578  -3.1578  -3.0997  -3.0997
    -2.9485  -2.9485  -2.8425  -2.8425  -2.7965  -2.7965  -2.6558  -2.6558
    -2.6386  -2.6386  -2.5593  -2.5593  -2.5542  -2.5542  -2.3579  -2.3579
    -2.1666  -2.1666  -1.9307  -1.9307  -1.8704  -1.8704  -1.7120  -1.7120
    -1.6823  -1.6823  -1.5568  -1.5568  -1.4974  -1.4974  -1.4171  -1.4171
    -1.3882  -1.3882  -1.1414  -1.1414  -1.1333  -1.1333  -0.5317  -0.5317
    -0.1250  -0.1250  -0.0751  -0.0751  -0.0473  -0.0473  -0.0212  -0.0212
     0.0225   0.0225   0.1116   0.1116   0.1871   0.1871   0.4278   0.4278
     0.4391   0.4391   0.8193   0.8193   0.8285   0.8285   1.1830   1.1830
     1.2135   1.2135   1.3031   1.3031   2.6459   2.6459   3.8887   3.8887
     4.0701   4.0701   4.8038   4.8038   5.1178   5.1178   5.2455   5.2455
     5.3063   5.3064   5.6553   5.6553   5.6877   5.6877   6.0192   6.0192
     6.1465   6.1465   6.2886   6.2886   6.9640   6.9640   7.3649   7.3649
     7.6379   7.6379   7.8626   7.8626   7.9110   7.9110   8.2081   8.2081
     8.2820   8.2820   8.3578   8.3578   8.4436   8.4436   8.5666   8.5666

          k =-0.5000-1.7471-0.5282 ( 34796 PWs)   bands (ev):

   -20.1581 -20.1581 -20.1579 -20.1579 -19.7017 -19.7017 -19.7016 -19.7016
   -17.0921 -17.0921 -17.0889 -17.0889 -16.3184 -16.3184 -15.7434 -15.7433
   -14.9823 -14.9823 -14.6657 -14.6657 -14.5554 -14.5554 -14.4672 -14.4672
   -14.2140 -14.2140 -13.0438 -13.0437 -12.9305 -12.9305 -12.7926 -12.7926
   -12.7840 -12.7840 -12.7590 -12.7590 -12.4046 -12.4046 -12.2258 -12.2258
   -12.0044 -12.0044 -11.7098 -11.7098 -10.9121 -10.9121 -10.7802 -10.7802
   -10.5889 -10.5889 -10.3090 -10.3090 -10.2989 -10.2989 -10.1710 -10.1710
    -9.9785  -9.9785  -9.7617  -9.7617  -9.4134  -9.4134  -9.2561  -9.2561
    -9.0056  -9.0056  -8.8593  -8.8593  -8.3107  -8.3107  -7.7810  -7.7810
    -7.5797  -7.5797  -7.4486  -7.4486  -7.4432  -7.4432  -7.0975  -7.0975
    -7.0756  -7.0755  -6.6353  -6.6353  -6.3714  -6.3714  -6.2276  -6.2275
    -6.0218  -6.0218  -5.6840  -5.6840  -5.5608  -5.5608  -5.4836  -5.4836
    -5.4350  -5.4350  -5.2655  -5.2655  -5.2419  -5.2419  -4.9780  -4.9780
    -4.8841  -4.8841  -4.7381  -4.7381  -4.7199  -4.7199  -4.6637  -4.6637
    -4.5702  -4.5702  -4.2920  -4.2920  -4.2850  -4.2850  -4.2309  -4.2309
    -4.2301  -4.2301  -4.1665  -4.1665  -4.0945  -4.0945  -3.9445  -3.9445
    -3.8481  -3.8481  -3.8447  -3.8446  -3.7502  -3.7501  -3.7379  -3.7379
    -3.4838  -3.4838  -3.4620  -3.4620  -3.3250  -3.3250  -3.3064  -3.3064
    -3.2581  -3.2581  -3.2447  -3.2447  -3.1768  -3.1768  -3.1061  -3.1061
    -2.9495  -2.9494  -2.8640  -2.8640  -2.7777  -2.7777  -2.6599  -2.6599
    -2.6486  -2.6486  -2.6095  -2.6095  -2.4942  -2.4942  -2.3082  -2.3082
    -2.2327  -2.2327  -1.9213  -1.9212  -1.8786  -1.8785  -1.7175  -1.7175
    -1.6670  -1.6670  -1.5581  -1.5581  -1.4749  -1.4749  -1.4518  -1.4518
    -1.3710  -1.3710  -1.1394  -1.1394  -1.1357  -1.1357  -0.5310  -0.5310
    -0.1125  -0.1125  -0.0736  -0.0736  -0.0585  -0.0585  -0.0327  -0.0327
     0.0222   0.0222   0.1202   0.1202   0.1895   0.1895   0.4326   0.4326
     0.4327   0.4328   0.8192   0.8192   0.8297   0.8297   1.1821   1.1821
     1.2141   1.2141   1.3017   1.3017   2.6458   2.6458   3.8895   3.8895
     4.0714   4.0715   4.8045   4.8045   5.1140   5.1140   5.2385   5.2385
     5.3177   5.3177   5.6703   5.6703   5.6718   5.6718   6.0122   6.0122
     6.1626   6.1626   6.2766   6.2766   6.9640   6.9640   7.3613   7.3613
     7.6877   7.6877   7.7415   7.7415   8.0226   8.0226   8.2147   8.2147
     8.3201   8.3201   8.3663   8.3663   8.3971   8.3972   8.5144   8.5144

     the Fermi energy is     1.9406 ev

!    total energy              =   -1981.75709306 Ry
     total all-electron energy =     -7798.854962 Ry
     estimated scf accuracy    <       0.00000068 Ry
     smearing contrib. (-TS)   =      -0.00000000 Ry
     internal energy E=F+TS    =   -1981.75709306 Ry

     The total energy is F=E-TS. E is the sum of the following terms:
     one-electron contribution =   -1280.27039054 Ry
     hartree contribution      =     808.68745847 Ry
     xc contribution           =    -493.81348442 Ry
     ewald contribution        =    -413.40525862 Ry
     DFT-D3 Dispersion         =      -0.82820496 Ry
     one-center paw contrib.   =    -602.12721299 Ry

     convergence has been achieved in  13 iterations

     Forces acting on atoms (cartesian axes, Ry/au):

     atom    1 type  1   force =    -0.00633680   -0.01899247    0.03347646
     atom    2 type  1   force =     0.00633494   -0.01899253   -0.03348071
     atom    3 type  1   force =     0.00633518    0.01898253   -0.03345764
     atom    4 type  1   force =    -0.00633094    0.01898253    0.03345855
     atom    5 type  1   force =     0.04159071    0.03744461   -0.00505610
     atom    6 type  1   force =    -0.04159511    0.03744542    0.00505465
     atom    7 type  1   force =    -0.04157787   -0.03743520    0.00505233
     atom    8 type  1   force =     0.04158016   -0.03743544   -0.00504965
     atom    9 type  2   force =     0.00156703   -0.00519111    0.00735172
     atom   10 type  2   force =    -0.00156699   -0.00519242   -0.00735244
     atom   11 type  2   force =    -0.00156570    0.00519052   -0.00735144
     atom   12 type  2   force =     0.00156593    0.00519118    0.00735209
     atom   13 type  3   force =     0.18369282    0.17070577   -0.02649843
     atom   14 type  3   force =    -0.18369285    0.17070550    0.02649858
     atom   15 type  3   force =    -0.18369394   -0.17070766    0.02650036
     atom   16 type  3   force =     0.18369372   -0.17070762   -0.02650054
     atom   17 type  3   force =     0.00376092    0.12820092   -0.21467284
     atom   18 type  3   force =    -0.00376060    0.12820104    0.21467334
     atom   19 type  3   force =    -0.00376281   -0.12820100    0.21466994
     atom   20 type  3   force =     0.00376253   -0.12820073   -0.21466991
     atom   21 type  3   force =     0.02531784    0.02358070   -0.00241684
     atom   22 type  3   force =    -0.02531757    0.02358069    0.00241670
     atom   23 type  3   force =    -0.02531726   -0.02357996    0.00241579
     atom   24 type  3   force =     0.02531658   -0.02357979   -0.00241667
     atom   25 type  3   force =     0.01227743    0.00595950    0.00342416
     atom   26 type  3   force =    -0.01227751    0.00595963   -0.00342408
     atom   27 type  3   force =    -0.01227677   -0.00595831   -0.00342634
     atom   28 type  3   force =     0.01227695   -0.00595860    0.00342593
     atom   29 type  3   force =    -0.00112905   -0.01828210    0.02318287
     atom   30 type  3   force =     0.00112968   -0.01828202   -0.02318189
     atom   31 type  3   force =     0.00112879    0.01828185   -0.02318049
     atom   32 type  3   force =    -0.00112990    0.01828202    0.02317893
     atom   33 type  3   force =    -0.00561355    0.01989260   -0.01365746
     atom   34 type  3   force =     0.00561410    0.01989187    0.01365718
     atom   35 type  3   force =     0.00560975   -0.01989426    0.01365660
     atom   36 type  3   force =    -0.00560962   -0.01989407   -0.01365685
     atom   37 type  3   force =     0.00324421   -0.02274731    0.02816800
     atom   38 type  3   force =    -0.00324397   -0.02274733   -0.02816747
     atom   39 type  3   force =    -0.00324345    0.02274876   -0.02817043
     atom   40 type  3   force =     0.00324318    0.02274896    0.02817003
     atom   41 type  3   force =    -0.01611469   -0.00756186   -0.00550477
     atom   42 type  3   force =     0.01611525   -0.00756214    0.00550554
     atom   43 type  3   force =     0.01611259    0.00756217    0.00549934
     atom   44 type  3   force =    -0.01611241    0.00756200   -0.00549940
     atom   45 type  3   force =    -0.01170405   -0.00790088   -0.00885173
     atom   46 type  3   force =     0.01170521   -0.00790110    0.00885244
     atom   47 type  3   force =     0.01170345    0.00790079    0.00884781
     atom   48 type  3   force =    -0.01170307    0.00790070   -0.00884763
     atom   49 type  3   force =    -0.00319640    0.01786749   -0.02409506
     atom   50 type  3   force =     0.00319702    0.01786728    0.02409564
     atom   51 type  3   force =     0.00319328   -0.01786751    0.02408986
     atom   52 type  3   force =    -0.00319290   -0.01786749   -0.02408960
     atom   53 type  3   force =    -0.00734977    0.00813979   -0.02613170
     atom   54 type  3   force =     0.00734954    0.00814173    0.02613489
     atom   55 type  3   force =     0.00734708   -0.00814157    0.02612932
     atom   56 type  3   force =    -0.00734641   -0.00814165   -0.02612871
     atom   57 type  3   force =    -0.03003974   -0.02252657   -0.00049182
     atom   58 type  3   force =     0.03003975   -0.02252676    0.00049124
     atom   59 type  3   force =     0.03003640    0.02252825    0.00048592
     atom   60 type  3   force =    -0.03003447    0.02252772   -0.00048453
     atom   61 type  3   force =    -0.01476086   -0.00998698   -0.03840762
     atom   62 type  3   force =     0.01476074   -0.00998690    0.03840753
     atom   63 type  3   force =     0.01476293    0.00998694    0.03841042
     atom   64 type  3   force =    -0.01476370    0.00998698   -0.03841059
     atom   65 type  3   force =     0.02178859   -0.06583677   -0.04346304
     atom   66 type  3   force =    -0.02178895   -0.06583667    0.04346276
     atom   67 type  3   force =    -0.02178813    0.06583651    0.04346356
     atom   68 type  3   force =     0.02178801    0.06583656   -0.04346371
     atom   69 type  3   force =    -0.00129152   -0.01647761   -0.01903780
     atom   70 type  3   force =     0.00129110   -0.01647771    0.01903803
     atom   71 type  3   force =     0.00129169    0.01647726    0.01903764
     atom   72 type  3   force =    -0.00129175    0.01647728   -0.01903761
     atom   73 type  3   force =    -0.05001830    0.00316234   -0.03373648
     atom   74 type  3   force =     0.05001808    0.00316236    0.03373630
     atom   75 type  3   force =     0.05001848   -0.00316240    0.03373608
     atom   76 type  3   force =    -0.05001849   -0.00316233   -0.03373630
     atom   77 type  3   force =    -0.01236180    0.01041996    0.00491259
     atom   78 type  3   force =     0.01236175    0.01041998   -0.00491259
     atom   79 type  3   force =     0.01236125   -0.01041877   -0.00491134
     atom   80 type  3   force =    -0.01236137   -0.01041905    0.00491159
     atom   81 type  3   force =    -0.07729565    0.05131399    0.00998511
     atom   82 type  3   force =     0.07729540    0.05131402   -0.00998529
     atom   83 type  3   force =     0.07729528   -0.05131390   -0.00998450
     atom   84 type  3   force =    -0.07729571   -0.05131388    0.00998452
     atom   85 type  3   force =    -0.23270332    0.15630454    0.02984502
     atom   86 type  3   force =     0.23270327    0.15630452   -0.02984516
     atom   87 type  3   force =     0.23270290   -0.15630472   -0.02984501
     atom   88 type  3   force =    -0.23270333   -0.15630463    0.02984461
     atom   89 type  3   force =     0.04133767   -0.17532114   -0.21193282
     atom   90 type  3   force =    -0.04133795   -0.17532095    0.21193292
     atom   91 type  3   force =    -0.04133795    0.17532057    0.21193383
     atom   92 type  3   force =     0.04133765    0.17532061   -0.21193409
     atom   93 type  4   force =    -0.19803203   -0.18638812    0.03357950
     atom   94 type  4   force =     0.19803189   -0.18638808   -0.03357942
     atom   95 type  4   force =     0.19803298    0.18638924   -0.03358042
     atom   96 type  4   force =    -0.19803282    0.18638908    0.03358028
     atom   97 type  4   force =    -0.02048281   -0.15201047    0.23351013
     atom   98 type  4   force =     0.02048293   -0.15201069   -0.23351030
     atom   99 type  4   force =     0.02048268    0.15201014   -0.23350965
     atom  100 type  4   force =    -0.02048266    0.15201025    0.23350956
     atom  101 type  4   force =     0.01019597   -0.00168970   -0.00074150
     atom  102 type  4   force =    -0.01019602   -0.00168967    0.00074155
     atom  103 type  4   force =    -0.01019525    0.00169076    0.00074058
     atom  104 type  4   force =     0.01019516    0.00169064   -0.00074073
     atom  105 type  4   force =     0.00557398    0.03116153   -0.04234759
     atom  106 type  4   force =    -0.00557394    0.03116135    0.04234744
     atom  107 type  4   force =    -0.00557423   -0.03116175    0.04234756
     atom  108 type  4   force =     0.00557410   -0.03116172   -0.04234764
     atom  109 type  4   force =    -0.01330587    0.05855073    0.03925754
     atom  110 type  4   force =     0.01330578    0.05855077   -0.03925765
     atom  111 type  4   force =     0.01330599   -0.05855094   -0.03925757
     atom  112 type  4   force =    -0.01330603   -0.05855110    0.03925765
     atom  113 type  4   force =     0.06790631    0.01021078    0.06336112
     atom  114 type  4   force =    -0.06790646    0.01021081   -0.06336116
     atom  115 type  4   force =    -0.06790592   -0.01021072   -0.06336065
     atom  116 type  4   force =     0.06790576   -0.01021069    0.06336048
     atom  117 type  4   force =     0.07149649   -0.03543709    0.00048327
     atom  118 type  4   force =    -0.07149655   -0.03543709   -0.00048334
     atom  119 type  4   force =    -0.07149679    0.03543730   -0.00048317
     atom  120 type  4   force =     0.07149656    0.03543728    0.00048314
     atom  121 type  4   force =    -0.05599935   -0.29438310   -0.00092341
     atom  122 type  4   force =     0.05599937   -0.29438311    0.00092337
     atom  123 type  4   force =     0.05599913    0.29438295    0.00092355
     atom  124 type  4   force =    -0.05599928    0.29438263   -0.00092359
     atom  125 type  4   force =     0.12749690    0.06701736   -0.24168947
     atom  126 type  4   force =    -0.12749685    0.06701725    0.24168924
     atom  127 type  4   force =    -0.12749684   -0.06701718    0.24168900
     atom  128 type  4   force =     0.12749666   -0.06701709   -0.24168887
     atom  129 type  4   force =     0.17430267    0.06329117    0.21293140
     atom  130 type  4   force =    -0.17430262    0.06329110   -0.21293131
     atom  131 type  4   force =    -0.17430289   -0.06329111   -0.21293130
     atom  132 type  4   force =     0.17430263   -0.06329111    0.21293102
     atom  133 type  4   force =     0.22891803   -0.00541532    0.16888293
     atom  134 type  4   force =    -0.22891813   -0.00541534   -0.16888283
     atom  135 type  4   force =    -0.22891865    0.00541530   -0.16888304
     atom  136 type  4   force =     0.22891839    0.00541536    0.16888286
     atom  137 type  4   force =    -0.04119586    0.26900874   -0.09615463
     atom  138 type  4   force =     0.04119568    0.26900874    0.09615467
     atom  139 type  4   force =     0.04119568   -0.26900883    0.09615507
     atom  140 type  4   force =    -0.04119577   -0.26900856   -0.09615507
     atom  141 type  4   force =    -0.22977762   -0.08210823    0.15204314
     atom  142 type  4   force =     0.22977756   -0.08210825   -0.15204322
     atom  143 type  4   force =     0.22977797    0.08210842   -0.15204322
     atom  144 type  4   force =    -0.22977789    0.08210831    0.15204306
     The non-local contrib.  to forces
     atom    1 type  1   force =     0.21306761    1.25429626   -2.19831682
     atom    2 type  1   force =    -0.21306444    1.25429752    2.19831310
     atom    3 type  1   force =    -0.21306859   -1.25430181    2.19832762
     atom    4 type  1   force =     0.21307066   -1.25430723   -2.19832552
     atom    5 type  1   force =    -1.91070985   -1.77413291    0.12991490
     atom    6 type  1   force =     1.91070464   -1.77413078   -0.12991229
     atom    7 type  1   force =     1.91071635    1.77414147   -0.12991385
     atom    8 type  1   force =    -1.91071196    1.77414137    0.12991531
     atom    9 type  2   force =    -0.07690670   -0.00680578   -0.01782127
     atom   10 type  2   force =     0.07690597   -0.00680885    0.01781817
     atom   11 type  2   force =     0.07690391    0.00680447    0.01782008
     atom   12 type  2   force =    -0.07690315    0.00680677   -0.01781748
     atom   13 type  3   force =     0.19175476    0.18904925   -0.03672496
     atom   14 type  3   force =    -0.19175500    0.18904984    0.03672481
     atom   15 type  3   force =    -0.19175325   -0.18905046    0.03672844
     atom   16 type  3   force =     0.19175213   -0.18905039   -0.03672810
     atom   17 type  3   force =     0.01130735    0.14690993   -0.22949263
     atom   18 type  3   force =    -0.01130752    0.14690940    0.22949123
     atom   19 type  3   force =    -0.01130705   -0.14691018    0.22949457
     atom   20 type  3   force =     0.01130562   -0.14690942   -0.22949404
     atom   21 type  3   force =     0.10226078    0.07896528    0.02565433
     atom   22 type  3   force =    -0.10226091    0.07896636   -0.02565573
     atom   23 type  3   force =    -0.10226368   -0.07896686   -0.02565598
     atom   24 type  3   force =     0.10226308   -0.07896648    0.02565653
     atom   25 type  3   force =     0.00567242    0.01447049    0.00802562
     atom   26 type  3   force =    -0.00567336    0.01447105   -0.00802600
     atom   27 type  3   force =    -0.00567443   -0.01447219   -0.00802491
     atom   28 type  3   force =     0.00567489   -0.01447284    0.00802552
     atom   29 type  3   force =     0.02641428   -0.06067206    0.11102052
     atom   30 type  3   force =    -0.02641381   -0.06067280   -0.11101802
     atom   31 type  3   force =    -0.02641510    0.06066828   -0.11101572
     atom   32 type  3   force =     0.02641479    0.06066785    0.11101409
     atom   33 type  3   force =    -0.04801567   -0.02750533    0.00290126
     atom   34 type  3   force =     0.04801525   -0.02750539   -0.00290121
     atom   35 type  3   force =     0.04801817    0.02750297   -0.00289536
     atom   36 type  3   force =    -0.04801721    0.02750172    0.00289391
     atom   37 type  3   force =    -0.01626948   -0.07092086    0.08531244
     atom   38 type  3   force =     0.01626979   -0.07092086   -0.08531250
     atom   39 type  3   force =     0.01627049    0.07091892   -0.08530498
     atom   40 type  3   force =    -0.01627072    0.07091846    0.08530433
     atom   41 type  3   force =    -0.09283453   -0.05321495   -0.01506862
     atom   42 type  3   force =     0.09283494   -0.05321518    0.01506940
     atom   43 type  3   force =     0.09283512    0.05321367    0.01507445
     atom   44 type  3   force =    -0.09283534    0.05321325   -0.01507467
     atom   45 type  3   force =    -0.00372091   -0.00658052    0.00011071
     atom   46 type  3   force =     0.00372211   -0.00658042   -0.00010976
     atom   47 type  3   force =     0.00371998    0.00657592   -0.00010492
     atom   48 type  3   force =    -0.00372051    0.00657606    0.00010453
     atom   49 type  3   force =    -0.01650351    0.05524168   -0.10275625
     atom   50 type  3   force =     0.01650382    0.05524082    0.10275613
     atom   51 type  3   force =     0.01650404   -0.05524388    0.10275920
     atom   52 type  3   force =    -0.01650441   -0.05524339   -0.10275873
     atom   53 type  3   force =     0.19705367    0.12849532    0.03855461
     atom   54 type  3   force =    -0.19705279    0.12849877   -0.03854642
     atom   55 type  3   force =    -0.19705712   -0.12849838   -0.03855676
     atom   56 type  3   force =     0.19706020   -0.12849669    0.03855679
     atom   57 type  3   force =     0.02262081   -0.12947404    0.23247723
     atom   58 type  3   force =    -0.02261669   -0.12947735   -0.23247723
     atom   59 type  3   force =    -0.02261866    0.12947540   -0.23247866
     atom   60 type  3   force =     0.02261907    0.12947520    0.23247946
     atom   61 type  3   force =    -0.36763987   -0.04650935   -0.41031606
     atom   62 type  3   force =     0.36763765   -0.04650954    0.41031358
     atom   63 type  3   force =     0.36763854    0.04650965    0.41031380
     atom   64 type  3   force =    -0.36763724    0.04650967   -0.41031328
     atom   65 type  3   force =    -0.02739878   -0.03744478   -0.04635037
     atom   66 type  3   force =     0.02739836   -0.03744566    0.04635037
     atom   67 type  3   force =     0.02739710    0.03744450    0.04634887
     atom   68 type  3   force =    -0.02739708    0.03744472   -0.04634961
     atom   69 type  3   force =     0.03651410   -0.02226591   -0.04385893
     atom   70 type  3   force =    -0.03651394   -0.02226604    0.04385914
     atom   71 type  3   force =    -0.03651362    0.02226274    0.04385599
     atom   72 type  3   force =     0.03651476    0.02226358   -0.04385580
     atom   73 type  3   force =    -0.03886366    0.00763731   -0.01180102
     atom   74 type  3   force =     0.03886415    0.00763745    0.01180124
     atom   75 type  3   force =     0.03886396   -0.00763820    0.01179725
     atom   76 type  3   force =    -0.03886372   -0.00763800   -0.01179786
     atom   77 type  3   force =    -0.03467593    0.05070237    0.02902341
     atom   78 type  3   force =     0.03467647    0.05070277   -0.02902370
     atom   79 type  3   force =     0.03467426   -0.05070537   -0.02902776
     atom   80 type  3   force =    -0.03467395   -0.05070516    0.02902824
     atom   81 type  3   force =    -0.07531837    0.00362083   -0.02782925
     atom   82 type  3   force =     0.07531886    0.00362140    0.02782882
     atom   83 type  3   force =     0.07531467   -0.00362059    0.02782620
     atom   84 type  3   force =    -0.07531476   -0.00362074   -0.02782598
     atom   85 type  3   force =    -0.29081617    0.17934699    0.03976665
     atom   86 type  3   force =     0.29081709    0.17934744   -0.03976652
     atom   87 type  3   force =     0.29081701   -0.17934700   -0.03976878
     atom   88 type  3   force =    -0.29081688   -0.17934687    0.03976859
     atom   89 type  3   force =     0.03743736   -0.21326273   -0.24189936
     atom   90 type  3   force =    -0.03743593   -0.21326264    0.24189902
     atom   91 type  3   force =    -0.03743601    0.21326233    0.24189335
     atom   92 type  3   force =     0.03743560    0.21326188   -0.24189340
     atom   93 type  4   force =     0.08545550    0.07921954   -0.01327086
     atom   94 type  4   force =    -0.08545556    0.07921961    0.01327088
     atom   95 type  4   force =    -0.08545667   -0.07922063    0.01327093
     atom   96 type  4   force =     0.08545669   -0.07922064   -0.01327095
     atom   97 type  4   force =     0.00850972    0.06382843   -0.09893797
     atom   98 type  4   force =    -0.00850970    0.06382841    0.09893794
     atom   99 type  4   force =    -0.00850983   -0.06382943    0.09893952
     atom  100 type  4   force =     0.00850985   -0.06382945   -0.09893957
     atom  101 type  4   force =    -0.05797116   -0.05670853    0.00521036
     atom  102 type  4   force =     0.05797112   -0.05670850   -0.00521036
     atom  103 type  4   force =     0.05797131    0.05670868   -0.00521044
     atom  104 type  4   force =    -0.05797137    0.05670874    0.00521046
     atom  105 type  4   force =    -0.01650654   -0.04534397    0.07458964
     atom  106 type  4   force =     0.01650654   -0.04534397   -0.07458963
     atom  107 type  4   force =     0.01650645    0.04534372   -0.07458930
     atom  108 type  4   force =    -0.01650646    0.04534377    0.07458938
     atom  109 type  4   force =    -0.00658917    0.04810248    0.04537936
     atom  110 type  4   force =     0.00658916    0.04810245   -0.04537933
     atom  111 type  4   force =     0.00658921   -0.04810278   -0.04537962
     atom  112 type  4   force =    -0.00658921   -0.04810277    0.04537962
     atom  113 type  4   force =    -0.05998329   -0.00204953   -0.06765810
     atom  114 type  4   force =     0.05998330   -0.00204953    0.06765810
     atom  115 type  4   force =     0.05998328    0.00204953    0.06765811
     atom  116 type  4   force =    -0.05998328    0.00204953   -0.06765811
     atom  117 type  4   force =     0.05579831   -0.03375608   -0.00159387
     atom  118 type  4   force =    -0.05579826   -0.03375605    0.00159386
     atom  119 type  4   force =    -0.05579860    0.03375627    0.00159388
     atom  120 type  4   force =     0.05579862    0.03375629   -0.00159389
     atom  121 type  4   force =     0.02175848    0.11195831   -0.00090077
     atom  122 type  4   force =    -0.02175846    0.11195830    0.00090077
     atom  123 type  4   force =    -0.02175857   -0.11195875    0.00090081
     atom  124 type  4   force =     0.02175857   -0.11195876   -0.00090081
     atom  125 type  4   force =    -0.05068677   -0.02802564    0.09633812
     atom  126 type  4   force =     0.05068680   -0.02802565   -0.09633815
     atom  127 type  4   force =     0.05068702    0.02802579   -0.09633861
     atom  128 type  4   force =    -0.05068703    0.02802580    0.09633861
     atom  129 type  4   force =    -0.06892731   -0.02569859   -0.08496707
     atom  130 type  4   force =     0.06892735   -0.02569861    0.08496711
     atom  131 type  4   force =     0.06892753    0.02569869    0.08496739
     atom  132 type  4   force =    -0.06892754    0.02569869   -0.08496739
     atom  133 type  4   force =    -0.09074859    0.00244793   -0.06640175
     atom  134 type  4   force =     0.09074857    0.00244792    0.06640174
     atom  135 type  4   force =     0.09074834   -0.00244793    0.06640161
     atom  136 type  4   force =    -0.09074837   -0.00244793   -0.06640164
     atom  137 type  4   force =     0.01539873   -0.10575720    0.03771492
     atom  138 type  4   force =    -0.01539872   -0.10575714   -0.03771490
     atom  139 type  4   force =    -0.01539872    0.10575713   -0.03771485
     atom  140 type  4   force =     0.01539872    0.10575719    0.03771486
     atom  141 type  4   force =     0.08939559    0.03294598   -0.05922430
     atom  142 type  4   force =    -0.08939552    0.03294595    0.05922424
     atom  143 type  4   force =    -0.08939527   -0.03294586    0.05922413
     atom  144 type  4   force =     0.08939531   -0.03294588   -0.05922417
     The ionic contribution  to forces
     atom    1 type  1   force =     1.12134461   -6.28289832   12.05199780
     atom    2 type  1   force =    -1.12134461   -6.28289832  -12.05199780
     atom    3 type  1   force =    -1.12134461    6.28289832  -12.05199780
     atom    4 type  1   force =     1.12134461    6.28289832   12.05199780
     atom    5 type  1   force =    15.88767308    8.28385526   -3.43140699
     atom    6 type  1   force =   -15.88767308    8.28385526    3.43140699
     atom    7 type  1   force =   -15.88767308   -8.28385526    3.43140699
     atom    8 type  1   force =    15.88767308   -8.28385526   -3.43140699
     atom    9 type  2   force =     4.85399743   -0.03529679    0.64639297
     atom   10 type  2   force =    -4.85399743   -0.03529679   -0.64639297
     atom   11 type  2   force =    -4.85399743    0.03529679   -0.64639297
     atom   12 type  2   force =     4.85399743    0.03529679    0.64639297
     atom   13 type  3   force =    -3.15564300   -2.17691641    1.42504374
     atom   14 type  3   force =     3.15564300   -2.17691641   -1.42504374
     atom   15 type  3   force =     3.15564300    2.17691641   -1.42504374
     atom   16 type  3   force =    -3.15564300    2.17691641    1.42504374
     atom   17 type  3   force =    -1.23949604   -2.33826739    3.00349845
     atom   18 type  3   force =     1.23949604   -2.33826739   -3.00349845
     atom   19 type  3   force =     1.23949604    2.33826739   -3.00349845
     atom   20 type  3   force =    -1.23949604    2.33826739    3.00349845
     atom   21 type  3   force =     0.95410524   -0.35441971    1.04507709
     atom   22 type  3   force =    -0.95410524   -0.35441971   -1.04507709
     atom   23 type  3   force =    -0.95410524    0.35441971   -1.04507709
     atom   24 type  3   force =     0.95410524    0.35441971    1.04507709
     atom   25 type  3   force =     1.82392992   -0.04658132   -0.48599707
     atom   26 type  3   force =    -1.82392992   -0.04658132    0.48599707
     atom   27 type  3   force =    -1.82392992    0.04658132    0.48599707
     atom   28 type  3   force =     1.82392992    0.04658132   -0.48599707
     atom   29 type  3   force =     4.11167917    0.42017618   -1.23058318
     atom   30 type  3   force =    -4.11167917    0.42017618    1.23058318
     atom   31 type  3   force =    -4.11167917   -0.42017618    1.23058319
     atom   32 type  3   force =     4.11167917   -0.42017618   -1.23058318
     atom   33 type  3   force =     6.65425511    2.92970023   -2.70124652
     atom   34 type  3   force =    -6.65425511    2.92970023    2.70124652
     atom   35 type  3   force =    -6.65425511   -2.92970023    2.70124652
     atom   36 type  3   force =     6.65425511   -2.92970023   -2.70124652
     atom   37 type  3   force =     4.10169466    2.41130147   -3.50785023
     atom   38 type  3   force =    -4.10169466    2.41130147    3.50785023
     atom   39 type  3   force =    -4.10169466   -2.41130147    3.50785023
     atom   40 type  3   force =     4.10169466   -2.41130147   -3.50785023
     atom   41 type  3   force =     1.78471515    0.20224255   -1.71065647
     atom   42 type  3   force =    -1.78471515    0.20224255    1.71065647
     atom   43 type  3   force =    -1.78471515   -0.20224255    1.71065647
     atom   44 type  3   force =     1.78471515   -0.20224255   -1.71065647
     atom   45 type  3   force =     0.55505984    0.01778276   -0.59752009
     atom   46 type  3   force =    -0.55505984    0.01778276    0.59752009
     atom   47 type  3   force =    -0.55505984   -0.01778276    0.59752009
     atom   48 type  3   force =     0.55505984   -0.01778276   -0.59752009
     atom   49 type  3   force =    -1.84033553   -0.35984707    0.15850342
     atom   50 type  3   force =     1.84033553   -0.35984707   -0.15850342
     atom   51 type  3   force =     1.84033553    0.35984707   -0.15850342
     atom   52 type  3   force =    -1.84033553    0.35984707    0.15850342
     atom   53 type  3   force =     0.81116914    0.09994249   -1.17582436
     atom   54 type  3   force =    -0.81116914    0.09994249    1.17582436
     atom   55 type  3   force =    -0.81116914   -0.09994249    1.17582436
     atom   56 type  3   force =     0.81116914   -0.09994249   -1.17582436
     atom   57 type  3   force =     2.39552923   -1.01608468   -2.37128653
[...]
     atom   50 type  3   force =     0.00017572   -0.00068530    0.00004178
     atom   51 type  3   force =     0.00017569    0.00068529    0.00004175
     atom   52 type  3   force =    -0.00017571    0.00068530   -0.00004177
     atom   53 type  3   force =    -0.00016527   -0.00047174    0.00056101
     atom   54 type  3   force =     0.00016531   -0.00047190   -0.00056125
     atom   55 type  3   force =     0.00016529    0.00047180   -0.00056111
     atom   56 type  3   force =    -0.00016537    0.00047200    0.00056137
     atom   57 type  3   force =     0.00008400    0.00075863    0.00008419
     atom   58 type  3   force =    -0.00008417    0.00075881   -0.00008412
     atom   59 type  3   force =    -0.00008411   -0.00075871   -0.00008419
     atom   60 type  3   force =     0.00008437   -0.00075894    0.00008412
     atom   61 type  3   force =    -0.00022991   -0.00007603    0.00003714
     atom   62 type  3   force =     0.00022985   -0.00007603   -0.00003720
     atom   63 type  3   force =     0.00022989    0.00007602   -0.00003715
     atom   64 type  3   force =    -0.00022982    0.00007601    0.00003722
     atom   65 type  3   force =    -0.00027930   -0.00074595   -0.00059807
     atom   66 type  3   force =     0.00027929   -0.00074595    0.00059807
     atom   67 type  3   force =     0.00027929    0.00074594    0.00059806
     atom   68 type  3   force =    -0.00027928    0.00074595   -0.00059806
     atom   69 type  3   force =     0.00019120   -0.00036309    0.00011144
     atom   70 type  3   force =    -0.00019119   -0.00036308   -0.00011144
     atom   71 type  3   force =    -0.00019120    0.00036309   -0.00011144
     atom   72 type  3   force =     0.00019118    0.00036308    0.00011144
     atom   73 type  3   force =     0.00061835    0.00009596    0.00071333
     atom   74 type  3   force =    -0.00061836    0.00009596   -0.00071333
     atom   75 type  3   force =    -0.00061834   -0.00009596   -0.00071333
     atom   76 type  3   force =     0.00061835   -0.00009596    0.00071334
     atom   77 type  3   force =    -0.00005172    0.00037403    0.00023264
     atom   78 type  3   force =     0.00005172    0.00037402   -0.00023263
     atom   79 type  3   force =     0.00005172   -0.00037403   -0.00023264
     atom   80 type  3   force =    -0.00005172   -0.00037402    0.00023262
     atom   81 type  3   force =    -0.00099089    0.00051264   -0.00016548
     atom   82 type  3   force =     0.00099089    0.00051264    0.00016547
     atom   83 type  3   force =     0.00099088   -0.00051263    0.00016548
     atom   84 type  3   force =    -0.00099088   -0.00051264   -0.00016547
     atom   85 type  3   force =     0.00010673   -0.00032911   -0.00004832
     atom   86 type  3   force =    -0.00010673   -0.00032911    0.00004832
     atom   87 type  3   force =    -0.00010673    0.00032911    0.00004832
     atom   88 type  3   force =     0.00010673    0.00032911   -0.00004832
     atom   89 type  3   force =    -0.00012192    0.00028910    0.00002229
     atom   90 type  3   force =     0.00012192    0.00028910   -0.00002229
     atom   91 type  3   force =     0.00012192   -0.00028910   -0.00002229
     atom   92 type  3   force =    -0.00012192   -0.00028910    0.00002230
     atom   93 type  4   force =     0.00005922   -0.00026665    0.00001892
     atom   94 type  4   force =    -0.00005923   -0.00026664   -0.00001891
     atom   95 type  4   force =    -0.00005923    0.00026664   -0.00001891
     atom   96 type  4   force =     0.00005923    0.00026664    0.00001891
     atom   97 type  4   force =    -0.00009303   -0.00027861    0.00015956
     atom   98 type  4   force =     0.00009303   -0.00027862   -0.00015958
     atom   99 type  4   force =     0.00009303    0.00027861   -0.00015957
     atom  100 type  4   force =    -0.00009303    0.00027862    0.00015958
     atom  101 type  4   force =    -0.00005565    0.00015880   -0.00000517
     atom  102 type  4   force =     0.00005565    0.00015881    0.00000517
     atom  103 type  4   force =     0.00005565   -0.00015881    0.00000517
     atom  104 type  4   force =    -0.00005564   -0.00015882   -0.00000517
     atom  105 type  4   force =    -0.00011746    0.00014479   -0.00009143
     atom  106 type  4   force =     0.00011746    0.00014479    0.00009142
     atom  107 type  4   force =     0.00011747   -0.00014478    0.00009141
     atom  108 type  4   force =    -0.00011747   -0.00014478   -0.00009141
     atom  109 type  4   force =    -0.00014250   -0.00013964   -0.00000497
     atom  110 type  4   force =     0.00014249   -0.00013964    0.00000498
     atom  111 type  4   force =     0.00014250    0.00013964    0.00000497
     atom  112 type  4   force =    -0.00014249    0.00013963   -0.00000498
     atom  113 type  4   force =     0.00014078    0.00002253    0.00019769
     atom  114 type  4   force =    -0.00014078    0.00002253   -0.00019769
     atom  115 type  4   force =    -0.00014077   -0.00002253   -0.00019769
     atom  116 type  4   force =     0.00014077   -0.00002253    0.00019769
     atom  117 type  4   force =    -0.00018080    0.00003938   -0.00009615
     atom  118 type  4   force =     0.00018079    0.00003937    0.00009615
     atom  119 type  4   force =     0.00018080   -0.00003938    0.00009615
     atom  120 type  4   force =    -0.00018080   -0.00003938   -0.00009614
     atom  121 type  4   force =    -0.00026087   -0.00031770    0.00002655
     atom  122 type  4   force =     0.00026087   -0.00031770   -0.00002655
     atom  123 type  4   force =     0.00026087    0.00031770   -0.00002655
     atom  124 type  4   force =    -0.00026087    0.00031770    0.00002655
     atom  125 type  4   force =     0.00012984    0.00001966   -0.00036999
     atom  126 type  4   force =    -0.00012985    0.00001965    0.00036999
     atom  127 type  4   force =    -0.00012984   -0.00001966    0.00036999
     atom  128 type  4   force =     0.00012984   -0.00001966   -0.00036999
     atom  129 type  4   force =     0.00008519   -0.00000859    0.00023488
     atom  130 type  4   force =    -0.00008519   -0.00000859   -0.00023488
     atom  131 type  4   force =    -0.00008519    0.00000859   -0.00023488
     atom  132 type  4   force =     0.00008519    0.00000859    0.00023488
     atom  133 type  4   force =     0.00021759    0.00002781   -0.00001404
     atom  134 type  4   force =    -0.00021759    0.00002781    0.00001404
     atom  135 type  4   force =    -0.00021759   -0.00002781    0.00001404
     atom  136 type  4   force =     0.00021759   -0.00002781   -0.00001404
     atom  137 type  4   force =     0.00001673    0.00035932   -0.00037351
     atom  138 type  4   force =    -0.00001673    0.00035932    0.00037351
     atom  139 type  4   force =    -0.00001673   -0.00035932    0.00037351
     atom  140 type  4   force =     0.00001673   -0.00035932   -0.00037351
     atom  141 type  4   force =    -0.00038497   -0.00018118    0.00010340
     atom  142 type  4   force =     0.00038497   -0.00018118   -0.00010340
     atom  143 type  4   force =     0.00038497    0.00018118   -0.00010340
     atom  144 type  4   force =    -0.00038497    0.00018118    0.00010340

     Total force =     0.005794     Total SCF correction =     0.000080
     Energy error            =      5.6E-05 Ry
     Gradient error          =      7.4E-04 Ry/Bohr

     bfgs converged in  25 scf cycles and  24 bfgs steps
     (criteria: energy <  1.0E-04 Ry, force <  1.0E-03 Ry/Bohr)

     End of BFGS Geometry Optimization

     Final energy             =   -1982.9641398615 Ry

     File /scratch/calc/outdir/pwscf.bfgs deleted, as requested
Begin final coordinates

ATOMIC_POSITIONS (angstrom)
O            11.1125817560        4.0091038969        5.4873456558
O             5.3937707317        1.5745796926        3.0455639562
O             4.8868246581        0.8599011004       11.5785434147
O            10.6056174924        3.2944155478       14.0203524565
O            13.3513035738        2.2843545513        3.0050426204
O             3.1550287144        4.7188731067        5.5279155398
O             2.6480823907        2.5846267549       14.0608698710
O            12.8444160043        0.1500886777       11.5379927376
N            12.2979558110        0.6296837053        4.2030321820
N             4.2083886984        3.0641844950        4.3299168397
N             3.7014408562        4.2393149180       12.8628736529
N            11.7910128441        1.8048153623       12.7359965055
C             8.3198569869        3.3472086470        2.3974440243
C             8.1864952330        0.9127063067        6.1355099032
C             7.6795398758        1.5217925094       14.6684646988
C             7.8129055793        3.9562938043       10.9303965020
C             9.2472348273        3.5190310726        3.4251962052
C             7.2591113162        1.0845360294        5.1077605489
C             6.7521579452        1.3499650548       13.6407124603
C             8.7402925353        3.7844608453       11.9581473754
C            10.2756947033        4.4461012418        3.3042161465
C             6.2306574386        2.0115963026        5.2287321102
C             5.7237017779        0.4228992797       13.7616916155
C             9.7687417709        2.8574038868       11.8371747370
C            10.3945787198        0.3397535006        2.1183072497
C             6.1117683729        2.7742539832        6.4146454006
C             5.6048146289        4.5292468456       14.9476002724
C             9.8876355262        2.0947456662       10.6512641196
C            11.4531019048        1.2697135499        1.9846860021
C             5.0532451202        3.7042163265        6.5482716959
C             4.5462946205        3.5992856559       15.0812256099
C            10.9461595361        1.1647786022       10.5176333373
C            11.5747461727        2.0086552441        0.8147011564
C             4.9316032410        4.4431525443        7.7182499132
C             4.4246479449        2.8603473294       16.2512037745
C            11.0677980240        0.4258518803        9.3476639085
C             9.6479645610        1.8469372795       16.8373734157
C             5.8444828814        4.2814373479        8.7614897752
C             6.3514279350        3.0220612490        0.2285397553
C            10.1549208301        0.5875606870        8.3044116543
C             8.5791210475        0.9468312213       16.9330400500
C             6.9133258275        3.3813308911        8.6658208143
C             7.4202743907        3.9221707946        0.1328714647
C             9.0860767755        1.4876707822        8.4000839676
C             9.4479771635        0.1725837823        1.0596643374
C             7.0583739958        2.6070828257        7.4732915309
C             6.5514177160        4.6964165481       16.0062472442
C             8.9410280011        2.2619168283        9.5926120171
C             8.3888187689        4.0946742386        1.2146559634
C             8.1175289686        1.6601750320        7.3182968866
C             7.6105760653        0.7743258468       15.8512560686
C             7.8818726219        3.2088253068        9.7476064473
C            11.2355098116        4.6123563001        4.4122960923
C             5.2708361349        2.1778847072        4.1207121689
C             4.7638877033        0.2566327689       12.6536236712
C            10.7285606170        2.6911113531       12.9452016336
C            12.4423382650        1.4557364969        3.0670406714
C             4.0640328158        3.8902200887        5.4659129288
C             3.5570755194        3.4132805178       13.9988695740
C            11.9353190462        0.9788264421       11.5999918069
C            13.3154684129        0.7375863887        5.2343943525
C             3.1908824476        3.1720862341        3.2985639246
C             2.6839294888        4.1314117761       11.8315111907
C            12.8085137654        1.6969135153       13.7673470750
C            14.4878210809        0.0005836036        5.0929136303
C             2.0185265181        2.4350840570        3.4400388429
C             1.5115751597        4.8684159540       11.9729915567
C            13.9808730582        2.4339158006       13.6258721404
C            15.5015447765        0.1280403953        6.0518764294
C             1.0048042427        2.5625398472        2.4810779352
C             0.4978538545        4.7409603421       11.0140299295
C            14.9945935327        2.3064608886       14.5848314214
C            15.2871874675        0.9872675194        7.1394705399
C             1.2191614316        3.4217676670        1.3934828171
C             0.7122082931        3.8817340313        9.9264329702
C            14.7802386754        1.4472338431       15.6724292712
C            14.1024259801        1.7199159310        7.2900701213
C             2.4039234442        4.1544156920        1.2428836895
C             1.8969726102        3.1490842693        9.7758347746
C            13.5954739695        0.7145839678       15.8230270666
C            13.1082585470        1.5903262113        6.3128452890
C             3.3980894158        4.0248262940        2.2201070548
C             2.8911381902        3.2786732770       10.7530600781
C            12.6013100714        0.8441727119       14.8458037356
C            -0.2240067916        4.2330360706        5.9065821965
C            16.7303558357        1.7985357906        2.6263715791
C            16.2234044479        0.6359652711       11.1593223608
C            -0.7309573062        3.0704648850       14.4395398819
C            13.8938315976        2.6536218019        8.4516969843
C             2.6125173750        0.2191216931        0.0812570369
C             2.1055658520        2.2153804675        8.6142055912
C            13.3868813141        4.6498805325       16.9846559327
H             7.5337661683        2.6049921510        2.5267386021
H             8.9725834189        0.1704925140        6.0062154857
H             8.4656276471        2.2640065800       14.5391681047
H             7.0268194407        4.6985064239       11.0596929387
H             9.1808032772        2.9236104452        4.3360377866
H             7.3255467023        0.4891093023        4.1969147146
H             6.8185887844        1.9453856241       12.7298664014
H             8.6738575283        4.3798867516       12.8689955849
H            12.4032716423        2.7107056069        0.7212612447
H             4.1030768905        0.2762053519        7.8116922614
H             3.5961202771        2.1582943419       16.3446428428
H            11.8963286191        4.5927930833        9.2542187210
H             9.8006102050        2.4369431036       15.9345291530
H             5.6918371561        4.8714429125        9.6643323039
H             6.1987812816        2.4320568408        1.1313774549
H            10.3075681127       -0.0024429674        7.4015765642
H            14.6012974957        4.1950973298        4.2424977448
H             1.9050508095        1.7605972668        4.2904566014
H             1.3980985138        0.6739009944       12.8234081073
H            14.0943487744        3.1084010018       12.7754533452
H            16.0734079975        1.0895924818        7.8926646804
H             0.4329412228        3.5240922710        0.6402891011
H            -0.0740100874        3.7794103372        9.1732395713
H            15.5664569263        1.3449100467       16.4256225051
H            12.1963896653        2.1851845877        6.3664517666
H             4.3099592338        4.6196841887        2.1665021338
H             3.8030070593        2.6838143931       10.6994519648
H            11.6894396544        0.2493145096       14.8994098622
H            16.6046987037        3.1479738172        5.9081101001
H            -0.0983492185        0.7134738541        2.6248439990
H            -0.6053011489        1.7210269611       11.1577955933
H            16.0977483839        4.1555269756       14.4410663233
H             0.2821745576        4.4701530039        4.9598651643
H            16.2241745754        2.0356527452        3.5730888285
H            15.7172223639        0.3988478222       12.1060406848
H            -0.2247750341        2.8333476582       13.4928212427
H             0.4773282987        4.4649275342        6.7180233025
H            16.0290206033        2.0304271084        1.8149306670
H            15.5220686278        0.4040742761       10.3478820706
H            -0.0296212145        2.8385741889       15.2509797209
H            14.7542875654        2.6601751136        9.1321994866
H             0.7381599599        0.2256750251       16.4666623494
H             1.2451105253        2.2088268923        7.9337042563
H            15.2612379217        4.6433267973        0.5992493899
H            13.7323356390        3.6799552499        8.0931616275
H             2.7740131402        1.2454553034        0.4397923529
H             2.2670620850        1.1890463899        8.9727419247
H            13.2253849997        3.6235461937       16.6261194275
H            13.0091506839        2.3635899680        9.0366747553
H             2.4832966636        4.7980900732       16.5621873603
H             2.9902468649        2.5054128815        8.0292295667
H            13.5161015711        0.0709127098        0.5037237872
End final coordinates



     Writing all to output data dir /scratch/calc/outdir/pwscf.save/
 
     init_run     :      4.40s CPU      4.85s WALL (       1 calls)
     electrons    :   1609.25s CPU   1825.69s WALL (      25 calls)
     update_pot   :     24.23s CPU     24.92s WALL (      24 calls)
     forces       :     78.11s CPU    107.13s WALL (      25 calls)
     force_dftd3  :     26.43s CPU     46.03s WALL (      25 calls)

     Called by init_run:
     wfcinit      :      2.96s CPU      3.29s WALL (       1 calls)
     potinit      :      0.38s CPU      0.40s WALL (       1 calls)
     hinit0       :      0.61s CPU      0.66s WALL (       1 calls)

     Called by electrons:
     c_bands      :   1367.67s CPU   1537.14s WALL (     227 calls)
     sum_band     :    185.45s CPU    205.68s WALL (     227 calls)
     v_of_rho     :      7.47s CPU      8.67s WALL (     240 calls)
     newd         :     17.83s CPU     26.40s WALL (     240 calls)
     PAW_pot      :     17.57s CPU     17.80s WALL (     264 calls)
     mix_rho      :      0.95s CPU      1.22s WALL (     227 calls)
     energy_dftd3 :     15.96s CPU     32.17s WALL (      25 calls)

     Called by c_bands:
     init_us_2    :     13.17s CPU     13.45s WALL (    4032 calls)
     init_us_2:cp :     13.15s CPU     13.44s WALL (    4032 calls)
     cegterg      :   1331.36s CPU   1496.45s WALL (    1818 calls)

     Called by *egterg:
     cdiaghg      :    209.15s CPU    269.72s WALL (    7573 calls)
     h_psi        :    699.63s CPU    744.68s WALL (    7871 calls)
     s_psi        :    103.78s CPU    104.55s WALL (    7871 calls)
     g_psi        :      1.69s CPU      1.78s WALL (    6045 calls)

     Called by h_psi:
     h_psi:calbec :    117.58s CPU    130.08s WALL (    7871 calls)
     vloc_psi     :    474.07s CPU    505.62s WALL (    7871 calls)
     add_vuspsi   :    104.13s CPU    105.03s WALL (    7871 calls)

     General routines
     calbec       :    189.57s CPU    210.69s WALL (   10679 calls)
     fft          :      6.98s CPU     10.81s WALL (    3381 calls)
     ffts         :      0.20s CPU      0.23s WALL (     467 calls)
     fftw         :    484.54s CPU    519.02s WALL ( 2839426 calls)
     interpolate  :      0.49s CPU      0.62s WALL (     240 calls)
 
     Parallel routines
 
     PWSCF        :  28m51.11s CPU  33m 4.07s WALL

 
   This run was terminated on:  23:45:26   7Mar2024            

=------------------------------------------------------------------------------=
   JOB DONE.
=------------------------------------------------------------------------------=
