
     Program PWSCF v.7.2 starts on  8Nov2023 at  0:34:30 

     This program is part of the open-source Quantum ESPRESSO suite
     for quantum simulation of materials; please cite
         "P. Giannozzi et al., J. Phys.:Condens. Matter 21 395502 (2009);
         "P. Giannozzi et al., J. Phys.:Condens. Matter 29 465901 (2017);
         "P. Giannozzi et al., J. Chem. Phys. 152 154105 (2020);
          URL http://www.quantum-espresso.org", 
     in publications or presentations arising from this work. More details at
     http://www.quantum-espresso.org/quote

     Parallel version (MPI), running on    36 processors

     MPI processes distributed on     1 nodes
     769192 MiB available memory on the printing compute node when the environment starts
 
     Waiting for input...
     Reading input from standard input
Warning: card &CELL ignored
Warning: card / ignored

     Current dimensions of program PWSCF are:
     Max number of different atomic species (ntypx) = 10
     Max number of k-points (npk) =  40000
     Max angular momentum in pseudopotentials (lmaxx) =  4
     file Mo.pbe-spn-kjpaw_psl.1.0.0.UPF: wavefunction(s)  4S 4D renormalized
     file S.pbe-n-kjpaw_psl.1.0.0.UPF: wavefunction(s)  3S 3P renormalized
     file Au.pbe-spfn-kjpaw_psl.1.0.0.UPF: wavefunction(s)  5P 5D 4F renormalized
 
     R & G space division:  proc/nbgrp/npool/nimage =      36
     Subspace diagonalization in iterative solution of the eigenvalue problem:
     one sub-group per band group will be used
     custom distributed-memory algorithm (size of sub-group:  6*  6 procs)

 
     Parallelization info
     --------------------
     sticks:   dense  smooth     PW     G-vecs:    dense   smooth      PW
     Min         585     334     89               198743    85850   11735
     Max         586     335     90               198750    85861   11748
     Sum       21073   12049   3205              7154885  3090769  422587
 
     Using Slab Decomposition
 


     bravais-lattice index     =            0
     lattice parameter (alat)  =      23.8199  a.u.
     unit-cell volume          =   33861.0370 (a.u.)^3
     number of atoms/cell      =          193
     number of atomic types    =            3
     number of electrons       =      1697.00
     number of Kohn-Sham states=         1019
     kinetic-energy cutoff     =      77.0000  Ry
     charge density cutoff     =     539.0000  Ry
     scf convergence threshold =      1.0E-06
     mixing beta               =       0.2000
     number of iterations used =            8  plain     mixing
     energy convergence thresh.=      1.0E-04
     force convergence thresh. =      1.0E-03
     Exchange-correlation= SLA  PW   PBX  PBC
                           (   1   4   3   4   0   0   0)
     nstep                     =         1000


     Effective Screening Medium Method
     =================================
     Boundary Conditions: Vacuum-Slab-Vacuum
     total charge in unit cell        =   0.0000
     grid points for fit at edges     =        4 
 

     celldm(1)=  23.819920  celldm(2)=   0.000000  celldm(3)=   0.000000
     celldm(4)=   0.000000  celldm(5)=   0.000000  celldm(6)=   0.000000

     crystal axes: (cart. coord. in units of alat)
               a(1) = (   1.000000   0.000000   0.000000 )  
               a(2) = (  -0.499999   0.866026   0.000000 )  
               a(3) = (   0.000000   0.000000   2.893000 )  

     reciprocal axes: (cart. coord. in units 2 pi/alat)
               b(1) = (  1.000000  0.577349  0.000000 )  
               b(2) = (  0.000000  1.154700  0.000000 )  
               b(3) = (  0.000000  0.000000  0.345662 )  


     PseudoPot. # 1 for Mo read from file:
     ./pseudo/Mo.pbe-spn-kjpaw_psl.1.0.0.UPF
     MD5 check sum: 317bf72632116215fd98f72de1686f13
     Pseudo is Projector augmented-wave + core cor, Zval = 14.0
     Generated using 'atomic' code by A. Dal Corso  v.7.2
     Shape of augmentation charge: PSQ
     Using radial grid of 1229 points,  6 beta functions with: 
                l(1) =   0
                l(2) =   0
                l(3) =   1
                l(4) =   1
                l(5) =   2
                l(6) =   2
     Q(r) pseudized with 0 coefficients 


     PseudoPot. # 2 for S  read from file:
     ./pseudo/S.pbe-n-kjpaw_psl.1.0.0.UPF
     MD5 check sum: 8b7b5302570d38d5e87fed6a1065abda
     Pseudo is Projector augmented-wave + core cor, Zval =  6.0
     Generated using 'atomic' code by A. Dal Corso  v.7.2
     Shape of augmentation charge: PSQ
     Using radial grid of 1151 points,  6 beta functions with: 
                l(1) =   0
                l(2) =   0
                l(3) =   1
                l(4) =   1
                l(5) =   2
                l(6) =   2
     Q(r) pseudized with 0 coefficients 


     PseudoPot. # 3 for Au read from file:
     ./pseudo/Au.pbe-spfn-kjpaw_psl.1.0.0.UPF
     MD5 check sum: c4676eff00405da86a99eb409921eac8
     Pseudo is Projector augmented-wave + core cor, Zval = 33.0
     Generated using 'atomic' code by A. Dal Corso  v.7.2
     Shape of augmentation charge: PSQ
     Using radial grid of 1279 points,  8 beta functions with: 
                l(1) =   0
                l(2) =   0
                l(3) =   1
                l(4) =   1
                l(5) =   2
                l(6) =   2
                l(7) =   3
                l(8) =   3
     Q(r) pseudized with 0 coefficients 


     atomic species   valence    mass     pseudopotential
        Mo            14.00    95.95000     Mo( 1.00)
        S              6.00    32.06000     S ( 1.00)
        Au            33.00   196.96657     Au( 1.00)

     No symmetry found



   Cartesian axes

     site n.     atom                  positions (alat units)
         1           Mo  tau(   1) = (   0.0000010   0.1443372  -0.7272732  )
         2           Mo  tau(   2) = (   0.1249995   0.0721706  -0.2424038  )
         3           S   tau(   3) = (   0.0000015   0.1443386  -0.3667807  )
         4           S   tau(   4) = (   0.1250010   0.0721682  -0.6030489  )
         5           S   tau(   5) = (   0.1250010   0.0721683  -0.8514963  )
         6           S   tau(   6) = (   0.0000015   0.1443389  -0.1180260  )
         7           Mo  tau(   7) = (   0.0000041   0.1443345   0.2424023  )
         8           Mo  tau(   8) = (   0.1250030   0.0721700   0.7272501  )
         9           S   tau(   9) = (   0.0000038   0.1443392   0.6028599  )
        10           S   tau(  10) = (   0.1250037   0.0721683   0.3667755  )
        11           S   tau(  11) = (   0.1250033   0.0721688   0.1180247  )
        12           S   tau(  12) = (   0.0000038   0.1443391   0.8517304  )
        13           Mo  tau(  13) = (  -0.1249989   0.3608437  -0.7272732  )
        14           Mo  tau(  14) = (   0.0000030   0.2886752  -0.2424042  )
        15           S   tau(  15) = (  -0.1249977   0.3608450  -0.3667802  )
        16           S   tau(  16) = (   0.0000012   0.2886747  -0.6030489  )
        17           S   tau(  17) = (   0.0000012   0.2886748  -0.8514963  )
        18           S   tau(  18) = (  -0.1249977   0.3608454  -0.1180274  )
        19           Mo  tau(  19) = (  -0.1249981   0.3608444   0.2424011  )
        20           Mo  tau(  20) = (   0.0000038   0.2886765   0.7272499  )
        21           S   tau(  21) = (  -0.1249961   0.3608457   0.6028596  )
        22           S   tau(  22) = (   0.0000037   0.2886752   0.3667739  )
        23           S   tau(  23) = (   0.0000035   0.2886747   0.1180263  )
        24           S   tau(  24) = (  -0.1249962   0.3608459   0.8517305  )
        25           Mo  tau(  25) = (  -0.2499987   0.5773502  -0.7272732  )
        26           Mo  tau(  26) = (  -0.1249977   0.5051839  -0.2424055  )
        27           S   tau(  27) = (  -0.2499981   0.5773518  -0.3667809  )
        28           S   tau(  28) = (  -0.1249986   0.5051812  -0.6030489  )
        29           S   tau(  29) = (  -0.1249986   0.5051813  -0.8514963  )
        30           S   tau(  30) = (  -0.2499979   0.5773512  -0.1180266  )
        31           Mo  tau(  31) = (  -0.2499983   0.5773503   0.2424020  )
        32           Mo  tau(  32) = (  -0.1249962   0.5051830   0.7272501  )
        33           S   tau(  33) = (  -0.2499958   0.5773522   0.6028593  )
        34           S   tau(  34) = (  -0.1249963   0.5051821   0.3667746  )
        35           S   tau(  35) = (  -0.1249968   0.5051820   0.1180254  )
        36           S   tau(  36) = (  -0.2499959   0.5773522   0.8517307  )
        37           Mo  tau(  37) = (  -0.3749985   0.7938567  -0.7272732  )
        38           Mo  tau(  38) = (  -0.2500001   0.7216874  -0.2424031  )
        39           S   tau(  39) = (  -0.3749980   0.7938584  -0.3667800  )
        40           S   tau(  40) = (  -0.2499984   0.7216877  -0.6030489  )
        41           S   tau(  41) = (  -0.2499984   0.7216878  -0.8514963  )
        42           S   tau(  42) = (  -0.3749982   0.7938585  -0.1180264  )
        43           Mo  tau(  43) = (  -0.3749976   0.7938584   0.2424002  )
        44           Mo  tau(  44) = (  -0.2499965   0.7216896   0.7272502  )
        45           S   tau(  45) = (  -0.3749954   0.7938586   0.6028596  )
        46           S   tau(  46) = (  -0.2499962   0.7216890   0.3667741  )
        47           S   tau(  47) = (  -0.2499961   0.7216884   0.1180258  )
        48           S   tau(  48) = (  -0.3749955   0.7938585   0.8517305  )
        49           Mo  tau(  49) = (   0.2500010   0.1443372  -0.7272732  )
        50           Mo  tau(  50) = (   0.3750034   0.0721723  -0.2424032  )
        51           S   tau(  51) = (   0.2500017   0.1443391  -0.3667788  )
        52           S   tau(  52) = (   0.3750010   0.0721682  -0.6030489  )
        53           S   tau(  53) = (   0.3750010   0.0721683  -0.8514963  )
        54           S   tau(  54) = (   0.2500016   0.1443391  -0.1180271  )
        55           Mo  tau(  55) = (   0.2500037   0.1443371   0.2424008  )
        56           Mo  tau(  56) = (   0.3750049   0.0721708   0.7272499  )
        57           S   tau(  57) = (   0.2500041   0.1443391   0.6028593  )
        58           S   tau(  58) = (   0.3750026   0.0721682   0.3667763  )
        59           S   tau(  59) = (   0.3750033   0.0721687   0.1180242  )
        60           S   tau(  60) = (   0.2500040   0.1443392   0.8517310  )
        61           Mo  tau(  61) = (   0.1250012   0.3608437  -0.7272732  )
        62           Mo  tau(  62) = (   0.2500029   0.2886782  -0.2424031  )
        63           S   tau(  63) = (   0.1250024   0.3608455  -0.3667794  )
        64           S   tau(  64) = (   0.2500012   0.2886747  -0.6030489  )
        65           S   tau(  65) = (   0.2500012   0.2886748  -0.8514963  )
        66           S   tau(  66) = (   0.1250021   0.3608455  -0.1180270  )
        67           Mo  tau(  67) = (   0.1250055   0.3608449   0.2424003  )
        68           Mo  tau(  68) = (   0.2500045   0.2886775   0.7272501  )
        69           S   tau(  69) = (   0.1250040   0.3608458   0.6028596  )
        70           S   tau(  70) = (   0.2500032   0.2886750   0.3667755  )
        71           S   tau(  71) = (   0.2500033   0.2886748   0.1180238  )
        72           S   tau(  72) = (   0.1250043   0.3608459   0.8517305  )
        73           Mo  tau(  73) = (   0.0000014   0.5773502  -0.7272732  )
        74           Mo  tau(  74) = (   0.1250045   0.5051840  -0.2424036  )
        75           S   tau(  75) = (   0.0000030   0.5773520  -0.3667799  )
        76           S   tau(  76) = (   0.1250014   0.5051812  -0.6030489  )
        77           S   tau(  77) = (   0.1250014   0.5051813  -0.8514963  )
        78           S   tau(  78) = (   0.0000026   0.5773517  -0.1180274  )
        79           Mo  tau(  79) = (   0.0000039   0.5773528   0.2424003  )
        80           Mo  tau(  80) = (   0.1250050   0.5051837   0.7272501  )
        81           S   tau(  81) = (   0.0000041   0.5773523   0.6028593  )
        82           S   tau(  82) = (   0.1250034   0.5051819   0.3667749  )
        83           S   tau(  83) = (   0.1250033   0.5051818   0.1180238  )
        84           S   tau(  84) = (   0.0000042   0.5773523   0.8517309  )
        85           Mo  tau(  85) = (  -0.1249984   0.7938567  -0.7272732  )
        86           Mo  tau(  86) = (   0.0000069   0.7216896  -0.2424039  )
        87           S   tau(  87) = (  -0.1249975   0.7938582  -0.3667782  )
        88           S   tau(  88) = (   0.0000016   0.7216877  -0.6030489  )
        89           S   tau(  89) = (   0.0000016   0.7216878  -0.8514963  )
        90           S   tau(  90) = (  -0.1249973   0.7938582  -0.1180279  )
        91           Mo  tau(  91) = (  -0.1249936   0.7938581   0.2424006  )
        92           Mo  tau(  92) = (   0.0000056   0.7216904   0.7272501  )
        93           S   tau(  93) = (  -0.1249955   0.7938586   0.6028591  )
        94           S   tau(  94) = (   0.0000039   0.7216883   0.3667759  )
        95           S   tau(  95) = (   0.0000039   0.7216885   0.1180233  )
        96           S   tau(  96) = (  -0.1249955   0.7938586   0.8517313  )
        97           Mo  tau(  97) = (   0.5000010   0.1443372  -0.7272732  )
        98           Mo  tau(  98) = (   0.6250001   0.0721662  -0.2424040  )
        99           S   tau(  99) = (   0.5000017   0.1443386  -0.3667801  )
       100           S   tau( 100) = (   0.6250010   0.0721682  -0.6030489  )
       101           S   tau( 101) = (   0.6250010   0.0721683  -0.8514963  )
       102           S   tau( 102) = (   0.5000020   0.1443388  -0.1180261  )
       103           Mo  tau( 103) = (   0.5000005   0.1443344   0.2424031  )
       104           Mo  tau( 104) = (   0.6250028   0.0721696   0.7272500  )
       105           S   tau( 105) = (   0.5000038   0.1443392   0.6028599  )
       106           S   tau( 106) = (   0.6250032   0.0721682   0.3667750  )
       107           S   tau( 107) = (   0.6250029   0.0721690   0.1180259  )
       108           S   tau( 108) = (   0.5000038   0.1443393   0.8517304  )
       109           Mo  tau( 109) = (   0.3750012   0.3608437  -0.7272732  )
       110           Mo  tau( 110) = (   0.4999991   0.2886761  -0.2424038  )
       111           S   tau( 111) = (   0.3750012   0.3608452  -0.3667804  )
       112           S   tau( 112) = (   0.5000012   0.2886747  -0.6030489  )
       113           S   tau( 113) = (   0.5000012   0.2886748  -0.8514963  )
       114           S   tau( 114) = (   0.3750014   0.3608455  -0.1180261  )
       115           Mo  tau( 115) = (   0.3750003   0.3608415   0.2424003  )
       116           Mo  tau( 116) = (   0.5000036   0.2886765   0.7272501  )
       117           S   tau( 117) = (   0.3750041   0.3608456   0.6028595  )
       118           S   tau( 118) = (   0.5000032   0.2886753   0.3667740  )
       119           S   tau( 119) = (   0.5000035   0.2886745   0.1180267  )
       120           S   tau( 120) = (   0.3750041   0.3608457   0.8517303  )
       121           Mo  tau( 121) = (   0.2500014   0.5773502  -0.7272732  )
       122           Mo  tau( 122) = (   0.3749983   0.5051825  -0.2424043  )
       123           S   tau( 123) = (   0.2500017   0.5773519  -0.3667810  )
       124           S   tau( 124) = (   0.3750014   0.5051812  -0.6030489  )
       125           S   tau( 125) = (   0.3750014   0.5051813  -0.8514963  )
       126           S   tau( 126) = (   0.2500018   0.5773519  -0.1180256  )
       127           Mo  tau( 127) = (   0.2500009   0.5773497   0.2423999  )
       128           Mo  tau( 128) = (   0.3750037   0.5051832   0.7272500  )
       129           S   tau( 129) = (   0.2500042   0.5773522   0.6028596  )
       130           S   tau( 130) = (   0.3750035   0.5051817   0.3667733  )
       131           S   tau( 131) = (   0.3750039   0.5051817   0.1180258  )
       132           S   tau( 132) = (   0.2500043   0.5773521   0.8517304  )
       133           Mo  tau( 133) = (   0.1250016   0.7938567  -0.7272732  )
       134           Mo  tau( 134) = (   0.2499995   0.7216883  -0.2424036  )
       135           S   tau( 135) = (   0.1250024   0.7938578  -0.3667813  )
       136           S   tau( 136) = (   0.2500016   0.7216877  -0.6030489  )
       137           S   tau( 137) = (   0.2500016   0.7216878  -0.8514963  )
       138           S   tau( 138) = (   0.1250024   0.7938579  -0.1180253  )
       139           Mo  tau( 139) = (   0.1250007   0.7938566   0.2424003  )
       140           Mo  tau( 140) = (   0.2500037   0.7216894   0.7272501  )
       141           S   tau( 141) = (   0.1250043   0.7938588   0.6028599  )
       142           S   tau( 142) = (   0.2500035   0.7216882   0.3667737  )
       143           S   tau( 143) = (   0.2500038   0.7216886   0.1180257  )
       144           S   tau( 144) = (   0.1250043   0.7938587   0.8517303  )
       145           Mo  tau( 145) = (   0.7500010   0.1443372  -0.7272732  )
       146           Mo  tau( 146) = (   0.8750038   0.0721696  -0.2424038  )
       147           S   tau( 147) = (   0.7500016   0.1443382  -0.3667789  )
       148           S   tau( 148) = (   0.8750010   0.0721682  -0.6030489  )
       149           S   tau( 149) = (   0.8750010   0.0721683  -0.8514963  )
       150           S   tau( 150) = (   0.7500016   0.1443384  -0.1180279  )
       151           Mo  tau( 151) = (   0.7500051   0.1443370   0.2424017  )
       152           Mo  tau( 152) = (   0.8750049   0.0721705   0.7272500  )
       153           S   tau( 153) = (   0.7500039   0.1443393   0.6028592  )
       154           S   tau( 154) = (   0.8750038   0.0721685   0.3667764  )
       155           S   tau( 155) = (   0.8750039   0.0721688   0.1180247  )
       156           S   tau( 156) = (   0.7500041   0.1443394   0.8517311  )
       157           Mo  tau( 157) = (   0.6250012   0.3608437  -0.7272732  )
       158           Mo  tau( 158) = (   0.7500028   0.2886769  -0.2424041  )
       159           S   tau( 159) = (   0.6250015   0.3608451  -0.3667792  )
       160           S   tau( 160) = (   0.7500012   0.2886747  -0.6030489  )
       161           S   tau( 161) = (   0.7500012   0.2886748  -0.8514963  )
       162           S   tau( 162) = (   0.6250016   0.3608454  -0.1180280  )
       163           Mo  tau( 163) = (   0.6250051   0.3608469   0.2424010  )
       164           Mo  tau( 164) = (   0.7500045   0.2886776   0.7272501  )
       165           S   tau( 165) = (   0.6250042   0.3608457   0.6028594  )
       166           S   tau( 166) = (   0.7500035   0.2886754   0.3667754  )
       167           S   tau( 167) = (   0.7500035   0.2886751   0.1180251  )
       168           S   tau( 168) = (   0.6250042   0.3608459   0.8517307  )
       169           Mo  tau( 169) = (   0.5000014   0.5773502  -0.7272732  )
       170           Mo  tau( 170) = (   0.6250029   0.5051841  -0.2424047  )
       171           S   tau( 171) = (   0.5000014   0.5773518  -0.3667794  )
       172           S   tau( 172) = (   0.6250014   0.5051812  -0.6030489  )
       173           S   tau( 173) = (   0.6250014   0.5051813  -0.8514963  )
       174           S   tau( 174) = (   0.5000016   0.5773516  -0.1180277  )
       175           Mo  tau( 175) = (   0.5000072   0.5773526   0.2424011  )
       176           Mo  tau( 176) = (   0.6250047   0.5051838   0.7272501  )
       177           S   tau( 177) = (   0.5000044   0.5773522   0.6028593  )
       178           S   tau( 178) = (   0.6250038   0.5051821   0.3667764  )
       179           S   tau( 179) = (   0.6250040   0.5051821   0.1180241  )
       180           S   tau( 180) = (   0.5000045   0.5773523   0.8517308  )
       181           Mo  tau( 181) = (   0.3750016   0.7938567  -0.7272732  )
       182           Mo  tau( 182) = (   0.5000025   0.7216901  -0.2424039  )
       183           S   tau( 183) = (   0.3750019   0.7938578  -0.3667793  )
       184           S   tau( 184) = (   0.5000016   0.7216877  -0.6030489  )
       185           S   tau( 185) = (   0.5000016   0.7216878  -0.8514963  )
       186           S   tau( 186) = (   0.3750020   0.7938579  -0.1180272  )
       187           Mo  tau( 187) = (   0.3750057   0.7938586   0.2424015  )
       188           Mo  tau( 188) = (   0.5000052   0.7216902   0.7272503  )
       189           S   tau( 189) = (   0.3750045   0.7938588   0.6028592  )
       190           S   tau( 190) = (   0.5000042   0.7216887   0.3667757  )
       191           S   tau( 191) = (   0.5000039   0.7216887   0.1180242  )
       192           S   tau( 192) = (   0.3750047   0.7938587   0.8517308  )
       193           Au  tau( 193) = (   0.2500074   0.4330042   1.0183294  )

     --------------------------------------------
     DFT-D3 Dispersion Correction (3-body terms):
     --------------------------------------------
       Reference C6 values for interpolation: 

         atom   Coordination number   C6
         S          0.000           268.01
         S          0.995           261.99
         S          1.990           251.62
         Mo         0.000          1691.79
         Mo         1.942          1004.01
         Mo        11.056           674.22
         Au         0.000           684.71
         Au         0.985           634.31

       Values used:

         atom   Coordination number  R0_AB[au]  C6      C8
         Mo        10.208            3.547    674.22  77634.20
         Mo        10.221            3.547    674.22  77634.20
         S          3.858            3.128    251.62  12327.25
         S          3.859            3.128    251.62  12327.25
         S          3.758            3.128    251.62  12327.25
         S          3.859            3.128    251.62  12327.25
         Mo        10.221            3.547    674.22  77634.20
         Mo        10.206            3.547    674.22  77634.20
         S          3.856            3.128    251.62  12327.25
         S          3.859            3.128    251.62  12327.25
         S          3.859            3.128    251.62  12327.25
         S          3.755            3.128    251.62  12327.25
         Mo        10.208            3.547    674.22  77634.20
         Mo        10.221            3.547    674.22  77634.20
         S          3.858            3.128    251.62  12327.25
         S          3.859            3.128    251.62  12327.25
         S          3.758            3.128    251.62  12327.25
         S          3.859            3.128    251.62  12327.25
         Mo        10.221            3.547    674.22  77634.20
         Mo        10.208            3.547    674.22  77634.20
         S          3.856            3.128    251.62  12327.25
         S          3.859            3.128    251.62  12327.25
         S          3.859            3.128    251.62  12327.25
         S          3.755            3.128    251.62  12327.25
         Mo        10.208            3.547    674.22  77634.20
         Mo        10.221            3.547    674.22  77634.20
         S          3.858            3.128    251.62  12327.25
         S          3.859            3.128    251.62  12327.25
         S          3.758            3.128    251.62  12327.25
         S          3.859            3.128    251.62  12327.25
         Mo        10.221            3.547    674.22  77634.20
         Mo        10.206            3.547    674.22  77634.20
         S          3.856            3.128    251.62  12327.25
         S          3.859            3.128    251.62  12327.25
         S          3.859            3.128    251.62  12327.25
         S          3.755            3.128    251.62  12327.25
         Mo        10.208            3.547    674.22  77634.20
         Mo        10.221            3.547    674.22  77634.20
         S          3.858            3.128    251.62  12327.25
         S          3.859            3.128    251.62  12327.25
         S          3.758            3.128    251.62  12327.25
         S          3.859            3.128    251.62  12327.25
         Mo        10.221            3.547    674.22  77634.20
         Mo        10.206            3.547    674.22  77634.20
         S          3.856            3.128    251.62  12327.25
         S          3.859            3.128    251.62  12327.25
         S          3.859            3.128    251.62  12327.25
         S          3.755            3.128    251.62  12327.25
         Mo        10.208            3.547    674.22  77634.20
         Mo        10.221            3.547    674.22  77634.20
         S          3.858            3.128    251.62  12327.25
         S          3.859            3.128    251.62  12327.25
         S          3.758            3.128    251.62  12327.25
         S          3.859            3.128    251.62  12327.25
         Mo        10.221            3.547    674.22  77634.20
         Mo        10.206            3.547    674.22  77634.20
         S          3.856            3.128    251.62  12327.25
         S          3.859            3.128    251.62  12327.25
         S          3.859            3.128    251.62  12327.25
         S          3.761            3.128    251.62  12327.25
         Mo        10.208            3.547    674.22  77634.20
         Mo        10.221            3.547    674.22  77634.20
         S          3.858            3.128    251.62  12327.25
         S          3.859            3.128    251.62  12327.25
         S          3.758            3.128    251.62  12327.25
         S          3.859            3.128    251.62  12327.25
         Mo        10.221            3.547    674.22  77634.20
         Mo        10.231            3.547    674.22  77634.20
         S          3.857            3.128    251.62  12327.25
         S          3.859            3.128    251.62  12327.25
         S          3.859            3.128    251.62  12327.25
         S          4.379            3.128    251.62  12327.25
         Mo        10.208            3.547    674.22  77634.20
         Mo        10.221            3.547    674.22  77634.20
         S          3.858            3.128    251.62  12327.25
         S          3.859            3.128    251.62  12327.25
         S          3.758            3.128    251.62  12327.25
         S          3.859            3.128    251.62  12327.25
         Mo        10.221            3.547    674.22  77634.20
         Mo        10.231            3.547    674.22  77634.20
         S          3.856            3.128    251.62  12327.25
         S          3.859            3.128    251.62  12327.25
         S          3.859            3.128    251.62  12327.25
         S          3.761            3.128    251.62  12327.25
         Mo        10.208            3.547    674.22  77634.20
         Mo        10.221            3.547    674.22  77634.20
         S          3.858            3.128    251.62  12327.25
         S          3.859            3.128    251.62  12327.25
         S          3.758            3.128    251.62  12327.25
         S          3.859            3.128    251.62  12327.25
         Mo        10.221            3.547    674.22  77634.20
         Mo        10.206            3.547    674.22  77634.20
         S          3.856            3.128    251.62  12327.25
         S          3.859            3.128    251.62  12327.25
         S          3.859            3.128    251.62  12327.25
         S          3.755            3.128    251.62  12327.25
         Mo        10.208            3.547    674.22  77634.20
         Mo        10.221            3.547    674.22  77634.20
         S          3.858            3.128    251.62  12327.25
         S          3.859            3.128    251.62  12327.25
         S          3.758            3.128    251.62  12327.25
         S          3.859            3.128    251.62  12327.25
         Mo        10.221            3.547    674.22  77634.20
         Mo        10.206            3.547    674.22  77634.20
         S          3.856            3.128    251.62  12327.25
         S          3.859            3.128    251.62  12327.25
         S          3.859            3.128    251.62  12327.25
         S          3.755            3.128    251.62  12327.25
         Mo        10.208            3.547    674.22  77634.20
         Mo        10.221            3.547    674.22  77634.20
         S          3.858            3.128    251.62  12327.25
         S          3.859            3.128    251.62  12327.25
         S          3.758            3.128    251.62  12327.25
         S          3.859            3.128    251.62  12327.25
         Mo        10.221            3.547    674.22  77634.20
         Mo        10.208            3.547    674.21  77634.20
         S          3.857            3.128    251.62  12327.25
         S          3.859            3.128    251.62  12327.25
         S          3.859            3.128    251.62  12327.25
         S          4.379            3.128    251.62  12327.25
         Mo        10.208            3.547    674.22  77634.20
         Mo        10.221            3.547    674.22  77634.20
         S          3.858            3.128    251.62  12327.25
         S          3.859            3.128    251.62  12327.25
         S          3.758            3.128    251.62  12327.25
         S          3.859            3.128    251.62  12327.25
         Mo        10.221            3.547    674.22  77634.20
         Mo        10.231            3.547    674.22  77634.20
         S          3.857            3.128    251.62  12327.25
         S          3.859            3.128    251.62  12327.25
         S          3.859            3.128    251.62  12327.25
         S          4.379            3.128    251.62  12327.25
         Mo        10.208            3.547    674.22  77634.20
         Mo        10.221            3.547    674.22  77634.20
         S          3.858            3.128    251.62  12327.25
         S          3.859            3.128    251.62  12327.25
         S          3.758            3.128    251.62  12327.25
         S          3.859            3.128    251.62  12327.25
         Mo        10.221            3.547    674.22  77634.20
         Mo        10.208            3.547    674.22  77634.20
         S          3.856            3.128    251.62  12327.25
         S          3.859            3.128    251.62  12327.25
         S          3.859            3.128    251.62  12327.25
         S          3.755            3.128    251.62  12327.25
         Mo        10.208            3.547    674.22  77634.20
         Mo        10.221            3.547    674.22  77634.20
         S          3.858            3.128    251.62  12327.25
         S          3.859            3.128    251.62  12327.25
         S          3.758            3.128    251.62  12327.25
         S          3.859            3.128    251.62  12327.25
         Mo        10.221            3.547    674.22  77634.20
         Mo        10.206            3.547    674.22  77634.20
         S          3.856            3.128    251.62  12327.25
         S          3.859            3.128    251.62  12327.25
         S          3.859            3.128    251.62  12327.25
         S          3.755            3.128    251.62  12327.25
         Mo        10.208            3.547    674.22  77634.20
         Mo        10.220            3.547    674.22  77634.20
         S          3.858            3.128    251.62  12327.25
         S          3.859            3.128    251.62  12327.25
         S          3.758            3.128    251.62  12327.25
         S          3.859            3.128    251.62  12327.25
         Mo        10.221            3.547    674.22  77634.20
         Mo        10.206            3.547    674.22  77634.20
         S          3.856            3.128    251.62  12327.25
         S          3.859            3.128    251.62  12327.25
         S          3.859            3.128    251.62  12327.25
         S          3.755            3.128    251.62  12327.25
         Mo        10.208            3.547    674.22  77634.20
         Mo        10.221            3.547    674.22  77634.20
         S          3.858            3.128    251.62  12327.25
         S          3.859            3.128    251.62  12327.25
         S          3.758            3.128    251.62  12327.25
         S          3.859            3.128    251.62  12327.25
         Mo        10.221            3.547    674.22  77634.20
         Mo        10.206            3.547    674.22  77634.20
         S          3.856            3.128    251.62  12327.25
         S          3.859            3.128    251.62  12327.25
         S          3.859            3.128    251.62  12327.25
         S          3.761            3.128    251.62  12327.25
         Mo        10.208            3.547    674.22  77634.20
         Mo        10.221            3.547    674.22  77634.20
         S          3.858            3.128    251.62  12327.25
         S          3.859            3.128    251.62  12327.25
         S          3.758            3.128    251.62  12327.25
         S          3.859            3.128    251.62  12327.25
         Mo        10.221            3.547    674.22  77634.20
         Mo        10.206            3.547    674.22  77634.20
         S          3.856            3.128    251.62  12327.25
         S          3.859            3.128    251.62  12327.25
         S          3.859            3.128    251.62  12327.25
         S          3.755            3.128    251.62  12327.25
         Au         1.988            3.077    634.31  61970.03

         Molecular C6 ( Ry / a.u.^6 ) =  13799703.86


     number of k points=     4  Gaussian smearing, width (Ry)=  0.0100
                       cart. coord. in units 2pi/alat
        k(    1) = (   0.0000000   0.0000000   0.0000000), wk =   0.5000000
        k(    2) = (   0.0000000  -0.5773499   0.0000000), wk =   0.5000000
        k(    3) = (  -0.5000000  -0.2886744   0.0000000), wk =   0.5000000
        k(    4) = (  -0.5000000  -0.8660242   0.0000000), wk =   0.5000000

     Dense  grid:  7154885 G-vectors     FFT dimensions: ( 180, 180, 512)

     Smooth grid:  3090769 G-vectors     FFT dimensions: ( 135, 135, 400)

     Estimated max dynamical RAM per process >       4.29 GB

     Estimated total dynamical RAM >     154.37 GB

     Atomic positions and unit cell read from directory:
     ./outdir/pwscf.save/
     Atomic positions from file used, from input discarded
 

     The initial density is read from file :
     ./outdir/pwscf.save/charge-density


     negative rho (up, down):  8.543E-04 0.000E+00
     Cannot read wfcs: file not found
     Starting wfcs are 1172 randomized atomic wfcs
     Checking if some PAW data can be deallocated... 

     total cpu time spent up to now is      196.5 secs

     Self-consistent Calculation

     iteration #  1     ecut=    77.00 Ry     beta= 0.20
     Davidson diagonalization with overlap
     c_bands:  4 eigenvalues not converged
     c_bands:  5 eigenvalues not converged
     c_bands:  8 eigenvalues not converged
     c_bands:  9 eigenvalues not converged
     ethr =  1.00E-05,  avg # of iterations =115.0

     negative rho (up, down):  7.812E-04 0.000E+00

     total cpu time spent up to now is    11248.0 secs

     total energy              =  -33570.88924353 Ry
     estimated scf accuracy    <       0.12632686 Ry

     iteration #  2     ecut=    77.00 Ry     beta= 0.20
     Davidson diagonalization with overlap
     c_bands:  4 eigenvalues not converged
     ethr =  7.44E-06,  avg # of iterations = 86.5

     negative rho (up, down):  7.759E-04 0.000E+00

     total cpu time spent up to now is    13687.4 secs

     total energy              =  -33570.84328526 Ry
     estimated scf accuracy    <       0.64826018 Ry

     iteration #  3     ecut=    77.00 Ry     beta= 0.20
     Davidson diagonalization with overlap
     c_bands:  4 eigenvalues not converged
     c_bands:  2 eigenvalues not converged
     c_bands:  1 eigenvalues not converged
     c_bands:  3 eigenvalues not converged
     ethr =  7.44E-06,  avg # of iterations = 45.0

     negative rho (up, down):  7.698E-04 0.000E+00

     total cpu time spent up to now is    14868.2 secs

     total energy              =  -33570.92883191 Ry
     estimated scf accuracy    <       0.05895095 Ry

     iteration #  4     ecut=    77.00 Ry     beta= 0.20
     Davidson diagonalization with overlap
     c_bands:  1 eigenvalues not converged
     c_bands:  2 eigenvalues not converged
     c_bands:  1 eigenvalues not converged
     c_bands:  2 eigenvalues not converged
     ethr =  3.47E-06,  avg # of iterations = 20.0

     negative rho (up, down):  7.588E-04 0.000E+00

     total cpu time spent up to now is    15384.3 secs

     total energy              =  -33570.93287754 Ry
     estimated scf accuracy    <       0.00864300 Ry

     iteration #  5     ecut=    77.00 Ry     beta= 0.20
     Davidson diagonalization with overlap
     c_bands:  5 eigenvalues not converged
     c_bands:  1 eigenvalues not converged
     ethr =  5.09E-07,  avg # of iterations = 19.8

     negative rho (up, down):  7.675E-04 0.000E+00

     total cpu time spent up to now is    16359.2 secs

     total energy              =  -33570.93935223 Ry
     estimated scf accuracy    <       0.01284813 Ry

     iteration #  6     ecut=    77.00 Ry     beta= 0.20
     Davidson diagonalization with overlap
     ethr =  5.09E-07,  avg # of iterations =  5.0

     negative rho (up, down):  7.821E-04 0.000E+00

     total cpu time spent up to now is    16806.4 secs

     total energy              =  -33570.93895785 Ry
     estimated scf accuracy    <       0.00343614 Ry

     iteration #  7     ecut=    77.00 Ry     beta= 0.20
     Davidson diagonalization with overlap
     ethr =  2.02E-07,  avg # of iterations =  9.0

     negative rho (up, down):  7.969E-04 0.000E+00

     total cpu time spent up to now is    17294.0 secs

     total energy              =  -33570.93929222 Ry
     estimated scf accuracy    <       0.00046345 Ry

     iteration #  8     ecut=    77.00 Ry     beta= 0.20
     Davidson diagonalization with overlap
     ethr =  2.73E-08,  avg # of iterations = 18.8

     negative rho (up, down):  8.075E-04 0.000E+00

     total cpu time spent up to now is    18705.0 secs

     total energy              =  -33570.94040650 Ry
     estimated scf accuracy    <       0.00079070 Ry

     iteration #  9     ecut=    77.00 Ry     beta= 0.20
     Davidson diagonalization with overlap
     ethr =  2.73E-08,  avg # of iterations =  2.0

     negative rho (up, down):  8.262E-04 0.000E+00

     total cpu time spent up to now is    19142.0 secs

     total energy              =  -33570.94036949 Ry
     estimated scf accuracy    <       0.00022214 Ry

     iteration # 10     ecut=    77.00 Ry     beta= 0.20
     Davidson diagonalization with overlap
     ethr =  1.31E-08,  avg # of iterations = 10.8

     negative rho (up, down):  8.352E-04 0.000E+00

     total cpu time spent up to now is    19648.9 secs

     total energy              =  -33570.94039894 Ry
     estimated scf accuracy    <       0.00003819 Ry

     iteration # 11     ecut=    77.00 Ry     beta= 0.20
     Davidson diagonalization with overlap
     c_bands:  1 eigenvalues not converged
     ethr =  2.25E-09,  avg # of iterations = 16.2

     negative rho (up, down):  8.381E-04 0.000E+00

     total cpu time spent up to now is    21303.1 secs

     total energy              =  -33570.94049055 Ry
     estimated scf accuracy    <       0.00001436 Ry

     iteration # 12     ecut=    77.00 Ry     beta= 0.20
     Davidson diagonalization with overlap
     ethr =  8.46E-10,  avg # of iterations = 12.2

     negative rho (up, down):  8.414E-04 0.000E+00

     total cpu time spent up to now is    22010.4 secs

     total energy              =  -33570.94049374 Ry
     estimated scf accuracy    <       0.00000711 Ry

     iteration # 13     ecut=    77.00 Ry     beta= 0.20
     Davidson diagonalization with overlap
     ethr =  4.19E-10,  avg # of iterations = 13.8

     negative rho (up, down):  8.467E-04 0.000E+00

     total cpu time spent up to now is    22733.2 secs

     total energy              =  -33570.94049332 Ry
     estimated scf accuracy    <       0.00000393 Ry

     iteration # 14     ecut=    77.00 Ry     beta= 0.20
     Davidson diagonalization with overlap
     ethr =  2.31E-10,  avg # of iterations = 12.5

     negative rho (up, down):  8.508E-04 0.000E+00

     total cpu time spent up to now is    23366.8 secs

     total energy              =  -33570.94049205 Ry
     estimated scf accuracy    <       0.00000121 Ry

     iteration # 15     ecut=    77.00 Ry     beta= 0.20
     Davidson diagonalization with overlap
     c_bands:  1 eigenvalues not converged
     c_bands:  1 eigenvalues not converged
     ethr =  7.11E-11,  avg # of iterations = 19.0

     negative rho (up, down):  8.547E-04 0.000E+00

     total cpu time spent up to now is    24416.3 secs

     End of self-consistent calculation

          k = 0.0000 0.0000 0.0000 (386245 PWs)   bands (ev):

  -109.0115 -81.7769 -81.7745 -81.7745 -81.7671 -81.7671 -81.7541 -81.7541
   -66.7571 -66.7511 -66.7511 -66.7498 -66.7410 -66.7410 -66.7363 -66.7323
   -66.7323 -66.7301 -66.7301 -66.7300 -66.7298 -66.7298 -66.7298 -66.7297
   -66.7297 -66.7297 -66.7297 -66.7296 -66.7295 -66.7295 -66.7285 -66.7285
   -66.7285 -66.7285 -66.7285 -66.7285 -66.7214 -66.7175 -66.7175 -66.7162
   -66.7104 -66.7104 -66.7088 -66.7088 -66.7087 -66.7087 -66.7084 -66.7084
   -66.7084 -66.7084 -66.7084 -66.7084 -66.7084 -66.7084 -66.7083 -66.7083
   -66.7083 -66.7080 -66.7080 -66.7079 -66.7071 -66.7071 -66.7071 -66.7071
   -66.7071 -66.7071 -66.7071 -66.7071 -66.7071 -66.6961 -66.6960 -66.6938
   -60.4652 -60.3663 -60.3663 -41.0876 -41.0786 -41.0784 -41.0784 -41.0784
   -41.0783 -41.0783 -41.0779 -41.0779 -41.0779 -41.0767 -41.0767 -41.0113
   -41.0113 -41.0097 -41.0033 -41.0033 -41.0032 -41.0031 -41.0031 -41.0031
   -41.0031 -41.0031 -41.0031 -41.0030 -41.0030 -41.0028 -41.0025 -41.0025
   -41.0025 -41.0025 -41.0025 -41.0025 -40.9979 -40.9978 -40.9978 -40.9168
   -40.9107 -40.9106 -40.9101 -40.8881 -40.8823 -40.8823 -40.8799 -40.8799
   -40.8782 -40.8777 -40.8777 -40.8770 -40.8768 -40.8768 -40.8768 -40.8768
   -40.8768 -40.8768 -40.8768 -40.8767 -40.8766 -40.8766 -40.8766 -40.8760
   -40.8760 -40.8760 -40.8760 -40.8760 -40.8760 -40.8741 -40.8703 -40.8700
   -40.8700 -40.8693 -40.8693 -40.8692 -40.8689 -40.8689 -40.8689 -40.8689
   -40.8689 -40.8689 -40.8688 -40.8688 -40.8688 -40.8683 -40.8683 -40.8683
   -40.8683 -40.8683 -40.8683 -40.8495 -40.8495 -40.8435 -40.8419 -40.8419
   -40.8418 -40.8418 -40.8418 -40.8417 -40.8417 -40.8417 -40.8417 -40.8417
   -40.8416 -40.8415 -40.8409 -40.8409 -40.8409 -40.8409 -40.8409 -40.8409
   -40.8396 -40.8395 -40.8395 -40.8373 -40.8373 -40.8354 -40.8316 -40.8316
   -40.8279 -40.8275 -40.8275 -40.8273 -40.8273 -40.8271 -40.8271 -40.8270
   -40.8270 -40.8270 -40.8270 -40.8270 -40.8270 -40.8269 -40.8269 -40.8269
   -40.8266 -40.8266 -40.8266 -40.8263 -40.8263 -40.8263 -40.8263 -40.8263
   -40.8263 -40.8263 -40.8262 -40.8262 -40.8226 -40.8225 -40.8171 -40.7680
   -40.7637 -40.7637 -40.7634 -40.7634 -40.7634 -40.7634 -40.7634 -40.7634
   -40.7625 -40.7625 -40.7625 -40.7247 -40.7234 -40.7234 -40.7165 -40.7164
   -40.7164 -40.7163 -40.7163 -40.7163 -40.7163 -40.7163 -40.7163 -40.7162
   -40.7162 -40.7159 -40.7154 -40.7154 -40.7154 -40.7154 -40.7154 -40.7153
   -40.7113 -40.7113 -40.7091 -40.6687 -40.6687 -40.6687 -40.6686 -40.6677
   -40.6677 -40.6676 -40.6676 -20.2468 -20.1792 -20.0874 -20.0032 -19.3934
   -19.3744 -19.3744 -19.3730 -19.3730 -19.3730 -19.3444 -19.3146 -19.3146
   -19.3089 -19.3088 -19.3088 -19.2565 -19.2319 -19.2319 -19.2235 -19.2231
   -19.2231 -19.1628 -19.1536 -19.1536 -19.1493 -19.1490 -19.1489 -19.0110
   -18.8803 -18.7348 -18.6298 -18.6071 -18.6002 -18.6001 -18.5917 -18.5916
   -18.5916 -18.5211 -18.5005 -18.5005 -18.4835 -18.4835 -18.4832 -18.3997
   -18.3911 -18.3911 -18.3770 -18.3770 -18.3763 -18.3081 -18.3077 -18.3076
   -18.3017 -18.3017 -18.3015 -18.2564 -18.2564 -18.2490 -18.2485 -18.2485
   -18.2484 -18.2374 -18.2374 -18.2194 -18.2173 -18.2173 -18.2164 -18.2065
   -18.2065 -18.2048 -18.1975 -18.1975 -18.1805 -18.1769 -18.1769 -18.1748
   -18.1713 -18.1713 -18.1692 -18.1501 -18.1501 -18.1428 -18.1321 -18.1321
   -18.1264 -18.1220 -18.1220 -18.1200 -18.1056 -18.1056 -18.1031 -18.0621
   -18.0621 -18.0482 -18.0393 -18.0393 -18.0387 -18.0362 -18.0362 -18.0350
   -18.0137 -18.0137 -18.0103 -17.9954 -17.9954 -17.9916 -17.9862 -17.9862
   -17.9851 -17.9815 -17.9815 -17.9813 -17.9668 -17.9668 -17.9667 -17.9516
   -17.9516 -17.9485 -17.9467 -17.9467 -17.9461 -17.9228 -17.9228 -17.9219
   -17.9213 -17.9213 -17.9212 -12.1078 -11.9668 -11.9419 -11.9419 -11.9068
   -11.8567 -11.8567 -11.8519 -11.7788 -11.7514 -11.7514 -11.6779 -11.6669
   -11.6669 -11.5431 -11.4003 -11.3632 -11.3632 -11.3608 -11.3605 -11.3605
   -11.3146 -11.2635 -11.2635 -11.2595 -11.2595 -11.2595 -11.2535 -11.2049
   -11.2035 -11.2035 -11.1874 -11.1874 -11.1873 -11.1857 -11.1814 -11.1814
   -11.1762 -11.1758 -11.1758 -11.1351 -11.1163 -11.1162 -11.1015 -11.1015
   -11.1014 -11.0662 -11.0437 -11.0437 -11.0344 -11.0344 -11.0344 -11.0068
   -10.9784 -10.9784 -10.9757 -10.9715 -10.9715 -10.9687 -10.9687 -10.9683
   -10.9590 -10.9448 -10.9448 -10.9379 -10.9286 -10.9286 -10.9279 -10.9271
   -10.9271 -10.9269 -10.9263 -10.9263 -10.9253 -10.9246 -10.9246 -10.8972
   -10.8898 -10.8898 -10.8898 -10.8870 -10.8870 -10.8632 -10.8613 -10.8613
   -10.8598 -10.8587 -10.8587 -10.8554 -10.8554 -10.8466 -10.7723 -10.7723
   -10.7658 -10.7219 -10.7052 -10.7051 -10.7004 -10.7004 -10.7003 -10.3414
   -10.3413 -10.3075 -10.1626 -10.1625 -10.1007  -9.9724  -9.9723  -9.9427
    -9.9280  -9.9280  -9.9249  -9.9249  -9.9248  -9.9069  -9.8966  -9.8924
    -9.8924  -9.8915  -9.8915  -9.8913  -9.8739  -9.8738  -9.8738  -9.8715
    -9.8698  -9.8698  -9.8329  -9.8329  -9.8056  -9.7550  -9.7529  -9.7529
    -9.7489  -9.7489  -9.7463  -9.7440  -9.7428  -9.7428  -9.7389  -9.7389
    -9.7388  -9.7376  -9.7243  -9.7243  -9.6829  -9.6777  -9.6777  -9.6681
    -9.6681  -9.6681  -9.6667  -9.6665  -9.6665  -9.6380  -9.6380  -9.6362
    -9.6362  -9.6334  -9.6323  -9.6075  -9.6075  -9.5747  -9.5695  -9.5695
    -9.5676  -9.4741  -9.4741  -9.4713  -9.4511  -9.4511  -9.4481  -9.4481
    -9.4479  -9.4340  -9.4289  -9.4289  -9.4277  -9.3514  -9.3484  -9.3484
    -9.3441  -9.3441  -9.3419  -9.3049  -9.3045  -9.3044  -9.3039  -9.3039
    -9.3021  -9.2560  -9.2560  -9.2317  -9.2277  -9.2277  -9.2221  -9.1151
    -9.1150  -9.1120  -9.1009  -9.1009  -9.0913  -9.0786  -9.0786  -9.0641
    -9.0575  -9.0575  -9.0472  -9.0460  -9.0459  -9.0445  -9.0403  -9.0392
    -9.0392  -8.9895  -8.9895  -8.9723  -8.9559  -8.9536  -8.9536  -8.9477
    -8.9469  -8.9469  -8.9455  -8.9444  -8.9444  -8.8662  -8.8595  -8.8595
    -8.8517  -8.8509  -8.8509  -8.7856  -8.7764  -8.7764  -8.7700  -8.7687
    -8.7687  -8.7171  -8.7145  -8.7144  -8.7123  -8.7119  -8.7119  -8.6444
    -8.4933  -8.4933  -8.4904  -8.4904  -8.4857  -8.4857  -8.4806  -8.4805
    -8.4099  -8.4099  -8.4074  -8.4062  -8.4062  -8.4050  -8.3950  -8.3950
    -8.3911  -8.3885  -8.3885  -8.3843  -8.3698  -8.3698  -8.3667  -8.3650
    -8.3649  -8.3597  -8.3455  -8.3455  -8.3443  -8.3439  -8.3438  -8.3414
    -8.1984  -8.1788  -8.1788  -8.0187  -7.9832  -7.9831  -7.9640  -7.8943
    -7.8943  -7.8701  -7.8061  -7.8061  -7.7810  -7.7655  -7.7654  -7.7572
    -7.7556  -7.7556  -7.7483  -7.7233  -7.7233  -7.7156  -7.7014  -7.7014
    -7.6661  -7.6661  -7.6654  -7.6644  -7.6641  -7.6640  -7.6633  -7.6513
    -7.6513  -7.6456  -7.6456  -7.6442  -7.6439  -7.6415  -7.6296  -7.6296
    -7.6247  -7.6247  -7.6219  -7.6180  -7.6080  -7.6080  -7.6064  -7.6064
    -7.6051  -7.6022  -7.5839  -7.5839  -7.5592  -7.5592  -7.5501  -7.5334
    -7.5294  -7.5270  -7.5270  -7.5263  -7.5263  -7.5175  -7.4745  -7.4473
    -7.4473  -7.4347  -7.4311  -7.4311  -7.4157  -7.4133  -7.4068  -7.4068
    -7.3978  -7.3978  -7.3799  -7.3798  -7.3678  -7.3678  -7.3527  -7.3527
    -7.3386  -7.3386  -7.3304  -7.2761  -7.2761  -7.2511  -7.2266  -7.2266
    -7.1875  -7.1875  -7.1560  -7.0203  -7.0203  -7.0108  -6.9624  -6.9624
    -6.9537  -6.9211  -6.9210  -6.9193  -6.8846  -6.8846  -6.8721  -6.8622
    -6.8257  -6.8257  -6.7938  -6.7656  -6.7656  -6.7498  -6.7390  -6.7342
    -6.7341  -6.7282  -6.7281  -6.7263  -6.6985  -6.6985  -6.6758  -6.6617
    -6.6617  -6.6604  -6.6497  -6.6497  -6.6399  -6.6358  -6.6337  -6.6337
    -6.6314  -6.6314  -6.6298  -6.6241  -6.6241  -6.6236  -6.6230  -6.6230
    -6.6226  -6.6126  -6.6125  -6.5982  -6.5712  -6.5712  -6.5586  -6.5365
    -6.5365  -6.5337  -6.4698  -6.4698  -6.4650  -6.4634  -6.4630  -6.4630
    -6.4539  -6.4538  -6.4376  -6.4344  -6.4326  -6.4326  -6.4195  -6.4195
    -6.4029  -6.4015  -6.3989  -6.3988  -6.3829  -6.3828  -6.3752  -6.3751
    -6.3740  -6.3740  -6.3465  -6.3465  -6.3150  -5.8241  -5.4892  -5.2919
    -4.9783  -3.9801  -3.9800  -3.9738  -3.9738  -3.9732  -3.9562  -3.9502
    -3.9501  -3.9480  -3.9474  -3.9474  -3.9390  -3.8258  -3.8257  -3.8089
    -3.8089  -3.8067  -3.8031  -3.8031  -3.8024  -3.8014  -3.8010  -3.8009
    -3.7378  -3.6280  -3.6280  -3.6193  -3.6184  -3.6183  -3.6127  -3.6014
    -3.6002  -3.6002  -3.5992  -3.5988  -3.5988  -3.5864  -3.5864  -3.5777
    -3.5777  -3.5757  -3.5708  -3.5693  -3.5693  -3.5604  -3.5569  -3.5569
    -3.5471  -3.5437  -3.5435  -3.5435  -3.5409  -3.5409  -3.5402  -3.5396
    -3.5396  -3.5302  -3.5292  -3.5291  -3.4990  -3.4737  -3.4714  -3.4714
    -3.4679  -3.4678  -3.4678  -3.4661  -3.4661  -3.4640  -3.4621  -3.4621
    -3.4504  -3.4111  -3.4103  -3.4103  -3.4092  -3.4091  -3.4091  -3.3412
    -3.3412  -3.3329  -3.3329  -3.3328  -3.2704  -3.1867  -3.1865  -3.1864
    -3.1854  -3.1848  -3.1825  -3.1675  -3.1675  -3.1651  -3.1008  -3.1008
    -3.1003  -3.0997  -3.0995  -3.0989  -3.0904  -3.0904  -3.0898  -3.0898
    -3.0892  -3.0857  -3.0857  -3.0803  -3.0803  -3.0754  -3.0754  -3.0738
    -3.0694  -3.0694  -3.0588  -3.0588  -3.0577  -3.0573  -3.0573  -3.0573
    -3.0568  -3.0565  -3.0369  -2.9995  -2.9995  -2.9945  -2.9583  -2.9565
    -2.9564  -2.9426  -2.9423  -2.9331  -2.9331  -2.9331  -2.9331  -2.9324
    -2.9323  -2.9294  -2.9294  -2.9290  -2.9202  -2.9201  -2.9185  -2.8697
    -2.8693  -2.8667  -2.8665  -2.8650  -2.8608  -2.8607  -2.8190  -2.8073
    -2.8073  -2.7656  -2.7656  -2.7479  -2.7457  -2.7450  -2.7447  -2.7419
    -2.7405  -2.6779  -2.6751  -2.6746  -2.6723  -2.6688  -2.6424  -2.5675
    -2.5633  -2.5607  -2.5592

          k = 0.0000-0.5773 0.0000 (386352 PWs)   bands (ev):

  -109.0115 -81.7769 -81.7745 -81.7745 -81.7671 -81.7671 -81.7541 -81.7541
   -66.7534 -66.7488 -66.7450 -66.7448 -66.7448 -66.7447 -66.7436 -66.7436
   -66.7422 -66.7379 -66.7342 -66.7342 -66.7342 -66.7342 -66.7329 -66.7329
   -66.7292 -66.7273 -66.7237 -66.7231 -66.7220 -66.7193 -66.7193 -66.7191
   -66.7191 -66.7191 -66.7191 -66.7190 -66.7190 -66.7178 -66.7178 -66.7178
   -66.7178 -66.7177 -66.7172 -66.7148 -66.7146 -66.7146 -66.7145 -66.7134
   -66.7134 -66.7109 -66.7104 -66.7087 -66.7086 -66.7084 -66.7084 -66.7084
   -66.7084 -66.7083 -66.7080 -66.7071 -66.7071 -66.7071 -66.7071 -66.7040
   -66.7039 -66.7039 -66.7039 -66.7027 -66.7027 -66.6956 -66.6951 -66.6946
   -60.4652 -60.3663 -60.3663 -41.0564 -41.0508 -41.0498 -41.0470 -41.0469
   -41.0468 -41.0468 -41.0468 -41.0468 -41.0467 -41.0465 -41.0462 -41.0462
   -41.0462 -41.0462 -41.0381 -41.0246 -41.0202 -41.0201 -41.0200 -41.0200
   -41.0198 -41.0194 -41.0194 -41.0104 -41.0079 -41.0079 -41.0079 -41.0079
   -41.0073 -41.0073 -41.0069 -40.9595 -40.9592 -40.9576 -40.9573 -40.9573
   -40.9572 -40.9572 -40.9572 -40.9572 -40.9572 -40.9572 -40.9572 -40.9566
   -40.9566 -40.9566 -40.9566 -40.9067 -40.9029 -40.8987 -40.8985 -40.8985
   -40.8984 -40.8979 -40.8979 -40.8914 -40.8897 -40.8890 -40.8890 -40.8890
   -40.8889 -40.8882 -40.8882 -40.8844 -40.8823 -40.8777 -40.8777 -40.8776
   -40.8776 -40.8770 -40.8770 -40.8577 -40.8571 -40.8526 -40.8499 -40.8482
   -40.8482 -40.8480 -40.8480 -40.8480 -40.8480 -40.8480 -40.8479 -40.8475
   -40.8473 -40.8473 -40.8473 -40.8473 -40.8432 -40.8395 -40.8393 -40.8392
   -40.8392 -40.8390 -40.8386 -40.8386 -40.8327 -40.8310 -40.8290 -40.8288
   -40.8275 -40.8275 -40.8275 -40.8274 -40.8273 -40.8272 -40.8270 -40.8270
   -40.8269 -40.8269 -40.8269 -40.8267 -40.8267 -40.8266 -40.8263 -40.8263
   -40.8263 -40.8263 -40.8211 -40.8192 -40.8192 -40.8184 -40.8183 -40.8183
   -40.8183 -40.8176 -40.8176 -40.8023 -40.8000 -40.7984 -40.7967 -40.7967
   -40.7966 -40.7966 -40.7965 -40.7965 -40.7964 -40.7962 -40.7957 -40.7957
   -40.7957 -40.7957 -40.7930 -40.7653 -40.7640 -40.7624 -40.7618 -40.7618
   -40.7618 -40.7618 -40.7618 -40.7618 -40.7618 -40.7617 -40.7609 -40.7609
   -40.7609 -40.7609 -40.7593 -40.7542 -40.7498 -40.7497 -40.7497 -40.7495
   -40.7488 -40.7487 -40.7477 -40.7349 -40.7305 -40.7303 -40.7303 -40.7301
   -40.7294 -40.7294 -40.7278 -40.7134 -40.7133 -40.7133 -40.7133 -40.7124
   -40.7124 -40.7122 -40.7100 -40.6873 -40.6828 -40.6827 -40.6827 -40.6825
   -40.6817 -40.6817 -40.6774 -20.0118 -20.0072 -19.9510 -19.9364 -19.8610
   -19.8439 -19.7722 -19.7649 -19.5728 -19.5704 -19.5137 -19.5053 -19.4289
   -19.4182 -19.3451 -19.3402 -18.9171 -18.8946 -18.8594 -18.8566 -18.8562
   -18.8545 -18.8277 -18.8097 -18.8077 -18.8010 -18.7848 -18.7652 -18.7391
   -18.7386 -18.7377 -18.7273 -18.6930 -18.6875 -18.6695 -18.6682 -18.6661
   -18.6607 -18.6377 -18.6274 -18.6041 -18.6029 -18.5808 -18.5747 -18.5653
   -18.5578 -18.5302 -18.5272 -18.5070 -18.4965 -18.4621 -18.4585 -18.4437
   -18.4356 -18.3734 -18.3725 -18.3523 -18.3510 -18.3491 -18.3422 -18.2805
   -18.2774 -18.2721 -18.2567 -18.2381 -18.2310 -18.2298 -18.2276 -18.2273
   -18.2271 -18.2135 -18.2052 -18.1985 -18.1981 -18.1890 -18.1871 -18.1868
   -18.1777 -18.1682 -18.1650 -18.1623 -18.1583 -18.1560 -18.1556 -18.1288
   -18.1268 -18.1254 -18.1235 -18.1193 -18.1170 -18.1111 -18.1110 -18.1052
   -18.0994 -18.0608 -18.0589 -18.0571 -18.0484 -18.0391 -18.0390 -18.0101
   -18.0061 -17.9957 -17.9955 -17.9700 -17.9692 -17.9629 -17.9628 -17.9458
   -17.9454 -17.9444 -17.9443 -17.9429 -17.9427 -17.9353 -17.9336 -17.9206
   -17.9168 -17.9013 -17.8938 -17.8830 -17.8777 -17.8653 -17.8625 -17.8520
   -17.8514 -17.8451 -17.8451 -11.8634 -11.8378 -11.7457 -11.6393 -11.6380
   -11.6378 -11.6322 -11.6056 -11.6053 -11.5946 -11.5811 -11.5613 -11.5561
   -11.5555 -11.5319 -11.5138 -11.4930 -11.4635 -11.4558 -11.4547 -11.4424
   -11.4396 -11.4223 -11.3990 -11.3917 -11.3876 -11.3863 -11.3834 -11.3796
   -11.3790 -11.3592 -11.3508 -11.3305 -11.3078 -11.3066 -11.3026 -11.2978
   -11.2919 -11.2908 -11.2907 -11.2850 -11.2657 -11.2631 -11.2611 -11.2304
   -11.2292 -11.1856 -11.1785 -11.1752 -11.1739 -11.0806 -11.0651 -11.0551
   -11.0356 -11.0328 -11.0272 -11.0043 -11.0026 -10.9793 -10.9596 -10.9588
   -10.9510 -10.9447 -10.9382 -10.9377 -10.9374 -10.9360 -10.9305 -10.9279
   -10.9192 -10.9185 -10.9169 -10.9154 -10.9148 -10.9145 -10.9139 -10.9136
   -10.9130 -10.8996 -10.8927 -10.8825 -10.8795 -10.8676 -10.8670 -10.8636
   -10.8619 -10.6625 -10.6570 -10.6522 -10.6459 -10.6072 -10.5947 -10.5213
   -10.4966 -10.3976 -10.3640 -10.2812 -10.2703 -10.2609 -10.2607 -10.2429
   -10.2414 -10.2107 -10.2042 -10.2040 -10.1999 -10.1745 -10.1740 -10.1653
   -10.1450 -10.1389 -10.1296 -10.1281 -10.1281 -10.1053 -10.0770 -10.0477
   -10.0417 -10.0408 -10.0389 -10.0224 -10.0216 -10.0208 -10.0199  -9.9956
    -9.9775  -9.9567  -9.9383  -9.9217  -9.9057  -9.9022  -9.8952  -9.8774
    -9.8758  -9.8631  -9.8489  -9.8347  -9.8336  -9.7980  -9.7928  -9.7889
    -9.7772  -9.7609  -9.7524  -9.7345  -9.7244  -9.7037  -9.6840  -9.6735
    -9.6619  -9.6594  -9.6594  -9.6587  -9.6581  -9.6322  -9.6319  -9.6098
    -9.6091  -9.5923  -9.5875  -9.5836  -9.5827  -9.5753  -9.5714  -9.5513
    -9.5496  -9.5477  -9.5413  -9.4809  -9.4685  -9.3764  -9.3692  -9.3636
    -9.3514  -9.3261  -9.3243  -9.3117  -9.3002  -9.2926  -9.2852  -9.2795
    -9.2786  -9.2341  -9.2282  -9.2163  -9.1983  -9.1906  -9.1804  -9.1650
    -9.1559  -9.1511  -9.1502  -9.1450  -9.1397  -9.1375  -9.1333  -9.0846
    -9.0732  -9.0695  -9.0680  -9.0580  -9.0521  -9.0508  -9.0485  -9.0134
    -9.0115  -9.0089  -9.0085  -8.9982  -8.9967  -8.9954  -8.9928  -8.9894
    -8.9894  -8.9871  -8.9855  -8.9705  -8.9690  -8.9644  -8.9629  -8.9551
    -8.9506  -8.9442  -8.9429  -8.9245  -8.9234  -8.9089  -8.9073  -8.9070
    -8.9061  -8.9047  -8.9011  -8.8804  -8.8746  -8.8561  -8.8537  -8.8463
    -8.8446  -8.8161  -8.8153  -8.7720  -8.7700  -8.7315  -8.6973  -8.6417
    -8.6379  -8.6124  -8.6054  -8.5490  -8.5441  -8.4727  -8.4719  -8.3956
    -8.3711  -8.3208  -8.2981  -8.2535  -8.2532  -8.2461  -8.2442  -8.2363
    -8.2330  -8.2289  -8.2105  -8.1934  -8.1864  -8.0956  -8.0946  -8.0344
    -8.0340  -8.0044  -7.9782  -7.9683  -7.9651  -7.9570  -7.9500  -7.9440
    -7.9374  -7.9370  -7.9318  -7.9307  -7.9208  -7.9172  -7.9149  -7.9146
    -7.9115  -7.9088  -7.9078  -7.9017  -7.8993  -7.8962  -7.8950  -7.8937
    -7.8930  -7.8896  -7.8886  -7.8881  -7.8829  -7.8822  -7.8738  -7.8725
    -7.8694  -7.8601  -7.8551  -7.8440  -7.8397  -7.8386  -7.8260  -7.8235
    -7.8200  -7.8177  -7.8169  -7.8143  -7.8090  -7.7922  -7.7915  -7.7885
    -7.7872  -7.7720  -7.7695  -7.7436  -7.7375  -7.7373  -7.7234  -7.7223
    -7.7212  -7.7201  -7.7193  -7.7178  -7.7038  -7.7033  -7.6888  -7.6878
    -7.6872  -7.6828  -7.6799  -7.6642  -7.6606  -7.5897  -7.5872  -7.5796
    -7.5741  -7.5612  -7.5420  -7.4704  -7.4092  -7.4069  -7.3572  -7.3051
    -7.2955  -7.2935  -7.2924  -7.2800  -7.2518  -7.2455  -7.2364  -7.2353
    -7.2282  -7.2245  -7.2163  -7.1933  -7.1603  -7.1556  -7.1542  -7.1394
    -7.1360  -7.1312  -7.1116  -7.1088  -7.0763  -7.0634  -7.0402  -7.0367
    -7.0204  -7.0183  -7.0132  -6.9936  -6.9834  -6.9818  -6.9767  -6.9591
    -6.9561  -6.9322  -6.8981  -6.8855  -6.8595  -6.8495  -6.8097  -6.7984
    -6.7680  -6.7610  -6.7450  -6.7441  -6.7343  -6.7341  -6.7296  -6.7290
    -6.7191  -6.7189  -6.7123  -6.7119  -6.7084  -6.7084  -6.7043  -6.7042
    -6.7038  -6.7038  -6.6764  -6.6642  -6.6255  -6.5829  -6.5743  -6.5330
    -6.4999  -6.4759  -6.4529  -6.4526  -6.4503  -6.4440  -6.4164  -6.4110
    -6.4062  -6.4061  -6.4049  -6.4011  -6.4010  -6.3968  -6.3968  -6.3800
    -6.3635  -6.3577  -6.3570  -6.3347  -6.3329  -6.3236  -6.3235  -6.3201
    -6.3007  -6.2903  -6.1223  -6.1216  -6.0743  -6.0731  -6.0164  -6.0157
    -5.9834  -5.9677  -5.9668  -5.9657  -5.8046  -5.7963  -5.7173  -5.7155
    -4.9735  -4.2132  -4.2119  -4.2108  -4.1983  -4.0625  -4.0555  -4.0357
    -4.0331  -4.0295  -3.9998  -3.9671  -3.9664  -3.9522  -3.9506  -3.9354
    -3.9341  -3.9229  -3.9225  -3.9168  -3.8915  -3.8016  -3.8010  -3.7950
    -3.7710  -3.7315  -3.7252  -3.7252  -3.7248  -3.7238  -3.6961  -3.6782
    -3.6779  -3.6509  -3.6468  -3.6464  -3.6424  -3.6412  -3.6404  -3.6062
    -3.6062  -3.6030  -3.5992  -3.5942  -3.5931  -3.5912  -3.5808  -3.5725
    -3.5724  -3.5540  -3.5455  -3.5448  -3.5447  -3.5387  -3.5189  -3.4793
    -3.4733  -3.4724  -3.4706  -3.4703  -3.4693  -3.4674  -3.4636  -3.4337
    -3.4305  -3.4248  -3.4128  -3.4115  -3.4079  -3.4068  -3.4065  -3.4062
    -3.4025  -3.3849  -3.3664  -3.3642  -3.3632  -3.3628  -3.3615  -3.3531
    -3.3423  -3.3338  -3.3330  -3.3303  -3.3152  -3.3071  -3.3005  -3.2985
    -3.2945  -3.2943  -3.2933  -3.2927  -3.2859  -3.2859  -3.2323  -3.2232
    -3.2164  -3.1919  -3.1905  -3.1855  -3.1845  -3.1810  -3.1533  -3.1491
    -3.1481  -3.1470  -3.1460  -3.1446  -3.1425  -3.1379  -3.1369  -3.1351
    -3.1336  -3.1269  -3.1169  -3.1157  -3.1145  -3.0972  -3.0951  -3.0925
    -3.0916  -3.0813  -3.0810  -3.0783  -3.0772  -3.0748  -3.0701  -3.0697
    -3.0669  -3.0613  -3.0551  -3.0546  -3.0391  -3.0161  -3.0132  -3.0099
    -3.0025  -3.0017  -2.9999  -2.9848  -2.9767  -2.9137  -2.9108  -2.9105
    -2.9088  -2.8356  -2.8342  -2.8321  -2.8240  -2.7407  -2.7344  -2.7052
    -2.6975  -2.6871  -2.6855  -2.6706  -2.6665  -2.6504  -2.6497  -2.6478
    -2.6463  -2.6448  -2.6440  -2.5600  -2.5188  -2.5179  -2.5083  -2.5056
    -2.5052  -2.4612  -2.4597

          k =-0.5000-0.2887 0.0000 (386352 PWs)   bands (ev):

  -109.0115 -81.7769 -81.7745 -81.7745 -81.7671 -81.7671 -81.7541 -81.7541
   -66.7534 -66.7488 -66.7450 -66.7448 -66.7448 -66.7447 -66.7436 -66.7436
   -66.7422 -66.7379 -66.7342 -66.7342 -66.7342 -66.7342 -66.7329 -66.7329
   -66.7292 -66.7273 -66.7237 -66.7231 -66.7220 -66.7193 -66.7192 -66.7191
   -66.7191 -66.7191 -66.7191 -66.7190 -66.7190 -66.7178 -66.7178 -66.7178
   -66.7178 -66.7177 -66.7172 -66.7148 -66.7146 -66.7146 -66.7145 -66.7134
   -66.7134 -66.7109 -66.7104 -66.7087 -66.7086 -66.7084 -66.7084 -66.7084
   -66.7083 -66.7083 -66.7080 -66.7071 -66.7071 -66.7071 -66.7071 -66.7040
   -66.7039 -66.7039 -66.7039 -66.7027 -66.7027 -66.6956 -66.6951 -66.6946
   -60.4652 -60.3663 -60.3663 -41.0564 -41.0508 -41.0498 -41.0470 -41.0469
   -41.0468 -41.0468 -41.0468 -41.0468 -41.0467 -41.0465 -41.0462 -41.0462
   -41.0462 -41.0462 -41.0381 -41.0246 -41.0202 -41.0201 -41.0200 -41.0200
   -41.0198 -41.0194 -41.0194 -41.0104 -41.0079 -41.0079 -41.0079 -41.0079
   -41.0073 -41.0073 -41.0069 -40.9595 -40.9592 -40.9576 -40.9573 -40.9573
   -40.9573 -40.9572 -40.9572 -40.9572 -40.9572 -40.9572 -40.9572 -40.9566
   -40.9566 -40.9566 -40.9566 -40.9067 -40.9029 -40.8987 -40.8985 -40.8985
   -40.8984 -40.8979 -40.8979 -40.8914 -40.8897 -40.8890 -40.8890 -40.8890
   -40.8889 -40.8882 -40.8882 -40.8844 -40.8823 -40.8777 -40.8777 -40.8776
   -40.8776 -40.8770 -40.8770 -40.8577 -40.8571 -40.8526 -40.8499 -40.8482
   -40.8482 -40.8480 -40.8480 -40.8480 -40.8480 -40.8480 -40.8479 -40.8475
   -40.8473 -40.8473 -40.8473 -40.8473 -40.8432 -40.8395 -40.8393 -40.8392
   -40.8392 -40.8390 -40.8386 -40.8386 -40.8327 -40.8310 -40.8290 -40.8288
   -40.8275 -40.8275 -40.8275 -40.8274 -40.8273 -40.8272 -40.8270 -40.8270
   -40.8269 -40.8269 -40.8269 -40.8267 -40.8267 -40.8266 -40.8263 -40.8263
   -40.8263 -40.8263 -40.8211 -40.8192 -40.8192 -40.8184 -40.8184 -40.8183
   -40.8183 -40.8176 -40.8176 -40.8023 -40.8000 -40.7984 -40.7967 -40.7967
   -40.7966 -40.7965 -40.7965 -40.7965 -40.7964 -40.7963 -40.7957 -40.7957
   -40.7957 -40.7957 -40.7930 -40.7653 -40.7640 -40.7624 -40.7618 -40.7618
   -40.7618 -40.7618 -40.7618 -40.7618 -40.7618 -40.7617 -40.7609 -40.7609
   -40.7609 -40.7609 -40.7593 -40.7542 -40.7498 -40.7497 -40.7497 -40.7495
   -40.7488 -40.7487 -40.7477 -40.7349 -40.7305 -40.7303 -40.7303 -40.7301
   -40.7294 -40.7294 -40.7277 -40.7134 -40.7133 -40.7133 -40.7133 -40.7124
   -40.7124 -40.7122 -40.7100 -40.6873 -40.6828 -40.6827 -40.6827 -40.6825
   -40.6817 -40.6817 -40.6774 -20.0118 -20.0072 -19.9510 -19.9364 -19.8611
   -19.8439 -19.7722 -19.7649 -19.5728 -19.5704 -19.5137 -19.5053 -19.4289
   -19.4182 -19.3451 -19.3402 -18.9171 -18.8946 -18.8594 -18.8566 -18.8562
   -18.8545 -18.8277 -18.8097 -18.8077 -18.8010 -18.7848 -18.7652 -18.7391
   -18.7386 -18.7377 -18.7273 -18.6930 -18.6875 -18.6695 -18.6682 -18.6661
   -18.6607 -18.6377 -18.6274 -18.6041 -18.6029 -18.5808 -18.5747 -18.5653
   -18.5578 -18.5302 -18.5272 -18.5070 -18.4965 -18.4621 -18.4585 -18.4437
   -18.4356 -18.3734 -18.3725 -18.3523 -18.3510 -18.3492 -18.3422 -18.2805
   -18.2774 -18.2721 -18.2567 -18.2381 -18.2310 -18.2298 -18.2276 -18.2273
   -18.2271 -18.2135 -18.2052 -18.1985 -18.1981 -18.1890 -18.1871 -18.1868
   -18.1777 -18.1682 -18.1650 -18.1623 -18.1583 -18.1560 -18.1556 -18.1288
   -18.1267 -18.1254 -18.1234 -18.1193 -18.1170 -18.1112 -18.1110 -18.1052
   -18.0994 -18.0608 -18.0589 -18.0571 -18.0484 -18.0391 -18.0390 -18.0101
   -18.0061 -17.9957 -17.9955 -17.9700 -17.9692 -17.9629 -17.9628 -17.9458
   -17.9454 -17.9444 -17.9443 -17.9429 -17.9427 -17.9353 -17.9336 -17.9206
   -17.9168 -17.9013 -17.8938 -17.8830 -17.8777 -17.8653 -17.8625 -17.8520
   -17.8514 -17.8451 -17.8451 -11.8634 -11.8378 -11.7457 -11.6393 -11.6380
   -11.6378 -11.6322 -11.6056 -11.6054 -11.5946 -11.5811 -11.5613 -11.5561
   -11.5555 -11.5319 -11.5138 -11.4930 -11.4635 -11.4559 -11.4547 -11.4424
   -11.4396 -11.4223 -11.3990 -11.3917 -11.3876 -11.3863 -11.3833 -11.3796
   -11.3790 -11.3592 -11.3508 -11.3305 -11.3078 -11.3066 -11.3026 -11.2978
   -11.2919 -11.2908 -11.2907 -11.2850 -11.2657 -11.2631 -11.2611 -11.2304
   -11.2292 -11.1856 -11.1785 -11.1752 -11.1739 -11.0806 -11.0651 -11.0551
   -11.0356 -11.0328 -11.0272 -11.0043 -11.0026 -10.9793 -10.9596 -10.9588
   -10.9510 -10.9447 -10.9381 -10.9377 -10.9374 -10.9360 -10.9305 -10.9279
   -10.9192 -10.9185 -10.9169 -10.9154 -10.9148 -10.9145 -10.9139 -10.9136
   -10.9129 -10.8996 -10.8927 -10.8825 -10.8795 -10.8676 -10.8670 -10.8636
   -10.8619 -10.6625 -10.6570 -10.6522 -10.6459 -10.6072 -10.5947 -10.5213
   -10.4966 -10.3976 -10.3640 -10.2812 -10.2703 -10.2609 -10.2607 -10.2429
   -10.2414 -10.2107 -10.2042 -10.2040 -10.1999 -10.1745 -10.1740 -10.1653
   -10.1450 -10.1389 -10.1296 -10.1281 -10.1281 -10.1053 -10.0770 -10.0477
   -10.0417 -10.0408 -10.0389 -10.0224 -10.0216 -10.0208 -10.0199  -9.9956
    -9.9775  -9.9567  -9.9383  -9.9217  -9.9057  -9.9022  -9.8952  -9.8774
    -9.8758  -9.8631  -9.8489  -9.8347  -9.8335  -9.7980  -9.7928  -9.7889
    -9.7772  -9.7609  -9.7524  -9.7345  -9.7244  -9.7037  -9.6840  -9.6735
    -9.6619  -9.6594  -9.6594  -9.6587  -9.6581  -9.6322  -9.6319  -9.6098
    -9.6091  -9.5923  -9.5875  -9.5837  -9.5827  -9.5753  -9.5714  -9.5513
    -9.5496  -9.5477  -9.5412  -9.4809  -9.4685  -9.3764  -9.3693  -9.3635
    -9.3514  -9.3261  -9.3243  -9.3117  -9.3002  -9.2927  -9.2852  -9.2795
    -9.2786  -9.2341  -9.2282  -9.2163  -9.1983  -9.1906  -9.1804  -9.1650
    -9.1559  -9.1511  -9.1502  -9.1449  -9.1397  -9.1375  -9.1333  -9.0846
    -9.0732  -9.0695  -9.0680  -9.0580  -9.0521  -9.0508  -9.0485  -9.0133
    -9.0115  -9.0089  -9.0085  -8.9981  -8.9967  -8.9954  -8.9928  -8.9894
    -8.9894  -8.9871  -8.9854  -8.9705  -8.9690  -8.9644  -8.9629  -8.9551
    -8.9506  -8.9442  -8.9429  -8.9245  -8.9234  -8.9089  -8.9072  -8.9070
    -8.9061  -8.9047  -8.9011  -8.8804  -8.8746  -8.8561  -8.8537  -8.8463
    -8.8447  -8.8161  -8.8153  -8.7720  -8.7700  -8.7315  -8.6973  -8.6417
    -8.6379  -8.6124  -8.6054  -8.5490  -8.5441  -8.4727  -8.4719  -8.3956
    -8.3711  -8.3208  -8.2981  -8.2535  -8.2532  -8.2461  -8.2442  -8.2363
    -8.2330  -8.2289  -8.2105  -8.1934  -8.1864  -8.0956  -8.0946  -8.0344
    -8.0340  -8.0045  -7.9782  -7.9683  -7.9651  -7.9570  -7.9500  -7.9440
    -7.9374  -7.9370  -7.9319  -7.9306  -7.9208  -7.9172  -7.9149  -7.9146
    -7.9115  -7.9088  -7.9078  -7.9017  -7.8993  -7.8962  -7.8951  -7.8937
    -7.8930  -7.8896  -7.8886  -7.8881  -7.8829  -7.8822  -7.8738  -7.8725
    -7.8694  -7.8601  -7.8551  -7.8440  -7.8397  -7.8386  -7.8260  -7.8235
    -7.8200  -7.8176  -7.8169  -7.8144  -7.8091  -7.7922  -7.7915  -7.7885
    -7.7872  -7.7720  -7.7695  -7.7436  -7.7375  -7.7373  -7.7234  -7.7223
    -7.7212  -7.7201  -7.7193  -7.7177  -7.7038  -7.7033  -7.6888  -7.6877
    -7.6872  -7.6828  -7.6799  -7.6642  -7.6606  -7.5897  -7.5873  -7.5796
    -7.5741  -7.5612  -7.5420  -7.4704  -7.4092  -7.4070  -7.3572  -7.3052
    -7.2955  -7.2935  -7.2924  -7.2800  -7.2518  -7.2455  -7.2364  -7.2353
    -7.2282  -7.2245  -7.2163  -7.1932  -7.1603  -7.1555  -7.1542  -7.1394
    -7.1360  -7.1311  -7.1116  -7.1088  -7.0763  -7.0634  -7.0402  -7.0367
    -7.0204  -7.0183  -7.0132  -6.9936  -6.9834  -6.9818  -6.9767  -6.9591
    -6.9561  -6.9322  -6.8981  -6.8855  -6.8595  -6.8495  -6.8097  -6.7984
    -6.7680  -6.7610  -6.7450  -6.7441  -6.7343  -6.7341  -6.7296  -6.7290
    -6.7191  -6.7189  -6.7123  -6.7119  -6.7084  -6.7084  -6.7043  -6.7042
    -6.7038  -6.7038  -6.6764  -6.6642  -6.6255  -6.5829  -6.5743  -6.5330
    -6.4999  -6.4759  -6.4529  -6.4526  -6.4504  -6.4440  -6.4164  -6.4110
    -6.4063  -6.4061  -6.4049  -6.4011  -6.4010  -6.3968  -6.3968  -6.3800
    -6.3635  -6.3577  -6.3570  -6.3348  -6.3328  -6.3237  -6.3235  -6.3201
    -6.3007  -6.2903  -6.1223  -6.1216  -6.0743  -6.0731  -6.0164  -6.0157
    -5.9834  -5.9677  -5.9668  -5.9657  -5.8046  -5.7963  -5.7173  -5.7155
    -4.9735  -4.2132  -4.2119  -4.2108  -4.1983  -4.0625  -4.0555  -4.0357
    -4.0332  -4.0295  -3.9997  -3.9671  -3.9664  -3.9522  -3.9506  -3.9354
    -3.9341  -3.9229  -3.9225  -3.9168  -3.8915  -3.8016  -3.8010  -3.7950
    -3.7710  -3.7315  -3.7252  -3.7252  -3.7248  -3.7238  -3.6961  -3.6782
    -3.6779  -3.6509  -3.6468  -3.6465  -3.6424  -3.6412  -3.6404  -3.6062
    -3.6062  -3.6030  -3.5992  -3.5942  -3.5931  -3.5912  -3.5808  -3.5725
    -3.5724  -3.5540  -3.5455  -3.5448  -3.5447  -3.5387  -3.5189  -3.4793
    -3.4733  -3.4724  -3.4706  -3.4702  -3.4693  -3.4674  -3.4636  -3.4337
    -3.4305  -3.4248  -3.4127  -3.4115  -3.4079  -3.4068  -3.4065  -3.4062
    -3.4025  -3.3849  -3.3664  -3.3642  -3.3632  -3.3628  -3.3615  -3.3531
    -3.3423  -3.3338  -3.3330  -3.3303  -3.3153  -3.3070  -3.3005  -3.2984
    -3.2945  -3.2943  -3.2933  -3.2927  -3.2859  -3.2859  -3.2323  -3.2232
    -3.2164  -3.1919  -3.1905  -3.1855  -3.1845  -3.1810  -3.1533  -3.1491
    -3.1481  -3.1470  -3.1460  -3.1447  -3.1426  -3.1379  -3.1369  -3.1352
    -3.1336  -3.1267  -3.1173  -3.1157  -3.1146  -3.0972  -3.0954  -3.0925
    -3.0916  -3.0813  -3.0810  -3.0783  -3.0772  -3.0748  -3.0701  -3.0697
    -3.0669  -3.0613  -3.0552  -3.0546  -3.0392  -3.0162  -3.0136  -3.0099
    -3.0025  -3.0017  -2.9999  -2.9848  -2.9767  -2.9133  -2.9108  -2.9105
    -2.9088  -2.8359  -2.8340  -2.8318  -2.8241  -2.7407  -2.7344  -2.7052
    -2.6975  -2.6874  -2.6863  -2.6705  -2.6665  -2.6505  -2.6497  -2.6481
    -2.6463  -2.6451  -2.6439  -2.5605  -2.5187  -2.5177  -2.5056  -2.5054
    -2.5004  -2.4608  -2.4585

          k =-0.5000-0.8660 0.0000 (386352 PWs)   bands (ev):

  -109.0115 -81.7769 -81.7745 -81.7745 -81.7671 -81.7671 -81.7541 -81.7541
   -66.7534 -66.7488 -66.7450 -66.7448 -66.7448 -66.7447 -66.7436 -66.7436
   -66.7422 -66.7379 -66.7342 -66.7342 -66.7342 -66.7342 -66.7329 -66.7329
   -66.7292 -66.7273 -66.7237 -66.7231 -66.7220 -66.7193 -66.7193 -66.7191
   -66.7191 -66.7191 -66.7191 -66.7190 -66.7190 -66.7178 -66.7178 -66.7178
   -66.7178 -66.7177 -66.7172 -66.7148 -66.7146 -66.7146 -66.7145 -66.7134
   -66.7134 -66.7109 -66.7104 -66.7087 -66.7086 -66.7084 -66.7084 -66.7084
   -66.7084 -66.7083 -66.7080 -66.7071 -66.7071 -66.7071 -66.7071 -66.7040
   -66.7039 -66.7039 -66.7039 -66.7027 -66.7027 -66.6956 -66.6951 -66.6946
   -60.4652 -60.3663 -60.3663 -41.0564 -41.0508 -41.0498 -41.0470 -41.0469
   -41.0468 -41.0468 -41.0468 -41.0468 -41.0467 -41.0465 -41.0462 -41.0462
   -41.0462 -41.0462 -41.0381 -41.0246 -41.0202 -41.0201 -41.0200 -41.0200
   -41.0198 -41.0194 -41.0194 -41.0104 -41.0079 -41.0079 -41.0079 -41.0079
   -41.0073 -41.0073 -41.0069 -40.9595 -40.9592 -40.9576 -40.9573 -40.9572
   -40.9572 -40.9572 -40.9572 -40.9572 -40.9572 -40.9572 -40.9572 -40.9566
   -40.9566 -40.9566 -40.9566 -40.9067 -40.9029 -40.8987 -40.8985 -40.8985
   -40.8984 -40.8979 -40.8979 -40.8914 -40.8897 -40.8890 -40.8890 -40.8890
   -40.8889 -40.8882 -40.8882 -40.8843 -40.8823 -40.8777 -40.8777 -40.8776
   -40.8776 -40.8770 -40.8770 -40.8577 -40.8571 -40.8526 -40.8499 -40.8482
   -40.8482 -40.8480 -40.8480 -40.8480 -40.8480 -40.8480 -40.8479 -40.8475
   -40.8474 -40.8473 -40.8473 -40.8473 -40.8432 -40.8395 -40.8393 -40.8392
   -40.8392 -40.8390 -40.8386 -40.8386 -40.8327 -40.8310 -40.8290 -40.8288
   -40.8275 -40.8275 -40.8275 -40.8274 -40.8273 -40.8272 -40.8270 -40.8270
   -40.8269 -40.8269 -40.8269 -40.8267 -40.8267 -40.8266 -40.8263 -40.8263
   -40.8263 -40.8263 -40.8211 -40.8192 -40.8192 -40.8184 -40.8183 -40.8183
   -40.8183 -40.8176 -40.8176 -40.8023 -40.8000 -40.7984 -40.7967 -40.7967
   -40.7966 -40.7965 -40.7965 -40.7965 -40.7964 -40.7962 -40.7957 -40.7957
   -40.7957 -40.7957 -40.7930 -40.7653 -40.7640 -40.7624 -40.7618 -40.7618
   -40.7618 -40.7618 -40.7618 -40.7618 -40.7618 -40.7617 -40.7609 -40.7609
   -40.7609 -40.7609 -40.7593 -40.7542 -40.7498 -40.7497 -40.7497 -40.7495
   -40.7488 -40.7487 -40.7477 -40.7349 -40.7305 -40.7303 -40.7303 -40.7301
   -40.7294 -40.7294 -40.7277 -40.7133 -40.7133 -40.7133 -40.7133 -40.7124
   -40.7124 -40.7122 -40.7100 -40.6873 -40.6828 -40.6827 -40.6827 -40.6825
   -40.6817 -40.6817 -40.6774 -20.0118 -20.0072 -19.9510 -19.9364 -19.8610
   -19.8439 -19.7722 -19.7649 -19.5728 -19.5704 -19.5137 -19.5053 -19.4289
   -19.4182 -19.3451 -19.3402 -18.9171 -18.8946 -18.8594 -18.8566 -18.8562
   -18.8545 -18.8277 -18.8097 -18.8077 -18.8010 -18.7848 -18.7652 -18.7391
   -18.7386 -18.7377 -18.7273 -18.6930 -18.6875 -18.6695 -18.6682 -18.6661
   -18.6607 -18.6377 -18.6274 -18.6041 -18.6029 -18.5808 -18.5747 -18.5653
   -18.5578 -18.5302 -18.5272 -18.5070 -18.4965 -18.4621 -18.4585 -18.4437
   -18.4356 -18.3734 -18.3725 -18.3523 -18.3510 -18.3491 -18.3422 -18.2805
   -18.2774 -18.2721 -18.2567 -18.2381 -18.2310 -18.2298 -18.2276 -18.2273
   -18.2272 -18.2135 -18.2052 -18.1985 -18.1981 -18.1890 -18.1871 -18.1868
   -18.1777 -18.1682 -18.1650 -18.1623 -18.1583 -18.1560 -18.1556 -18.1288
   -18.1268 -18.1254 -18.1235 -18.1193 -18.1170 -18.1111 -18.1110 -18.1052
   -18.0994 -18.0608 -18.0588 -18.0571 -18.0484 -18.0392 -18.0390 -18.0101
   -18.0061 -17.9957 -17.9955 -17.9700 -17.9692 -17.9629 -17.9629 -17.9458
   -17.9454 -17.9444 -17.9443 -17.9429 -17.9428 -17.9353 -17.9336 -17.9206
   -17.9168 -17.9013 -17.8938 -17.8830 -17.8776 -17.8653 -17.8625 -17.8520
   -17.8514 -17.8451 -17.8451 -11.8634 -11.8378 -11.7457 -11.6393 -11.6380
   -11.6378 -11.6322 -11.6056 -11.6053 -11.5946 -11.5811 -11.5613 -11.5561
   -11.5555 -11.5319 -11.5138 -11.4930 -11.4635 -11.4558 -11.4547 -11.4424
   -11.4396 -11.4223 -11.3990 -11.3917 -11.3876 -11.3863 -11.3834 -11.3796
   -11.3790 -11.3592 -11.3508 -11.3305 -11.3078 -11.3066 -11.3026 -11.2978
   -11.2919 -11.2908 -11.2907 -11.2850 -11.2657 -11.2631 -11.2611 -11.2304
   -11.2292 -11.1856 -11.1785 -11.1752 -11.1739 -11.0806 -11.0651 -11.0551
   -11.0356 -11.0328 -11.0272 -11.0043 -11.0026 -10.9793 -10.9596 -10.9588
   -10.9510 -10.9447 -10.9381 -10.9377 -10.9374 -10.9360 -10.9305 -10.9279
   -10.9192 -10.9185 -10.9169 -10.9154 -10.9148 -10.9145 -10.9139 -10.9136
   -10.9130 -10.8996 -10.8927 -10.8825 -10.8795 -10.8676 -10.8670 -10.8636
   -10.8619 -10.6625 -10.6570 -10.6522 -10.6459 -10.6072 -10.5947 -10.5213
   -10.4966 -10.3976 -10.3640 -10.2812 -10.2703 -10.2609 -10.2607 -10.2429
   -10.2414 -10.2107 -10.2042 -10.2040 -10.1999 -10.1745 -10.1740 -10.1653
   -10.1450 -10.1389 -10.1296 -10.1281 -10.1281 -10.1053 -10.0770 -10.0477
   -10.0417 -10.0408 -10.0389 -10.0224 -10.0216 -10.0208 -10.0199  -9.9956
    -9.9775  -9.9567  -9.9383  -9.9217  -9.9057  -9.9022  -9.8952  -9.8774
    -9.8758  -9.8631  -9.8489  -9.8347  -9.8336  -9.7980  -9.7928  -9.7889
    -9.7772  -9.7609  -9.7524  -9.7345  -9.7244  -9.7037  -9.6840  -9.6735
    -9.6619  -9.6594  -9.6594  -9.6587  -9.6581  -9.6322  -9.6319  -9.6098
    -9.6091  -9.5923  -9.5875  -9.5837  -9.5827  -9.5753  -9.5714  -9.5513
    -9.5496  -9.5477  -9.5413  -9.4809  -9.4685  -9.3764  -9.3693  -9.3636
    -9.3514  -9.3261  -9.3243  -9.3117  -9.3002  -9.2926  -9.2852  -9.2795
    -9.2786  -9.2342  -9.2282  -9.2163  -9.1983  -9.1906  -9.1804  -9.1650
    -9.1559  -9.1511  -9.1502  -9.1450  -9.1397  -9.1375  -9.1333  -9.0846
    -9.0732  -9.0695  -9.0680  -9.0580  -9.0521  -9.0508  -9.0485  -9.0134
    -9.0115  -9.0089  -9.0085  -8.9982  -8.9967  -8.9954  -8.9928  -8.9894
    -8.9894  -8.9871  -8.9854  -8.9705  -8.9690  -8.9644  -8.9629  -8.9551
    -8.9506  -8.9442  -8.9429  -8.9245  -8.9234  -8.9089  -8.9073  -8.9070
    -8.9061  -8.9047  -8.9011  -8.8805  -8.8746  -8.8561  -8.8537  -8.8463
    -8.8446  -8.8161  -8.8153  -8.7720  -8.7700  -8.7315  -8.6973  -8.6417
    -8.6379  -8.6124  -8.6054  -8.5489  -8.5440  -8.4727  -8.4719  -8.3956
    -8.3711  -8.3208  -8.2981  -8.2535  -8.2532  -8.2461  -8.2442  -8.2363
    -8.2330  -8.2289  -8.2105  -8.1934  -8.1864  -8.0956  -8.0946  -8.0344
    -8.0340  -8.0044  -7.9782  -7.9683  -7.9651  -7.9570  -7.9500  -7.9440
    -7.9374  -7.9370  -7.9319  -7.9307  -7.9208  -7.9172  -7.9149  -7.9146
    -7.9115  -7.9088  -7.9078  -7.9017  -7.8993  -7.8962  -7.8950  -7.8937
    -7.8930  -7.8896  -7.8886  -7.8881  -7.8829  -7.8822  -7.8738  -7.8725
    -7.8694  -7.8601  -7.8551  -7.8440  -7.8397  -7.8386  -7.8260  -7.8235
    -7.8200  -7.8177  -7.8169  -7.8143  -7.8090  -7.7922  -7.7915  -7.7885
    -7.7872  -7.7720  -7.7695  -7.7436  -7.7375  -7.7373  -7.7234  -7.7223
    -7.7212  -7.7201  -7.7193  -7.7177  -7.7038  -7.7033  -7.6888  -7.6878
    -7.6872  -7.6828  -7.6799  -7.6642  -7.6606  -7.5897  -7.5872  -7.5796
    -7.5741  -7.5612  -7.5420  -7.4704  -7.4092  -7.4069  -7.3572  -7.3051
    -7.2955  -7.2935  -7.2924  -7.2800  -7.2518  -7.2455  -7.2364  -7.2353
    -7.2282  -7.2245  -7.2163  -7.1933  -7.1603  -7.1556  -7.1542  -7.1394
    -7.1360  -7.1312  -7.1116  -7.1088  -7.0763  -7.0634  -7.0402  -7.0367
    -7.0204  -7.0183  -7.0132  -6.9936  -6.9834  -6.9818  -6.9767  -6.9591
    -6.9561  -6.9322  -6.8981  -6.8855  -6.8595  -6.8495  -6.8097  -6.7984
    -6.7680  -6.7610  -6.7450  -6.7441  -6.7343  -6.7341  -6.7296  -6.7290
    -6.7191  -6.7189  -6.7123  -6.7119  -6.7084  -6.7084  -6.7043  -6.7042
    -6.7038  -6.7038  -6.6764  -6.6642  -6.6255  -6.5829  -6.5743  -6.5330
    -6.4999  -6.4759  -6.4529  -6.4526  -6.4503  -6.4440  -6.4164  -6.4110
    -6.4062  -6.4061  -6.4049  -6.4011  -6.4010  -6.3968  -6.3968  -6.3800
    -6.3635  -6.3577  -6.3570  -6.3348  -6.3329  -6.3236  -6.3235  -6.3201
    -6.3007  -6.2903  -6.1223  -6.1216  -6.0743  -6.0731  -6.0164  -6.0157
    -5.9834  -5.9677  -5.9668  -5.9657  -5.8046  -5.7963  -5.7173  -5.7155
    -4.9735  -4.2132  -4.2119  -4.2108  -4.1983  -4.0625  -4.0555  -4.0357
    -4.0332  -4.0295  -3.9997  -3.9671  -3.9664  -3.9522  -3.9506  -3.9354
    -3.9341  -3.9229  -3.9225  -3.9168  -3.8915  -3.8016  -3.8010  -3.7950
    -3.7710  -3.7315  -3.7252  -3.7252  -3.7248  -3.7238  -3.6961  -3.6782
    -3.6779  -3.6509  -3.6468  -3.6465  -3.6424  -3.6412  -3.6404  -3.6062
    -3.6062  -3.6030  -3.5992  -3.5942  -3.5931  -3.5912  -3.5808  -3.5725
    -3.5724  -3.5541  -3.5455  -3.5449  -3.5447  -3.5387  -3.5189  -3.4793
    -3.4733  -3.4725  -3.4706  -3.4703  -3.4693  -3.4675  -3.4636  -3.4337
    -3.4305  -3.4248  -3.4128  -3.4115  -3.4079  -3.4068  -3.4064  -3.4062
    -3.4025  -3.3849  -3.3664  -3.3642  -3.3632  -3.3628  -3.3615  -3.3531
    -3.3423  -3.3338  -3.3330  -3.3303  -3.3153  -3.3070  -3.3005  -3.2985
    -3.2945  -3.2943  -3.2933  -3.2927  -3.2859  -3.2859  -3.2323  -3.2232
    -3.2164  -3.1919  -3.1905  -3.1855  -3.1845  -3.1810  -3.1533  -3.1491
    -3.1481  -3.1470  -3.1461  -3.1447  -3.1425  -3.1376  -3.1369  -3.1351
    -3.1335  -3.1269  -3.1171  -3.1157  -3.1146  -3.0977  -3.0959  -3.0925
    -3.0916  -3.0813  -3.0810  -3.0783  -3.0772  -3.0748  -3.0701  -3.0697
    -3.0663  -3.0608  -3.0552  -3.0546  -3.0391  -3.0164  -3.0138  -3.0098
    -3.0022  -3.0017  -2.9996  -2.9846  -2.9766  -2.9148  -2.9116  -2.9110
    -2.9089  -2.8354  -2.8327  -2.8316  -2.8239  -2.7379  -2.7290  -2.7020
    -2.6872  -2.6862  -2.6834  -2.6689  -2.6529  -2.6500  -2.6476  -2.6453
    -2.6439  -2.6414  -2.5599  -2.5582  -2.5516  -2.5168  -2.5138  -2.5054
    -2.5053  -2.4620  -2.4596

     the Fermi energy is    -4.9747 ev

!    total energy              =  -33570.94049106 Ry
     total all-electron energy =   -658510.683836 Ry
     estimated scf accuracy    <       0.00000044 Ry
     smearing contrib. (-TS)   =      -0.00564672 Ry
     internal energy E=F+TS    =  -33570.93484433 Ry

     The total energy is F=E-TS. E is the sum of the following terms:
[...]
     atom  161 type  2   force =    -0.00000000    0.00000002    0.00441501
     atom  162 type  2   force =    -0.00000014    0.00000012    0.00009558
     atom  163 type  1   force =     0.00000085   -0.00000304   -0.00002811
     atom  164 type  1   force =    -0.00000006    0.00000559   -0.00250736
     atom  165 type  2   force =     0.00000382   -0.00000485   -0.00015142
     atom  166 type  2   force =    -0.00000002   -0.00000331    0.00002602
     atom  167 type  2   force =    -0.00000002    0.00000033   -0.00009692
     atom  168 type  2   force =    -0.00027281    0.00005442   -0.00429292
     atom  169 type  1   force =    -0.00000005   -0.00000003    0.00255969
     atom  170 type  1   force =    -0.00000010    0.00000007    0.00001223
     atom  171 type  2   force =    -0.00000006   -0.00000002   -0.00003328
     atom  172 type  2   force =     0.00000000    0.00000000    0.00017148
     atom  173 type  2   force =    -0.00000001   -0.00000001    0.00441498
     atom  174 type  2   force =    -0.00000010   -0.00000003    0.00009560
     atom  175 type  1   force =    -0.00000144   -0.00000084   -0.00003341
     atom  176 type  1   force =    -0.00015998   -0.00003260   -0.00239801
     atom  177 type  2   force =    -0.00002783   -0.00001607   -0.00010443
     atom  178 type  2   force =     0.00000062   -0.00000335    0.00002286
     atom  179 type  2   force =    -0.00000023    0.00000041   -0.00009799
     atom  180 type  2   force =    -0.00047297   -0.00027310   -0.00411221
     atom  181 type  1   force =    -0.00000001   -0.00000004    0.00255972
     atom  182 type  1   force =    -0.00000003   -0.00000009    0.00001225
     atom  183 type  2   force =    -0.00000003   -0.00000005   -0.00003333
     atom  184 type  2   force =    -0.00000001    0.00000001    0.00017149
     atom  185 type  2   force =    -0.00000001   -0.00000000    0.00441498
     atom  186 type  2   force =     0.00000004   -0.00000017    0.00009556
     atom  187 type  1   force =    -0.00000220    0.00000226   -0.00002813
     atom  188 type  1   force =    -0.00010820   -0.00012225   -0.00239802
     atom  189 type  2   force =    -0.00000229    0.00000573   -0.00015143
     atom  190 type  2   force =    -0.00000260    0.00000221    0.00002287
     atom  191 type  2   force =     0.00000026   -0.00000040   -0.00009801
     atom  192 type  2   force =    -0.00008925   -0.00026344   -0.00429292
     atom  193 type  3   force =     0.00000004   -0.00000002   -0.00636987

     Total force =     0.001754     Total SCF correction =     0.001300
     SCF correction compared to forces is large: reduce conv_thr to get better values
     Energy error            =      1.3E-05 Ry
     Gradient error          =      9.3E-04 Ry/Bohr

     bfgs converged in  27 scf cycles and  26 bfgs steps
     (criteria: energy <  1.0E-04 Ry, force <  1.0E-03 Ry/Bohr)

     End of BFGS Geometry Optimization

     Final energy             =  -33570.9405043853 Ry

     File ./outdir/pwscf.bfgs deleted, as requested
Begin final coordinates

ATOMIC_POSITIONS (angstrom)
Mo            0.0000119917        1.8193638619       -9.1672481230    0   0   0
Mo            1.5756136568        0.9097075315       -3.0554901653    0   0   0
S             0.0000188998        1.8193822938       -4.6232556019    0   0   0
S             1.5756321638        0.9096773839       -7.6014065489    0   0   0
S             1.5756326175        0.9096785128      -10.7330757790    0   0   0
S             0.0000189190        1.8193860094       -1.4877129945    0   0   0
Mo            0.0000716632        1.8193538034        3.0572130365
Mo            1.5751112125        0.9115069986        9.1823003118
S             0.0010985746        1.8192985356        7.6089689936
S             1.5759443466        0.9096303426        4.6248040873
S             1.5754877561        0.9097445808        1.4891162966
S            -0.0024785020        1.8194148823       10.7482052660
Mo           -1.5756053507        4.5484193819       -9.1672481230    0   0   0
Mo            0.0000378379        3.6387394919       -3.0554952701    0   0   0
S            -1.5755913433        4.5484363582       -4.6232494962    0   0   0
S             0.0000148214        3.6387329039       -7.6014065489    0   0   0
S             0.0000152751        3.6387340328      -10.7330757790    0   0   0
S            -1.5755906502        4.5484413613       -1.4877305502    0   0   0
Mo           -1.5755962520        4.5484911614        3.0572069730
Mo           -0.0039285367        3.6364598168        9.1733183323
S            -1.5751194283        4.5493907362        7.6089684616
S             0.0001592193        3.6388360886        4.6250266443
S            -0.0000789758        3.6386851186        1.4893388743
S            -1.5768078980        4.5462365658       10.7482127530
Mo           -3.1512226931        7.2774749019       -9.1672481230    0   0   0
Mo           -1.5755910988        6.3678216792       -3.0555115988    0   0   0
S            -3.1512162438        7.2774954350       -4.6232578178    0   0   0
S            -1.5756025210        6.3677884239       -7.6014065489    0   0   0
S            -1.5756020673        6.3677895528      -10.7330757790    0   0   0
S            -3.1512127704        7.2774877076       -1.4877200710    0   0   0
Mo           -3.1512195455        7.2775159174        3.0569093410
Mo           -1.5742808542        6.3664210143        9.1823014736
S            -3.1511939452        7.2771983325        7.6149624047
S            -1.5754915198        6.3680877656        4.6248093303
S            -1.5756318616        6.3676544114        1.4891178323
S            -3.1511970168        7.2764986538       10.7506952528
Mo           -4.7268400355       10.0065304219       -9.1672481230    0   0   0
Mo           -3.1512405618        9.0968403586       -3.0554816746    0   0   0
S            -4.7268341792       10.0065523623       -4.6232463762    0   0   0
S            -3.1512198634        9.0968439439       -7.6014065489    0   0   0
S            -3.1512194097        9.0968450728      -10.7330757790    0   0   0
S            -4.7268370797       10.0065537885       -1.4877176751    0   0   0
Mo           -4.7268115693       10.0065292363        3.0569020909
Mo           -3.1511809991        9.0968648040        9.1823919274
S            -4.7270600451       10.0066899235        7.6149601865
S            -3.1512264777        9.0968538053        4.6247606308
S            -3.1512115225        9.0968507856        1.4890564261
S            -4.7276695029       10.0070390123       10.7506884931
Mo            3.1512517547        1.8193638619       -9.1672481230    0   0   0
Mo            4.7269020221        0.9097289540       -3.0554823951    0   0   0
S             3.1512612351        1.8193882564       -4.6232320683    0   0   0
S             4.7268719268        0.9096773839       -7.6014065489    0   0   0
S             4.7268723805        0.9096785128      -10.7330757790    0   0   0
S             3.1512592485        1.8193890201       -1.4877261251    0   0   0
Mo            3.1512646234        1.8194590449        3.0566451454
Mo            4.7274801007        0.9115129600        9.1823005569
S             3.1512986345        1.8203899822        7.6154059716
S             4.7265843910        0.9096543097        4.6248144381
S             4.7270329397        0.9097499197        1.4891127881
S             3.1513032369        1.8174467851       10.7544549483
Mo            1.5756344123        4.5484193819       -9.1672481230    0   0   0
Mo            3.1512756394        3.6387769522       -3.0554814834    0   0   0
S             1.5756504879        4.5484423799       -4.6232390542    0   0   0
S             3.1512545844        3.6387329039       -7.6014065489    0   0   0
S             3.1512550381        3.6387340328      -10.7330757790    0   0   0
S             1.5756466253        4.5484431864       -1.4877251801    0   0   0
Mo            1.5757596964        4.5484975883        3.0569646390
Mo            3.1513062938        3.6413966243        9.1863776407
S             1.5770703250        4.5492464277        7.6138548883
S             3.1512772460        3.6387105121        4.6246459685
S             3.1512892544        3.6388770507        1.4888809948
S             1.5844278506        4.5534896904       10.7582162703
Mo            0.0000170699        7.2774749019       -9.1672481230    0   0   0
Mo            1.5756764447        6.3678236689       -3.0554877708    0   0   0
S             0.0000381981        7.2774979204       -4.6232454413    0   0   0
S             1.5756372420        6.3677884239       -7.6014065489    0   0   0
S             1.5756376957        6.3677895528      -10.7330757790    0   0   0
S             0.0000328088        7.2774946042       -1.4877307940    0   0   0
Mo            0.0000893310        7.2774561178        3.0566487113
Mo            1.5779684410        6.3665004824        9.1863768098
S             0.0009286396        7.2769992531        7.6154086962
S             1.5756203849        6.3678300579        4.6246324155
S             1.5757598235        6.3677535700        1.4888926444
S            -0.0016176348        7.2784759332       10.7544450321
Mo           -1.5756002725       10.0065304219       -9.1672481230    0   0   0
Mo            0.0000873425        9.0968676911       -3.0554912329    0   0   0
S            -1.5755883952       10.0065504530       -4.6232240150    0   0   0
S             0.0000198996        9.0968439439       -7.6014065489    0   0   0
S             0.0000203533        9.0968450728      -10.7330757790    0   0   0
S            -1.5755859047       10.0065492576       -1.4877362381    0   0   0
Mo           -1.5756204324       10.0065381793        3.0569116085
Mo            0.0019118989        9.0964547243        9.1822982905
S            -1.5753043961       10.0067016457        7.6149563522
S            -0.0001652826        9.0966392748        4.6248106460
S             0.0001394169        9.0969765129        1.4891164749
S            -1.5746899275       10.0070544593       10.7506967267
Mo            6.3024915177        1.8193638619       -9.1672481230    0   0   0
Mo            7.8781001445        0.9096521684       -3.0554919963    0   0   0
S             6.3025008696        1.8193826232       -4.6232480596    0   0   0
S             7.8781116898        0.9096773839       -7.6014065489    0   0   0
S             7.8781121435        0.9096785128      -10.7330757790    0   0   0
S             6.3025042007        1.8193849068       -1.4877147524    0   0   0
Mo            6.3024474601        1.8193579802        3.0572068790
Mo            7.8777035022        0.9094467887        9.1758451910
S             6.3014818134        1.8193082369        7.6089549920
S             7.8780400800        0.9096460638        4.6249923232
S             7.8781945197        0.9097433316        1.4894310656
S             6.3050591528        1.8194300268       10.7482302042
Mo            4.7268741753        4.5484193819       -9.1672481230    0   0   0
Mo            6.3024679138        3.6387501714       -3.0554895197    0   0   0
S             4.7268748770        4.5484386753       -4.6232519432    0   0   0
S             6.3024943474        3.6387329039       -7.6014065489    0   0   0
S             6.3024948011        3.6387340328      -10.7330757790    0   0   0
S             4.7268770533        4.5484432419       -1.4877137856    0   0   0
Mo            4.7267866536        4.5484985914        3.0569740239
Mo            6.3065118604        3.6364629782        9.1733222418
S             4.7255323735        4.5492513726        7.6138385350
S             6.3023828746        3.6388221540        4.6250374303
S             6.3026048392        3.6386816197        1.4893229191
S             4.7181807709        4.5534937880       10.7582373295
Mo            3.1512568329        7.2774749019       -9.1672481230    0   0   0
Mo            4.7268384135        6.3678043337       -3.0554959052    0   0   0
S             3.1512606125        7.2774972547       -4.6232589675    0   0   0
S             4.7268770050        6.3677884239       -7.6014065489    0   0   0
S             4.7268774587        6.3677895528      -10.7330757790    0   0   0
S             3.1512629079        7.2774963749       -1.4877081835    0   0   0
Mo            3.1512745784        7.2773720724        3.0569666510
Mo            4.7246348301        6.3664923550        9.1863780778
S             3.1513067148        7.2758957267        7.6138412479
S             4.7269167845        6.3678252739        4.6246427058
S             4.7267882933        6.3677395592        1.4888976855
S             3.1513101446        7.2674121336       10.7582294162
Mo            1.5756394905       10.0065304219       -9.1672481230    0   0   0
Mo            3.1512330605        9.0968514907       -3.0554878870    0   0   0
S             1.5756499830       10.0065443759       -4.6232632674    0   0   0
S             3.1512596626        9.0968439439       -7.6014065489    0   0   0
S             3.1512601163        9.0968450728      -10.7330757790    0   0   0
S             1.5756503041       10.0065459699       -1.4877044377    0   0   0
Mo            1.5755992866       10.0065114119        3.0572063695
Mo            3.1512993348        9.1014594805        9.1733215792
S             1.5750872955       10.0056858293        7.6089595211
S             3.1512665305        9.0967112453        4.6250367898
S             3.1512681394        9.0969863222        1.4893172566
S             1.5769768150       10.0087262325       10.7482249456
Mo            9.4537312807        1.8193638619       -9.1672481230    0   0   0
Mo           11.0293863460        0.9096952246       -3.0554894007    0   0   0
S             9.4537395970        1.8193770750       -4.6232328036    0   0   0
S            11.0293514528        0.9096773839       -7.6014065489    0   0   0
S            11.0293519066        0.9096785128      -10.7330757790    0   0   0
S             9.4537393632        1.8193794783       -1.4877366147    0   0   0
Mo            9.4537306798        1.8193768952        3.0573467884
Mo           11.0298269338        0.9094353667        9.1758429492
S             9.4537649318        1.8193849205        7.6074419387
S            11.0294141255        0.9096422213        4.6249986557
S            11.0292634617        0.9097364305        1.4894395511
S             9.4537642577        1.8193869295       10.7427645920
Mo            7.8781139383        4.5484193819       -9.1672481230    0   0   0
Mo            9.4537539161        3.6387607911       -3.0554933032    0   0   0
S             7.8781175448        4.5484378232       -4.6232366318    0   0   0
S             9.4537341104        3.6387329039       -7.6014065489    0   0   0
S             9.4537345641        3.6387340328      -10.7330757790    0   0   0
S             7.8781194018        4.5484411585       -1.4877377057    0   0   0
Mo            7.8781101066        4.5484921883        3.0572018678
Mo            9.4537591072        3.6392703846        9.1758450921
S             7.8776860090        4.5493953097        7.6089506462
S             9.4537232687        3.6388326001        4.6249875395
S             9.4537224757        3.6386454082        1.4894237189
S             7.8793706230        4.5462395996       10.7482359279
Mo            6.3024965959        7.2774749019       -9.1672481230    0   0   0
Mo            7.8781361655        6.3678242352       -3.0555014130    0   0   0
S             6.3024973331        7.2774953556       -4.6232392528    0   0   0
S             7.8781167680        6.3677884239       -7.6014065489    0   0   0
S             7.8781172217        6.3677895528      -10.7330757790    0   0   0
S             6.3024989866        7.2774929744       -1.4877349119    0   0   0
Mo            6.3024373614        7.2774499172        3.0566535762
Mo            7.8768572455        6.3664143590        9.1823010734
S             6.3016610839        7.2769905580        7.6153913338
S             7.8780136696        6.3680704323        4.6248160008
S             7.8781416813        6.3676497244        1.4891093548
S             6.3042114873        7.2784615173       10.7544642529
Mo            4.7268792535       10.0065304219       -9.1672481230    0   0   0
Mo            6.3025111524        9.0968738021       -3.0554915260    0   0   0
S             4.7268840634       10.0065452125       -4.6232380477    0   0   0
S             6.3024994256        9.0968439439       -7.6014065489    0   0   0
S             6.3024998793        9.0968450728      -10.7330757790    0   0   0
S             4.7268847312       10.0065459141       -1.4877283294    0   0   0
Mo            4.7269307424       10.0065044919        3.0572066688
Mo            6.3006834628        9.0964386759        9.1822976753
S             4.7275120252       10.0056710893        7.6089565297
S             6.3026941667        9.0966330707        4.6248113453
S             6.3023752457        9.0969493713        1.4891057835
S             4.7256252765       10.0087096844       10.7482248075
Au            3.1513278836        5.4580193960       12.7735753916
End final coordinates



     Writing all to output data dir ./outdir/pwscf.save/
 
     init_run     :    191.13s CPU    196.01s WALL (       1 calls)
     electrons    :  34767.19s CPU  35075.77s WALL (       2 calls)
     update_pot   :      5.54s CPU      5.63s WALL (       1 calls)
     forces       :    260.71s CPU    267.98s WALL (       2 calls)
     force_dftd3  :      1.52s CPU      1.62s WALL (       2 calls)

     Called by init_run:
     wfcinit      :    164.62s CPU    166.78s WALL (       1 calls)
     potinit      :      1.51s CPU      2.05s WALL (       1 calls)
     hinit0       :     16.36s CPU     16.40s WALL (       1 calls)

     Called by electrons:
     c_bands      :  32549.87s CPU  32726.60s WALL (      30 calls)
     sum_band     :   2027.23s CPU   2099.45s WALL (      30 calls)
     v_of_rho     :     15.20s CPU     15.49s WALL (      31 calls)
     newd         :    146.09s CPU    208.63s WALL (      31 calls)
     PAW_pot      :     25.32s CPU     25.34s WALL (      32 calls)
     mix_rho      :      4.45s CPU      4.47s WALL (      30 calls)
     energy_dftd3 :      0.74s CPU      0.74s WALL (       2 calls)

     Called by c_bands:
     init_us_2    :     73.21s CPU     73.48s WALL (     256 calls)
     init_us_2:cp :     73.21s CPU     73.48s WALL (     256 calls)
     cegterg      :  32299.17s CPU  32471.02s WALL (     165 calls)

     Called by *egterg:
     cdiaghg      :   1775.08s CPU   1781.00s WALL (    2434 calls)
     h_psi        :  16670.40s CPU  16727.10s WALL (    2465 calls)
     s_psi        :   3361.36s CPU   3375.48s WALL (    2465 calls)
     g_psi        :     33.86s CPU     33.89s WALL (    2296 calls)

     Called by h_psi:
     h_psi:calbec :   3489.22s CPU   3489.80s WALL (    2465 calls)
     vloc_psi     :   9758.87s CPU   9778.91s WALL (    2465 calls)
     add_vuspsi   :   3379.10s CPU   3393.32s WALL (    2465 calls)

     General routines
     calbec       :   4277.67s CPU   4278.36s WALL (    2621 calls)
     fft          :     15.04s CPU     15.33s WALL (     423 calls)
     ffts         :      0.78s CPU      0.79s WALL (      61 calls)
     fftw         :   7462.86s CPU   7476.42s WALL ( 1453916 calls)
     interpolate  :      1.60s CPU      1.61s WALL (      31 calls)
 
     Parallel routines
 
     PWSCF        :      9h47m CPU      9h54m WALL

 
   This run was terminated on:  10:28:36   8Nov2023            

=------------------------------------------------------------------------------=
   JOB DONE.
=------------------------------------------------------------------------------=
Application 11384922 resources: utime ~1271407s, stime ~11737s, Rss ~3551388, inblocks ~0, outblocks ~50474048
