
     Program PWSCF v.7.3 starts on 29Mar2024 at 15: 6:21 

     This program is part of the open-source Quantum ESPRESSO suite
     for quantum simulation of materials; please cite
         "P. Giannozzi et al., J. Phys.:Condens. Matter 21 395502 (2009);
         "P. Giannozzi et al., J. Phys.:Condens. Matter 29 465901 (2017);
         "P. Giannozzi et al., J. Chem. Phys. 152 154105 (2020);
          URL http://www.quantum-espresso.org", 
     in publications or presentations arising from this work. More details at
     http://www.quantum-espresso.org/quote

     Parallel version (MPI & OpenMP), running on      36 processor cores
     Number of MPI processes:                36
     Threads/MPI process:                     1

     MPI processes distributed on     1 nodes
     547251 MiB available memory on the printing compute node when the environment starts
 
     Waiting for input...
     Reading input from standard input
Warning: card &CELL ignored
Warning: card / ignored

     Current dimensions of program PWSCF are:
     Max number of different atomic species (ntypx) = 10
     Max number of k-points (npk) =  40000
     Max angular momentum in pseudopotentials (lmaxx) =  4
     file Mo.pbe-spn-kjpaw_psl.1.0.0.UPF: wavefunction(s)  4S 4D renormalized
     file S.pbe-n-kjpaw_psl.1.0.0.UPF: wavefunction(s)  3S 3P renormalized
     file Pd.pbe-spn-kjpaw_psl.1.0.0.UPF: wavefunction(s)  4S 5S 4D renormalized
     file Pt.pbe-spfn-kjpaw_psl.1.0.0.UPF: wavefunction(s)  5P 4F renormalized
 
     R & G space division:  proc/nbgrp/npool/nimage =      36
     Subspace diagonalization in iterative solution of the eigenvalue problem:
     one sub-group per band group will be used
     scalapack distributed-memory algorithm (size of sub-group:  6*  6 procs)

 
     Parallelization info
     --------------------
     sticks:   dense  smooth     PW     G-vecs:    dense   smooth      PW
     Min         586     335     89               165416    71459    9765
     Max         587     337     90               165425    71461    9778
     Sum       21109   12085   3205              5955087  2572543  351657
 
     Using Slab Decomposition
 


     bravais-lattice index     =            0
     lattice parameter (alat)  =      23.8395  a.u.
     unit-cell volume          =   28182.8498 (a.u.)^3
     number of atoms/cell      =          147
     number of atomic types    =            4
     number of electrons       =      1316.00
     number of Kohn-Sham states=          790
     kinetic-energy cutoff     =      77.0000  Ry
     charge density cutoff     =     539.0000  Ry
     scf convergence threshold =      1.0E-06
     mixing beta               =       0.2000
     number of iterations used =            8  plain     mixing
     energy convergence thresh.=      1.0E-04
     force convergence thresh. =      1.0E-03
     Exchange-correlation= SLA  PW   PBX  PBC
                           (   1   4   3   4   0   0   0)
     nstep                     =         1000


     Effective Screening Medium Method
     =================================
     Boundary Conditions: Vacuum-Slab-Vacuum
     total charge in unit cell        =   0.0000
     grid points for fit at edges     =        4 
 

     celldm(1)=  23.839504  celldm(2)=   0.000000  celldm(3)=   0.000000
     celldm(4)=   0.000000  celldm(5)=   0.000000  celldm(6)=   0.000000

     crystal axes: (cart. coord. in units of alat)
               a(1) = (   1.000000   0.000000   0.000000 )  
               a(2) = (  -0.500001   0.866026   0.000000 )  
               a(3) = (   0.000000   0.000000   2.401941 )  

     reciprocal axes: (cart. coord. in units 2 pi/alat)
               b(1) = (  1.000000  0.577351  0.000000 )  
               b(2) = (  0.000000  1.154700  0.000000 )  
               b(3) = (  0.000000  0.000000  0.416330 )  


     PseudoPot. # 1 for Mo read from file:
     ./pseudo/Mo.pbe-spn-kjpaw_psl.1.0.0.UPF
     MD5 check sum: 317bf72632116215fd98f72de1686f13
     Pseudo is Projector augmented-wave + core cor, Zval = 14.0
     Generated using 'atomic' code by A. Dal Corso  v.7.2
     Shape of augmentation charge: PSQ
     Using radial grid of 1229 points,  6 beta functions with: 
                l(1) =   0
                l(2) =   0
                l(3) =   1
                l(4) =   1
                l(5) =   2
                l(6) =   2
     Q(r) pseudized with 0 coefficients 


     PseudoPot. # 2 for S  read from file:
     ./pseudo/S.pbe-n-kjpaw_psl.1.0.0.UPF
     MD5 check sum: 8b7b5302570d38d5e87fed6a1065abda
     Pseudo is Projector augmented-wave + core cor, Zval =  6.0
     Generated using 'atomic' code by A. Dal Corso  v.7.2
     Shape of augmentation charge: PSQ
     Using radial grid of 1151 points,  6 beta functions with: 
                l(1) =   0
                l(2) =   0
                l(3) =   1
                l(4) =   1
                l(5) =   2
                l(6) =   2
     Q(r) pseudized with 0 coefficients 


     PseudoPot. # 3 for Pd read from file:
     ./pseudo/Pd.pbe-spn-kjpaw_psl.1.0.0.UPF
     MD5 check sum: a60571a671f2502b8a6a4569d20a6edb
     Pseudo is Projector augmented-wave + core cor, Zval = 18.0
     Generated using 'atomic' code by A. Dal Corso  v.7.2
     Shape of augmentation charge: PSQ
     Using radial grid of 1235 points,  6 beta functions with: 
                l(1) =   0
                l(2) =   0
                l(3) =   1
                l(4) =   1
                l(5) =   2
                l(6) =   2
     Q(r) pseudized with 0 coefficients 


     PseudoPot. # 4 for Pt read from file:
     ./pseudo/Pt.pbe-spfn-kjpaw_psl.1.0.0.UPF
     MD5 check sum: 620096ebf4e6ebacc94de60fd67efcb5
     Pseudo is Projector augmented-wave + core cor, Zval = 32.0
     Generated using 'atomic' code by A. Dal Corso  v.7.2
     Shape of augmentation charge: PSQ
     Using radial grid of 1277 points,  8 beta functions with: 
                l(1) =   0
                l(2) =   0
                l(3) =   1
                l(4) =   1
                l(5) =   2
                l(6) =   2
                l(7) =   3
                l(8) =   3
     Q(r) pseudized with 0 coefficients 


     atomic species   valence    mass     pseudopotential
     Mo               14.00    95.95000     Mo( 1.00)
     S                 6.00    32.06000     S ( 1.00)
     Pd               18.00   106.42000     Pd( 1.00)
     Pt               32.00   195.08400     Pt( 1.00)

     No symmetry found



   Cartesian axes

     site n.     atom                  positions (alat units)
         1        Mo     tau(   1) = (   0.1248625   0.2131281   0.4810783  )
         2        Mo     tau(   2) = (   0.1250004   0.0721694  -0.4825273  )
         3        Mo     tau(   3) = (  -0.0000005   0.1443526  -0.0000490  )
         4        S      tau(   4) = (   0.0000004   0.0000006  -0.6064556  )
         5        S      tau(   5) = (   0.1249809   0.0722325  -0.1242083  )
         6        S      tau(   6) = (  -0.0008091   0.1437924   0.3564499  )
         7        S      tau(   7) = (   0.0000004   0.0000005  -0.3584711  )
         8        S      tau(   8) = (   0.1250266   0.0721270   0.1240857  )
         9        S      tau(   9) = (  -0.0005942   0.1424836   0.6054838  )
        10        Mo     tau(  10) = (  -0.0011099   0.4328730   0.4866737  )
        11        Mo     tau(  11) = (   0.0000001   0.2886759  -0.4825273  )
        12        Mo     tau(  12) = (  -0.1249710   0.3608625  -0.0000153  )
        13        S      tau(  13) = (  -0.1249999   0.2165071  -0.6064556  )
        14        S      tau(  14) = (   0.0000009   0.2886909  -0.1241159  )
        15        S      tau(  15) = (  -0.1236884   0.3618446   0.3606188  )
        16        S      tau(  16) = (  -0.1249998   0.2165070  -0.3584711  )
        17        S      tau(  17) = (   0.0000530   0.2887092   0.1242638  )
        18        S      tau(  18) = (  -0.1316249   0.3573130   0.6109420  )
        19        Mo     tau(  19) = (  -0.1257401   0.6504248   0.4820927  )
        20        Mo     tau(  20) = (  -0.1250002   0.5051824  -0.4825273  )
        21        Mo     tau(  21) = (  -0.2499958   0.5773353  -0.0001714  )
        22        S      tau(  22) = (  -0.2500002   0.4330136  -0.6064556  )
        23        S      tau(  23) = (  -0.1249719   0.5051311  -0.1241932  )
        24        S      tau(  24) = (  -0.2500164   0.5770675   0.3576049  )
        25        S      tau(  25) = (  -0.2500001   0.4330135  -0.3584711  )
        26        S      tau(  26) = (  -0.1250100   0.5052346   0.1241515  )
        27        S      tau(  27) = (  -0.2503695   0.5776584   0.6061514  )
        28        Mo     tau(  28) = (   0.2502170  -0.0003953   0.4806411  )
        29        Mo     tau(  29) = (  -0.2500004   0.7216889  -0.4825273  )
        30        Mo     tau(  30) = (  -0.3749978   0.7938641  -0.0002041  )
        31        S      tau(  31) = (  -0.3750004   0.6495201  -0.6064556  )
        32        S      tau(  32) = (  -0.2499890   0.7216755  -0.1242803  )
        33        S      tau(  33) = (  -0.3749740   0.7932749   0.3566586  )
        34        S      tau(  34) = (  -0.3750004   0.6495200  -0.3584711  )
        35        S      tau(  35) = (  -0.2500089   0.7216778   0.1239952  )
        36        S      tau(  36) = (  -0.3749998   0.7939174   0.6051309  )
        37        Mo     tau(  37) = (   0.3753608   0.2157704   0.4822604  )
        38        Mo     tau(  38) = (   0.3750004   0.0721694  -0.4825273  )
        39        Mo     tau(  39) = (   0.2499960   0.1443611  -0.0001003  )
        40        S      tau(  40) = (   0.2500004   0.0000006  -0.6064556  )
        41        S      tau(  41) = (   0.3750017   0.0721909  -0.1242276  )
        42        S      tau(  42) = (   0.2507085   0.1439928   0.3565793  )
        43        S      tau(  43) = (   0.2500004   0.0000005  -0.3584711  )
        44        S      tau(  44) = (   0.3750105   0.0721153   0.1240138  )
        45        S      tau(  45) = (   0.2503040   0.1425185   0.6055897  )
        46        Mo     tau(  46) = (   0.2508295   0.4328457   0.4866827  )
        47        Mo     tau(  47) = (   0.2500001   0.2886759  -0.4825273  )
        48        Mo     tau(  48) = (   0.1249947   0.3608692  -0.0000343  )
        49        S      tau(  49) = (   0.1250001   0.2165071  -0.6064556  )
        50        S      tau(  50) = (   0.2499709   0.2887106  -0.1241515  )
        51        S      tau(  51) = (   0.1248475   0.3620695   0.3632119  )
        52        S      tau(  52) = (   0.1250002   0.2165070  -0.3584711  )
        53        S      tau(  53) = (   0.2499461   0.2887051   0.1242364  )
        54        S      tau(  54) = (   0.1248217   0.3502704   0.6102012  )
        55        Mo     tau(  55) = (   0.1249300   0.6515066   0.4828014  )
        56        Mo     tau(  56) = (   0.1249998   0.5051824  -0.4825273  )
        57        Mo     tau(  57) = (   0.0000129   0.5773133  -0.0000993  )
        58        S      tau(  58) = (  -0.0000002   0.4330136  -0.6064556  )
        59        S      tau(  59) = (   0.1250046   0.5051576  -0.1241791  )
        60        S      tau(  60) = (   0.0000991   0.5758547   0.3610070  )
        61        S      tau(  61) = (  -0.0000001   0.4330135  -0.3584711  )
        62        S      tau(  62) = (   0.1249978   0.5051967   0.1242137  )
        63        S      tau(  63) = (  -0.0004561   0.5855879   0.6099183  )
        64        Mo     tau(  64) = (   0.4999896   0.0002543   0.4809432  )
        65        Mo     tau(  65) = (  -0.0000004   0.7216889  -0.4825273  )
        66        Mo     tau(  66) = (  -0.1249822   0.7938260  -0.0001787  )
        67        S      tau(  67) = (  -0.1250004   0.6495201  -0.6064556  )
        68        S      tau(  68) = (   0.0000560   0.7216541  -0.1241922  )
        69        S      tau(  69) = (  -0.1247643   0.7934174   0.3566857  )
        70        S      tau(  70) = (  -0.1250004   0.6495200  -0.3584711  )
        71        S      tau(  71) = (  -0.0000442   0.7215876   0.1241439  )
        72        S      tau(  72) = (  -0.1253483   0.7949346   0.6057201  )
        73        Mo     tau(  73) = (   0.6249017   0.2165129   0.4812697  )
        74        Mo     tau(  74) = (   0.6250004   0.0721694  -0.4825273  )
        75        Mo     tau(  75) = (   0.4999952   0.1443533  -0.0001098  )
        76        S      tau(  76) = (   0.5000004   0.0000006  -0.6064556  )
        77        S      tau(  77) = (   0.6250318   0.0721540  -0.1241362  )
        78        S      tau(  78) = (   0.4996954   0.1447446   0.3570727  )
        79        S      tau(  79) = (   0.5000004   0.0000005  -0.3584711  )
        80        S      tau(  80) = (   0.6249569   0.0721720   0.1241430  )
        81        S      tau(  81) = (   0.5006050   0.1436236   0.6059489  )
        82        Mo     tau(  82) = (   0.5006857   0.4329470   0.4824369  )
        83        Mo     tau(  83) = (   0.5000001   0.2886759  -0.4825273  )
        84        Mo     tau(  84) = (   0.3749597   0.3608609  -0.0000517  )
        85        S      tau(  85) = (   0.3750001   0.2165071  -0.6064556  )
        86        S      tau(  86) = (   0.4999928   0.2887170  -0.1241435  )
        87        S      tau(  87) = (   0.3733222   0.3618437   0.3607838  )
        88        S      tau(  88) = (   0.3750002   0.2165070  -0.3584711  )
        89        S      tau(  89) = (   0.4999211   0.2887076   0.1241935  )
        90        S      tau(  90) = (   0.3816191   0.3573238   0.6109900  )
        91        Mo     tau(  91) = (   0.3756235   0.6503811   0.4821918  )
        92        Mo     tau(  92) = (   0.3749998   0.5051824  -0.4825273  )
        93        Mo     tau(  93) = (   0.2499864   0.5773188  -0.0000834  )
        94        S      tau(  94) = (   0.2499998   0.4330136  -0.6064556  )
        95        S      tau(  95) = (   0.3749642   0.5051523  -0.1241979  )
        96        S      tau(  96) = (   0.2498138   0.5757592   0.3610614  )
        97        S      tau(  97) = (   0.2499999   0.4330135  -0.3584711  )
        98        S      tau(  98) = (   0.3750061   0.5052047   0.1241511  )
        99        S      tau(  99) = (   0.2502814   0.5855194   0.6099661  )
       100        Mo     tau( 100) = (   0.7499287   0.0002139   0.4807633  )
       101        Mo     tau( 101) = (   0.2499996   0.7216889  -0.4825273  )
       102        Mo     tau( 102) = (   0.1249938   0.7938245  -0.0000338  )
       103        S      tau( 103) = (   0.1249996   0.6495201  -0.6064556  )
       104        S      tau( 104) = (   0.2499613   0.7216724  -0.1241590  )
       105        S      tau( 105) = (   0.1248898   0.7937393   0.3567607  )
       106        S      tau( 106) = (   0.1249996   0.6495200  -0.3584711  )
       107        S      tau( 107) = (   0.2500082   0.7215902   0.1241792  )
       108        S      tau( 108) = (   0.1250505   0.7963098   0.6059971  )
       109        Mo     tau( 109) = (  -0.1255078   0.2157673   0.4820262  )
       110        Mo     tau( 110) = (   0.8750004   0.0721694  -0.4825273  )
       111        Mo     tau( 111) = (   0.7499955   0.1443569  -0.0000274  )
       112        S      tau( 112) = (   0.7500004   0.0000006  -0.6064556  )
       113        S      tau( 113) = (   0.8749777   0.0721989  -0.1241465  )
       114        S      tau( 114) = (   0.7500467   0.1447298   0.3568874  )
       115        S      tau( 115) = (   0.7500004   0.0000005  -0.3584711  )
       116        S      tau( 116) = (   0.8749903   0.0721117   0.1240970  )
       117        S      tau( 117) = (   0.7493677   0.1435906   0.6057073  )
       118        Mo     tau( 118) = (  -0.2508787   0.4328922   0.4823938  )
       119        Mo     tau( 119) = (   0.7500001   0.2886759  -0.4825273  )
       120        Mo     tau( 120) = (   0.6249968   0.3608571  -0.0000279  )
       121        S      tau( 121) = (   0.6250001   0.2165071  -0.6064556  )
       122        S      tau( 122) = (   0.7500208   0.2886896  -0.1240956  )
       123        S      tau( 123) = (   0.6248005   0.3612471   0.3574315  )
       124        S      tau( 124) = (   0.6250002   0.2165070  -0.3584711  )
       125        S      tau( 125) = (   0.7500493   0.2887427   0.1242427  )
       126        S      tau( 126) = (   0.6249033   0.3601959   0.6065890  )
       127        Mo     tau( 127) = (  -0.3750379   0.6494479   0.4815491  )
       128        Mo     tau( 128) = (   0.6249998   0.5051824  -0.4825273  )
       129        Mo     tau( 129) = (   0.4999893   0.5773309  -0.0001634  )
       130        S      tau( 130) = (   0.4999998   0.4330136  -0.6064556  )
       131        S      tau( 131) = (   0.6249961   0.5051217  -0.1242214  )
       132        S      tau( 132) = (   0.4998255   0.5770883   0.3576879  )
       133        S      tau( 133) = (   0.4999999   0.4330135  -0.3584711  )
       134        S      tau( 134) = (   0.6249981   0.5052504   0.1240736  )
       135        S      tau( 135) = (   0.5003122   0.5776902   0.6062470  )
       136        Mo     tau( 136) = (  -0.0002805  -0.0004824   0.4806096  )
       137        Mo     tau( 137) = (   0.4999996   0.7216889  -0.4825273  )
       138        Mo     tau( 138) = (   0.3749756   0.7938309  -0.0001159  )
       139        S      tau( 139) = (   0.3749996   0.6495201  -0.6064556  )
       140        S      tau( 140) = (   0.4999628   0.7216864  -0.1242513  )
       141        S      tau( 141) = (   0.3747357   0.7932164   0.3566619  )
       142        S      tau( 142) = (   0.3749996   0.6495200  -0.3584711  )
       143        S      tau( 143) = (   0.5000348   0.7216656   0.1240143  )
       144        S      tau( 144) = (   0.3751928   0.7949639   0.6056664  )
       145        Pd     tau( 145) = (   0.2448410   0.4348549   0.7173028  )
       146        Pd     tau( 146) = (   0.0055759   0.4353384   0.7172832  )
       147        Pt     tau( 147) = (   0.1252049   0.4351058   0.8758397  )

     --------------------------------------------
     DFT-D3 Dispersion Correction (3-body terms):
     --------------------------------------------
       Reference C6 values for interpolation: 

         atom   Coordination number   C6
         S          0.000           268.01
         S          0.995           261.99
         S          1.990           251.62
         Mo         0.000          1691.79
         Mo         1.942          1004.01
         Mo        11.056           674.22
         Pd         0.000          1217.01
         Pd         1.863           573.90
         Pd         5.710           531.75
         Pt         0.000           782.29
         Pt         1.919           692.72
         Pt         6.667           673.75

       Values used:

         atom   Coordination number  R0_AB[au]  C6      C8
         Mo        10.164            3.547    674.22  77634.20
         Mo        10.189            3.547    674.22  77634.20
         Mo        10.201            3.547    674.22  77634.20
         S          3.753            3.128    251.62  12327.25
         S          3.858            3.128    251.62  12327.25
         S          3.843            3.128    251.62  12327.25
         S          3.859            3.128    251.62  12327.25
         S          3.863            3.128    251.62  12327.25
         S          3.814            3.128    251.62  12327.25
         Mo        10.770            3.547    674.22  77634.20
         Mo        10.189            3.547    674.22  77634.20
         Mo        10.202            3.547    674.22  77634.20
         S          3.753            3.128    251.62  12327.25
         S          3.859            3.128    251.62  12327.25
         S          3.853            3.128    251.62  12327.25
         S          3.858            3.128    251.62  12327.25
         S          3.851            3.128    251.62  12327.25
         S          4.640            3.128    251.62  12327.25
         Mo        10.197            3.547    674.22  77634.20
         Mo        10.189            3.547    674.22  77634.20
         Mo        10.201            3.547    674.22  77634.20
         S          3.753            3.128    251.62  12327.25
         S          3.859            3.128    251.62  12327.25
         S          3.862            3.128    251.62  12327.25
         S          3.859            3.128    251.62  12327.25
         S          3.855            3.128    251.62  12327.25
         S          3.758            3.128    251.62  12327.25
         Mo        10.248            3.547    674.22  77634.20
         Mo        10.189            3.547    674.22  77634.20
         Mo        10.200            3.547    674.22  77634.20
         S          3.753            3.128    251.62  12327.25
         S          3.858            3.128    251.62  12327.25
         S          3.860            3.128    251.62  12327.25
         S          3.859            3.128    251.62  12327.25
         S          3.864            3.128    251.62  12327.25
         S          3.776            3.128    251.62  12327.25
         Mo        10.201            3.547    674.22  77634.20
         Mo        10.189            3.547    674.22  77634.20
         Mo        10.201            3.547    674.22  77634.20
         S          3.753            3.128    251.62  12327.25
         S          3.858            3.128    251.62  12327.25
         S          3.845            3.128    251.62  12327.25
         S          3.859            3.128    251.62  12327.25
         S          3.864            3.128    251.62  12327.25
         S          3.812            3.128    251.62  12327.25
         Mo        10.769            3.547    674.22  77634.20
         Mo        10.189            3.547    674.22  77634.20
         Mo        10.203            3.547    674.22  77634.20
         S          3.753            3.128    251.62  12327.25
         S          3.859            3.128    251.62  12327.25
         S          3.876            3.128    251.62  12327.25
         S          3.859            3.128    251.62  12327.25
         S          3.852            3.128    251.62  12327.25
         S          5.648            3.128    251.62  12327.25
         Mo        10.161            3.547    674.22  77634.20
         Mo        10.189            3.547    674.22  77634.20
         Mo        10.203            3.547    674.22  77634.20
         S          3.753            3.128    251.62  12327.25
         S          3.859            3.128    251.62  12327.25
         S          3.866            3.128    251.62  12327.25
         S          3.859            3.128    251.62  12327.25
         S          3.849            3.128    251.62  12327.25
         S          4.666            3.128    251.62  12327.25
         Mo        10.243            3.547    674.22  77634.20
         Mo        10.189            3.547    674.22  77634.20
         Mo        10.200            3.547    674.22  77634.20
         S          3.753            3.128    251.62  12327.25
         S          3.858            3.128    251.62  12327.25
         S          3.855            3.128    251.62  12327.25
         S          3.859            3.128    251.62  12327.25
         S          3.859            3.128    251.62  12327.25
         S          3.803            3.128    251.62  12327.25
         Mo        10.229            3.547    674.22  77634.20
         Mo        10.189            3.547    674.22  77634.20
         Mo        10.200            3.547    674.22  77634.20
         S          3.753            3.128    251.62  12327.25
         S          3.858            3.128    251.62  12327.25
         S          3.852            3.128    251.62  12327.25
         S          3.859            3.128    251.62  12327.25
         S          3.861            3.128    251.62  12327.25
         S          3.807            3.128    251.62  12327.25
         Mo        10.207            3.547    674.22  77634.20
         Mo        10.189            3.547    674.22  77634.20
         Mo        10.202            3.547    674.22  77634.20
         S          3.753            3.128    251.62  12327.25
         S          3.858            3.128    251.62  12327.25
         S          3.856            3.128    251.62  12327.25
         S          3.859            3.128    251.62  12327.25
         S          3.856            3.128    251.62  12327.25
         S          4.643            3.128    251.62  12327.25
         Mo        10.197            3.547    674.22  77634.20
         Mo        10.189            3.547    674.22  77634.20
         Mo        10.203            3.547    674.22  77634.20
         S          3.753            3.128    251.62  12327.25
         S          3.859            3.128    251.62  12327.25
         S          3.867            3.128    251.62  12327.25
         S          3.859            3.128    251.62  12327.25
         S          3.855            3.128    251.62  12327.25
         S          4.664            3.128    251.62  12327.25
         Mo        10.241            3.547    674.22  77634.20
         Mo        10.189            3.547    674.22  77634.20
         Mo        10.201            3.547    674.22  77634.20
         S          3.753            3.128    251.62  12327.25
         S          3.859            3.128    251.62  12327.25
         S          3.844            3.128    251.62  12327.25
         S          3.859            3.128    251.62  12327.25
         S          3.858            3.128    251.62  12327.25
         S          3.832            3.128    251.62  12327.25
         Mo        10.201            3.547    674.22  77634.20
         Mo        10.189            3.547    674.22  77634.20
         Mo        10.200            3.547    674.22  77634.20
         S          3.753            3.128    251.62  12327.25
         S          3.859            3.128    251.62  12327.25
         S          3.851            3.128    251.62  12327.25
         S          3.859            3.128    251.62  12327.25
         S          3.863            3.128    251.62  12327.25
         S          3.810            3.128    251.62  12327.25
         Mo        10.207            3.547    674.21  77634.20
         Mo        10.189            3.547    674.22  77634.20
         Mo        10.201            3.547    674.22  77634.20
         S          3.753            3.128    251.62  12327.25
         S          3.859            3.128    251.62  12327.25
         S          3.847            3.128    251.62  12327.25
         S          3.858            3.128    251.62  12327.25
         S          3.856            3.128    251.62  12327.25
         S          3.821            3.128    251.62  12327.25
         Mo        10.224            3.547    674.22  77634.20
         Mo        10.189            3.547    674.22  77634.20
         Mo        10.201            3.547    674.22  77634.20
         S          3.753            3.128    251.62  12327.25
         S          3.859            3.128    251.62  12327.25
         S          3.863            3.128    251.62  12327.25
         S          3.859            3.128    251.62  12327.25
         S          3.861            3.128    251.62  12327.25
         S          3.758            3.128    251.62  12327.25
         Mo        10.248            3.547    674.22  77634.20
         Mo        10.189            3.547    674.22  77634.20
         Mo        10.200            3.547    674.22  77634.20
         S          3.753            3.128    251.62  12327.25
         S          3.858            3.128    251.62  12327.25
         S          3.854            3.128    251.62  12327.25
         S          3.859            3.128    251.62  12327.25
         S          3.864            3.128    251.62  12327.25
         S          3.804            3.128    251.62  12327.25
         Pd         4.974            3.168    531.75  48720.73
         Pd         4.973            3.168    531.75  48720.73
         Pt         1.955            3.168    692.72  72035.25

         Molecular C6 ( Ry / a.u.^6 ) =   8063085.37


     number of k points=     4  Gaussian smearing, width (Ry)=  0.0100
                       cart. coord. in units 2pi/alat
        k(    1) = (   0.0000000   0.0000000   0.0000000), wk =   0.5000000
        k(    2) = (   0.0000000  -0.5773499   0.0000000), wk =   0.5000000
        k(    3) = (  -0.5000000  -0.2886755   0.0000000), wk =   0.5000000
        k(    4) = (  -0.5000000  -0.8660254   0.0000000), wk =   0.5000000

     Dense  grid:  5955087 G-vectors     FFT dimensions: ( 180, 180, 432)

     Smooth grid:  2572543 G-vectors     FFT dimensions: ( 135, 135, 320)

     Estimated max dynamical RAM per process >       3.08 GB

     Estimated total dynamical RAM >     110.88 GB

     Initial potential from superposition of free atoms

     starting charge    1315.9537, renormalised to    1316.0000

     negative rho (up, down):  9.394E-04 0.000E+00
     Starting wfcs are  901 randomized atomic wfcs
     Checking if some PAW data can be deallocated... 

     total cpu time spent up to now is      100.3 secs

     Self-consistent Calculation

     iteration #  1     ecut=    77.00 Ry     beta= 0.20
     Davidson diagonalization with overlap
     ethr =  1.00E-02,  avg # of iterations =  2.0

     Threshold (ethr) on eigenvalues was too large:
     Diagonalizing with lowered threshold

     Davidson diagonalization with overlap
     ethr =  2.56E-04,  avg # of iterations = 15.5

     negative rho (up, down):  2.882E-04 0.000E+00

     total cpu time spent up to now is     1023.1 secs

     total energy              =  -26543.34842119 Ry
     estimated scf accuracy    <       5.05320133 Ry

     iteration #  2     ecut=    77.00 Ry     beta= 0.20
     Davidson diagonalization with overlap
     ethr =  3.84E-04,  avg # of iterations =  8.0

     negative rho (up, down):  2.760E-04 0.000E+00

     total cpu time spent up to now is     1261.3 secs

     total energy              =  -26540.45428190 Ry
     estimated scf accuracy    <      59.71521616 Ry

     iteration #  3     ecut=    77.00 Ry     beta= 0.20
     Davidson diagonalization with overlap
     ethr =  3.84E-04,  avg # of iterations =  7.2

     negative rho (up, down):  2.202E-04 0.000E+00

     total cpu time spent up to now is     1495.3 secs

     total energy              =  -26542.67918566 Ry
     estimated scf accuracy    <      12.72269645 Ry

     iteration #  4     ecut=    77.00 Ry     beta= 0.20
     Davidson diagonalization with overlap
     ethr =  3.84E-04,  avg # of iterations =  1.0

     negative rho (up, down):  5.652E-05 0.000E+00

     total cpu time spent up to now is     1696.8 secs

     total energy              =  -26543.12654534 Ry
     estimated scf accuracy    <       2.34737156 Ry

     iteration #  5     ecut=    77.00 Ry     beta= 0.20
     Davidson diagonalization with overlap
     ethr =  1.78E-04,  avg # of iterations = 10.2

     negative rho (up, down):  2.768E-05 0.000E+00

     total cpu time spent up to now is     1939.3 secs

     total energy              =  -26542.99229032 Ry
     estimated scf accuracy    <       1.26256071 Ry

     iteration #  6     ecut=    77.00 Ry     beta= 0.20
     Davidson diagonalization with overlap
     c_bands:  1 eigenvalues not converged
     ethr =  9.59E-05,  avg # of iterations = 17.0

     negative rho (up, down):  3.306E-05 0.000E+00

     total cpu time spent up to now is     2343.0 secs

     total energy              =  -26543.49102990 Ry
     estimated scf accuracy    <       0.70004039 Ry

     iteration #  7     ecut=    77.00 Ry     beta= 0.20
     Davidson diagonalization with overlap
     ethr =  5.32E-05,  avg # of iterations =  9.2

     negative rho (up, down):  4.163E-05 0.000E+00

     total cpu time spent up to now is     2615.8 secs

     total energy              =  -26543.56692896 Ry
     estimated scf accuracy    <       0.36436859 Ry

     iteration #  8     ecut=    77.00 Ry     beta= 0.20
     Davidson diagonalization with overlap
     ethr =  2.77E-05,  avg # of iterations = 13.8

     negative rho (up, down):  4.784E-05 0.000E+00

     total cpu time spent up to now is     2987.3 secs

     total energy              =  -26543.71230872 Ry
     estimated scf accuracy    <       0.35375311 Ry

     iteration #  9     ecut=    77.00 Ry     beta= 0.20
     Davidson diagonalization with overlap
     ethr =  2.69E-05,  avg # of iterations =  2.0

     negative rho (up, down):  6.307E-05 0.000E+00

     total cpu time spent up to now is     3207.2 secs

     total energy              =  -26543.71182662 Ry
     estimated scf accuracy    <       0.35079930 Ry

     iteration # 10     ecut=    77.00 Ry     beta= 0.20
     Davidson diagonalization with overlap
     ethr =  2.67E-05,  avg # of iterations =  1.0

     negative rho (up, down):  2.526E-03 0.000E+00

     total cpu time spent up to now is     3408.9 secs

     total energy              =  -26543.67236804 Ry
     estimated scf accuracy    <       0.32866992 Ry

     iteration # 11     ecut=    77.00 Ry     beta= 0.20
     Davidson diagonalization with overlap
     c_bands:  4 eigenvalues not converged
     ethr =  2.50E-05,  avg # of iterations = 17.2

     negative rho (up, down):  1.620E-03 0.000E+00

     total cpu time spent up to now is     3877.4 secs

     total energy              =  -26543.79827862 Ry
     estimated scf accuracy    <       0.74573057 Ry

     iteration # 12     ecut=    77.00 Ry     beta= 0.20
     Davidson diagonalization with overlap
     c_bands:  4 eigenvalues not converged
     ethr =  2.50E-05,  avg # of iterations =  5.8

     negative rho (up, down):  5.928E-04 0.000E+00

     total cpu time spent up to now is     4095.8 secs

     total energy              =  -26543.62553705 Ry
     estimated scf accuracy    <       0.31404945 Ry

     iteration # 13     ecut=    77.00 Ry     beta= 0.20
     Davidson diagonalization with overlap
     ethr =  2.39E-05,  avg # of iterations =  9.0

     negative rho (up, down):  4.390E-04 0.000E+00

     total cpu time spent up to now is     4341.5 secs

     total energy              =  -26543.64797726 Ry
     estimated scf accuracy    <       0.03601456 Ry

     iteration # 14     ecut=    77.00 Ry     beta= 0.20
     Davidson diagonalization with overlap
     c_bands:  3 eigenvalues not converged
     c_bands:  2 eigenvalues not converged
     c_bands:  1 eigenvalues not converged
     ethr =  2.74E-06,  avg # of iterations = 50.5

     negative rho (up, down):  7.158E-04 0.000E+00

     total cpu time spent up to now is     5818.6 secs

     total energy              =  -26543.72323744 Ry
     estimated scf accuracy    <       0.03689434 Ry

     iteration # 15     ecut=    77.00 Ry     beta= 0.20
     Davidson diagonalization with overlap
     c_bands:  1 eigenvalues not converged
     ethr =  2.74E-06,  avg # of iterations =  6.5

     negative rho (up, down):  8.702E-04 0.000E+00

     total cpu time spent up to now is     6051.4 secs

     total energy              =  -26543.72342662 Ry
     estimated scf accuracy    <       0.00579548 Ry

     iteration # 16     ecut=    77.00 Ry     beta= 0.20
     Davidson diagonalization with overlap
     c_bands:  1 eigenvalues not converged
     ethr =  4.40E-07,  avg # of iterations = 16.2

     negative rho (up, down):  7.640E-04 0.000E+00

     total cpu time spent up to now is     6596.1 secs

     total energy              =  -26543.73087028 Ry
     estimated scf accuracy    <       0.00527524 Ry

     iteration # 17     ecut=    77.00 Ry     beta= 0.20
     Davidson diagonalization with overlap
     ethr =  4.01E-07,  avg # of iterations =  3.2

     negative rho (up, down):  7.509E-04 0.000E+00

     total cpu time spent up to now is     6819.8 secs

     total energy              =  -26543.73087112 Ry
     estimated scf accuracy    <       0.00116859 Ry

     iteration # 18     ecut=    77.00 Ry     beta= 0.20
     Davidson diagonalization with overlap
     c_bands:  1 eigenvalues not converged
     ethr =  8.88E-08,  avg # of iterations = 17.8

     negative rho (up, down):  7.974E-04 0.000E+00

     total cpu time spent up to now is     7510.4 secs

     total energy              =  -26543.73242899 Ry
     estimated scf accuracy    <       0.00081186 Ry

     iteration # 19     ecut=    77.00 Ry     beta= 0.20
     Davidson diagonalization with overlap
     ethr =  6.17E-08,  avg # of iterations =  3.5

     negative rho (up, down):  9.232E-04 0.000E+00

     total cpu time spent up to now is     7736.2 secs

     total energy              =  -26543.73224438 Ry
     estimated scf accuracy    <       0.00045140 Ry

     iteration # 20     ecut=    77.00 Ry     beta= 0.20
     Davidson diagonalization with overlap
     c_bands:  1 eigenvalues not converged
     c_bands:  1 eigenvalues not converged
     ethr =  3.43E-08,  avg # of iterations = 26.8

     negative rho (up, down):  8.987E-04 0.000E+00

     total cpu time spent up to now is     8404.1 secs

     total energy              =  -26543.73261579 Ry
     estimated scf accuracy    <       0.00071584 Ry

     iteration # 21     ecut=    77.00 Ry     beta= 0.20
     Davidson diagonalization with overlap
     c_bands:  1 eigenvalues not converged
     c_bands:  1 eigenvalues not converged
     ethr =  3.43E-08,  avg # of iterations = 10.5

     negative rho (up, down):  9.029E-04 0.000E+00

     total cpu time spent up to now is     8630.8 secs

     total energy              =  -26543.73260939 Ry
     estimated scf accuracy    <       0.00035173 Ry

     iteration # 22     ecut=    77.00 Ry     beta= 0.20
     Davidson diagonalization with overlap
     ethr =  2.67E-08,  avg # of iterations =  1.2

     negative rho (up, down):  8.862E-04 0.000E+00

     total cpu time spent up to now is     8836.4 secs

     total energy              =  -26543.73245360 Ry
     estimated scf accuracy    <       0.00031042 Ry

     iteration # 23     ecut=    77.00 Ry     beta= 0.20
     Davidson diagonalization with overlap
     ethr =  2.36E-08,  avg # of iterations =  6.0

     negative rho (up, down):  8.998E-04 0.000E+00

     total cpu time spent up to now is     9150.0 secs

     total energy              =  -26543.73254848 Ry
     estimated scf accuracy    <       0.00002416 Ry

     iteration # 24     ecut=    77.00 Ry     beta= 0.20
     Davidson diagonalization with overlap
     c_bands:  5 eigenvalues not converged
     c_bands:  2 eigenvalues not converged
     ethr =  1.84E-09,  avg # of iterations = 20.5

     negative rho (up, down):  9.050E-04 0.000E+00

     total cpu time spent up to now is    10048.8 secs

     total energy              =  -26543.73261520 Ry
     estimated scf accuracy    <       0.00001362 Ry

     iteration # 25     ecut=    77.00 Ry     beta= 0.20
     Davidson diagonalization with overlap
     ethr =  1.03E-09,  avg # of iterations = 12.8

     negative rho (up, down):  9.035E-04 0.000E+00

     total cpu time spent up to now is    10334.3 secs

     total energy              =  -26543.73262030 Ry
     estimated scf accuracy    <       0.00000227 Ry

     iteration # 26     ecut=    77.00 Ry     beta= 0.20
     Davidson diagonalization with overlap
     c_bands:  1 eigenvalues not converged
     c_bands:  1 eigenvalues not converged
     ethr =  1.72E-10,  avg # of iterations = 17.8

     negative rho (up, down):  9.016E-04 0.000E+00

     total cpu time spent up to now is    11067.7 secs

     total energy              =  -26543.73262748 Ry
     estimated scf accuracy    <       0.00000596 Ry

     iteration # 27     ecut=    77.00 Ry     beta= 0.20
     Davidson diagonalization with overlap
     ethr =  1.72E-10,  avg # of iterations =  9.5

     negative rho (up, down):  9.030E-04 0.000E+00

     total cpu time spent up to now is    11411.1 secs

     total energy              =  -26543.73262467 Ry
     estimated scf accuracy    <       0.00001070 Ry

     iteration # 28     ecut=    77.00 Ry     beta= 0.20
     Davidson diagonalization with overlap
     ethr =  1.72E-10,  avg # of iterations =  5.8

     negative rho (up, down):  9.059E-04 0.000E+00

     total cpu time spent up to now is    11639.4 secs

     total energy              =  -26543.73261996 Ry
     estimated scf accuracy    <       0.00000604 Ry

     iteration # 29     ecut=    77.00 Ry     beta= 0.20
     Davidson diagonalization with overlap
     ethr =  1.72E-10,  avg # of iterations = 10.8

     negative rho (up, down):  9.052E-04 0.000E+00

     total cpu time spent up to now is    12074.4 secs

     End of self-consistent calculation

          k = 0.0000 0.0000 0.0000 (321495 PWs)   bands (ev):

  -101.2642 -89.4279 -89.4229 -69.6849 -69.6819 -69.6275 -69.6229 -69.6024
   -69.6009 -69.5976 -66.8765 -66.8555 -66.8555 -66.8555 -66.8554 -66.8554
   -66.8554 -66.8343 -66.8343 -66.8343 -66.8343 -66.8342 -66.8342 -66.8342
   -66.8342 -66.8342 -66.8106 -66.7901 -66.7899 -66.7898 -66.7892 -66.7891
   -66.7891 -66.7690 -66.7689 -66.7687 -66.7687 -66.7686 -66.7683 -66.7678
   -66.7678 -66.7672 -66.7482 -66.7331 -66.7230 -66.7230 -66.7176 -66.7144
   -66.7132 -66.7080 -66.7035 -66.7035 -66.7015 -66.6881 -66.6851 -66.6823
   -66.6779 -66.6678 -55.7708 -55.5360 -55.2651 -55.2395 -55.2370 -55.2101
   -55.1791 -55.0159 -55.0024 -41.2030 -41.2030 -41.2030 -41.1361 -41.1359
   -41.1357 -41.1282 -41.1282 -41.1282 -41.1282 -41.1282 -41.1282 -41.0645
   -41.0615 -41.0614 -41.0613 -41.0611 -41.0610 -41.0609 -41.0608 -41.0599
   -41.0367 -41.0026 -41.0026 -41.0026 -41.0026 -41.0026 -41.0026 -40.9952
   -40.9952 -40.9952 -40.9952 -40.9952 -40.9952 -40.9923 -40.9920 -40.9864
   -40.9812 -40.9759 -40.9722 -40.9712 -40.9678 -40.9678 -40.9678 -40.9678
   -40.9678 -40.9678 -40.9536 -40.9536 -40.9535 -40.9535 -40.9535 -40.9535
   -40.9535 -40.9535 -40.9535 -40.9360 -40.9360 -40.9359 -40.9355 -40.9355
   -40.9355 -40.9304 -40.9302 -40.9301 -40.9295 -40.9295 -40.9294 -40.9284
   -40.9012 -40.9012 -40.9011 -40.9007 -40.9007 -40.9007 -40.8968 -40.8937
   -40.8900 -40.8900 -40.8900 -40.8888 -40.8887 -40.8886 -40.8885 -40.8885
   -40.8881 -40.8878 -40.8878 -40.8877 -40.8871 -40.8709 -40.8672 -40.8665
   -40.8655 -40.8604 -40.8573 -40.8566 -40.8547 -40.8461 -40.8432 -40.8432
   -40.8432 -40.8432 -40.8431 -40.8431 -40.8429 -40.8410 -40.8322 -40.8321
   -40.8303 -40.8256 -40.8233 -40.8232 -40.8231 -40.8231 -40.8211 -40.8206
   -40.8178 -40.8148 -40.8117 -40.8107 -40.8094 -40.8089 -40.7959 -40.7959
   -40.7769 -40.7767 -40.7766 -40.7762 -40.7761 -40.7761 -40.7511 -40.7445
   -40.7435 -40.7292 -40.7292 -40.7045 -40.7025 -40.6992 -40.6967 -40.6906
   -40.6852 -40.6487 -40.6438 -20.3171 -20.2394 -20.1068 -19.6494 -19.4504
   -19.4484 -19.4432 -19.4431 -19.4418 -19.4338 -19.3892 -19.3827 -19.3412
   -19.3389 -19.3276 -19.2877 -19.2628 -19.2614 -19.2280 -19.2231 -19.1989
   -19.0645 -18.9230 -18.8379 -18.7095 -18.6902 -18.6814 -18.6632 -18.6498
   -18.6442 -18.6168 -18.5617 -18.5574 -18.5493 -18.5221 -18.4904 -18.4568
   -18.4364 -18.4022 -18.3993 -18.3885 -18.3507 -18.3388 -18.3380 -18.3367
   -18.3366 -18.3360 -18.3359 -18.3334 -18.3327 -18.2960 -18.2960 -18.2960
   -18.2641 -18.2635 -18.2582 -18.2553 -18.2515 -18.2492 -18.2366 -18.2242
   -18.2241 -18.2168 -18.1930 -18.1722 -18.1666 -18.1585 -18.1579 -18.1524
   -18.1420 -18.1367 -18.1358 -18.1250 -18.1133 -18.1107 -18.1075 -18.1066
   -18.1040 -18.0861 -18.0772 -18.0732 -18.0600 -18.0526 -18.0415 -18.0406
   -18.0347 -18.0340 -18.0157 -18.0099 -18.0046 -17.9871 -17.9705 -17.9658
   -17.9564 -17.9527 -17.9493 -12.1521 -12.1079 -12.0287 -11.9649 -11.9493
   -11.9483 -11.9319 -11.8660 -11.8646 -11.8538 -11.8135 -11.5639 -11.4614
   -11.4357 -11.4136 -11.4033 -11.4005 -11.3956 -11.3804 -11.3669 -11.3456
   -11.3288 -11.3251 -11.3246 -11.3189 -11.3149 -11.3070 -11.2582 -11.2373
   -11.2214 -11.2031 -11.1848 -11.1728 -11.1726 -11.1661 -11.1594 -11.1357
   -11.1180 -11.1131 -11.1103 -11.1077 -11.1043 -11.0708 -11.0697 -11.0592
   -11.0364 -11.0332 -11.0302 -11.0269 -11.0268 -11.0254 -11.0210 -11.0154
   -11.0081 -10.9994 -10.9980 -10.9955 -10.9836 -10.9806 -10.9800 -10.9774
   -10.9711 -10.9707 -10.9596 -10.9216 -10.9213 -10.9055 -10.8851 -10.8731
   -10.8421 -10.8201 -10.8181 -10.8012 -10.7930 -10.7882 -10.6586 -10.4714
   -10.3629 -10.2449 -10.2445 -10.2419 -10.2063 -10.0958 -10.0888 -10.0787
   -10.0393  -9.9824  -9.9773  -9.9731  -9.9700  -9.9652  -9.9499  -9.9321
    -9.9247  -9.9021  -9.8922  -9.8869  -9.8790  -9.8758  -9.8604  -9.8456
    -9.8251  -9.8184  -9.8157  -9.8125  -9.8112  -9.8015  -9.7797  -9.7724
    -9.7717  -9.7712  -9.7698  -9.7671  -9.7663  -9.7613  -9.7431  -9.7273
    -9.7233  -9.7093  -9.7086  -9.6631  -9.6514  -9.6352  -9.6324  -9.6293
    -9.6237  -9.5959  -9.5581  -9.5459  -9.5329  -9.5306  -9.5187  -9.5078
    -9.4939  -9.4931  -9.4520  -9.4396  -9.4174  -9.4062  -9.3960  -9.3878
    -9.3867  -9.3795  -9.3712  -9.3333  -9.3048  -9.2830  -9.2443  -9.2300
    -9.2154  -9.2147  -9.2147  -9.2125  -9.2113  -9.2071  -9.1977  -9.1610
    -9.1385  -9.1370  -9.1369  -9.1289  -9.0828  -9.0726  -9.0550  -9.0458
    -9.0160  -9.0095  -9.0069  -8.9948  -8.9914  -8.9907  -8.9873  -8.9825
    -8.9674  -8.9503  -8.9497  -8.9413  -8.9389  -8.9192  -8.9171  -8.9119
    -8.8951  -8.8946  -8.8649  -8.6863  -8.6776  -8.6259  -8.6259  -8.5852
    -8.5536  -8.5535  -8.5414  -8.5363  -8.5139  -8.5137  -8.5136  -8.5136
    -8.5135  -8.5133  -8.4840  -8.4734  -8.4489  -8.4420  -8.4399  -8.4378
    -8.4368  -8.4363  -8.4170  -8.3817  -8.3758  -8.3537  -8.2340  -8.1981
    -8.1557  -8.1227  -8.1093  -8.1086  -8.0098  -7.9056  -7.9002  -7.8911
    -7.8548  -7.7808  -7.7793  -7.7783  -7.7782  -7.7782  -7.7780  -7.7696
    -7.7669  -7.7324  -7.7322  -7.7316  -7.7316  -7.7314  -7.7313  -7.7118
    -7.7076  -7.7073  -7.7031  -7.7011  -7.6971  -7.6953  -7.6916  -7.6755
    -7.6648  -7.6629  -7.6613  -7.6578  -7.6574  -7.6527  -7.6504  -7.6389
    -7.6348  -7.6157  -7.6138  -7.6117  -7.6115  -7.6096  -7.5924  -7.5780
    -7.5615  -7.5303  -7.4970  -7.4970  -7.4889  -7.4849  -7.4690  -7.4316
    -7.4273  -7.4243  -7.3989  -7.3790  -7.3722  -7.3507  -7.3115  -7.2530
    -7.2263  -7.2123  -7.1224  -7.0989  -7.0787  -7.0569  -7.0314  -7.0100
    -7.0018  -6.9988  -6.9954  -6.9593  -6.9321  -6.8938  -6.8916  -6.8628
    -6.8315  -6.8272  -6.8147  -6.8101  -6.8089  -6.8050  -6.8001  -6.7853
    -6.7363  -6.7266  -6.7186  -6.7148  -6.7108  -6.7017  -6.6978  -6.6940
    -6.6809  -6.6606  -6.6521  -6.6363  -6.6305  -6.6226  -6.6183  -6.6162
    -6.6120  -6.5704  -6.5500  -6.5474  -6.5449  -6.5449  -6.5449  -6.5449
    -6.5449  -6.5448  -6.5266  -6.4840  -6.4698  -6.4684  -6.4677  -6.4673
    -6.4671  -6.4602  -6.4396  -6.4050  -6.3941  -6.3936  -6.3716  -6.2992
    -6.1533  -6.1170  -5.8577  -5.7465  -5.4859  -5.4239  -5.2735  -5.1689
    -5.1345  -5.0662  -4.8640  -4.0324  -4.0317  -4.0272  -4.0264  -4.0257
    -4.0144  -3.9980  -3.9975  -3.9943  -3.9941  -3.9929  -3.9891  -3.8240
    -3.7983  -3.7941  -3.7868  -3.7793  -3.7771  -3.7709  -3.7632  -3.7620
    -3.7605  -3.7568  -3.7176  -3.6855  -3.6854  -3.6854  -3.6708  -3.6683
    -3.6669  -3.6665  -3.6659  -3.6652  -3.6189  -3.6186  -3.6182  -3.5988
    -3.5800  -3.5765  -3.5760  -3.5686  -3.5684  -3.5650  -3.5612  -3.5580
    -3.5522  -3.5501  -3.5478  -3.5369  -3.5338  -3.5187  -3.4895  -3.4831
    -3.4655  -3.4548  -3.4526  -3.4385  -3.4346  -3.4227  -3.4217  -3.4088
    -3.4076  -3.3728  -3.2196  -3.2194  -3.2190  -3.2142  -3.2138  -3.1495
    -3.1485  -3.1471  -3.1469  -3.1469  -3.1467  -3.1466  -3.1465  -3.1344
    -3.1294  -3.1265  -3.1260  -3.1165  -3.1153  -3.1031  -3.0927  -3.0870
    -3.0846  -3.0816  -3.0813  -3.0763  -3.0755  -3.0738  -3.0654  -3.0627
    -3.0513  -3.0494  -3.0383  -3.0078  -3.0003  -2.9924  -2.9786  -2.9715
    -2.9670  -2.9599  -2.9572  -2.9355  -2.9347  -2.9342  -2.9317  -2.9280
    -2.9230  -2.8895  -2.8892  -2.8623  -2.8555  -2.8486  -2.8268  -2.8204
    -2.8068  -2.8037  -2.8008  -2.7446  -2.7229  -2.7214  -2.7191  -2.7142
    -2.6799  -2.6697  -2.6627  -2.6473  -2.6401  -2.6310

          k = 0.0000-0.5773 0.0000 (321564 PWs)   bands (ev):

  -101.2642 -89.4279 -89.4229 -69.6849 -69.6819 -69.6275 -69.6229 -69.6024
   -69.6009 -69.5976 -66.8704 -66.8704 -66.8598 -66.8598 -66.8449 -66.8449
   -66.8449 -66.8449 -66.8405 -66.8405 -66.8343 -66.8343 -66.8342 -66.8342
   -66.8299 -66.8299 -66.8049 -66.8041 -66.7940 -66.7939 -66.7794 -66.7791
   -66.7786 -66.7786 -66.7750 -66.7741 -66.7689 -66.7687 -66.7686 -66.7672
   -66.7640 -66.7639 -66.7474 -66.7326 -66.7280 -66.7240 -66.7157 -66.7118
   -66.7102 -66.7076 -66.7044 -66.7040 -66.7031 -66.6879 -66.6855 -66.6829
   -66.6774 -66.6677 -55.7708 -55.5360 -55.2651 -55.2395 -55.2370 -55.2101
   -55.1791 -55.0160 -55.0024 -41.1716 -41.1716 -41.1716 -41.1716 -41.1449
   -41.1449 -41.1330 -41.1330 -41.1049 -41.1048 -41.1046 -41.1037 -41.0826
   -41.0826 -41.0826 -41.0826 -41.0782 -41.0776 -41.0660 -41.0659 -41.0454
   -41.0428 -41.0246 -41.0245 -41.0162 -41.0157 -41.0156 -41.0156 -41.0155
   -41.0147 -41.0146 -41.0146 -41.0069 -41.0038 -41.0038 -40.9978 -40.9894
   -40.9834 -40.9744 -40.9744 -40.9744 -40.9744 -40.9657 -40.9657 -40.9595
   -40.9588 -40.9536 -40.9536 -40.9535 -40.9535 -40.9535 -40.9535 -40.9478
   -40.9477 -40.9449 -40.9449 -40.9427 -40.9413 -40.9385 -40.9384 -40.9368
   -40.9312 -40.9252 -40.9229 -40.9229 -40.9229 -40.9229 -40.9095 -40.9093
   -40.9087 -40.9087 -40.9016 -40.9008 -40.9000 -40.8948 -40.8886 -40.8886
   -40.8885 -40.8884 -40.8884 -40.8884 -40.8884 -40.8871 -40.8868 -40.8867
   -40.8831 -40.8796 -40.8795 -40.8763 -40.8763 -40.8725 -40.8714 -40.8645
   -40.8621 -40.8571 -40.8571 -40.8567 -40.8564 -40.8560 -40.8552 -40.8495
   -40.8428 -40.8402 -40.8402 -40.8390 -40.8334 -40.8271 -40.8266 -40.8254
   -40.8217 -40.8216 -40.8216 -40.8215 -40.8157 -40.8140 -40.8099 -40.8098
   -40.8098 -40.8094 -40.8092 -40.8080 -40.8041 -40.7909 -40.7900 -40.7899
   -40.7859 -40.7735 -40.7735 -40.7698 -40.7668 -40.7475 -40.7448 -40.7435
   -40.7434 -40.7426 -40.7382 -40.7379 -40.7202 -40.7190 -40.7038 -40.6932
   -40.6907 -40.6699 -40.6499 -20.1149 -20.0733 -20.0464 -19.9617 -19.8908
   -19.8375 -19.6471 -19.6407 -19.5915 -19.5532 -19.4632 -19.4364 -19.1892
   -18.9735 -18.9414 -18.9347 -18.9308 -18.9289 -18.9251 -18.8870 -18.8630
   -18.8586 -18.8245 -18.8017 -18.7855 -18.7841 -18.7745 -18.7372 -18.7294
   -18.7290 -18.6830 -18.6808 -18.6503 -18.6407 -18.6115 -18.6001 -18.5917
   -18.5823 -18.5532 -18.5118 -18.4838 -18.4668 -18.4532 -18.4197 -18.4083
   -18.4069 -18.3759 -18.3558 -18.3280 -18.3169 -18.3166 -18.3165 -18.3162
   -18.3091 -18.2991 -18.2890 -18.2711 -18.2495 -18.2433 -18.2423 -18.2370
   -18.2347 -18.2303 -18.2009 -18.1989 -18.1808 -18.1752 -18.1678 -18.1620
   -18.1570 -18.1388 -18.1281 -18.1253 -18.1157 -18.1112 -18.0979 -18.0811
   -18.0637 -18.0531 -18.0531 -18.0522 -18.0471 -18.0138 -17.9986 -17.9937
   -17.9935 -17.9800 -17.9774 -17.9773 -17.9694 -17.9437 -17.9413 -17.9317
   -17.9282 -17.8801 -17.8720 -11.9996 -11.9680 -11.8675 -11.8299 -11.7065
   -11.6646 -11.6644 -11.6603 -11.6602 -11.6422 -11.6344 -11.6107 -11.5865
   -11.5854 -11.5637 -11.5636 -11.5530 -11.5339 -11.5054 -11.4991 -11.4842
   -11.4830 -11.4719 -11.4592 -11.4459 -11.4459 -11.4297 -11.4024 -11.4004
   -11.3987 -11.3601 -11.3443 -11.3412 -11.3407 -11.2935 -11.2307 -11.1841
   -11.1830 -11.1676 -11.1520 -11.1399 -11.1218 -11.1008 -11.1003 -11.0923
   -11.0850 -11.0720 -11.0454 -11.0394 -11.0334 -11.0253 -11.0204 -11.0195
   -11.0183 -11.0169 -11.0167 -10.9886 -10.9827 -10.9647 -10.9556 -10.9528
   -10.9442 -10.9363 -10.8917 -10.8618 -10.7689 -10.7634 -10.7112 -10.6804
   -10.6610 -10.5696 -10.5428 -10.5378 -10.4343 -10.3401 -10.3228 -10.3206
   -10.3151 -10.3055 -10.2720 -10.2620 -10.2365 -10.2218 -10.1688 -10.1614
   -10.1412 -10.1301 -10.1263 -10.1181 -10.1177 -10.1084 -10.0899 -10.0877
   -10.0814 -10.0727 -10.0548 -10.0060  -9.9861  -9.9726  -9.9710  -9.9444
    -9.9358  -9.9234  -9.9085  -9.9037  -9.9013  -9.8919  -9.8861  -9.8500
    -9.8478  -9.8389  -9.8341  -9.8270  -9.8014  -9.8009  -9.7853  -9.7770
    -9.7284  -9.7187  -9.7183  -9.7058  -9.6860  -9.6591  -9.6582  -9.6394
    -9.6205  -9.5278  -9.5187  -9.4856  -9.4607  -9.4225  -9.4029  -9.3906
    -9.3856  -9.3543  -9.3425  -9.3230  -9.3227  -9.3199  -9.3183  -9.3003
    -9.2912  -9.2874  -9.2742  -9.2337  -9.2211  -9.2093  -9.2070  -9.1988
    -9.1806  -9.1760  -9.1544  -9.1534  -9.1509  -9.1344  -9.1310  -9.1236
    -9.1203  -9.1163  -9.1035  -9.0968  -9.0817  -9.0618  -9.0602  -9.0530
    -9.0469  -9.0430  -9.0424  -9.0286  -9.0281  -9.0198  -9.0178  -9.0010
    -8.9985  -8.9784  -8.9665  -8.9609  -8.9512  -8.9382  -8.9271  -8.9144
    -8.9021  -8.8586  -8.7601  -8.7559  -8.7007  -8.7005  -8.6809  -8.6218
    -8.6173  -8.5930  -8.5473  -8.5331  -8.4598  -8.4310  -8.3999  -8.3823
    -8.3823  -8.3259  -8.3112  -8.3096  -8.2716  -8.2498  -8.2241  -8.1552
    -8.1457  -8.1215  -8.1205  -8.0589  -8.0540  -8.0490  -8.0413  -8.0365
    -8.0361  -8.0356  -8.0355  -8.0260  -8.0211  -8.0140  -7.9901  -7.9894
    -7.9889  -7.9880  -7.9659  -7.9658  -7.9646  -7.9475  -7.9474  -7.9424
    -7.9269  -7.9231  -7.9161  -7.9125  -7.9093  -7.8984  -7.8891  -7.8850
    -7.8768  -7.8748  -7.8562  -7.8520  -7.8503  -7.8501  -7.8365  -7.8226
    -7.8140  -7.8063  -7.8053  -7.7824  -7.7782  -7.7743  -7.7587  -7.7557
    -7.7326  -7.7218  -7.7156  -7.6538  -7.6521  -7.6234  -7.6042  -7.5442
    -7.5331  -7.4706  -7.4506  -7.4264  -7.4171  -7.4061  -7.3798  -7.3604
    -7.3157  -7.3033  -7.2737  -7.2642  -7.2391  -7.2366  -7.2077  -7.2001
    -7.1958  -7.1952  -7.1542  -7.1415  -7.1276  -7.1274  -7.1041  -7.0994
    -7.0911  -7.0585  -7.0251  -7.0200  -7.0162  -6.9972  -6.9711  -6.9639
    -6.9191  -6.8874  -6.8505  -6.8474  -6.8472  -6.8471  -6.8460  -6.8440
    -6.8060  -6.7817  -6.7806  -6.7796  -6.7777  -6.7752  -6.7714  -6.7464
    -6.7093  -6.6976  -6.6733  -6.6607  -6.6240  -6.5803  -6.5771  -6.5159
    -6.5157  -6.5157  -6.5151  -6.4514  -6.4507  -6.4439  -6.4394  -6.4357
    -6.4320  -6.4238  -6.3946  -6.3823  -6.3792  -6.3648  -6.3499  -6.3377
    -6.1671  -6.1671  -6.1589  -6.1542  -6.0915  -6.0906  -6.0296  -6.0174
    -5.9579  -5.9202  -5.8217  -5.7708  -5.7407  -5.4683  -5.3041  -5.1697
    -5.1358  -5.0648  -4.8418  -4.2068  -4.2025  -4.2024  -4.1919  -4.0825
    -4.0825  -4.0638  -4.0576  -4.0179  -4.0178  -3.9715  -3.9587  -3.9576
    -3.9499  -3.9476  -3.9218  -3.8671  -3.8473  -3.7887  -3.7875  -3.7824
    -3.7817  -3.7683  -3.7680  -3.7450  -3.7363  -3.7294  -3.7013  -3.6978
    -3.6886  -3.6735  -3.6732  -3.6685  -3.6681  -3.6584  -3.6505  -3.6461
    -3.6459  -3.6202  -3.5920  -3.5629  -3.5548  -3.5424  -3.5359  -3.5351
    -3.5283  -3.5075  -3.5056  -3.4983  -3.4962  -3.4763  -3.4596  -3.4592
    -3.4586  -3.4584  -3.4450  -3.4399  -3.4286  -3.4277  -3.4204  -3.4007
    -3.3996  -3.3913  -3.3854  -3.3779  -3.3739  -3.3682  -3.3666  -3.3253
    -3.3129  -3.3008  -3.3000  -3.2958  -3.2845  -3.2561  -3.2539  -3.2209
    -3.2157  -3.2146  -3.2039  -3.1959  -3.1952  -3.1948  -3.1934  -3.1653
    -3.1549  -3.1470  -3.1459  -3.1339  -3.1159  -3.1126  -3.1109  -3.1016
    -3.0992  -3.0987  -3.0847  -3.0698  -3.0579  -3.0555  -3.0546  -3.0442
    -3.0248  -3.0171  -3.0063  -2.9879  -2.9871  -2.9848  -2.9752  -2.9221
    -2.9166  -2.8925  -2.8865  -2.8354  -2.8324  -2.8229  -2.8228  -2.8199
    -2.8164  -2.7564  -2.7482  -2.6976  -2.6878  -2.6801  -2.6762  -2.6699
    -2.6488  -2.5463  -2.5420  -2.4776  -2.4713  -2.4622

          k =-0.5000-0.2887 0.0000 (321564 PWs)   bands (ev):

  -101.2642 -89.4279 -89.4229 -69.6849 -69.6819 -69.6275 -69.6229 -69.6024
   -69.6009 -69.5976 -66.8704 -66.8704 -66.8598 -66.8598 -66.8449 -66.8449
   -66.8449 -66.8449 -66.8405 -66.8405 -66.8343 -66.8343 -66.8343 -66.8342
   -66.8299 -66.8299 -66.8046 -66.8044 -66.7940 -66.7938 -66.7791 -66.7791
   -66.7790 -66.7788 -66.7747 -66.7744 -66.7685 -66.7685 -66.7684 -66.7680
   -66.7639 -66.7638 -66.7469 -66.7357 -66.7259 -66.7199 -66.7173 -66.7137
   -66.7115 -66.7072 -66.7055 -66.7039 -66.7014 -66.6877 -66.6865 -66.6805
   -66.6790 -66.6676 -55.7708 -55.5360 -55.2651 -55.2395 -55.2370 -55.2101
   -55.1791 -55.0160 -55.0024 -41.1716 -41.1716 -41.1716 -41.1716 -41.1449
   -41.1449 -41.1330 -41.1330 -41.1046 -41.1046 -41.1046 -41.1043 -41.0826
   -41.0826 -41.0826 -41.0826 -41.0780 -41.0778 -41.0660 -41.0659 -41.0379
   -41.0320 -41.0300 -41.0246 -41.0245 -41.0213 -41.0157 -41.0156 -41.0156
   -41.0155 -41.0146 -41.0146 -41.0134 -41.0068 -41.0038 -41.0038 -40.9870
   -40.9744 -40.9744 -40.9744 -40.9744 -40.9713 -40.9657 -40.9657 -40.9592
   -40.9591 -40.9536 -40.9536 -40.9535 -40.9535 -40.9535 -40.9535 -40.9478
   -40.9477 -40.9449 -40.9449 -40.9426 -40.9385 -40.9384 -40.9364 -40.9341
   -40.9306 -40.9253 -40.9229 -40.9229 -40.9229 -40.9229 -40.9093 -40.9091
   -40.9090 -40.9089 -40.9016 -40.9005 -40.9003 -40.8949 -40.8884 -40.8884
   -40.8884 -40.8884 -40.8883 -40.8883 -40.8883 -40.8879 -40.8868 -40.8867
   -40.8836 -40.8796 -40.8795 -40.8763 -40.8763 -40.8742 -40.8712 -40.8654
   -40.8589 -40.8571 -40.8571 -40.8563 -40.8562 -40.8560 -40.8558 -40.8524
   -40.8437 -40.8402 -40.8402 -40.8399 -40.8328 -40.8296 -40.8268 -40.8217
   -40.8216 -40.8216 -40.8215 -40.8182 -40.8163 -40.8143 -40.8136 -40.8098
   -40.8098 -40.8096 -40.8095 -40.8063 -40.8056 -40.7906 -40.7902 -40.7866
   -40.7814 -40.7781 -40.7752 -40.7735 -40.7734 -40.7485 -40.7454 -40.7432
   -40.7429 -40.7422 -40.7388 -40.7336 -40.7201 -40.7153 -40.7057 -40.6938
   -40.6836 -40.6665 -40.6570 -20.1126 -20.0732 -20.0456 -19.9643 -19.8912
   -19.8418 -19.6478 -19.6398 -19.5926 -19.5486 -19.4635 -19.4334 -19.1845
   -18.9769 -18.9509 -18.9322 -18.9298 -18.9291 -18.9253 -18.8910 -18.8623
   -18.8541 -18.8220 -18.8001 -18.7930 -18.7842 -18.7669 -18.7392 -18.7371
   -18.7266 -18.6824 -18.6812 -18.6508 -18.6424 -18.6161 -18.5995 -18.5889
   -18.5797 -18.5623 -18.4989 -18.4905 -18.4629 -18.4380 -18.4249 -18.4123
   -18.4060 -18.3715 -18.3493 -18.3399 -18.3168 -18.3166 -18.3165 -18.3164
   -18.3094 -18.2933 -18.2926 -18.2571 -18.2550 -18.2449 -18.2409 -18.2399
   -18.2325 -18.2253 -18.2144 -18.1904 -18.1831 -18.1762 -18.1692 -18.1642
   -18.1554 -18.1348 -18.1305 -18.1274 -18.1197 -18.1107 -18.1030 -18.0715
   -18.0709 -18.0561 -18.0531 -18.0531 -18.0469 -18.0070 -18.0063 -17.9935
   -17.9934 -17.9875 -17.9778 -17.9769 -17.9677 -17.9441 -17.9363 -17.9303
   -17.9229 -17.8789 -17.8730 -11.9792 -11.9368 -11.8658 -11.8363 -11.7448
   -11.6701 -11.6651 -11.6623 -11.6593 -11.6478 -11.6369 -11.6324 -11.6131
   -11.5848 -11.5678 -11.5602 -11.5565 -11.5345 -11.5157 -11.4994 -11.4935
   -11.4734 -11.4723 -11.4459 -11.4459 -11.4409 -11.4350 -11.4005 -11.4002
   -11.3831 -11.3503 -11.3445 -11.3433 -11.3407 -11.2906 -11.2209 -11.1967
   -11.1737 -11.1695 -11.1535 -11.1416 -11.1150 -11.1045 -11.0963 -11.0919
   -11.0843 -11.0732 -11.0446 -11.0414 -11.0272 -11.0225 -11.0194 -11.0187
   -11.0156 -11.0145 -11.0085 -10.9969 -10.9855 -10.9710 -10.9585 -10.9518
   -10.9482 -10.9389 -10.9184 -10.8096 -10.7611 -10.7444 -10.6935 -10.6805
   -10.6557 -10.5768 -10.5505 -10.5083 -10.4594 -10.4040 -10.3698 -10.3157
   -10.3079 -10.3036 -10.2983 -10.2354 -10.2218 -10.2016 -10.1929 -10.1395
   -10.1336 -10.1281 -10.1253 -10.1243 -10.1153 -10.0978 -10.0908 -10.0830
   -10.0826 -10.0679 -10.0390  -9.9941  -9.9819  -9.9598  -9.9558  -9.9446
    -9.9403  -9.9213  -9.9145  -9.9019  -9.8987  -9.8883  -9.8814  -9.8644
    -9.8427  -9.8385  -9.8276  -9.8098  -9.8028  -9.7979  -9.7910  -9.7485
    -9.7372  -9.7210  -9.7179  -9.7095  -9.6972  -9.6609  -9.6583  -9.6562
    -9.6219  -9.5594  -9.5233  -9.5140  -9.4936  -9.4481  -9.4016  -9.3904
    -9.3731  -9.3591  -9.3485  -9.3412  -9.3261  -9.3185  -9.3127  -9.2975
    -9.2871  -9.2726  -9.2483  -9.2347  -9.2206  -9.2111  -9.2043  -9.1931
    -9.1770  -9.1733  -9.1668  -9.1523  -9.1487  -9.1410  -9.1304  -9.1216
    -9.1209  -9.1146  -9.1131  -9.0896  -9.0815  -9.0591  -9.0489  -9.0468
    -9.0446  -9.0428  -9.0331  -9.0285  -9.0281  -9.0223  -9.0156  -9.0066
    -8.9990  -8.9914  -8.9781  -8.9574  -8.9515  -8.9447  -8.9315  -8.9096
    -8.8912  -8.8680  -8.7637  -8.7113  -8.7010  -8.6993  -8.6766  -8.6222
    -8.6127  -8.6113  -8.5889  -8.5126  -8.4992  -8.3948  -8.3823  -8.3823
    -8.3780  -8.3311  -8.3106  -8.3097  -8.2827  -8.2592  -8.2220  -8.1810
    -8.1226  -8.1201  -8.0835  -8.0562  -8.0532  -8.0491  -8.0391  -8.0356
    -8.0356  -8.0352  -8.0338  -8.0306  -8.0201  -7.9938  -7.9897  -7.9888
    -7.9883  -7.9853  -7.9662  -7.9644  -7.9542  -7.9476  -7.9467  -7.9418
    -7.9335  -7.9238  -7.9166  -7.9135  -7.9086  -7.8954  -7.8886  -7.8840
    -7.8766  -7.8710  -7.8521  -7.8503  -7.8502  -7.8462  -7.8347  -7.8295
    -7.8141  -7.8093  -7.7975  -7.7864  -7.7811  -7.7769  -7.7622  -7.7547
    -7.7426  -7.7165  -7.6906  -7.6863  -7.6734  -7.6456  -7.5821  -7.5514
    -7.4973  -7.4866  -7.4513  -7.4280  -7.4248  -7.4177  -7.4103  -7.3521
    -7.3287  -7.3095  -7.3029  -7.2722  -7.2672  -7.2355  -7.2087  -7.1996
    -7.1995  -7.1948  -7.1564  -7.1357  -7.1267  -7.1179  -7.1048  -7.0958
    -7.0841  -7.0680  -7.0523  -7.0221  -7.0144  -7.0009  -6.9581  -6.9175
    -6.9027  -6.8911  -6.8570  -6.8472  -6.8472  -6.8471  -6.8470  -6.8158
    -6.8037  -6.7884  -6.7800  -6.7788  -6.7775  -6.7691  -6.7476  -6.7244
    -6.7072  -6.6957  -6.6822  -6.6499  -6.6213  -6.5785  -6.5172  -6.5158
    -6.5158  -6.5156  -6.4930  -6.4538  -6.4518  -6.4448  -6.4374  -6.4365
    -6.4285  -6.4225  -6.4085  -6.3870  -6.3840  -6.3609  -6.3542  -6.3408
    -6.2477  -6.1671  -6.1670  -6.1471  -6.0926  -6.0912  -6.0372  -6.0201
    -5.9635  -5.9491  -5.8352  -5.7646  -5.7033  -5.4625  -5.3071  -5.1586
    -5.1355  -5.0741  -4.8522  -4.2086  -4.2070  -4.2004  -4.1914  -4.0825
    -4.0825  -4.0643  -4.0543  -4.0180  -4.0177  -3.9693  -3.9656  -3.9621
    -3.9533  -3.9481  -3.9194  -3.8680  -3.8387  -3.7868  -3.7856  -3.7838
    -3.7824  -3.7681  -3.7678  -3.7450  -3.7371  -3.7331  -3.7068  -3.6929
    -3.6874  -3.6815  -3.6665  -3.6647  -3.6601  -3.6578  -3.6514  -3.6483
    -3.6340  -3.6124  -3.5753  -3.5594  -3.5517  -3.5455  -3.5404  -3.5359
    -3.5355  -3.5084  -3.5058  -3.4981  -3.4960  -3.4736  -3.4613  -3.4596
    -3.4592  -3.4583  -3.4574  -3.4356  -3.4292  -3.4248  -3.4212  -3.4096
    -3.3977  -3.3914  -3.3875  -3.3821  -3.3765  -3.3754  -3.3504  -3.3293
    -3.3121  -3.3049  -3.3043  -3.2869  -3.2827  -3.2559  -3.2544  -3.2173
    -3.2161  -3.2143  -3.2104  -3.1958  -3.1955  -3.1953  -3.1951  -3.1624
    -3.1529  -3.1473  -3.1463  -3.1319  -3.1265  -3.1102  -3.1080  -3.1044
    -3.1005  -3.0831  -3.0806  -3.0706  -3.0577  -3.0576  -3.0484  -3.0369
    -3.0237  -3.0109  -3.0045  -3.0018  -2.9882  -2.9878  -2.9807  -2.9227
    -2.9174  -2.8927  -2.8868  -2.8419  -2.8332  -2.8316  -2.8229  -2.8173
    -2.8113  -2.7538  -2.7500  -2.7005  -2.6933  -2.6809  -2.6715  -2.6685
    -2.6626  -2.5543  -2.5443  -2.4946  -2.4826  -2.4646

          k =-0.5000-0.8660 0.0000 (321564 PWs)   bands (ev):

  -101.2642 -89.4279 -89.4229 -69.6849 -69.6819 -69.6275 -69.6229 -69.6024
   -69.6009 -69.5976 -66.8704 -66.8704 -66.8598 -66.8598 -66.8449 -66.8449
   -66.8449 -66.8449 -66.8405 -66.8405 -66.8343 -66.8343 -66.8343 -66.8342
   -66.8299 -66.8299 -66.8046 -66.8044 -66.7940 -66.7938 -66.7791 -66.7791
   -66.7790 -66.7788 -66.7747 -66.7745 -66.7685 -66.7684 -66.7684 -66.7681
   -66.7639 -66.7638 -66.7469 -66.7357 -66.7259 -66.7199 -66.7173 -66.7138
   -66.7113 -66.7072 -66.7057 -66.7038 -66.7014 -66.6877 -66.6865 -66.6805
   -66.6791 -66.6676 -55.7708 -55.5360 -55.2651 -55.2395 -55.2370 -55.2101
   -55.1791 -55.0160 -55.0024 -41.1716 -41.1716 -41.1716 -41.1716 -41.1449
   -41.1449 -41.1330 -41.1330 -41.1046 -41.1046 -41.1046 -41.1043 -41.0826
   -41.0826 -41.0826 -41.0826 -41.0780 -41.0778 -41.0660 -41.0659 -41.0378
   -41.0321 -41.0299 -41.0246 -41.0245 -41.0214 -41.0157 -41.0156 -41.0156
   -41.0155 -41.0146 -41.0146 -41.0134 -41.0068 -41.0038 -41.0038 -40.9871
   -40.9744 -40.9744 -40.9744 -40.9744 -40.9711 -40.9657 -40.9657 -40.9592
   -40.9591 -40.9536 -40.9536 -40.9535 -40.9535 -40.9535 -40.9535 -40.9478
   -40.9477 -40.9449 -40.9449 -40.9428 -40.9385 -40.9384 -40.9363 -40.9341
   -40.9305 -40.9253 -40.9229 -40.9229 -40.9229 -40.9229 -40.9092 -40.9091
   -40.9090 -40.9089 -40.9013 -40.9005 -40.9003 -40.8952 -40.8884 -40.8884
   -40.8884 -40.8884 -40.8883 -40.8883 -40.8882 -40.8880 -40.8868 -40.8867
   -40.8835 -40.8796 -40.8795 -40.8763 -40.8763 -40.8741 -40.8713 -40.8655
   -40.8589 -40.8571 -40.8571 -40.8563 -40.8562 -40.8560 -40.8559 -40.8523
   -40.8438 -40.8402 -40.8402 -40.8398 -40.8328 -40.8298 -40.8268 -40.8217
   -40.8216 -40.8216 -40.8215 -40.8183 -40.8162 -40.8143 -40.8136 -40.8098
   -40.8098 -40.8096 -40.8095 -40.8063 -40.8056 -40.7905 -40.7902 -40.7868
   -40.7815 -40.7780 -40.7750 -40.7735 -40.7734 -40.7483 -40.7455 -40.7432
   -40.7430 -40.7421 -40.7388 -40.7337 -40.7203 -40.7154 -40.7057 -40.6935
   -40.6834 -40.6666 -40.6570 -20.1126 -20.0733 -20.0456 -19.9643 -19.8912
   -19.8418 -19.6477 -19.6398 -19.5925 -19.5486 -19.4635 -19.4334 -19.1843
   -18.9776 -18.9507 -18.9322 -18.9298 -18.9291 -18.9253 -18.8921 -18.8613
   -18.8533 -18.8222 -18.8000 -18.7933 -18.7839 -18.7674 -18.7392 -18.7372
   -18.7265 -18.6825 -18.6811 -18.6513 -18.6429 -18.6157 -18.5994 -18.5887
   -18.5798 -18.5624 -18.4984 -18.4900 -18.4627 -18.4381 -18.4252 -18.4123
   -18.4059 -18.3715 -18.3497 -18.3399 -18.3167 -18.3166 -18.3165 -18.3164
   -18.3093 -18.2935 -18.2925 -18.2569 -18.2553 -18.2449 -18.2408 -18.2399
   -18.2324 -18.2253 -18.2144 -18.1905 -18.1830 -18.1764 -18.1693 -18.1644
   -18.1551 -18.1348 -18.1304 -18.1275 -18.1198 -18.1106 -18.1029 -18.0715
   -18.0708 -18.0561 -18.0531 -18.0531 -18.0468 -18.0069 -18.0062 -17.9936
   -17.9935 -17.9880 -17.9779 -17.9770 -17.9676 -17.9443 -17.9364 -17.9304
   -17.9225 -17.8786 -17.8730 -11.9791 -11.9368 -11.8658 -11.8364 -11.7446
   -11.6699 -11.6651 -11.6623 -11.6594 -11.6478 -11.6365 -11.6324 -11.6134
   -11.5848 -11.5678 -11.5601 -11.5566 -11.5344 -11.5158 -11.4994 -11.4935
   -11.4733 -11.4724 -11.4459 -11.4459 -11.4418 -11.4347 -11.4006 -11.4002
   -11.3840 -11.3503 -11.3445 -11.3433 -11.3407 -11.2906 -11.2206 -11.1969
   -11.1736 -11.1696 -11.1535 -11.1412 -11.1152 -11.1046 -11.0961 -11.0920
   -11.0842 -11.0730 -11.0449 -11.0413 -11.0269 -11.0222 -11.0194 -11.0187
   -11.0155 -11.0143 -11.0078 -10.9969 -10.9851 -10.9714 -10.9585 -10.9519
   -10.9481 -10.9389 -10.9194 -10.8099 -10.7605 -10.7450 -10.6936 -10.6804
   -10.6551 -10.5765 -10.5505 -10.5083 -10.4593 -10.4023 -10.3719 -10.3158
   -10.3082 -10.3035 -10.2982 -10.2356 -10.2223 -10.2015 -10.1928 -10.1397
   -10.1336 -10.1280 -10.1252 -10.1242 -10.1154 -10.0977 -10.0908 -10.0830
   -10.0828 -10.0680 -10.0389  -9.9939  -9.9816  -9.9594  -9.9557  -9.9446
    -9.9404  -9.9216  -9.9144  -9.9018  -9.8987  -9.8883  -9.8813  -9.8644
    -9.8424  -9.8385  -9.8279  -9.8093  -9.8029  -9.7977  -9.7911  -9.7480
    -9.7371  -9.7210  -9.7178  -9.7093  -9.6970  -9.6611  -9.6583  -9.6562
    -9.6223  -9.5598  -9.5230  -9.5142  -9.4937  -9.4481  -9.4014  -9.3900
    -9.3728  -9.3590  -9.3486  -9.3414  -9.3262  -9.3185  -9.3127  -9.2976
    -9.2869  -9.2728  -9.2482  -9.2346  -9.2209  -9.2117  -9.2041  -9.1934
    -9.1770  -9.1733  -9.1670  -9.1530  -9.1488  -9.1411  -9.1304  -9.1215
    -9.1209  -9.1150  -9.1136  -9.0894  -9.0813  -9.0593  -9.0487  -9.0469
    -9.0445  -9.0427  -9.0328  -9.0285  -9.0280  -9.0222  -9.0160  -9.0066
    -8.9991  -8.9914  -8.9779  -8.9572  -8.9515  -8.9446  -8.9315  -8.9096
    -8.8909  -8.8676  -8.7635  -8.7121  -8.7010  -8.6995  -8.6747  -8.6222
    -8.6129  -8.6114  -8.5886  -8.5137  -8.5010  -8.3950  -8.3823  -8.3823
    -8.3766  -8.3316  -8.3106  -8.3097  -8.2822  -8.2595  -8.2214  -8.1815
    -8.1226  -8.1201  -8.0835  -8.0565  -8.0531  -8.0492  -8.0392  -8.0356
    -8.0356  -8.0354  -8.0344  -8.0306  -8.0203  -7.9942  -7.9897  -7.9889
    -7.9883  -7.9857  -7.9661  -7.9644  -7.9537  -7.9477  -7.9470  -7.9415
    -7.9332  -7.9241  -7.9166  -7.9135  -7.9086  -7.8955  -7.8887  -7.8833
    -7.8766  -7.8712  -7.8519  -7.8503  -7.8502  -7.8456  -7.8343  -7.8302
    -7.8140  -7.8090  -7.7972  -7.7859  -7.7810  -7.7768  -7.7617  -7.7548
    -7.7427  -7.7160  -7.6907  -7.6862  -7.6738  -7.6465  -7.5823  -7.5512
    -7.4967  -7.4864  -7.4515  -7.4276  -7.4245  -7.4179  -7.4102  -7.3511
    -7.3291  -7.3089  -7.3030  -7.2718  -7.2672  -7.2356  -7.2089  -7.1996
    -7.1995  -7.1949  -7.1561  -7.1356  -7.1266  -7.1178  -7.1047  -7.0957
    -7.0845  -7.0679  -7.0534  -7.0223  -7.0145  -7.0007  -6.9581  -6.9176
    -6.9031  -6.8910  -6.8574  -6.8472  -6.8472  -6.8471  -6.8470  -6.8160
    -6.8039  -6.7886  -6.7800  -6.7788  -6.7775  -6.7693  -6.7478  -6.7242
    -6.7070  -6.6955  -6.6820  -6.6500  -6.6212  -6.5783  -6.5172  -6.5158
    -6.5157  -6.5156  -6.4936  -6.4538  -6.4518  -6.4450  -6.4374  -6.4365
    -6.4285  -6.4225  -6.4084  -6.3870  -6.3843  -6.3614  -6.3543  -6.3405
    -6.2457  -6.1671  -6.1670  -6.1480  -6.0926  -6.0913  -6.0374  -6.0200
    -5.9637  -5.9490  -5.8352  -5.7646  -5.7033  -5.4623  -5.3069  -5.1586
    -5.1355  -5.0741  -4.8521  -4.2085  -4.2072  -4.2004  -4.1914  -4.0825
    -4.0825  -4.0643  -4.0541  -4.0180  -4.0178  -3.9686  -3.9659  -3.9626
    -3.9533  -3.9481  -3.9196  -3.8677  -3.8385  -3.7869  -3.7855  -3.7838
    -3.7825  -3.7681  -3.7677  -3.7446  -3.7370  -3.7335  -3.7075  -3.6932
    -3.6877  -3.6811  -3.6665  -3.6648  -3.6600  -3.6576  -3.6515  -3.6482
    -3.6337  -3.6124  -3.5757  -3.5590  -3.5518  -3.5456  -3.5402  -3.5359
    -3.5355  -3.5081  -3.5058  -3.4981  -3.4955  -3.4733  -3.4614  -3.4596
    -3.4592  -3.4583  -3.4574  -3.4354  -3.4294  -3.4252  -3.4214  -3.4091
    -3.3978  -3.3914  -3.3877  -3.3821  -3.3762  -3.3750  -3.3497  -3.3299
    -3.3120  -3.3049  -3.3046  -3.2867  -3.2827  -3.2552  -3.2540  -3.2174
    -3.2162  -3.2140  -3.2105  -3.1958  -3.1954  -3.1953  -3.1950  -3.1629
    -3.1533  -3.1473  -3.1463  -3.1322  -3.1255  -3.1096  -3.1078  -3.1043
    -3.1002  -3.0831  -3.0803  -3.0707  -3.0580  -3.0575  -3.0487  -3.0373
    -3.0246  -3.0109  -3.0048  -3.0020  -2.9890  -2.9883  -2.9815  -2.9229
    -2.9176  -2.8934  -2.8870  -2.8420  -2.8331  -2.8316  -2.8227  -2.8174
    -2.8115  -2.7538  -2.7500  -2.7007  -2.6928  -2.6811  -2.6716  -2.6681
    -2.6625  -2.5553  -2.5469  -2.4978  -2.4970  -2.4629

     the Fermi energy is    -4.9517 ev

!    total energy              =  -26543.73262173 Ry
     total all-electron energy =   -522376.328929 Ry
     estimated scf accuracy    <       0.00000024 Ry
     smearing contrib. (-TS)   =      -0.00739439 Ry
     internal energy E=F+TS    =  -26543.72522734 Ry

     The total energy is F=E-TS. E is the sum of the following terms:
     one-electron contribution =  518592.08258914 Ry
     hartree contribution      = -259448.67290053 Ry
     xc contribution           =   -1565.29438056 Ry
     ewald contribution        = -267673.72376460 Ry
     DFT-D3 Dispersion         =      -4.03940028 Ry
     one-center paw contrib.   =  -16444.07737050 Ry

     convergence has been achieved in  29 iterations

     negative rho (up, down):  9.052E-04 0.000E+00

     Forces acting on atoms (cartesian axes, Ry/au):

     atom    1 type  1   force =     0.00025793   -0.00583808   -0.00163689
     atom    2 type  1   force =    -0.00000098    0.00000103    0.00193068
     atom    3 type  1   force =    -0.00001380    0.00004237   -0.00000523
     atom    4 type  2   force =     0.00000083   -0.00000074   -0.00339328
     atom    5 type  2   force =    -0.00000429    0.00000057   -0.00008074
     atom    6 type  2   force =     0.00030797    0.00128842    0.00027584
     atom    7 type  2   force =    -0.00000174    0.00000723    0.00161165
     atom    8 type  2   force =    -0.00003095    0.00006731    0.00021741
     atom    9 type  2   force =    -0.00166955   -0.00150173    0.00163551
     atom   10 type  1   force =     0.00013710    0.00079655    0.00625658
     atom   11 type  1   force =     0.00000008    0.00000412    0.00192796
     atom   12 type  1   force =     0.00002213    0.00001267    0.00005788
     atom   13 type  2   force =     0.00000014    0.00000143   -0.00339443
     atom   14 type  2   force =    -0.00000668   -0.00001720   -0.00010206
     atom   15 type  2   force =     0.00032444   -0.00001691   -0.00048553
     atom   16 type  2   force =    -0.00000007    0.00000736    0.00162659
     atom   17 type  2   force =    -0.00000288   -0.00000026    0.00010570
     atom   18 type  2   force =    -0.00453199   -0.00081589    0.00302310
     atom   19 type  1   force =    -0.00114279   -0.00111130   -0.00170018
     atom   20 type  1   force =     0.00000202   -0.00000387    0.00193017
     atom   21 type  1   force =     0.00000568   -0.00002898   -0.00001950
     atom   22 type  2   force =     0.00000099    0.00000086   -0.00339910
     atom   23 type  2   force =    -0.00000389   -0.00000510   -0.00012090
     atom   24 type  2   force =     0.00034479   -0.00031042    0.00007228
     atom   25 type  2   force =     0.00000571   -0.00000369    0.00161486
     atom   26 type  2   force =    -0.00001482   -0.00000291    0.00010750
     atom   27 type  2   force =    -0.00037198    0.00019221    0.00142688
     atom   28 type  1   force =    -0.00045583   -0.00069800   -0.00049340
     atom   29 type  1   force =    -0.00000083    0.00000756    0.00193314
     atom   30 type  1   force =    -0.00001693   -0.00003375    0.00016380
     atom   31 type  2   force =     0.00000027    0.00000249   -0.00339333
     atom   32 type  2   force =     0.00000345    0.00000258   -0.00010583
     atom   33 type  2   force =    -0.00013654   -0.00002722   -0.00023109
     atom   34 type  2   force =    -0.00000412   -0.00000326    0.00161305
     atom   35 type  2   force =     0.00002710   -0.00004429    0.00012200
     atom   36 type  2   force =    -0.00018682   -0.00026848    0.00072009
     atom   37 type  1   force =    -0.00473886    0.00185014   -0.00123526
     atom   38 type  1   force =    -0.00000326   -0.00000004    0.00193372
     atom   39 type  1   force =     0.00001327    0.00002158    0.00001629
     atom   40 type  2   force =     0.00000239    0.00000069   -0.00339411
     atom   41 type  2   force =     0.00003582    0.00002754   -0.00004766
     atom   42 type  2   force =    -0.00036658    0.00076194    0.00006753
     atom   43 type  2   force =    -0.00000456    0.00000745    0.00160548
     atom   44 type  2   force =    -0.00002914   -0.00001508    0.00020682
     atom   45 type  2   force =     0.00180784   -0.00138211    0.00156914
     atom   46 type  1   force =     0.00001922    0.00064405    0.00732321
     atom   47 type  1   force =    -0.00000174    0.00000426    0.00192844
     atom   48 type  1   force =     0.00000510    0.00003247    0.00004793
     atom   49 type  2   force =     0.00000102    0.00000275   -0.00339469
     atom   50 type  2   force =     0.00002723   -0.00002794   -0.00008622
     atom   51 type  2   force =     0.00005464    0.00113916   -0.00173747
     atom   52 type  2   force =    -0.00000155    0.00001441    0.00161688
     atom   53 type  2   force =     0.00001821   -0.00002189    0.00008323
     atom   54 type  2   force =     0.00076072    0.01246117   -0.01396614
     atom   55 type  1   force =     0.00018594    0.00002335    0.00062486
     atom   56 type  1   force =     0.00000163   -0.00000304    0.00192694
     atom   57 type  1   force =     0.00002036   -0.00007253   -0.00001558
     atom   58 type  2   force =     0.00000123    0.00000042   -0.00339931
     atom   59 type  2   force =    -0.00000101   -0.00002388   -0.00013616
     atom   60 type  2   force =     0.00062739   -0.00026628   -0.00148788
     atom   61 type  2   force =     0.00000553   -0.00000493    0.00161463
     atom   62 type  2   force =    -0.00001469   -0.00000180   -0.00001196
     atom   63 type  2   force =    -0.00324092    0.00419961   -0.00638958
     atom   64 type  1   force =    -0.00013079   -0.00036329   -0.00000758
     atom   65 type  1   force =     0.00000218    0.00000437    0.00192953
     atom   66 type  1   force =    -0.00000950    0.00003810    0.00006459
     atom   67 type  2   force =     0.00000037    0.00000291   -0.00339433
     atom   68 type  2   force =    -0.00001703    0.00001875   -0.00011031
     atom   69 type  2   force =    -0.00023128    0.00013017    0.00002009
     atom   70 type  2   force =     0.00000812   -0.00000268    0.00161864
     atom   71 type  2   force =     0.00001829    0.00002422    0.00015159
     atom   72 type  2   force =     0.00020777    0.00054857    0.00062285
     atom   73 type  1   force =     0.00007202    0.00066060    0.00032405
     atom   74 type  1   force =     0.00000076   -0.00000259    0.00193062
     atom   75 type  1   force =    -0.00003092    0.00001522    0.00018915
     atom   76 type  2   force =    -0.00000053    0.00000010   -0.00339661
     atom   77 type  2   force =    -0.00004941    0.00005047   -0.00008902
     atom   78 type  2   force =     0.00037922    0.00010706   -0.00050328
     atom   79 type  2   force =     0.00000327    0.00000298    0.00161879
     atom   80 type  2   force =     0.00004376   -0.00001856    0.00008124
     atom   81 type  2   force =     0.00023400   -0.00040457    0.00050564
     atom   82 type  1   force =    -0.00191683    0.00204117   -0.00100945
     atom   83 type  1   force =    -0.00000617    0.00000490    0.00192873
     atom   84 type  1   force =    -0.00001095    0.00002176    0.00007392
     atom   85 type  2   force =     0.00000232    0.00000109   -0.00339314
     atom   86 type  2   force =     0.00000029   -0.00004177   -0.00006533
     atom   87 type  2   force =     0.00056771   -0.00029702   -0.00085357
     atom   88 type  2   force =     0.00000051    0.00001269    0.00162310
     atom   89 type  2   force =    -0.00001965    0.00005838    0.00016161
     atom   90 type  2   force =     0.00412124   -0.00088590    0.00327843
     atom   91 type  1   force =     0.00097779   -0.00135288   -0.00179865
     atom   92 type  1   force =    -0.00000359   -0.00000107    0.00192508
     atom   93 type  1   force =    -0.00003196   -0.00008670   -0.00002731
     atom   94 type  2   force =     0.00000133    0.00000161   -0.00339947
     atom   95 type  2   force =     0.00000402   -0.00000696   -0.00011933
     atom   96 type  2   force =    -0.00091915    0.00012573   -0.00153031
     atom   97 type  2   force =    -0.00000332   -0.00000125    0.00160946
     atom   98 type  2   force =     0.00002108    0.00003003    0.00009380
     atom   99 type  2   force =     0.00320241    0.00361563   -0.00614974
     atom  100 type  1   force =     0.00011295   -0.00027424    0.00031084
     atom  101 type  1   force =    -0.00000033    0.00000335    0.00192734
     atom  102 type  1   force =     0.00000743    0.00000853    0.00003920
     atom  103 type  2   force =     0.00000131    0.00000251   -0.00339681
     atom  104 type  2   force =     0.00001294   -0.00001636   -0.00013332
     atom  105 type  2   force =     0.00004696   -0.00043816   -0.00049932
     atom  106 type  2   force =     0.00000435   -0.00000375    0.00161042
     atom  107 type  2   force =     0.00000380   -0.00000329    0.00012120
     atom  108 type  2   force =    -0.00023114    0.00113276    0.00126312
     atom  109 type  1   force =     0.00456565    0.00167291   -0.00090421
     atom  110 type  1   force =     0.00000181   -0.00000106    0.00193445
     atom  111 type  1   force =     0.00002339   -0.00000820    0.00005913
     atom  112 type  2   force =     0.00000208   -0.00000028   -0.00339684
[...]
     atom   72 type  2   force =     0.00003022    0.00006022   -0.00005345
     atom   73 type  1   force =     0.00000810   -0.00019729   -0.00005453
     atom   74 type  1   force =    -0.00000060   -0.00000310    0.00188781
     atom   75 type  1   force =     0.00000047   -0.00001129   -0.00004633
     atom   76 type  2   force =     0.00000013   -0.00000351   -0.00328324
     atom   77 type  2   force =     0.00000281    0.00002249   -0.00005855
     atom   78 type  2   force =    -0.00035756    0.00033772   -0.00004862
     atom   79 type  2   force =     0.00000198    0.00000573    0.00148210
     atom   80 type  2   force =    -0.00000504   -0.00000174    0.00002183
     atom   81 type  2   force =     0.00002035   -0.00002618    0.00006251
     atom   82 type  1   force =     0.00022160   -0.00036324    0.00014927
     atom   83 type  1   force =    -0.00000056   -0.00000312    0.00188618
     atom   84 type  1   force =    -0.00001399   -0.00001384    0.00000973
     atom   85 type  2   force =     0.00000002   -0.00000313   -0.00328266
     atom   86 type  2   force =    -0.00001264    0.00001357   -0.00001397
     atom   87 type  2   force =    -0.00063490    0.00006556    0.00033508
     atom   88 type  2   force =     0.00000334    0.00000291    0.00148625
     atom   89 type  2   force =     0.00000372   -0.00001841   -0.00001547
     atom   90 type  2   force =     0.00022555   -0.00004903   -0.00034312
     atom   91 type  1   force =     0.00006205    0.00020316   -0.00013221
     atom   92 type  1   force =    -0.00000215   -0.00000770    0.00188944
     atom   93 type  1   force =    -0.00001167   -0.00000972    0.00001632
     atom   94 type  2   force =     0.00000002   -0.00000266   -0.00328372
     atom   95 type  2   force =    -0.00001203   -0.00002586    0.00001031
     atom   96 type  2   force =    -0.00033668   -0.00036854   -0.00010522
     atom   97 type  2   force =    -0.00000142   -0.00000998    0.00146625
     atom   98 type  2   force =    -0.00000889    0.00000400    0.00002321
     atom   99 type  2   force =     0.00009803    0.00062195   -0.00025452
     atom  100 type  1   force =     0.00011764    0.00016128   -0.00024216
     atom  101 type  1   force =    -0.00000246   -0.00000001    0.00189234
     atom  102 type  1   force =    -0.00000236    0.00001527   -0.00005202
     atom  103 type  2   force =     0.00000025   -0.00000352   -0.00328219
     atom  104 type  2   force =     0.00000104   -0.00004164   -0.00000158
     atom  105 type  2   force =    -0.00000675   -0.00018208   -0.00000132
     atom  106 type  2   force =    -0.00000166   -0.00000173    0.00147257
     atom  107 type  2   force =    -0.00001950    0.00001925   -0.00002120
     atom  108 type  2   force =    -0.00001006    0.00038398   -0.00028216
     atom  109 type  1   force =    -0.00003089   -0.00024220    0.00031173
     atom  110 type  1   force =    -0.00000188   -0.00000219    0.00189004
     atom  111 type  1   force =    -0.00000651   -0.00000822   -0.00003270
     atom  112 type  2   force =     0.00000034   -0.00000351   -0.00328309
     atom  113 type  2   force =    -0.00000187    0.00000971   -0.00002459
     atom  114 type  2   force =     0.00037047    0.00034970   -0.00004375
     atom  115 type  2   force =    -0.00000438    0.00000578    0.00148193
     atom  116 type  2   force =     0.00003325    0.00002431    0.00000026
     atom  117 type  2   force =    -0.00000339   -0.00001428    0.00006729
     atom  118 type  1   force =    -0.00015637   -0.00034924    0.00013709
     atom  119 type  1   force =    -0.00000039   -0.00000290    0.00188607
     atom  120 type  1   force =     0.00000153    0.00000158   -0.00002056
     atom  121 type  2   force =     0.00000026   -0.00000313   -0.00328249
     atom  122 type  2   force =     0.00001424    0.00001015   -0.00000671
     atom  123 type  2   force =     0.00002088   -0.00016120    0.00013563
     atom  124 type  2   force =    -0.00000111   -0.00000424    0.00149448
     atom  125 type  2   force =    -0.00000773   -0.00001713   -0.00000913
     atom  126 type  2   force =     0.00002748   -0.00057783    0.00035653
     atom  127 type  1   force =    -0.00001525   -0.00041879   -0.00010816
     atom  128 type  1   force =    -0.00000034   -0.00000689    0.00189024
     atom  129 type  1   force =    -0.00000200    0.00000144    0.00000397
     atom  130 type  2   force =     0.00000017   -0.00000264   -0.00328312
     atom  131 type  2   force =    -0.00000322   -0.00001321   -0.00000238
     atom  132 type  2   force =    -0.00041982   -0.00055787    0.00001406
     atom  133 type  2   force =    -0.00000243   -0.00001319    0.00146960
     atom  134 type  2   force =     0.00000221    0.00001815    0.00002787
     atom  135 type  2   force =    -0.00008851   -0.00028903    0.00014140
     atom  136 type  1   force =     0.00025405    0.00005898    0.00000327
     atom  137 type  1   force =     0.00000025    0.00000006    0.00189542
     atom  138 type  1   force =    -0.00000585    0.00000497   -0.00003094
     atom  139 type  2   force =     0.00000034   -0.00000295   -0.00328138
     atom  140 type  2   force =    -0.00001066    0.00000300   -0.00002585
     atom  141 type  2   force =     0.00047866    0.00011080   -0.00004019
     atom  142 type  2   force =    -0.00000698   -0.00000311    0.00148506
     atom  143 type  2   force =    -0.00001223   -0.00000737   -0.00001545
     atom  144 type  2   force =    -0.00003919    0.00005764   -0.00006623
     atom  145 type  3   force =    -0.00015835    0.00029500    0.00008144
     atom  146 type  3   force =     0.00013390    0.00030333    0.00004532
     atom  147 type  4   force =     0.00004590    0.00090817   -0.00030414

     Total force =     0.003458     Total SCF correction =     0.000442
     SCF correction compared to forces is large: reduce conv_thr to get better values
     Energy error            =      1.1E-05 Ry
     Gradient error          =      9.1E-04 Ry/Bohr

     bfgs converged in  23 scf cycles and  22 bfgs steps
     (criteria: energy <  1.0E-04 Ry, force <  1.0E-03 Ry/Bohr)

     End of BFGS Geometry Optimization

     Final energy             =  -26543.7378792353 Ry

     File ./outdir/pwscf.bfgs deleted, as requested
Begin final coordinates

ATOMIC_POSITIONS (angstrom)
Mo               1.5763672712        2.6861817116        6.0615819403
Mo               1.5769197498        0.9104407117       -6.0872367793    0   0   0
Mo              -0.0001921402        1.8214105901       -0.0016619524
S                0.0000044503        0.0000077495       -7.6506323570    0   0   0
S                1.5768670527        0.9112171822       -1.5671988206
S               -0.0106281620        1.8174245306        4.4929044746
S                0.0000053241        0.0000068460       -4.5222282367    0   0   0
S                1.5767299478        0.9105256603        1.5649044453
S               -0.0063241861        1.8016906290        7.6378157582
Mo              -0.0264341094        5.4639900266        6.1370187215
Mo               0.0000011799        3.6417399547       -6.0872367793    0   0   0
Mo              -1.5767137198        4.5526302563       -0.0017637194
S               -1.5769141197        2.7313069925       -7.6506323570    0   0   0
S               -0.0001286712        3.6418670976       -1.5672872797
S               -1.5659831441        4.5651447695        4.5436629098
S               -1.5769132459        2.7313060890       -4.5222282367    0   0   0
S                0.0006058488        3.6429388304        1.5660353811
S               -1.6817410068        4.4960389406        7.7163082377
Mo              -1.5880847885        8.2058715793        6.0762408044
Mo              -1.5769173901        6.3730391977       -6.0872367793    0   0   0
Mo              -3.1539078099        7.2834528815       -0.0032590330
S               -3.1538326896        5.4626062355       -7.6506323570    0   0   0
S               -1.5770586592        6.3727229787       -1.5683815042
S               -3.1554956342        7.2851040585        4.5057007608
S               -3.1538318159        5.4626053320       -4.5222282367    0   0   0
S               -1.5769371443        6.3738264628        1.5645725352
S               -3.1613165430        7.2943476450        7.6456642083
Mo               3.1581975207       -0.0024148062        6.0612247927
Mo              -3.1538359601        9.1043384407       -6.0872367793    0   0   0
Mo              -4.7308871745       10.0150215986       -0.0026086585
S               -4.7307512596        8.1939054785       -7.6506323570    0   0   0
S               -3.1538167259        9.1048140784       -1.5680953811
S               -4.7312152305       10.0137545722        4.4970182092
S               -4.7307503859        8.1939045750       -4.5222282367    0   0   0
S               -3.1540857370        9.1039932452        1.5639379778
S               -4.7311404778       10.0204623848        7.6310537096
Mo               4.7321518152        2.7248229848        6.0785947501
Mo               4.7307503218        0.9104407117       -6.0872367793    0   0   0
Mo               3.1537969616        1.8213910571       -0.0015096318
S                3.1538350223        0.0000077495       -7.6506323570    0   0   0
S                4.7310052424        0.9110074973       -1.5668530556
S                3.1633163561        1.8175147128        4.4927938955
S                3.1538358961        0.0000068460       -4.5222282367    0   0   0
S                4.7306824807        0.9099033317        1.5648249071
S                3.1591066980        1.8016629175        7.6377678563
Mo               3.1788079473        5.4642828852        6.1368264255
Mo               3.1538317519        3.6417399547       -6.0872367793    0   0   0
Mo               1.5767976069        4.5528436448       -0.0022181775
S                1.5769164523        2.7313069925       -7.6506323570    0   0   0
S                3.1537854047        3.6418070317       -1.5671756963
S                1.5761954089        4.5753278834        4.5776906068
S                1.5769173261        2.7313060890       -4.5222282367    0   0   0
S                3.1529230080        3.6429664380        1.5661354092
S                1.5764349110        4.4559971348        7.6452522867
Mo               1.5762548322        8.2119641669        6.0947870175
Mo               1.5769131819        6.3730391977       -6.0872367793    0   0   0
Mo              -0.0000433125        7.2832781672       -0.0031675184
S               -0.0000021176        5.4626062355       -7.6506323570    0   0   0
S                1.5767878620        6.3730411540       -1.5686558071
S                0.0012767310        7.2659315854        4.5494018431
S               -0.0000012439        5.4626053320       -4.5222282367    0   0   0
S                1.5768006620        6.3737260800        1.5645230932
S               -0.0175972265        7.3659655404        7.6882159083
Mo               6.3091442241       -0.0005153917        6.0687594884
Mo              -0.0000053881        9.1043384407       -6.0872367793    0   0   0
Mo              -1.5768228605       10.0146606539       -0.0022677751
S               -1.5769206876        8.1939054785       -7.6506323570    0   0   0
S                0.0002109799        9.1048825259       -1.5676353322
S               -1.5716385037       10.0112456640        4.4981387697
S               -1.5769198139        8.1939045750       -4.5222282367    0   0   0
S               -0.0004034367        9.1026981178        1.5652787395
S               -1.5811763434       10.0271260761        7.6408631508
Mo               7.8838477953        2.7357616513        6.0729389204
Mo               7.8845808939        0.9104407117       -6.0872367793    0   0   0
Mo               6.3075750220        1.8211949096       -0.0008367511
S                6.3076655943        0.0000077495       -7.6506323570    0   0   0
S                7.8844125463        0.9106451794       -1.5661346664
S                6.3085921316        1.8241886374        4.5054008749
S                6.3076664681        0.0000068460       -4.5222282367    0   0   0
S                7.8845215042        0.9100539609        1.5658757108
S                6.3142317826        1.8113062488        7.6410028448
Mo               6.3160815899        5.4686811726        6.0818008549
Mo               6.3076623239        3.6417399547       -6.0872367793    0   0   0
Mo               4.7303090367        4.5526212824       -0.0016484754
S                4.7307470244        2.7313069925       -7.6506323570    0   0   0
S                6.3076684914        3.6417307983       -1.5663549000
S                4.7183227683        4.5654292291        4.5433464715
S                4.7307478981        2.7313060890       -4.5222282367    0   0   0
S                6.3066137952        3.6428709882        1.5664722099
S                4.8337245314        4.4966031161        7.7160314493
Mo               4.7406952042        8.2060098789        6.0762596238
Mo               4.7307437539        6.3730391977       -6.0872367793    0   0   0
Mo               3.1536243082        7.2832760946       -0.0031978455
S                3.1538284544        5.4626062355       -7.6506323570    0   0   0
S                4.7306366490        6.3726306041       -1.5683701151
S                3.1513026351        7.2662592609        4.5492135330
S                3.1538293281        5.4626053320       -4.5222282367    0   0   0
S                4.7305260233        6.3738990992        1.5645839278
S                3.1700516370        7.3661503203        7.6880294981
Mo               9.4588304655       -0.0005732195        6.0687907916
Mo               3.1538251839        9.1043384407       -6.0872367793    0   0   0
Mo               1.5767843685       10.0144162012       -0.0012277516
S                1.5769098844        8.1939054785       -7.6506323570    0   0   0
S                3.1532691994        9.1048382848       -1.5677309748
S                1.5763307766       10.0060276713        4.5048108649
S                1.5769107581        8.1939045750       -4.5222282367    0   0   0
S                3.1540423379        9.1027466526        1.5651809781
S                1.5762950411       10.0385564099        7.6518955935
Mo              -1.5797086006        2.7245136656        6.0787229679
Mo              11.0384114659        0.9104407117       -6.0872367793    0   0   0
Mo               9.4613588225        1.8211988798       -0.0009800863
S                9.4614961663        0.0000077495       -7.6506323570    0   0   0
S               11.0379331697        0.9110477665       -1.5670535354
S                9.4591931102        1.8240732508        4.5054250361
S                9.4614970401        0.0000068460       -4.5222282367    0   0   0
S               11.0382388797        0.9098838603        1.5646316222
S                9.4534091259        1.8111339549        7.6410526512
Mo              -3.1638389212        5.4684835614        6.0819458579
Mo               9.4614928959        3.6417399547       -6.0872367793    0   0   0
Mo               7.8844540860        4.5524785204       -0.0010005268
S                7.8845775964        2.7313069925       -7.6506323570    0   0   0
S                9.4612090058        3.6417798220       -1.5664596960
S                7.8837836317        4.5601413896        4.5067228673
S                7.8845784701        2.7313060890       -4.5222282367    0   0   0
S                9.4623435198        3.6428406108        1.5663711416
S                7.8836374778        4.5539999010        7.6495958405
Mo              -4.7312614762        8.1981872425        6.0701161221
Mo               7.8845743259        6.3730391977       -6.0872367793    0   0   0
Mo               6.3074766586        7.2834571170       -0.0033219578
S                6.3076590264        5.4626062355       -7.6506323570    0   0   0
S                7.8844754679        6.3722781986       -1.5681357411
S                6.3081163420        7.2854171567        4.5057319556
S                6.3076599001        5.4626053320       -4.5222282367    0   0   0
S                7.8844158586        6.3742116135        1.5640891681
S                6.3139951136        7.2944917704        7.6456225833
Mo              -0.0053148607       -0.0024500736        6.0613371600
Mo               6.3076557559        9.1043384407       -6.0872367793    0   0   0
Mo               4.7303855775       10.0146647782       -0.0024821333
S                4.7307404564        8.1939054785       -7.6506323570    0   0   0
S                6.3074652284        9.1047858477       -1.5682187478
S                4.7244579369       10.0113173968        4.4982256023
S                4.7307413301        8.1939045750       -4.5222282367    0   0   0
S                6.3075389242        9.1040213794        1.5638157666
S                4.7339295490       10.0271857167        7.6409524296
Pd               3.0944797053        5.3798873168        9.0659352437
Pd               0.0576481132        5.3793293560        9.0656470695
Pt               1.5756370224        5.6418217830       11.0707231884
End final coordinates



     Writing all to output data dir ./outdir/pwscf.save/ :
     XML data file, charge density, pseudopotentials, collected wavefunctions
 
     init_run     :     97.36s CPU     99.81s WALL (       1 calls)
     electrons    : 107999.13s CPU 109654.63s WALL (      23 calls)
     update_pot   :     29.12s CPU     30.02s WALL (      22 calls)
     forces       :   1648.81s CPU   1684.02s WALL (      23 calls)
     force_dftd3  :      8.73s CPU      9.17s WALL (      23 calls)

     Called by init_run:
     wfcinit      :     78.02s CPU     79.31s WALL (       1 calls)
     potinit      :      1.09s CPU      1.18s WALL (       1 calls)
     hinit0       :     10.54s CPU     10.61s WALL (       1 calls)

     Called by electrons:
     c_bands      :  93331.44s CPU  94309.00s WALL (     341 calls)
     sum_band     :  12572.61s CPU  12918.33s WALL (     341 calls)
     v_of_rho     :     99.49s CPU    111.11s WALL (     348 calls)
     newd         :   1758.92s CPU   2083.63s WALL (     348 calls)
     PAW_pot      :    282.28s CPU    284.47s WALL (     370 calls)
     mix_rho      :     27.94s CPU     31.38s WALL (     341 calls)
     energy_dftd3 :      4.94s CPU      4.97s WALL (      23 calls)

     Called by c_bands:
     init_us_2    :    475.22s CPU    477.49s WALL (    2912 calls)
     init_us_2:cp :    475.20s CPU    477.48s WALL (    2912 calls)
     cegterg      :  91359.71s CPU  92328.75s WALL (    1375 calls)

     Called by *egterg:
     cdiaghg      :   5124.34s CPU   5350.47s WALL (   17162 calls)
     h_psi        :  47506.72s CPU  47810.79s WALL (   17318 calls)
     s_psi        :  10064.13s CPU  10104.60s WALL (   17318 calls)
     g_psi        :    101.84s CPU    102.29s WALL (   15939 calls)

     Called by h_psi:
     h_psi:calbec :   9750.84s CPU   9785.90s WALL (   17318 calls)
     vloc_psi     :  27431.96s CPU  27575.66s WALL (   17318 calls)
     add_vuspsi   :  10097.02s CPU  10140.49s WALL (   17318 calls)

     General routines
     calbec       :  13986.65s CPU  14035.80s WALL (   19138 calls)
     fft          :     85.39s CPU     96.40s WALL (    4769 calls)
     ffts         :      4.58s CPU      4.70s WALL (     689 calls)
     fftw         :  20662.26s CPU  20771.98s WALL ( 7239252 calls)
     interpolate  :      8.23s CPU      9.03s WALL (     348 calls)
 
     Parallel routines
 
     PWSCF        :   1d 6h38m CPU   1d 7h 8m WALL

 
   This run was terminated on:  22:14:39  30Mar2024            

=------------------------------------------------------------------------------=
   JOB DONE.
=------------------------------------------------------------------------------=
