145
Lattice="12.615322175253082 0.0 0.0 -6.307673702948716 10.925197002145726 0.0 0.0 0.0 30.30125956094956" Properties=species:S:1:pos:R:3:forces:R:3 energy=-331396.0190183731 free_energy=-331396.0190183731 pbc="T T T"
Mo       1.57689383       2.73128033       6.08503471      -0.04591322      -0.06832347      -0.06323371
Mo       1.57692032       0.91044023      -6.08723735      -0.00002057       0.00062401       0.04875249
Mo      -0.00002397       1.82086659      -0.00094741       0.00031702      -0.00112794      -0.00028488
S        0.00000505       0.00000757      -7.65063278       0.00002340      -0.00003111      -0.07442958
S        1.57689256       0.91043771      -1.56640797      -0.00016044       0.00013138       0.00914876
S       -0.00002018       1.82085019       4.51935212       0.00522731      -0.00199389       0.00734101
S        0.00000505       0.00000631      -4.52222842      -0.00009744      -0.00001851       0.02896656
S        1.57689256       0.91043645       1.56625532       0.00000026      -0.00022009      -0.01018028
S       -0.00001892       1.82085019       7.65396953      -0.00060112       0.00131409       0.00765289
Mo      -0.00002649       5.46257958       6.08503471      -0.08260132      -0.00575593      -0.06314706
Mo       0.00000126       3.64173948      -6.08723735       0.00095619      -0.00047360       0.04878694
Mo      -1.57692663       4.55215322      -0.00093858      -0.00091814       0.00101893      -0.00031959
S       -1.57691401       2.73130682      -7.65063278      -0.00007353      -0.00004988      -0.07439436
S       -0.00002145       3.64173191      -1.56640292       0.00007559       0.00005605       0.00980490
S       -1.57694050       4.55214692       4.51935086       0.00093845       0.00553893       0.00776447
S       -1.57691275       2.73130556      -4.52222842      -0.00017586      -0.00021237       0.02896168
S       -0.00002145       3.64173065       1.56625659       0.00028231       0.00007662      -0.00878803
S       -1.57694050       4.55214818       7.65396827       0.00088960      -0.00107832       0.00738215
Mo      -1.57694681       8.19388009       6.08503471      -0.01460001       0.00818382       0.01179134
Mo      -1.57691779       6.37303873      -6.08723735       0.00037821       0.00081787       0.04890367
Mo      -3.15385451       7.28345878      -0.00094236      -0.00034478      -0.00175838      -0.00127732
S       -3.15383307       5.46260607      -7.65063278      -0.00009924       0.00011570      -0.07481165
S       -1.57693924       6.37302738      -1.56639283       0.00009359      -0.00014218       0.00937887
S       -3.15385956       7.28344617       4.51935086      -0.00018846      -0.00093640       0.00669721
S       -3.15383181       5.46260481      -4.52222842       0.00001157       0.00010901       0.02917714
S       -1.57694176       6.37302864       1.56625280      -0.00011878       0.00018358      -0.01028210
S       -3.15385956       7.28344617       7.65396953      -0.00002623      -0.00664116      -0.01556572
Mo       3.15381162      -0.00001766       6.08503597      -0.00023680      -0.01695463       0.01173554
Mo      -3.15383559       9.10433798      -6.08723735       0.00054096      -0.00026328       0.04885559
Mo      -4.73078997      10.01478326      -0.00094741      -0.00148070       0.00017252      -0.00111123
S       -4.73075086       8.19390532      -7.65063278      -0.00010542       0.00006659      -0.07444321
S       -3.15386082       9.10433041      -1.56639283      -0.00006556       0.00009590       0.00929222
S       -4.73077483      10.01474542       4.51935086      -0.00106598       0.00035558       0.00653960
S       -4.73075086       8.19390406      -4.52222842       0.00006453       0.00009436       0.02883364
S       -3.15386587       9.10433168       1.56624776      -0.00010696       0.00013267      -0.00965578
S       -4.73077483      10.01474415       7.65396701      -0.00582689       0.00329924      -0.01581151
Mo       4.73072185       2.73128033       6.08503219       0.04705839      -0.06736599      -0.06341446
Mo       4.73075086       0.91044023      -6.08723735      -0.00003959       0.00029233       0.04896255
Mo       3.15379648       1.82087290      -0.00094615       0.00105724      -0.00047900       0.00005939
S        3.15383559       0.00000757      -7.65063278      -0.00000694       0.00010284      -0.07457022
S        4.73072311       0.91043392      -1.56639914       0.00009282       0.00011416       0.00971800
S        3.15380910       1.82085019       4.51935086       0.00009359      -0.02373951      -0.01570635
S        3.15383559       0.00000631      -4.52222842       0.00001774      -0.00001568       0.02918871
S        4.73072311       0.91043771       1.56625280      -0.00013781      -0.00011416      -0.01069630
S        3.15381036       1.82084893       7.65396953       0.00008510       0.02866112      -0.03412188
Mo       3.15380657       5.46257958       6.08503471       0.00127527      -0.00012110      -0.62356065
Mo       3.15383181       3.64173948      -6.08723735      -0.00047514      -0.00035096       0.04875763
Mo       1.57688752       4.55217088      -0.00094236       0.00129686       0.00077364      -0.00074022
S        1.57691653       2.73130682      -7.65063278       0.00001080      -0.00018409      -0.07416656
S        3.15380153       3.64173318      -1.56640419      -0.00002623       0.00009719       0.00984861
S        1.57689130       4.55214692       4.51935086       0.01408270       0.00807429       0.08664849
S        1.57691779       2.73130556      -4.52222842       0.00000514      -0.00014398       0.02874673
S        3.15380279       3.64173318       1.56625532       0.00000360      -0.00018049      -0.00894898
S        1.57689130       4.55214692       7.65396827      -0.60474609      -0.34910876       0.33393205
Mo       1.57688500       8.19388009       6.08503597      -0.03554499       0.07465172      -0.06324631
Mo       1.57691275       6.37303873      -6.08723735       0.00011313       0.00038695       0.04853729
Mo      -0.00001388       7.28345878      -0.00094110      -0.00025120       0.00049237       0.00020080
S       -0.00000252       5.46260607      -7.65063278       0.00000720       0.00022780      -0.07472294
S        1.57688752       6.37302864      -1.56640292       0.00003137       0.00001080       0.01018234
S       -0.00002902       7.28344490       4.51935212      -0.02064082       0.01188261      -0.01572564
S       -0.00000126       5.46260481      -4.52222842      -0.00002314       0.00014912       0.02922959
S        1.57689004       6.37302864       1.56625911      -0.00016172       0.00012444      -0.00915518
S       -0.00002775       7.28344617       7.65396953       0.02469622      -0.01423928      -0.03410440
Mo       6.30763964      -0.00001766       6.08503471       0.00464650       0.00265724       0.00927140
Mo      -0.00000505       9.10433798      -6.08723735      -0.00003060      -0.00065923       0.04890650
Mo      -1.57693924      10.01476939      -0.00093858       0.00192781       0.00123207      -0.00103101
S       -1.57692032       8.19390532      -7.65063278       0.00009410       0.00003085      -0.07423520
S       -0.00003028       9.10432789      -1.56639914       0.00021186       0.00014938       0.00958250
S       -1.57694807      10.01474668       4.51934834       0.00086723       0.00057901       0.00665993
S       -1.57692032       8.19390406      -4.52222842      -0.00005734       0.00005734       0.02861432
S       -0.00002775       9.10433041       1.56625406      -0.00012547       0.00020440      -0.01058292
S       -1.57694681      10.01474542       7.65397332       0.00572122       0.00328998      -0.01565185
Mo       7.88455491       2.73128411       6.08503597      -0.01367081       0.00748680       0.00001954
Mo       7.88458141       0.91044023      -6.08723735       0.00031008       0.00064406       0.04902914
Mo       6.30764216       1.82086406      -0.00094741      -0.00063069      -0.00078881      -0.00006993
S        6.30766613       0.00000757      -7.65063278      -0.00017458       0.00003111      -0.07435502
S        7.88455744       0.91043519      -1.56640545      -0.00004371      -0.00006119       0.00960693
S        6.30763838       1.82085019       4.51935086      -0.00529519      -0.00180980       0.00794008
S        6.30766613       0.00000631      -4.52222842      -0.00012290      -0.00003060       0.02883235
S        7.88455618       0.91043519       1.56625532       0.00003368      -0.00008947      -0.01057032
S        6.30763964       1.82084893       7.65396827       0.00053222       0.00157583       0.00725231
Mo       6.30763712       5.46258084       6.08503724       0.08140884      -0.00633803      -0.06336329
Mo       6.30766235       3.64173948      -6.08723735       0.00053865      -0.00042320       0.04853086
Mo       4.73070040       4.55216458      -0.00094489       0.00016481       0.00059932      -0.00079319
S        4.73074708       2.73130682      -7.65063278      -0.00015195      -0.00016841      -0.07458179
S        6.30763333       3.64173444      -1.56639662      -0.00027099       0.00004114       0.01011189
S        4.73072311       4.55214692       4.51935086      -0.01397446       0.00818125       0.08724113
S        4.73074834       2.73130556      -4.52222842      -0.00014758      -0.00013704       0.02901413
S        6.30763207       3.64173318       1.56625028      -0.00046177       0.00016506      -0.00908885
S        4.73072185       4.55214565       7.65396827       0.60563903      -0.34943683       0.33263801
Mo       4.73072059       8.19387883       6.08503471       0.03598542       0.07396498      -0.06322291
Mo       4.73074329       6.37303873      -6.08723735       0.00003625       0.00060370       0.04868410
Mo       3.15379396       7.28346257      -0.00094363       0.00046563      -0.00065203      -0.00063840
S        3.15382802       5.46260607      -7.65063278      -0.00003754       0.00011030      -0.07450311
S        4.73071554       6.37302864      -1.56640166      -0.00018820       0.00002854       0.01039728
S        3.15380279       7.28344617       4.51935212       0.00011827      -0.01615244       0.08696525
S        3.15382928       5.46260481      -4.52222842      -0.00003394       0.00001157       0.02893082
S        4.73071680       6.37302990       1.56625280       0.00015041       0.00017561      -0.00951900
S        3.15380279       7.28344490       7.65396827       0.00013421       0.70021989       0.33274214
Mo       9.46147271      -0.00001514       6.08503724      -0.00035970      -0.01557137       0.00010722
Mo       3.15382550       9.10433798      -6.08723735       0.00064715      -0.00033142       0.04888876
Mo       1.57689004      10.01476812      -0.00094867      -0.00080990       0.00001748       0.00001723
S        1.57691023       8.19390532      -7.65063278      -0.00015889      -0.00005734      -0.07437919
S        3.15380153       9.10432789      -1.56640545      -0.00003445      -0.00005528       0.01023608
S        1.57688373      10.01474668       4.51934960      -0.00423229      -0.00350339       0.00787195
S        1.57691023       8.19390406      -4.52222842      -0.00015092      -0.00003420       0.02884444
S        3.15380027       9.10432915       1.56625532      -0.00004551      -0.00023526      -0.00929737
S        1.57688247      10.01474668       7.65397332       0.00153521      -0.00024040       0.00721657
Mo      -1.57693672       2.73128285       6.08503471       0.01276064       0.00778067       0.00008408
Mo      11.03841195       0.91044023      -6.08723735       0.00004345      -0.00026508       0.04911835
Mo       9.46147775       1.82085650      -0.00094489      -0.00036741      -0.00014707      -0.00110146
S        9.46149668       0.00000757      -7.65063278       0.00000874       0.00005528      -0.07456919
S       11.03838672       0.91043519      -1.56640797      -0.00010516      -0.00009899       0.00922769
S        9.46147019       1.82085019       4.51935212      -0.00016764      -0.00005374       0.00793211
S        9.46149668       0.00000631      -4.52222842       0.00003368       0.00005836       0.02911903
S       11.03838798       0.91043519       1.56625659      -0.00021109      -0.00014990      -0.01011832
S        9.46147019       1.82085145       7.65396827      -0.00017535      -0.00015195      -0.01156277
Mo      -3.15385451       5.46258210       6.08503345      -0.00001414      -0.00475885       0.00941101
Mo       9.46149289       3.64173948      -6.08723735      -0.00053556      -0.00080784       0.04883451
Mo       7.88454861       4.55215953      -0.00094236       0.00001440       0.00097625      -0.00027665
S        7.88457762       2.73130682      -7.65063278      -0.00001491       0.00000771      -0.07401872
S        9.46147019       3.64173065      -1.56639535      -0.00004602      -0.00003908       0.00929737
S        7.88455113       4.55214944       4.51935086      -0.00121947       0.00554098       0.00785163
S        7.88457888       2.73130556      -4.52222842       0.00010722      -0.00013267       0.02866909
S        9.46146766       3.64173065       1.56625154      -0.00006813      -0.00023294      -0.00998694
S        7.88455365       4.55214818       7.65397079      -0.00127527      -0.00117422       0.00741352
Mo      -4.73077231       8.19388009       6.08503471       0.01434316       0.00852321       0.01151314
Mo       7.88457384       6.37303873      -6.08723735      -0.00027074       0.00006993       0.04882653
Mo       6.30762198       7.28346761      -0.00094867       0.00030776      -0.00010156       0.00024040
S        6.30765856       5.46260607      -7.65063278      -0.00007430       0.00012367      -0.07459953
S        7.88454861       6.37302990      -1.56639409      -0.00017226      -0.00017226       0.00956090
S        6.30763586       7.28344490       4.51935212       0.02044490       0.01183042      -0.01555955
S        6.30765983       5.46260481      -4.52222842      -0.00007276       0.00014835       0.02920568
S        7.88454482       6.37303116       1.56624776      -0.00016147       0.00021289      -0.01045076
S        6.30763712       7.28344490       7.65396953      -0.02503740      -0.01440409      -0.03439390
Mo      -0.00001514      -0.00001640       6.08503471      -0.00384971       0.00159048       0.00941769
Mo       6.30765604       9.10433798      -6.08723735      -0.00058621      -0.00024965       0.04880879
Mo       4.73070671      10.01477443      -0.00094489       0.00075153      -0.00052039       0.00000977
S        4.73074077       8.19390532      -7.65063278       0.00009590       0.00000900      -0.07420589
S        6.30762703       9.10433168      -1.56640166      -0.00035070       0.00017381       0.00948120
S        4.73071554      10.01474668       4.51935086       0.00428577      -0.00368028       0.00768014
S        4.73074077       8.19390406      -4.52222842       0.00005708       0.00009642       0.02879327
S        6.30762829       9.10433168       1.56625028      -0.00002931       0.00005862      -0.01036052
S        4.73071554      10.01474542       7.65397079      -0.00162417      -0.00039004       0.00724665
Pd       3.15399959       5.46299967       9.15399946       0.00036921      -0.00141076      -0.29074909
145
Lattice="12.615322175253082 0.0 0.0 -6.307673702948716 10.925197002145726 0.0 0.0 0.0 30.30125956094956" Properties=species:S:1:pos:R:3:forces:R:3 energy=-331396.0574422077 free_energy=-331396.0574422077 pbc="T T T"
Mo       1.57594903       2.72987435       6.08373293      -0.03268592      -0.04956007      -0.00937450
Mo       1.57691975       0.91044071      -6.08723678       0.00013627       0.00002571       0.04880365
Mo      -0.00001682       1.82084377      -0.00095291      -0.00026045       0.00137374       0.00044429
S        0.00000445       0.00000775      -7.65063236       0.00002545      -0.00004525      -0.08447591
S        1.57688948       0.91044049      -1.56621932       0.00000257      -0.00000926      -0.00216564
S        0.00008689       1.82080970       4.51950320      -0.00405566      -0.00959279      -0.01918326
S        0.00000532       0.00000685      -4.52222824       0.00001131      -0.00004499       0.03852490
S        1.57689225       0.91043234       1.56604602       0.00006556      -0.00020055       0.00095414
S       -0.00003162       1.82087738       7.65412691      -0.00527719      -0.01045205       0.00881940
Mo      -0.00172704       5.46246158       6.08373528      -0.05888623      -0.00343139      -0.00949200
Mo       0.00000118       3.64173995      -6.08723678       0.00020723       0.00012573       0.04885893
Mo      -1.57694597       4.55217409      -0.00094472       0.00074665      -0.00092663       0.00030956
S       -1.57691412       2.73130699      -7.65063236       0.00002263       0.00000926      -0.08451756
S       -0.00002002       3.64173325      -1.56620097       0.00036484       0.00017226      -0.00192833
S       -1.57692105       4.55226140       4.51951087      -0.01026719       0.00124981      -0.01941646
S       -1.57691325       2.73130609      -4.52222824       0.00002057       0.00001054       0.03851255
S       -0.00001564       3.64173192       1.56607613       0.00043580       0.00017535       0.00228494
S       -1.57692228       4.55212545       7.65412010      -0.01167358       0.00059495       0.00907908
Mo      -1.57724679       8.19404790       6.08527762      -0.00289738       0.00187639       0.00678360
Mo      -1.57691739       6.37303920      -6.08723678       0.00010542       0.00000360       0.04887076
Mo      -3.15386207       7.28342275      -0.00096803       0.00053299       0.00197641       0.00129198
S       -3.15383269       5.46260624      -7.65063236      -0.00000257       0.00000463      -0.08448465
S       -1.57693744       6.37302401      -1.56619949       0.00004705      -0.00006839      -0.00223815
S       -3.15386387       7.28342709       4.51948863      -0.00005399      -0.00014578      -0.00475680
S       -3.15383182       5.46260533      -4.52222824      -0.00004937       0.00002108       0.03854007
S       -1.57694369       6.37303197       1.56604136      -0.00008408       0.00012573       0.00099733
S       -3.15385993       7.28330903       7.65364945      -0.00011441      -0.00495040       0.00089166
Mo       3.15380656      -0.00036606       6.08527813       0.00020157      -0.00329795       0.00678746
Mo      -3.15383596       9.10433844      -6.08723678       0.00001594      -0.00002417       0.04882473
Mo      -4.73082016      10.01478728      -0.00096987       0.00185094      -0.00006711       0.00105518
S       -4.73075126       8.19390548      -7.65063236      -0.00002057      -0.00004808      -0.08450856
S       -3.15386212       9.10433265      -1.56620167      -0.00005631      -0.00001800      -0.00228828
S       -4.73079644      10.01475281       4.51948577      -0.00014192       0.00001054      -0.00473469
S       -4.73075039       8.19390457      -4.52222824      -0.00000746      -0.00003342       0.03849970
S       -3.15386772       9.10433442       1.56604964      -0.00006839      -0.00000283       0.00145036
S       -4.73089474      10.01481254       7.65364220      -0.00433694       0.00237519       0.00102458
Mo       4.73169102       2.72989424       6.08372755       0.03230668      -0.05009537      -0.00935239
Mo       4.73075032       0.91044071      -6.08723678      -0.00004371       0.00004859       0.04885405
Mo       3.15381765       1.82086251      -0.00094444      -0.00195352      -0.00011184       0.00043914
S        3.15383502       0.00000775      -7.65063236       0.00002982       0.00001543      -0.08454044
S        4.73072500       0.91043663      -1.56619924       0.00012984       0.00016404      -0.00221578
S        3.15381156       1.82036097       4.51902708       0.00011904      -0.03005980      -0.03611654
S        3.15383590       0.00000685      -4.52222824       0.00002340       0.00001234       0.03854906
S        4.73071970       0.91043541       1.56603293       0.00008408      -0.00003728       0.00107241
S        3.15381164       1.82143931       7.65326771       0.00015864       0.02413392      -0.03845085
Mo       3.15383239       5.46257684       6.07220014      -0.00043683       0.00017458       0.02805613
Mo       3.15383175       3.64173995      -6.08723678       0.00003754       0.00008973       0.04893966
Mo       1.57691465       4.55218627      -0.00095778      -0.00194530      -0.00143828       0.00079961
S        1.57691645       2.73130699      -7.65063236       0.00004525       0.00002905      -0.08452142
S        3.15380141       3.64173536      -1.56620088       0.00018820       0.00036098      -0.00163882
S        1.57718118       4.55231296       4.52113481      -0.02245936      -0.01294705       0.00294931
S        1.57691733       2.73130609      -4.52222824       0.00007199       0.00008228       0.03853878
S        3.15380255       3.64172906       1.56607146       0.00021057       0.00036792       0.00302516
S        1.56444492       4.54496164       7.66084115      -0.41422195      -0.23920927       0.19867634
Mo       1.57615334       8.19541644       6.08373444      -0.02689143       0.05287576      -0.00963161
Mo       1.57691318       6.37303920      -6.08723678       0.00016172      -0.00007199       0.04891858
Mo      -0.00001898       7.28346945      -0.00093639      -0.00063198      -0.00040675       0.00006993
S       -0.00000212       5.46260624      -7.65063236       0.00005425      -0.00000926      -0.08449879
S        1.57688877       6.37302923      -1.56619367       0.00045817      -0.00004937      -0.00172470
S       -0.00045352       7.28369008       4.51902786      -0.02594397       0.01508363      -0.03615922
S       -0.00000124       5.46260533      -4.52222824       0.00012676      -0.00001928       0.03851384
S        1.57688630       6.37303132       1.56607112       0.00049519      -0.00005168       0.00310615
S        0.00047991       7.28315248       7.65326789       0.02096889      -0.01195949      -0.03832229
Mo       6.30773578       0.00003669       6.08522552       0.00699777       0.00410914       0.00657868
Mo      -0.00000539       9.10433844      -6.08723678       0.00007199      -0.00004679       0.04889570
Mo      -1.57689983      10.01479443      -0.00095955      -0.00227980      -0.00155038       0.00062426
S       -1.57692069       8.19390548      -7.65063236       0.00003368      -0.00001928      -0.08457567
S       -0.00002535       9.10433116      -1.56620152       0.00022677       0.00003265      -0.00216513
S       -1.57693047      10.01475915       4.51948544       0.00017509       0.00005168      -0.00467144
S       -1.57691981       8.19390457      -4.52222824       0.00002443      -0.00000129       0.03855935
S       -0.00002992       9.10433436       1.56603679       0.00004757       0.00007970       0.00103230
S       -1.57682891      10.01481318       7.65365064       0.00437293       0.00252688       0.00084795
Mo       7.88427314       2.73143767       6.08503608      -0.00303287       0.00187279       0.00256776
Mo       7.88458089       0.91044071      -6.08723678      -0.00003831      -0.00003857       0.04890033
Mo       6.30762941       1.82084836      -0.00094833       0.00105055       0.00096853       0.00004834
S        6.30766559       0.00000775      -7.65063236      -0.00000951      -0.00000591      -0.08449828
S        7.88455680       0.91043383      -1.56620757      -0.00019720      -0.00015889      -0.00213633
S        6.30752992       1.82081290       4.51951418       0.00413999      -0.00942386      -0.01940566
S        6.30766647       0.00000685      -4.52222824      -0.00001517      -0.00002160       0.03851307
S        7.88455683       0.91043288       1.56603806      -0.00011853      -0.00011673       0.00138480
S        6.30765081       1.82088174       7.65411804       0.00530881      -0.01033249       0.00894795
Mo       6.30931269       5.46245019       6.08373340       0.05960768      -0.00302619      -0.00936730
Mo       6.30766232       3.64173995      -6.08723678      -0.00018075       0.00010901       0.04890598
Mo       4.73070379       4.55217671      -0.00096080      -0.00016866      -0.00091840       0.00090169
S        4.73074702       2.73130699      -7.65063236       0.00002494       0.00005451      -0.08440597
S        6.30762772       3.64173515      -1.56618893      -0.00035507       0.00027948      -0.00180106
S        4.73043539       4.55231546       4.52114657       0.02266273      -0.01296273       0.00248291
S        4.73074790       2.73130609      -4.52222824      -0.00000823       0.00010310       0.03847142
S        6.30762225       3.64173719       1.56606342      -0.00038952       0.00026534       0.00219264
S        4.74318731       4.54495313       7.66081442       0.41486884      -0.23941881       0.19891160
Mo       4.73146077       8.19540164       6.08373398       0.02680889       0.05312053      -0.00941898
Mo       4.73074375       6.37303920      -6.08723678      -0.00005862      -0.00009256       0.04898723
Mo       3.15380346       7.28344869      -0.00095651      -0.00060755       0.00089552       0.00053299
S        3.15382845       5.46260624      -7.65063236       0.00002751      -0.00000900      -0.08445251
S        4.73071164       6.37302982      -1.56618811      -0.00019180      -0.00012804      -0.00167713
S        3.15380550       7.28311311       4.52114156       0.00013524       0.02610775       0.00276394
S        3.15382933       5.46260533      -4.52222824       0.00003548      -0.00000668       0.03851178
S        4.73071981       6.37303342       1.56605676      -0.00021314      -0.00013241       0.00312929
S        3.15380615       7.29785679       7.66081667       0.00017278       0.47951897       0.19838863
Mo       9.46146569      -0.00033575       6.08503958       0.00019592      -0.00360109       0.00250014
Mo       3.15382518       9.10433844      -6.08723678       0.00005836      -0.00023243       0.04888053
Mo       1.57687352      10.01476877      -0.00094817       0.00079319       0.00005425      -0.00018512
S        1.57690988       8.19390548      -7.65063236       0.00004782      -0.00003291      -0.08445200
S        3.15380024       9.10432695      -1.56619435       0.00008819      -0.00042346      -0.00174089
S        1.57679641      10.01467485       4.51951191      -0.00609120       0.00824476      -0.01934498
S        1.57691076       8.19390457      -4.52222824       0.00006711      -0.00005965       0.03849430
S        3.15379908       9.10432429       1.56606375       0.00008767      -0.00042989       0.00221295
S        1.57691464      10.01474197       7.65412138      -0.00627889       0.00978588       0.00898446
Mo      -1.57667372       2.73144277       6.08503611       0.00333241       0.00164114       0.00249243
Mo      11.03841147       0.91044071      -6.08723678      -0.00003625      -0.00010542       0.04885122
Mo       9.46146960       1.82085322      -0.00096714       0.00044403       0.00045766       0.00097393
S        9.46149617       0.00000775      -7.65063236       0.00000334      -0.00003780      -0.08449596
S       11.03838516       0.91043297      -1.56621798       0.00019052      -0.00029233      -0.00207154
S        9.46146648       1.82084952       4.51951570      -0.00008742      -0.00008896      -0.00302516
S        9.46149704       0.00000685      -4.52222824      -0.00000309      -0.00005476       0.03850176
S       11.03838389       0.91043185       1.56604891       0.00009513      -0.00022266       0.00135934
S        9.46146657       1.82084828       7.65373089      -0.00002108      -0.00002905      -0.00387671
Mo      -3.15385513       5.46248451       6.08522711      -0.00025505      -0.00829695       0.00660054
Mo       9.46149290       3.64173995      -6.08723678      -0.00003780      -0.00000720       0.04886176
Mo       7.88454909       4.55217985      -0.00094797       0.00046923      -0.00136011       0.00040289
S        7.88457760       2.73130699      -7.65063236      -0.00001080       0.00002571      -0.08447514
S        9.46146916       3.64173022      -1.56620402      -0.00009616       0.00025634      -0.00211653
S        7.88452552       4.55226292       4.51951221       0.01012860       0.00122153      -0.01929870
S        7.88457847       2.73130609      -4.52222824      -0.00005939       0.00005399       0.03849044
S        9.46146611       3.64172573       1.56604640      -0.00012316       0.00009513       0.00129712
S        7.88452717       4.55212409       7.65412300       0.01155274       0.00061629       0.00880526
Mo      -4.73047708       8.19405587       6.08527145       0.00287089       0.00145319       0.00698132
Mo       7.88457433       6.37303920      -6.08723678      -0.00016147      -0.00002134       0.04888156
Mo       6.30762773       7.28346568      -0.00094335       0.00044737       0.00079987       0.00004294
S        6.30765903       5.46260624      -7.65063236      -0.00004679      -0.00002597      -0.08440906
S        7.88454518       6.37302631      -1.56619742      -0.00018872      -0.00009950      -0.00219212
S        6.30805637       7.28368795       4.51903214       0.02600054       0.01497076      -0.03621939
S        6.30765990       5.46260533      -4.52222824      -0.00009719      -0.00002931       0.03844082
S        7.88454203       6.37303512       1.56603279      -0.00008536       0.00007508       0.00100042
S        6.30712150       7.28314866       7.65326173      -0.02096735      -0.01210707      -0.03853801
Mo      -0.00009461       0.00001638       6.08522877      -0.00746031       0.00440327       0.00638225