Mo S Mo S Mo S Mo S Mo S Mo S Mo S Mo S Mo S Mo S Mo S Mo S Mo S Mo S Mo S Mo S Pd
           1
    12.615322    0.000000    0.000000
    -6.307674   10.925197    0.000000
     0.000000    0.000000   30.301260
 Mo  S   Mo  S   Mo  S   Mo  S   Mo  S   Mo  S   Mo  S   Mo  S   Mo  S   Mo  S   Mo  S   Mo  S   Mo  S   Mo  S   Mo  S   Mo  S   Pd 
   3   6   3   6   3   6   3   6   3   6   3   6   3   6   3   6   3   6   3   6   3   6   3   6   3   6   3   6   3   6   3   6   1
Direct configuration=     1
  0.24999768  0.24999827  0.20081788
  0.16666748  0.08333399  0.79910943
  0.08333162  0.16666671  0.99996873
  0.00000075  0.00000069  0.74751436
  0.16666516  0.08333376  0.94830552
  0.08333117  0.16666520  0.14914734
  0.00000069  0.00000058  0.85075774
  0.16666510  0.08333364  0.05168945
  0.08333127  0.16666520  0.25259575
  0.24999753  0.49999827  0.20081788
  0.16666743  0.33333399  0.79910943
  0.08333229  0.41666555  0.99996903
  0.00000070  0.25000069  0.74751436
  0.16666528  0.33333329  0.94830568
  0.08333090  0.41666497  0.14914729
  0.00000074  0.25000058  0.85075774
  0.16666522  0.33333318  0.05168949
  0.08333096  0.41666509  0.25259571
  0.24999744  0.74999838  0.20081788
  0.16666738  0.58333399  0.79910943
  0.08333183  0.66666613  0.99996890
  0.00000065  0.50000069  0.74751436
  0.16666516  0.58333295  0.94830602
  0.08333085  0.66666497  0.14914729
  0.00000069  0.50000058  0.85075774
  0.16666502  0.58333306  0.05168936
  0.08333085  0.66666497  0.25259575
  0.24999769  0.99999838  0.20081792
  0.16666743  0.83333399  0.79910943
  0.08333164  0.91666844  0.99996873
  0.00000070  0.75000069  0.74751436
  0.16666508  0.83333329  0.94830602
  0.08333110  0.91666497  0.14914729
  0.00000064  0.75000058  0.85075774
  0.16666474  0.83333341  0.05168920
  0.08333105  0.91666486  0.25259567
  0.49999748  0.24999827  0.20081780
  0.41666748  0.08333399  0.79910943
  0.33333111  0.16666728  0.99996878
  0.25000075  0.00000069  0.74751436
  0.41666499  0.08333341  0.94830581
  0.33333107  0.16666520  0.14914729
  0.25000069  0.00000058  0.85075774
  0.41666516  0.08333376  0.05168936
  0.33333111  0.16666509  0.25259575
  0.49999773  0.49999827  0.20081788
  0.41666743  0.33333399  0.79910943
  0.33333180  0.41666717  0.99996890
  0.25000070  0.25000069  0.74751436
  0.41666474  0.33333341  0.94830564
  0.33333100  0.41666497  0.14914729
  0.25000074  0.25000058  0.85075774
  0.41666484  0.33333341  0.05168945
  0.33333100  0.41666497  0.25259571
  0.49999754  0.74999838  0.20081792
  0.41666738  0.58333399  0.79910943
  0.33333263  0.66666613  0.99996894
  0.25000065  0.50000069  0.74751436
  0.41666492  0.58333306  0.94830568
  0.33333080  0.66666486  0.14914734
  0.25000069  0.50000058  0.85075774
  0.41666512  0.58333306  0.05168957
  0.33333095  0.66666497  0.25259575
  0.49999749  0.99999838  0.20081788
  0.41666743  0.83333399  0.79910943
  0.33333260  0.91666717  0.99996903
  0.25000070  0.75000069  0.74751436
  0.41666497  0.83333306  0.94830581
  0.33333086  0.91666509  0.14914721
  0.25000064  0.75000058  0.85075774
  0.41666528  0.83333329  0.05168940
  0.33333090  0.91666497  0.25259588
  0.74999786  0.24999861  0.20081792
  0.66666748  0.08333399  0.79910943
  0.58333190  0.16666647  0.99996873
  0.50000075  0.00000069  0.74751436
  0.66666535  0.08333353  0.94830560
  0.58333097  0.16666520  0.14914729
  0.50000069  0.00000058  0.85075774
  0.66666525  0.08333353  0.05168945
  0.58333101  0.16666509  0.25259571
  0.74999779  0.49999838  0.20081796
  0.66666743  0.33333399  0.79910943
  0.58333011  0.41666659  0.99996882
  0.50000070  0.25000069  0.74751436
  0.66666490  0.33333353  0.94830589
  0.58333110  0.41666497  0.14914729
  0.50000074  0.25000058  0.85075774
  0.66666474  0.33333341  0.05168928
  0.58333095  0.41666486  0.25259571
  0.74999788  0.74999827  0.20081788
  0.66666738  0.58333399  0.79910943
  0.58333100  0.66666647  0.99996886
  0.50000065  0.50000069  0.74751436
  0.66666472  0.58333306  0.94830572
  0.58333095  0.66666497  0.14914734
  0.50000069  0.50000058  0.85075774
  0.66666487  0.58333318  0.05168936
  0.58333090  0.66666486  0.25259571
  0.74999781  0.99999861  0.20081796
  0.66666743  0.83333399  0.79910943
  0.58333244  0.91666705  0.99996869
  0.50000070  0.75000069  0.74751436
  0.66666507  0.83333306  0.94830560
  0.58333096  0.91666509  0.14914725
  0.50000064  0.75000058  0.85075774
  0.66666502  0.83333318  0.05168945
  0.58333086  0.91666509  0.25259588
  0.99999780  0.24999850  0.20081788
  0.91666748  0.08333399  0.79910943
  0.83333196  0.16666578  0.99996882
  0.75000075  0.00000069  0.74751436
  0.91666525  0.08333353  0.94830552
  0.83333107  0.16666520  0.14914734
  0.75000069  0.00000058  0.85075774
  0.91666535  0.08333353  0.05168949
  0.83333113  0.16666532  0.25259571
  0.99999785  0.49999850  0.20081784
  0.91666743  0.33333399  0.79910943
  0.83333128  0.41666613  0.99996890
  0.75000070  0.25000069  0.74751436
  0.91666522  0.33333318  0.94830593
  0.83333102  0.41666520  0.14914729
  0.75000074  0.25000058  0.85075774
  0.91666502  0.33333318  0.05168932
  0.83333116  0.41666509  0.25259580
  0.99999784  0.74999838  0.20081788
  0.91666738  0.58333399  0.79910943
  0.83333103  0.66666694  0.99996869
  0.75000065  0.50000069  0.74751436
  0.91666497  0.58333318  0.94830597
  0.83333110  0.66666486  0.14914734
  0.75000069  0.50000058  0.85075774
  0.91666473  0.58333329  0.05168920
  0.83333120  0.66666486  0.25259575
  0.99999805  0.99999850  0.20081788
  0.91666743  0.83333399  0.79910943
  0.83333163  0.91666763  0.99996882
  0.75000070  0.75000069  0.74751436
  0.91666484  0.83333341  0.94830572
  0.83333106  0.91666509  0.14914729
  0.75000064  0.75000058  0.85075774
  0.91666494  0.83333341  0.05168928
  0.83333100  0.91666497  0.25259580
  0.50003226  0.50003672  0.30209964
Mo S Mo S Mo S Mo S Mo S Mo S Mo S Mo S Mo S Mo S Mo S Mo S Mo S Mo S Mo S Mo S Pd
           1
    12.615322    0.000000    0.000000
    -6.307674   10.925197    0.000000
     0.000000    0.000000   30.301260
 Mo  S   Mo  S   Mo  S   Mo  S   Mo  S   Mo  S   Mo  S   Mo  S   Mo  S   Mo  S   Mo  S   Mo  S   Mo  S   Mo  S   Mo  S   Mo  S   Pd 
   3   6   3   6   3   6   3   6   3   6   3   6   3   6   3   6   3   6   3   6   3   6   3   6   3   6   3   6   3   6   3   6   1
Direct configuration=     1
  0.24985845  0.24986958  0.20077492
  0.16666745  0.08333403  0.79910945
  0.08333114  0.16666462  0.99996855
  0.00000071  0.00000071  0.74751438
  0.16666504  0.08333401  0.94831174
  0.08333780  0.16666150  0.14915232
  0.00000074  0.00000063  0.85075775
  0.16666489  0.08333327  0.05168254
  0.08333151  0.16666769  0.25260095
  0.24985733  0.49998747  0.20077500
  0.16666744  0.33333403  0.79910945
  0.08333171  0.41666746  0.99996882
  0.00000070  0.25000071  0.74751438
  0.16666545  0.33333342  0.94831235
  0.08333768  0.41667545  0.14915257
  0.00000072  0.25000063  0.85075775
  0.16666574  0.33333330  0.05168353
  0.08333137  0.41666301  0.25260072
  0.24998134  0.75001374  0.20082590
  0.16666743  0.58333403  0.79910945
  0.08332958  0.66666283  0.99996805
  0.00000068  0.50000071  0.74751438
  0.16666515  0.58333264  0.94831240
  0.08332964  0.66666323  0.14915184
  0.00000071  0.50000063  0.85075775
  0.16666502  0.58333337  0.05168238
  0.08332455  0.66665242  0.25258519
  0.24998135  0.99996649  0.20082591
  0.16666742  0.83333403  0.79910945
  0.08332943  0.91666880  0.99996799
  0.00000067  0.75000071  0.74751438
  0.16666508  0.83333350  0.94831232
  0.08332973  0.91666565  0.14915175
  0.00000070  0.75000062  0.85075775
  0.16666472  0.83333366  0.05168266
  0.08332467  0.91667112  0.25258495
  0.50001087  0.24987140  0.20077474
  0.41666746  0.08333403  0.79910945
  0.33333231  0.16666633  0.99996883
  0.25000071  0.00000071  0.74751438
  0.41666526  0.08333366  0.94831240
  0.33330887  0.16662042  0.14913661
  0.25000074  0.00000063  0.85075775
  0.41666479  0.08333355  0.05168211
  0.33335823  0.16671913  0.25257259
  0.49999965  0.49999802  0.20039431
  0.41666744  0.33333403  0.79910945
  0.33333465  0.41666858  0.99996839
  0.25000070  0.25000071  0.74751438
  0.41666483  0.33333361  0.94831235
  0.33336158  0.41668017  0.14920617
  0.25000073  0.25000063  0.85075775
  0.41666463  0.33333303  0.05168338
  0.33201555  0.41600729  0.25282253
  0.50000986  0.75013901  0.20077497
  0.41666743  0.58333403  0.79910945
  0.33333271  0.66666710  0.99996910
  0.25000069  0.50000071  0.74751438
  0.41666504  0.58333312  0.94831259
  0.33330837  0.66668730  0.14913663
  0.25000071  0.50000063  0.85075775
  0.41666494  0.58333331  0.05168337
  0.33335775  0.66663809  0.25257260
  0.50000760  0.00000336  0.20082418
  0.41666742  0.83333403  0.79910945
  0.33333687  0.91666946  0.99996833
  0.25000067  0.75000071  0.74751438
  0.41666551  0.83333336  0.94831233
  0.33333283  0.91666623  0.14915173
  0.25000070  0.75000062  0.85075775
  0.41666529  0.83333366  0.05168223
  0.33334335  0.91667118  0.25258523
  0.74998255  0.25001267  0.20081793
  0.66666746  0.08333403  0.79910945
  0.58333017  0.16666504  0.99996870
  0.50000071  0.00000071  0.74751438
  0.66666523  0.08333340  0.94831213
  0.58332066  0.16666179  0.14915268
  0.50000074  0.00000063  0.85075775
  0.66666519  0.08333331  0.05168228
  0.58333340  0.16666809  0.25260066
  0.75012463  0.49998642  0.20077493
  0.66666745  0.33333403  0.79910945
  0.58333094  0.41666770  0.99996829
  0.50000070  0.25000071  0.74751438
  0.66666448  0.33333359  0.94831275
  0.58331601  0.41668040  0.14920656
  0.50000073  0.25000063  0.85075775
  0.66666414  0.33333378  0.05168311
  0.58398989  0.41600652  0.25282165
  0.75012625  0.75013765  0.20077495
  0.66666743  0.58333403  0.79910945
  0.58333112  0.66666520  0.99996843
  0.50000069  0.50000071  0.74751438
  0.66666446  0.58333317  0.94831277
  0.58331593  0.66663449  0.14920639
  0.50000072  0.50000063  0.85075775
  0.66666527  0.58333350  0.05168289
  0.58399073  0.66798400  0.25282172
  0.74998258  0.99996927  0.20081804
  0.66666742  0.83333403  0.79910945
  0.58333116  0.91666711  0.99996871
  0.50000068  0.75000071  0.74751438
  0.66666492  0.83333298  0.94831257
  0.58332075  0.91665851  0.14915261
  0.50000070  0.75000062  0.85075775
  0.66666471  0.83333273  0.05168312
  0.58333320  0.91666466  0.25260077
  0.00002597  0.25001314  0.20081793
  0.91666746  0.08333403  0.79910945
  0.83333116  0.16666548  0.99996808
  0.75000071  0.00000071  0.74751438
  0.91666502  0.08333332  0.94831179
  0.83333074  0.16666514  0.14915273
  0.75000074  0.00000063  0.85075775
  0.91666487  0.08333322  0.05168263
  0.83333069  0.16666503  0.25258788
  0.99999333  0.49998957  0.20082423
  0.91666745  0.33333403  0.79910945
  0.83333225  0.41666799  0.99996872
  0.75000070  0.25000071  0.74751438
  0.91666512  0.33333314  0.94831225
  0.83333418  0.41667559  0.14915262
  0.75000073  0.25000063  0.85075775
  0.91666467  0.33333273  0.05168255
  0.83332796  0.41666288  0.25260082
  0.00002929  0.75001447  0.20082569
  0.91666744  0.58333403  0.79910945
  0.83333140  0.66666676  0.99996887
  0.75000069  0.50000071  0.74751438
  0.91666454  0.58333285  0.94831246
  0.83337555  0.66668710  0.14913678
  0.75000072  0.50000063  0.85075775
  0.91666469  0.58333366  0.05168210
  0.83327677  0.66663774  0.25257240
  0.99999325  0.00000150  0.20082428
  0.91666743  0.83333403  0.79910945
  0.83333234  0.91666661  0.99996882
  0.75000068  0.75000071  0.74751438
  0.91666446  0.83333372  0.94831216
  0.83333457  0.91665817  0.14915253
  0.75000071  0.75000062  0.85075775
  0.91666493  0.83333349  0.05168223
  0.83332801  0.91666426  0.25260070
  0.50003158  0.50003409  0.30190217
Mo S Mo S Mo S Mo S Mo S Mo S Mo S Mo S Mo S Mo S Mo S Mo S Mo S Mo S Mo S Mo S Pd
           1
    12.615322    0.000000    0.000000
    -6.307674   10.925197    0.000000
     0.000000    0.000000   30.301260
 Mo  S   Mo  S   Mo  S   Mo  S   Mo  S   Mo  S   Mo  S   Mo  S   Mo  S   Mo  S   Mo  S   Mo  S   Mo  S   Mo  S   Mo  S   Mo  S   Pd 
   3   6   3   6   3   6   3   6   3   6   3   6   3   6   3   6   3   6   3   6   3   6   3   6   3   6   3   6   3   6   3   6   1
Direct configuration=     1
  0.24969684  0.24971906  0.20075528
  0.16666745  0.08333403  0.79910945
  0.08333206  0.16666723  0.99996887
  0.00000071  0.00000071  0.74751438
  0.16666500  0.08333406  0.94831163
  0.08332031  0.16663817  0.14913761
  0.00000074  0.00000063  0.85075775
  0.16666473  0.08333269  0.05168144
  0.08330880  0.16664407  0.25260977
  0.24969634  0.49997652  0.20075528
  0.16666744  0.33333403  0.79910945
  0.08333199  0.41666583  0.99996902
  0.00000070  0.25000071  0.74751438
  0.16666644  0.33333385  0.94831256
  0.08332032  0.41668122  0.14913774
  0.00000072  0.25000063  0.85075775
  0.16666697  0.33333374  0.05168381
  0.08330867  0.41666383  0.25260971
  0.24997327  0.75002233  0.20083378
  0.16666743  0.58333403  0.79910945
  0.08333234  0.66666652  0.99996890
  0.00000068  0.50000071  0.74751438
  0.16666517  0.58333241  0.94831227
  0.08332903  0.66666240  0.14914910
  0.00000071  0.50000063  0.85075775
  0.16666499  0.58333376  0.05168131
  0.08331684  0.66663748  0.25258304
  0.24997343  0.99995007  0.20083379
  0.16666742  0.83333403  0.79910945
  0.08333246  0.91666874  0.99996867
  0.00000067  0.75000071  0.74751438
  0.16666494  0.83333351  0.94831214
  0.08332907  0.91666586  0.14914900
  0.00000070  0.75000062  0.85075775
  0.16666456  0.83333372  0.05168208
  0.08331694  0.91667834  0.25258287
  0.50002134  0.24972013  0.20075509
  0.41666746  0.08333403  0.79910945
  0.33332860  0.16666582  0.99996921
  0.25000071  0.00000071  0.74751438
  0.41666579  0.08333410  0.94831236
  0.33326808  0.16653828  0.14910341
  0.25000074  0.00000063  0.85075775
  0.41666482  0.08333340  0.05168101
  0.33339405  0.16679004  0.25253401
  0.49999952  0.49999836  0.20030170
  0.41666744  0.33333403  0.79910945
  0.33332985  0.41666563  0.99996892
  0.25000070  0.25000071  0.74751438
  0.41666564  0.33333450  0.94831281
  0.33330969  0.41665424  0.14922478
  0.25000073  0.25000063  0.85075775
  0.41666544  0.33333380  0.05168425
  0.33054279  0.41527083  0.25305126
  0.50002056  0.75030050  0.20075512
  0.41666743  0.58333403  0.79910945
  0.33333098  0.66666641  0.99996919
  0.25000069  0.50000071  0.74751438
  0.41666592  0.58333301  0.94831304
  0.33326750  0.66672850  0.14910339
  0.25000071  0.50000063  0.85075775
  0.41666584  0.58333325  0.05168427
  0.33339344  0.66660293  0.25253412
  0.50002923  0.00001428  0.20083142
  0.41666742  0.83333403  0.79910945
  0.33333166  0.91666649  0.99996866
  0.25000067  0.75000071  0.74751438
  0.41666613  0.83333352  0.94831230
  0.33333378  0.91666665  0.14914906
  0.25000070  0.75000062  0.85075775
  0.41666547  0.83333395  0.05168113
  0.33335850  0.91667875  0.25258303
  0.74997444  0.25002089  0.20082008
  0.66666746  0.08333403  0.79910945
  0.58333293  0.16666688  0.99996873
  0.50000071  0.00000071  0.74751438
  0.66666462  0.08333300  0.94831213
  0.58331521  0.16663895  0.14913790
  0.50000074  0.00000063  0.85075775
  0.66666481  0.08333300  0.05168147
  0.58333272  0.16664488  0.25260951
  0.75027591  0.49997611  0.20075528
  0.66666745  0.33333403  0.79910945
  0.58332976  0.41666587  0.99996890
  0.50000070  0.25000071  0.74751438
  0.66666398  0.33333426  0.94831312
  0.58334243  0.41665449  0.14922488
  0.50000073  0.25000063  0.85075775
  0.66666350  0.33333448  0.05168326
  0.58472757  0.41526939  0.25305034
  0.75027718  0.75029936  0.20075528
  0.66666743  0.58333403  0.79910945
  0.58333098  0.66666695  0.99996876
  0.50000069  0.50000071  0.74751438
  0.66666385  0.58333289  0.94831330
  0.58334243  0.66668684  0.14922490
  0.50000072  0.50000063  0.85075775
  0.66666480  0.58333328  0.05168374
  0.58472941  0.66946053  0.25304999
  0.74997460  0.99995285  0.20082016
  0.66666742  0.83333403  0.79910945
  0.58333246  0.91666725  0.99996856
  0.50000068  0.75000071  0.74751438
  0.66666458  0.83333197  0.94831301
  0.58331527  0.91667587  0.14913786
  0.50000070  0.75000062  0.85075775
  0.66666430  0.83333161  0.05168325
  0.58333255  0.91668728  0.25260964
  0.00004230  0.25002097  0.20082003
  0.91666746  0.08333403  0.79910945
  0.83333238  0.16666647  0.99996869
  0.75000071  0.00000071  0.74751438
  0.91666499  0.08333259  0.94831177
  0.83333038  0.16666491  0.14915168
  0.75000074  0.00000063  0.85075775
  0.91666467  0.08333263  0.05168189
  0.83333050  0.16666488  0.25258248
  0.99998194  0.49996782  0.20083152
  0.91666745  0.33333403  0.79910945
  0.83333187  0.41666533  0.99996900
  0.75000070  0.25000071  0.74751438
  0.91666520  0.33333372  0.94831220
  0.83335688  0.41668129  0.14913790
  0.75000073  0.25000063  0.85075775
  0.91666445  0.33333283  0.05168178
  0.83335106  0.41666371  0.25260958
  0.00004538  0.75002225  0.20083369
  0.91666744  0.58333403  0.79910945
  0.83333334  0.66666857  0.99996895
  0.75000069  0.50000071  0.74751438
  0.91666392  0.58333253  0.94831241
  0.83345751  0.66672802  0.14910352
  0.75000072  0.50000063  0.85075775
  0.91666459  0.58333394  0.05168099
  0.83320556  0.66660215  0.25253369
  0.99998204  0.00001256  0.20083139
  0.91666743  0.83333403  0.79910945
  0.83333237  0.91666871  0.99996862
  0.75000068  0.75000071  0.74751438
  0.91666393  0.83333355  0.94831218
  0.83335746  0.91667522  0.14913784
  0.75000071  0.75000062  0.85075775
  0.91666486  0.83333326  0.05168110
  0.83335124  0.91668654  0.25260947
  0.50002974  0.50003153  0.30154587
Mo S Mo S Mo S Mo S Mo S Mo S Mo S Mo S Mo S Mo S Mo S Mo S Mo S Mo S Mo S Mo S Pd
           1
    12.615322    0.000000    0.000000
    -6.307674   10.925197    0.000000
     0.000000    0.000000   30.301260
 Mo  S   Mo  S   Mo  S   Mo  S   Mo  S   Mo  S   Mo  S   Mo  S   Mo  S   Mo  S   Mo  S   Mo  S   Mo  S   Mo  S   Mo  S   Mo  S   Pd 
   3   6   3   6   3   6   3   6   3   6   3   6   3   6   3   6   3   6   3   6   3   6   3   6   3   6   3   6   3   6   3   6   1
Direct configuration=     1
  0.24944926  0.24950433  0.20073294
  0.16666745  0.08333403  0.79910945
  0.08332989  0.16666137  0.99996802
  0.00000071  0.00000071  0.74751438
  0.16666503  0.08333425  0.94831044
  0.08326059  0.16658129  0.14910761
  0.00000074  0.00000063  0.85075775
  0.16666358  0.08333129  0.05168097
  0.08323567  0.16657140  0.25262185
  0.24944925  0.49994385  0.20073306
  0.16666744  0.33333403  0.79910945
  0.08333031  0.41666989  0.99996826
  0.00000070  0.25000071  0.74751438
  0.16666633  0.33333384  0.94831201
  0.08326058  0.41667833  0.14910770
  0.00000072  0.25000063  0.85075775
  0.16666691  0.33333370  0.05168508
  0.08323565  0.41666339  0.25262186
  0.24996150  0.75003433  0.20084007
  0.16666743  0.58333403  0.79910945
  0.08332811  0.66666024  0.99996649
  0.00000068  0.50000071  0.74751438
  0.16666539  0.58333264  0.94831100
  0.08332830  0.66666107  0.14914987
  0.00000071  0.50000063  0.85075775
  0.16666417  0.58333436  0.05168085
  0.08330755  0.66661917  0.25258540
  0.24996155  0.99992628  0.20084001
  0.16666742  0.83333403  0.79910945
  0.08332777  0.91666967  0.99996638
  0.00000067  0.75000071  0.74751438
  0.16666502  0.83333360  0.94831131
  0.08332829  0.91666644  0.14914971
  0.00000070  0.75000062  0.85075775
  0.16666474  0.83333393  0.05168220
  0.08330762  0.91668740  0.25258527
  0.50005374  0.24950483  0.20073263
  0.41666746  0.08333403  0.79910945
  0.33333099  0.16666329  0.99996969
  0.25000071  0.00000071  0.74751438
  0.41666531  0.08333411  0.94831115
  0.33319852  0.16639889  0.14905055
  0.25000074  0.00000063  0.85075775
  0.41666406  0.08333186  0.05168049
  0.33344530  0.16689200  0.25247053
  0.49999935  0.49999874  0.20041938
  0.41666744  0.33333403  0.79910945
  0.33333447  0.41666803  0.99996900
  0.25000070  0.25000071  0.74751438
  0.41666476  0.33333385  0.94831225
  0.33326117  0.41662995  0.14926830
  0.25000073  0.25000063  0.85075775
  0.41666545  0.33333487  0.05168759
  0.32832723  0.41416316  0.25338908
  0.50005286  0.75054830  0.20073253
  0.41666743  0.58333403  0.79910945
  0.33333228  0.66666931  0.99996996
  0.25000069  0.50000071  0.74751438
  0.41666528  0.58333303  0.94831245
  0.33319781  0.66679828  0.14905051
  0.25000071  0.50000063  0.85075775
  0.41666619  0.58333252  0.05168751
  0.33344468  0.66655222  0.25247063
  0.50006886  0.00003419  0.20083414
  0.41666742  0.83333403  0.79910945
  0.33333864  0.91667029  0.99996675
  0.25000067  0.75000071  0.74751438
  0.41666570  0.83333324  0.94831098
  0.33333527  0.91666737  0.14914990
  0.25000070  0.75000062  0.85075775
  0.41666487  0.83333492  0.05168060
  0.33337701  0.91668802  0.25258529
  0.74996756  0.25002807  0.20081859
  0.66666746  0.08333403  0.79910945
  0.58332777  0.16666250  0.99996836
  0.50000071  0.00000071  0.74751438
  0.66666496  0.08333322  0.94831096
  0.58331832  0.16658227  0.14910769
  0.50000074  0.00000063  0.85075775
  0.66666593  0.08333349  0.05168159
  0.58333326  0.16657246  0.25262179
  0.75049108  0.49994357  0.20073279
  0.66666745  0.33333403  0.79910945
  0.58333168  0.41666841  0.99996877
  0.50000070  0.25000071  0.74751438
  0.66666392  0.33333418  0.94831246
  0.58336693  0.41663019  0.14926808
  0.50000073  0.25000063  0.85075775
  0.66666336  0.33333432  0.05168457
  0.58583691  0.41416067  0.25338805
  0.75049253  0.75054739  0.20073257
  0.66666743  0.58333403  0.79910945
  0.58333141  0.66666483  0.99996904
  0.50000069  0.50000071  0.74751438
  0.66666418  0.58333324  0.94831265
  0.58336706  0.66673577  0.14926822
  0.50000072  0.50000063  0.85075775
  0.66666349  0.58333289  0.05168701
  0.58583998  0.67168134  0.25338729
  0.74996771  0.99993875  0.20081862
  0.66666742  0.83333403  0.79910945
  0.58332844  0.91666754  0.99996857
  0.50000068  0.75000071  0.74751438
  0.66666453  0.83333208  0.94831232
  0.58331849  0.91673579  0.14910768
  0.50000070  0.75000062  0.85075775
  0.66666425  0.83333178  0.05168440
  0.58333307  0.91676035  0.25262183
  0.00005648  0.25002795  0.20081857
  0.91666746  0.08333403  0.79910945
  0.83333122  0.16666594  0.99996581
  0.75000071  0.00000071  0.74751438
  0.91666525  0.08333314  0.94831069
  0.83333014  0.16666477  0.14915292
  0.75000074  0.00000063  0.85075775
  0.91666431  0.08333336  0.05168200
  0.83333024  0.16666473  0.25257340
  0.99996190  0.49992798  0.20083421
  0.91666745  0.33333403  0.79910945
  0.83333424  0.41667005  0.99996826
  0.75000070  0.25000071  0.74751438
  0.91666529  0.33333344  0.94831109
  0.83341347  0.41667829  0.14910782
  0.75000073  0.25000063  0.85075775
  0.91666404  0.33333161  0.05168196
  0.83342333  0.41666327  0.25262177
  0.00006909  0.75003409  0.20083999
  0.91666744  0.58333403  0.79910945
  0.83333346  0.66666721  0.99996979
  0.75000069  0.50000071  0.74751438
  0.91666421  0.58333274  0.94831110
  0.83359678  0.66679769  0.14905050
  0.75000072  0.50000063  0.85075775
  0.91666625  0.58333461  0.05168060
  0.83310336  0.66655116  0.25247033
  0.99996207  0.00003275  0.20083406
  0.91666743  0.83333403  0.79910945
  0.83333452  0.91666624  0.99996856
  0.75000068  0.75000071  0.74751438
  0.91666432  0.83333397  0.94831087
  0.83341407  0.91673487  0.14910771
  0.75000071  0.75000062  0.85075775
  0.91666656  0.83333472  0.05168059
  0.83342379  0.91675946  0.25262166
  0.50002617  0.50002651  0.30076110
Mo S Mo S Mo S Mo S Mo S Mo S Mo S Mo S Mo S Mo S Mo S Mo S Mo S Mo S Mo S Mo S Pd
           1
    12.615322    0.000000    0.000000
    -6.307674   10.925197    0.000000
     0.000000    0.000000   30.301260
 Mo  S   Mo  S   Mo  S   Mo  S   Mo  S   Mo  S   Mo  S   Mo  S   Mo  S   Mo  S   Mo  S   Mo  S   Mo  S   Mo  S   Mo  S   Mo  S   Pd 
   3   6   3   6   3   6   3   6   3   6   3   6   3   6   3   6   3   6   3   6   3   6   3   6   3   6   3   6   3   6   3   6   1
Direct configuration=     1
  0.24913582  0.24923423  0.20070050
  0.16666745  0.08333403  0.79910945
  0.08333211  0.16667021  0.99996948
  0.00000071  0.00000071  0.74751438
  0.16666520  0.08333436  0.94830971
  0.08314512  0.16648803  0.14905954
  0.00000074  0.00000063  0.85075775
  0.16666095  0.08332825  0.05167957
  0.08307645  0.16641986  0.25263314
  0.24913588  0.49990035  0.20070057
  0.16666744  0.33333403  0.79910945
  0.08333164  0.41666296  0.99996958
  0.00000070  0.25000071  0.74751438
  0.16666708  0.33333427  0.94831220
  0.08314508  0.41665604  0.14905966
  0.00000072  0.25000063  0.85075775
  0.16666613  0.33333326  0.05168562
  0.08307651  0.41665564  0.25263319
  0.24994818  0.75004757  0.20084192
  0.16666743  0.58333403  0.79910945
  0.08333028  0.66666322  0.99996790
  0.00000068  0.50000071  0.74751438
  0.16666579  0.58333260  0.94831032
  0.08332937  0.66666334  0.14915479
  0.00000071  0.50000063  0.85075775
  0.16666173  0.58333465  0.05167953
  0.08329802  0.66660037  0.25259048
  0.24994829  0.99989970  0.20084178
  0.16666742  0.83333403  0.79910945
  0.08333135  0.91666991  0.99996791
  0.00000067  0.75000071  0.74751438
  0.16666480  0.83333352  0.94831032
  0.08332925  0.91666511  0.14915454
  0.00000070  0.75000062  0.85075775
  0.16666460  0.83333395  0.05168102
  0.08329803  0.91669670  0.25259037
  0.50009741  0.24923437  0.20069991
  0.41666746  0.08333403  0.79910945
  0.33332520  0.16666647  0.99996938
  0.25000071  0.00000071  0.74751438
  0.41666578  0.08333462  0.94831061
  0.33310908  0.16621978  0.14898774
  0.25000074  0.00000063  0.85075775
  0.41666398  0.08332912  0.05167926
  0.33350188  0.16700463  0.25238517
  0.50000009  0.49999940  0.20086261
  0.41666744  0.33333403  0.79910945
  0.33332936  0.41666526  0.99996997
  0.25000070  0.25000071  0.74751438
  0.41666547  0.33333396  0.94831297
  0.33331083  0.41665469  0.14938109
  0.25000073  0.25000063  0.85075775
  0.41666624  0.33333563  0.05169040
  0.32551459  0.41275684  0.25381061
  0.50009634  0.75086280  0.20069947
  0.41666743  0.58333403  0.79910945
  0.33332751  0.66666290  0.99996867
  0.25000069  0.50000071  0.74751438
  0.41666583  0.58333336  0.94831330
  0.33310824  0.66688770  0.14898767
  0.25000071  0.50000063  0.85075775
  0.41666692  0.58333229  0.05169037
  0.33350129  0.66649610  0.25238526
  0.50012100  0.00006039  0.20082654
  0.41666742  0.83333403  0.79910945
  0.33333493  0.91666837  0.99996751
  0.25000067  0.75000071  0.74751438
  0.41666629  0.83333312  0.94831054
  0.33333311  0.91666621  0.14915487
  0.25000070  0.75000062  0.85075775
  0.41666489  0.83333767  0.05167947
  0.33339603  0.91669755  0.25259028
  0.74997194  0.25002347  0.20081009
  0.66666746  0.08333403  0.79910945
  0.58333700  0.16666876  0.99996895
  0.50000071  0.00000071  0.74751438
  0.66666307  0.08333221  0.94831034
  0.58334086  0.16648906  0.14905947
  0.50000074  0.00000063  0.85075775
  0.66666703  0.08333404  0.05168041
  0.58334105  0.16642109  0.25263319
  0.75076122  0.49989995  0.20070002
  0.66666745  0.33333403  0.79910945
  0.58332763  0.41666508  0.99996996
  0.50000070  0.25000071  0.74751438
  0.66666334  0.33333470  0.94831266
  0.58334237  0.41665485  0.14938055
  0.50000073  0.25000063  0.85075775
  0.66666345  0.33333421  0.05168521
  0.58724503  0.41275320  0.25380931
  0.75076333  0.75086163  0.20069956
  0.66666743  0.58333403  0.79910945
  0.58332942  0.66666593  0.99996950
  0.50000069  0.50000071  0.74751438
  0.66666452  0.58333337  0.94831344
  0.58334267  0.66668669  0.14938071
  0.50000072  0.50000063  0.85075775
  0.66666281  0.58333248  0.05168988
  0.58724967  0.67450019  0.25380831
  0.74997207  0.99994752  0.20081006
  0.66666742  0.83333403  0.79910945
  0.58333628  0.91666836  0.99996832
  0.50000068  0.75000071  0.74751438
  0.66666396  0.83333100  0.94831268
  0.58334119  0.91685169  0.14905944
  0.50000070  0.75000062  0.85075775
  0.66666442  0.83333209  0.05168510
  0.58334080  0.91691960  0.25263310
  0.00004748  0.25002336  0.20081012
  0.91666746  0.08333403  0.79910945
  0.83333284  0.16666696  0.99996851
  0.75000071  0.00000071  0.74751438
  0.91666560  0.08333174  0.94831002
  0.83332990  0.16666463  0.14915460
  0.75000074  0.00000063  0.85075775
  0.91666337  0.08333359  0.05168073
  0.83332997  0.16666453  0.25256042
  0.99993592  0.49987617  0.20082668
  0.91666745  0.33333403  0.79910945
  0.83333188  0.41666094  0.99996974
  0.75000070  0.25000071  0.74751438
  0.91666582  0.33333516  0.94831025
  0.83350650  0.41665584  0.14905965
  0.75000073  0.25000063  0.85075775
  0.91666311  0.33333031  0.05168070
  0.83357447  0.41665557  0.25263309
  0.00009538  0.75004712  0.20084183
  0.91666744  0.58333403  0.79910945
  0.83333410  0.66667127  0.99996807
  0.75000069  0.50000071  0.74751438
  0.91666321  0.58333243  0.94831050
  0.83377571  0.66688710  0.14898749
  0.75000072  0.50000063  0.85075775
  0.91666852  0.58333458  0.05167940
  0.83299027  0.66649471  0.25238501
  0.99993625  0.00005864  0.20082648
  0.91666743  0.83333403  0.79910945
  0.83333224  0.91667392  0.99996849
  0.75000068  0.75000071  0.74751438
  0.91666337  0.83333321  0.94831031
  0.83350710  0.91685036  0.14905946
  0.75000071  0.75000062  0.85075775
  0.91666887  0.83333678  0.05167943
  0.83357529  0.91691847  0.25263295
  0.50002129  0.50001892  0.29945781
Mo S Mo S Mo S Mo S Mo S Mo S Mo S Mo S Mo S Mo S Mo S Mo S Mo S Mo S Mo S Mo S Pd
           1
    12.615322    0.000000    0.000000
    -6.307674   10.925197    0.000000
     0.000000    0.000000   30.301260
 Mo  S   Mo  S   Mo  S   Mo  S   Mo  S   Mo  S   Mo  S   Mo  S   Mo  S   Mo  S   Mo  S   Mo  S   Mo  S   Mo  S   Mo  S   Mo  S   Pd 
   3   6   3   6   3   6   3   6   3   6   3   6   3   6   3   6   3   6   3   6   3   6   3   6   3   6   3   6   3   6   3   6   1
Direct configuration=     1
  0.24883072  0.24897073  0.20067672
  0.16666745  0.08333403  0.79910945
  0.08332930  0.16666802  0.99996779
  0.00000071  0.00000071  0.74751438