
     Program PWSCF v.7.3 starts on 11Mar2024 at  6:58: 5 

     This program is part of the open-source Quantum ESPRESSO suite
     for quantum simulation of materials; please cite
         "P. Giannozzi et al., J. Phys.:Condens. Matter 21 395502 (2009);
         "P. Giannozzi et al., J. Phys.:Condens. Matter 29 465901 (2017);
         "P. Giannozzi et al., J. Chem. Phys. 152 154105 (2020);
          URL http://www.quantum-espresso.org", 
     in publications or presentations arising from this work. More details at
     http://www.quantum-espresso.org/quote

     Parallel version (MPI & OpenMP), running on      36 processor cores
     Number of MPI processes:                36
     Threads/MPI process:                     1

     MPI processes distributed on     1 nodes
     546170 MiB available memory on the printing compute node when the environment starts
 
     Waiting for input...
     Reading input from standard input
Warning: card &CELL ignored
Warning: card / ignored

     Current dimensions of program PWSCF are:
     Max number of different atomic species (ntypx) = 10
     Max number of k-points (npk) =  40000
     Max angular momentum in pseudopotentials (lmaxx) =  4
     file Mo.pbe-spn-kjpaw_psl.1.0.0.UPF: wavefunction(s)  4S 4D renormalized
     file S.pbe-n-kjpaw_psl.1.0.0.UPF: wavefunction(s)  3S 3P renormalized
     file Pd.pbe-spn-kjpaw_psl.1.0.0.UPF: wavefunction(s)  4S 5S 4D renormalized
     file Pt.pbe-spfn-kjpaw_psl.1.0.0.UPF: wavefunction(s)  5P 4F renormalized
 
     R & G space division:  proc/nbgrp/npool/nimage =      36
     Subspace diagonalization in iterative solution of the eigenvalue problem:
     one sub-group per band group will be used
     scalapack distributed-memory algorithm (size of sub-group:  6*  6 procs)

 
     Parallelization info
     --------------------
     sticks:   dense  smooth     PW     G-vecs:    dense   smooth      PW
     Min         586     335     89               165416    71459    9765
     Max         587     337     90               165425    71461    9778
     Sum       21109   12085   3205              5955087  2572543  351657
 
     Using Slab Decomposition
 


     bravais-lattice index     =            0
     lattice parameter (alat)  =      23.8395  a.u.
     unit-cell volume          =   28182.8498 (a.u.)^3
     number of atoms/cell      =          146
     number of atomic types    =            4
     number of electrons       =      1298.00
     number of Kohn-Sham states=          779
     kinetic-energy cutoff     =      77.0000  Ry
     charge density cutoff     =     539.0000  Ry
     scf convergence threshold =      1.0E-06
     mixing beta               =       0.2000
     number of iterations used =            8  plain     mixing
     energy convergence thresh.=      1.0E-04
     force convergence thresh. =      1.0E-03
     Exchange-correlation= SLA  PW   PBX  PBC
                           (   1   4   3   4   0   0   0)
     nstep                     =         1000


     Effective Screening Medium Method
     =================================
     Boundary Conditions: Vacuum-Slab-Vacuum
     total charge in unit cell        =   0.0000
     grid points for fit at edges     =        4 
 

     celldm(1)=  23.839504  celldm(2)=   0.000000  celldm(3)=   0.000000
     celldm(4)=   0.000000  celldm(5)=   0.000000  celldm(6)=   0.000000

     crystal axes: (cart. coord. in units of alat)
               a(1) = (   1.000000   0.000000   0.000000 )  
               a(2) = (  -0.500001   0.866026   0.000000 )  
               a(3) = (   0.000000   0.000000   2.401941 )  

     reciprocal axes: (cart. coord. in units 2 pi/alat)
               b(1) = (  1.000000  0.577351  0.000000 )  
               b(2) = (  0.000000  1.154700  0.000000 )  
               b(3) = (  0.000000  0.000000  0.416330 )  


     PseudoPot. # 1 for Mo read from file:
     ./pseudo/Mo.pbe-spn-kjpaw_psl.1.0.0.UPF
     MD5 check sum: 317bf72632116215fd98f72de1686f13
     Pseudo is Projector augmented-wave + core cor, Zval = 14.0
     Generated using 'atomic' code by A. Dal Corso  v.7.2
     Shape of augmentation charge: PSQ
     Using radial grid of 1229 points,  6 beta functions with: 
                l(1) =   0
                l(2) =   0
                l(3) =   1
                l(4) =   1
                l(5) =   2
                l(6) =   2
     Q(r) pseudized with 0 coefficients 


     PseudoPot. # 2 for S  read from file:
     ./pseudo/S.pbe-n-kjpaw_psl.1.0.0.UPF
     MD5 check sum: 8b7b5302570d38d5e87fed6a1065abda
     Pseudo is Projector augmented-wave + core cor, Zval =  6.0
     Generated using 'atomic' code by A. Dal Corso  v.7.2
     Shape of augmentation charge: PSQ
     Using radial grid of 1151 points,  6 beta functions with: 
                l(1) =   0
                l(2) =   0
                l(3) =   1
                l(4) =   1
                l(5) =   2
                l(6) =   2
     Q(r) pseudized with 0 coefficients 


     PseudoPot. # 3 for Pd read from file:
     ./pseudo/Pd.pbe-spn-kjpaw_psl.1.0.0.UPF
     MD5 check sum: a60571a671f2502b8a6a4569d20a6edb
     Pseudo is Projector augmented-wave + core cor, Zval = 18.0
     Generated using 'atomic' code by A. Dal Corso  v.7.2
     Shape of augmentation charge: PSQ
     Using radial grid of 1235 points,  6 beta functions with: 
                l(1) =   0
                l(2) =   0
                l(3) =   1
                l(4) =   1
                l(5) =   2
                l(6) =   2
     Q(r) pseudized with 0 coefficients 


     PseudoPot. # 4 for Pt read from file:
     ./pseudo/Pt.pbe-spfn-kjpaw_psl.1.0.0.UPF
     MD5 check sum: 620096ebf4e6ebacc94de60fd67efcb5
     Pseudo is Projector augmented-wave + core cor, Zval = 32.0
     Generated using 'atomic' code by A. Dal Corso  v.7.2
     Shape of augmentation charge: PSQ
     Using radial grid of 1277 points,  8 beta functions with: 
                l(1) =   0
                l(2) =   0
                l(3) =   1
                l(4) =   1
                l(5) =   2
                l(6) =   2
                l(7) =   3
                l(8) =   3
     Q(r) pseudized with 0 coefficients 


     atomic species   valence    mass     pseudopotential
     Mo               14.00    95.95000     Mo( 1.00)
     S                 6.00    32.06000     S ( 1.00)
     Pd               18.00   106.42000     Pd( 1.00)
     Pt               32.00   195.08400     Pt( 1.00)

     No symmetry found



   Cartesian axes

     site n.     atom                  positions (alat units)
         1        Mo     tau(   1) = (   0.1244805   0.2154429   0.4826124  )
         2        Mo     tau(   2) = (   0.1250004   0.0721694  -0.4825273  )
         3        Mo     tau(   3) = (   0.0000154   0.1443583  -0.0000534  )
         4        S      tau(   4) = (   0.0000004   0.0000006  -0.6064556  )
         5        S      tau(   5) = (   0.1249822   0.0722030  -0.1241916  )
         6        S      tau(   6) = (   0.0001873   0.1444894   0.3573292  )
         7        S      tau(   7) = (   0.0000004   0.0000005  -0.3584711  )
         8        S      tau(   8) = (   0.1250220   0.0721432   0.1241096  )
         9        S      tau(   9) = (  -0.0009222   0.1433430   0.6062350  )
        10        Mo     tau(  10) = (  -0.0011812   0.4330952   0.4826123  )
        11        Mo     tau(  11) = (   0.0000001   0.2886759  -0.4825273  )
        12        Mo     tau(  12) = (  -0.1249761   0.3608493  -0.0000533  )
        13        S      tau(  13) = (  -0.1249999   0.2165071  -0.6064556  )
        14        S      tau(  14) = (   0.0000232   0.2886904  -0.1241345  )
        15        S      tau(  15) = (  -0.1247753   0.3609305   0.3573291  )
        16        S      tau(  16) = (  -0.1249998   0.2165070  -0.3584711  )
        17        S      tau(  17) = (   0.0000901   0.2887289   0.1242236  )
        18        S      tau(  18) = (  -0.1263226   0.3605428   0.6062351  )
        19        Mo     tau(  19) = (  -0.1251400   0.6495983   0.4819363  )
        20        Mo     tau(  20) = (  -0.1250002   0.5051824  -0.4825273  )
        21        Mo     tau(  21) = (  -0.2500026   0.5773383  -0.0001491  )
        22        S      tau(  22) = (  -0.2500002   0.4330136  -0.6064556  )
        23        S      tau(  23) = (  -0.1249812   0.5051509  -0.1241919  )
        24        S      tau(  24) = (  -0.2500015   0.5775831   0.3575295  )
        25        S      tau(  25) = (  -0.2500001   0.4330135  -0.3584711  )
        26        S      tau(  26) = (  -0.1250129   0.5052153   0.1241101  )
        27        S      tau(  27) = (  -0.2500018   0.5771934   0.6060379  )
        28        Mo     tau(  28) = (   0.2499987  -0.0001601   0.4819365  )
        29        Mo     tau(  29) = (  -0.2500004   0.7216889  -0.4825273  )
        30        Mo     tau(  30) = (  -0.3750135   0.7938631  -0.0001491  )
        31        S      tau(  31) = (  -0.3750004   0.6495201  -0.6064556  )
        32        S      tau(  32) = (  -0.2500026   0.7216883  -0.1242347  )
        33        S      tau(  33) = (  -0.3747997   0.7937400   0.3575295  )
        34        S      tau(  34) = (  -0.3750004   0.6495200  -0.3584711  )
        35        S      tau(  35) = (  -0.2500029   0.7216883   0.1240299  )
        36        S      tau(  36) = (  -0.3751376   0.7939346   0.6060379  )
        37        Mo     tau(  37) = (   0.3755166   0.2154425   0.4826119  )
        38        Mo     tau(  38) = (   0.3750004   0.0721694  -0.4825273  )
        39        Mo     tau(  39) = (   0.2499990   0.1443474  -0.0000968  )
        40        S      tau(  40) = (   0.2500004   0.0000006  -0.6064556  )
        41        S      tau(  41) = (   0.3750152   0.0722028  -0.1241921  )
        42        S      tau(  42) = (   0.2499983   0.1443201   0.3580593  )
        43        S      tau(  43) = (   0.2500004   0.0000005  -0.3584711  )
        44        S      tau(  44) = (   0.3749754   0.0721432   0.1241106  )
        45        S      tau(  45) = (   0.2499987   0.1437775   0.6065499  )
        46        Mo     tau(  46) = (   0.2499984   0.4330123   0.4872880  )
        47        Mo     tau(  47) = (   0.2500001   0.2886759  -0.4825273  )
        48        Mo     tau(  48) = (   0.1250277   0.3608616  -0.0000572  )
        49        S      tau(  49) = (   0.1250001   0.2165071  -0.6064556  )
        50        S      tau(  50) = (   0.2499987   0.2886898  -0.1241693  )
        51        S      tau(  51) = (   0.1266397   0.3617911   0.3615924  )
        52        S      tau(  52) = (   0.1250002   0.2165070  -0.3584711  )
        53        S      tau(  53) = (   0.2499988   0.2886671   0.1241958  )
        54        S      tau(  54) = (   0.1173054   0.3564020   0.6108885  )
        55        Mo     tau(  55) = (   0.1243363   0.6504991   0.4826116  )
        56        Mo     tau(  56) = (   0.1249998   0.5051824  -0.4825273  )
        57        Mo     tau(  57) = (   0.0000060   0.5773464  -0.0000969  )
        58        S      tau(  58) = (  -0.0000002   0.4330136  -0.6064556  )
        59        S      tau(  59) = (   0.1250101   0.5051751  -0.1241696  )
        60        S      tau(  60) = (  -0.0000165   0.5773581   0.3580590  )
        61        S      tau(  61) = (  -0.0000001   0.4330135  -0.3584711  )
        62        S      tau(  62) = (   0.1249907   0.5051868   0.1241956  )
        63        S      tau(  63) = (  -0.0004863   0.5776299   0.6065497  )
        64        Mo     tau(  64) = (   0.5000682   0.0000393   0.4813064  )
        65        Mo     tau(  65) = (  -0.0000004   0.7216889  -0.4825273  )
        66        Mo     tau(  66) = (  -0.1249919   0.7938635  -0.0001489  )
        67        S      tau(  67) = (  -0.1250004   0.6495201  -0.6064556  )
        68        S      tau(  68) = (   0.0000350   0.7216859  -0.1241920  )
        69        S      tau(  69) = (  -0.1252051   0.7937392   0.3575294  )
        70        S      tau(  70) = (  -0.1250004   0.6495200  -0.3584711  )
        71        S      tau(  71) = (  -0.0000364   0.7216812   0.1241103  )
        72        S      tau(  72) = (  -0.1248667   0.7939344   0.6060378  )
        73        Mo     tau(  73) = (   0.6250985   0.2164481   0.4814760  )
        74        Mo     tau(  74) = (   0.6250004   0.0721694  -0.4825273  )
        75        Mo     tau(  75) = (   0.4999807   0.1443583  -0.0000532  )
        76        S      tau(  76) = (   0.5000004   0.0000006  -0.6064556  )
        77        S      tau(  77) = (   0.6249710   0.0721537  -0.1241599  )
        78        S      tau(  78) = (   0.4998101   0.1444887   0.3573287  )
        79        S      tau(  79) = (   0.5000004   0.0000005  -0.3584711  )
        80        S      tau(  80) = (   0.6250072   0.0721744   0.1241160  )
        81        S      tau(  81) = (   0.5009199   0.1433424   0.6062338  )
        82        Mo     tau(  82) = (   0.5011786   0.4330950   0.4826115  )
        83        Mo     tau(  83) = (   0.5000001   0.2886759  -0.4825273  )
        84        Mo     tau(  84) = (   0.3749686   0.3608615  -0.0000573  )
        85        S      tau(  85) = (   0.3750001   0.2165071  -0.6064556  )
        86        S      tau(  86) = (   0.4999725   0.2886900  -0.1241349  )
        87        S      tau(  87) = (   0.3733572   0.3617909   0.3615920  )
        88        S      tau(  88) = (   0.3750002   0.2165070  -0.3584711  )
        89        S      tau(  89) = (   0.4999057   0.2887288   0.1242238  )
        90        S      tau(  90) = (   0.3826919   0.3564018   0.6108876  )
        91        Mo     tau(  91) = (   0.3756598   0.6504996   0.4826113  )
        92        Mo     tau(  92) = (   0.3749998   0.5051824  -0.4825273  )
        93        Mo     tau(  93) = (   0.2499978   0.5773166  -0.0000576  )
        94        S      tau(  94) = (   0.2499998   0.4330136  -0.6064556  )
        95        S      tau(  95) = (   0.3749857   0.5051746  -0.1241697  )
        96        S      tau(  96) = (   0.2499981   0.5754545   0.3615919  )
        97        S      tau(  97) = (   0.2499999   0.4330135  -0.3584711  )
        98        S      tau(  98) = (   0.3750048   0.5051860   0.1241960  )
        99        S      tau(  99) = (   0.2499983   0.5862331   0.6108872  )
       100        Mo     tau( 100) = (   0.7499988   0.0001148   0.4814756  )
       101        Mo     tau( 101) = (   0.2499996   0.7216889  -0.4825273  )
       102        Mo     tau( 102) = (   0.1250062   0.7938321  -0.0000534  )
       103        S      tau( 103) = (   0.1249996   0.6495201  -0.6064556  )
       104        S      tau( 104) = (   0.2499971   0.7216593  -0.1241350  )
       105        S      tau( 105) = (   0.1250350   0.7936175   0.3573284  )
       106        S      tau( 106) = (   0.1249996   0.6495200  -0.3584711  )
       107        S      tau( 107) = (   0.2499972   0.7215818   0.1242234  )
       108        S      tau( 108) = (   0.1245975   0.7951515   0.6062336  )
       109        Mo     tau( 109) = (  -0.1251006   0.2164484   0.4814769  )
       110        Mo     tau( 110) = (   0.8750004   0.0721694  -0.4825273  )
       111        Mo     tau( 111) = (   0.7499976   0.1443379  -0.0001196  )
       112        S      tau( 112) = (   0.7500004   0.0000006  -0.6064556  )
       113        S      tau( 113) = (   0.8750246   0.0721533  -0.1241599  )
       114        S      tau( 114) = (   0.7499994   0.1443376   0.3572937  )
       115        S      tau( 115) = (   0.7500004   0.0000005  -0.3584711  )
       116        S      tau( 116) = (   0.8749884   0.0721739   0.1241157  )
       117        S      tau( 117) = (   0.7499987   0.1443370   0.6058240  )
       118        Mo     tau( 118) = (  -0.2500010   0.4329316   0.4813070  )
       119        Mo     tau( 119) = (   0.7500001   0.2886759  -0.4825273  )
       120        Mo     tau( 120) = (   0.6249710   0.3608493  -0.0000534  )
       121        S      tau( 121) = (   0.6250001   0.2165071  -0.6064556  )
       122        S      tau( 122) = (   0.7499973   0.2887067  -0.1241600  )
       123        S      tau( 123) = (   0.6247737   0.3609305   0.3573287  )
       124        S      tau( 124) = (   0.6250002   0.2165070  -0.3584711  )
       125        S      tau( 125) = (   0.7499971   0.2886649   0.1241160  )
       126        S      tau( 126) = (   0.6263203   0.3605423   0.6062340  )
       127        Mo     tau( 127) = (  -0.3748636   0.6495986   0.4819361  )
       128        Mo     tau( 128) = (   0.6249998   0.5051824  -0.4825273  )
       129        Mo     tau( 129) = (   0.4999891   0.5773453  -0.0000967  )
       130        S      tau( 130) = (   0.4999998   0.4330136  -0.6064556  )
       131        S      tau( 131) = (   0.6249761   0.5051506  -0.1241920  )
       132        S      tau( 132) = (   0.5000130   0.5773585   0.3580587  )
       133        S      tau( 133) = (   0.4999999   0.4330135  -0.3584711  )
       134        S      tau( 134) = (   0.6250081   0.5052147   0.1241104  )
       135        S      tau( 135) = (   0.5004826   0.5776298   0.6065487  )
       136        Mo     tau( 136) = (  -0.0000706   0.0000401   0.4813070  )
       137        Mo     tau( 137) = (   0.4999996   0.7216889  -0.4825273  )
       138        Mo     tau( 138) = (   0.3749881   0.7938314  -0.0000535  )
       139        S      tau( 139) = (   0.3749996   0.6495201  -0.6064556  )
       140        S      tau( 140) = (   0.4999594   0.7216844  -0.1241918  )
       141        S      tau( 141) = (   0.3749610   0.7936184   0.3573285  )
       142        S      tau( 142) = (   0.3749996   0.6495200  -0.3584711  )
       143        S      tau( 143) = (   0.5000310   0.7216802   0.1241101  )
       144        S      tau( 144) = (   0.3753979   0.7951517   0.6062337  )
       145        Pd     tau( 145) = (   0.2499985   0.4330123   0.7148096  )
       146        Pt     tau( 146) = (  -0.1251653   0.6496069   0.7249121  )

     --------------------------------------------
     DFT-D3 Dispersion Correction (3-body terms):
     --------------------------------------------
       Reference C6 values for interpolation: 

         atom   Coordination number   C6
         S          0.000           268.01
         S          0.995           261.99
         S          1.990           251.62
         Mo         0.000          1691.79
         Mo         1.942          1004.01
         Mo        11.056           674.22
         Pd         0.000          1217.01
         Pd         1.863           573.90
         Pd         5.710           531.75
         Pt         0.000           782.29
         Pt         1.919           692.72
         Pt         6.667           673.75

       Values used:

         atom   Coordination number  R0_AB[au]  C6      C8
         Mo        10.173            3.547    674.22  77634.20
         Mo        10.189            3.547    674.22  77634.20
         Mo        10.201            3.547    674.22  77634.20
         S          3.753            3.128    251.62  12327.25
         S          3.858            3.128    251.62  12327.25
         S          3.848            3.128    251.62  12327.25
         S          3.859            3.128    251.62  12327.25
         S          3.860            3.128    251.62  12327.25
         S          3.798            3.128    251.62  12327.25
         Mo        10.183            3.547    674.22  77634.20
         Mo        10.189            3.547    674.22  77634.20
         Mo        10.201            3.547    674.22  77634.20
         S          3.753            3.128    251.62  12327.25
         S          3.859            3.128    251.62  12327.25
         S          3.848            3.128    251.62  12327.25
         S          3.858            3.128    251.62  12327.25
         S          3.855            3.128    251.62  12327.25
         S          3.810            3.128    251.62  12327.25
         Mo        10.813            3.547    674.22  77634.20
         Mo        10.189            3.547    674.22  77634.20
         Mo        10.200            3.547    674.22  77634.20
         S          3.753            3.128    251.62  12327.25
         S          3.858            3.128    251.62  12327.25
         S          3.863            3.128    251.62  12327.25
         S          3.859            3.128    251.62  12327.25
         S          3.860            3.128    251.62  12327.25
         S          4.725            3.128    251.62  12327.25
         Mo        10.219            3.547    674.22  77634.20
         Mo        10.189            3.547    674.22  77634.20
         Mo        10.200            3.547    674.22  77634.20
         S          3.753            3.128    251.62  12327.25
         S          3.858            3.128    251.62  12327.25
         S          3.862            3.128    251.62  12327.25
         S          3.859            3.128    251.62  12327.25
         S          3.862            3.128    251.62  12327.25
         S          3.771            3.128    251.62  12327.25
         Mo        10.173            3.547    674.22  77634.20
         Mo        10.189            3.547    674.22  77634.20
         Mo        10.202            3.547    674.22  77634.20
         S          3.753            3.128    251.62  12327.25
         S          3.858            3.128    251.62  12327.25
         S          3.857            3.128    251.62  12327.25
         S          3.859            3.128    251.62  12327.25
         S          3.860            3.128    251.62  12327.25
         S          3.752            3.128    251.62  12327.25
         Mo        10.810            3.547    674.22  77634.20
         Mo        10.189            3.547    674.22  77634.20
         Mo        10.202            3.547    674.22  77634.20
         S          3.753            3.128    251.62  12327.25
         S          3.859            3.128    251.62  12327.25
         S          3.866            3.128    251.62  12327.25
         S          3.859            3.128    251.62  12327.25
         S          3.853            3.128    251.62  12327.25
         S          4.646            3.128    251.62  12327.25
         Mo        10.183            3.547    674.22  77634.20
         Mo        10.189            3.547    674.22  77634.20
         Mo        10.202            3.547    674.22  77634.20
         S          3.753            3.128    251.62  12327.25
         S          3.859            3.128    251.62  12327.25
         S          3.858            3.128    251.62  12327.25
         S          3.859            3.128    251.62  12327.25
         S          3.853            3.128    251.62  12327.25
         S          4.719            3.128    251.62  12327.25
         Mo        10.233            3.547    674.22  77634.20
         Mo        10.189            3.547    674.22  77634.20
         Mo        10.201            3.547    674.22  77634.20
         S          3.753            3.128    251.62  12327.25
         S          3.858            3.128    251.62  12327.25
         S          3.863            3.128    251.62  12327.25
         S          3.859            3.128    251.62  12327.25
         S          3.860            3.128    251.62  12327.25
         S          4.725            3.128    251.62  12327.25
         Mo        10.213            3.547    674.22  77634.20
         Mo        10.189            3.547    674.22  77634.20
         Mo        10.201            3.547    674.22  77634.20
         S          3.753            3.128    251.62  12327.25
         S          3.858            3.128    251.62  12327.25
         S          3.848            3.128    251.62  12327.25
         S          3.859            3.128    251.62  12327.25
         S          3.860            3.128    251.62  12327.25
         S          3.799            3.128    251.62  12327.25
         Mo        10.173            3.547    674.22  77634.20
         Mo        10.189            3.547    674.22  77634.20
         Mo        10.202            3.547    674.22  77634.20
         S          3.753            3.128    251.62  12327.25
         S          3.859            3.128    251.62  12327.25
         S          3.866            3.128    251.62  12327.25
         S          3.859            3.128    251.62  12327.25
         S          3.855            3.128    251.62  12327.25
         S          4.645            3.128    251.62  12327.25
         Mo        10.173            3.547    674.22  77634.20
         Mo        10.189            3.547    674.22  77634.20
         Mo        10.202            3.547    674.22  77634.20
         S          3.753            3.128    251.62  12327.25
         S          3.859            3.128    251.62  12327.25
         S          3.866            3.128    251.62  12327.25
         S          3.859            3.128    251.62  12327.25
         S          3.853            3.128    251.62  12327.25
         S          4.646            3.128    251.62  12327.25
         Mo        10.213            3.547    674.21  77634.20
         Mo        10.189            3.547    674.22  77634.20
         Mo        10.201            3.547    674.22  77634.20
         S          3.753            3.128    251.62  12327.25
         S          3.859            3.128    251.62  12327.25
         S          3.848            3.128    251.62  12327.25
         S          3.859            3.128    251.62  12327.25
         S          3.855            3.128    251.62  12327.25
         S          3.810            3.128    251.62  12327.25
         Mo        10.213            3.547    674.22  77634.20
         Mo        10.189            3.547    674.22  77634.20
         Mo        10.199            3.547    674.22  77634.20
         S          3.753            3.128    251.62  12327.25
         S          3.858            3.128    251.62  12327.25
         S          3.855            3.128    251.62  12327.25
         S          3.858            3.128    251.62  12327.25
         S          3.860            3.128    251.62  12327.25
         S          3.777            3.128    251.62  12327.25
         Mo        10.233            3.547    674.22  77634.20
         Mo        10.189            3.547    674.22  77634.20
         Mo        10.201            3.547    674.22  77634.20
         S          3.753            3.128    251.62  12327.25
         S          3.858            3.128    251.62  12327.25
         S          3.848            3.128    251.62  12327.25
         S          3.858            3.128    251.62  12327.25
         S          3.860            3.128    251.62  12327.25
         S          3.799            3.128    251.62  12327.25
         Mo        10.219            3.547    674.22  77634.20
         Mo        10.189            3.547    674.22  77634.20
         Mo        10.202            3.547    674.22  77634.20
         S          3.753            3.128    251.62  12327.25
         S          3.859            3.128    251.62  12327.25
         S          3.857            3.128    251.62  12327.25
         S          3.859            3.128    251.62  12327.25
         S          3.860            3.128    251.62  12327.25
         S          3.752            3.128    251.62  12327.25
         Mo        10.223            3.547    674.22  77634.20
         Mo        10.189            3.547    674.22  77634.20
         Mo        10.201            3.547    674.22  77634.20
         S          3.753            3.128    251.62  12327.25
         S          3.858            3.128    251.62  12327.25
         S          3.848            3.128    251.62  12327.25
         S          3.859            3.128    251.62  12327.25
         S          3.860            3.128    251.62  12327.25
         S          3.798            3.128    251.62  12327.25
         Pd         3.772            3.168    556.87  51022.77
         Pt         3.624            3.168    692.72  72035.25

         Molecular C6 ( Ry / a.u.^6 ) =   7935762.88


     number of k points=     4  Gaussian smearing, width (Ry)=  0.0100
                       cart. coord. in units 2pi/alat
        k(    1) = (   0.0000000   0.0000000   0.0000000), wk =   0.5000000
        k(    2) = (   0.0000000  -0.5773499   0.0000000), wk =   0.5000000
        k(    3) = (  -0.5000000  -0.2886755   0.0000000), wk =   0.5000000
        k(    4) = (  -0.5000000  -0.8660254   0.0000000), wk =   0.5000000

     Dense  grid:  5955087 G-vectors     FFT dimensions: ( 180, 180, 432)

     Smooth grid:  2572543 G-vectors     FFT dimensions: ( 135, 135, 320)

     Estimated max dynamical RAM per process >       3.07 GB

     Estimated total dynamical RAM >     110.53 GB

     Initial potential from superposition of free atoms

     starting charge    1297.9541, renormalised to    1298.0000

     negative rho (up, down):  8.875E-04 0.000E+00
     Starting wfcs are  891 randomized atomic wfcs
     Checking if some PAW data can be deallocated... 

     total cpu time spent up to now is       99.3 secs

     Self-consistent Calculation

     iteration #  1     ecut=    77.00 Ry     beta= 0.20
     Davidson diagonalization with overlap
     ethr =  1.00E-02,  avg # of iterations =  2.0

     Threshold (ethr) on eigenvalues was too large:
     Diagonalizing with lowered threshold

     Davidson diagonalization with overlap
     ethr =  1.79E-04,  avg # of iterations = 14.2

     negative rho (up, down):  2.765E-04 0.000E+00

     total cpu time spent up to now is     1135.4 secs

     total energy              =  -26031.70686275 Ry
     estimated scf accuracy    <       5.02639141 Ry

     iteration #  2     ecut=    77.00 Ry     beta= 0.20
     Davidson diagonalization with overlap
     ethr =  3.87E-04,  avg # of iterations =  2.0

     negative rho (up, down):  4.035E-05 0.000E+00

     total cpu time spent up to now is     1355.0 secs

     total energy              =  -26030.68894777 Ry
     estimated scf accuracy    <       2.60739554 Ry

     iteration #  3     ecut=    77.00 Ry     beta= 0.20
     Davidson diagonalization with overlap
     ethr =  2.01E-04,  avg # of iterations = 12.0

     negative rho (up, down):  3.017E-05 0.000E+00

     total cpu time spent up to now is     1640.9 secs

     total energy              =  -26031.02742056 Ry
     estimated scf accuracy    <       0.69815237 Ry

     iteration #  4     ecut=    77.00 Ry     beta= 0.20
     Davidson diagonalization with overlap
     c_bands:  1 eigenvalues not converged
     c_bands:  2 eigenvalues not converged
     c_bands:  3 eigenvalues not converged
     c_bands:  2 eigenvalues not converged
     ethr =  5.38E-05,  avg # of iterations = 20.0

     negative rho (up, down):  3.351E-05 0.000E+00

     total cpu time spent up to now is     2252.2 secs

     total energy              =  -26031.59644213 Ry
     estimated scf accuracy    <       0.25545280 Ry

     iteration #  5     ecut=    77.00 Ry     beta= 0.20
     Davidson diagonalization with overlap
     c_bands:  3 eigenvalues not converged
     ethr =  1.97E-05,  avg # of iterations = 23.5

     negative rho (up, down):  6.904E-05 0.000E+00

     total cpu time spent up to now is     2769.5 secs

     total energy              =  -26031.71346479 Ry
     estimated scf accuracy    <       0.15534343 Ry

     iteration #  6     ecut=    77.00 Ry     beta= 0.20
     Davidson diagonalization with overlap
     c_bands:  3 eigenvalues not converged
     c_bands:  2 eigenvalues not converged
     ethr =  1.20E-05,  avg # of iterations = 27.2

     negative rho (up, down):  2.463E-04 0.000E+00

     total cpu time spent up to now is     3190.0 secs

     total energy              =  -26031.70550309 Ry
     estimated scf accuracy    <       0.09824030 Ry

     iteration #  7     ecut=    77.00 Ry     beta= 0.20
     Davidson diagonalization with overlap
     c_bands:  1 eigenvalues not converged
     c_bands:  2 eigenvalues not converged
     ethr =  7.57E-06,  avg # of iterations = 24.5

     negative rho (up, down):  7.442E-04 0.000E+00

     total cpu time spent up to now is     3632.7 secs

     total energy              =  -26031.74424876 Ry
     estimated scf accuracy    <       0.04497351 Ry

     iteration #  8     ecut=    77.00 Ry     beta= 0.20
     Davidson diagonalization with overlap
     c_bands:  4 eigenvalues not converged
     c_bands:  2 eigenvalues not converged
     c_bands:  2 eigenvalues not converged
     ethr =  3.46E-06,  avg # of iterations = 28.5

     negative rho (up, down):  5.701E-04 0.000E+00

     total cpu time spent up to now is     4208.7 secs

     total energy              =  -26031.74996248 Ry
     estimated scf accuracy    <       0.05566998 Ry

     iteration #  9     ecut=    77.00 Ry     beta= 0.20
     Davidson diagonalization with overlap
     c_bands:  1 eigenvalues not converged
     c_bands:  1 eigenvalues not converged
     ethr =  3.46E-06,  avg # of iterations = 11.8

     negative rho (up, down):  4.984E-04 0.000E+00

     total cpu time spent up to now is     4448.6 secs

     total energy              =  -26031.74859028 Ry
     estimated scf accuracy    <       0.01063741 Ry

     iteration # 10     ecut=    77.00 Ry     beta= 0.20
     Davidson diagonalization with overlap
     c_bands:  5 eigenvalues not converged
     c_bands:  2 eigenvalues not converged
     c_bands:  1 eigenvalues not converged
     c_bands:  3 eigenvalues not converged
     ethr =  8.20E-07,  avg # of iterations = 25.0

     negative rho (up, down):  5.568E-04 0.000E+00

     total cpu time spent up to now is     5151.7 secs

     total energy              =  -26031.76442928 Ry
     estimated scf accuracy    <       0.00647803 Ry

     iteration # 11     ecut=    77.00 Ry     beta= 0.20
     Davidson diagonalization with overlap
     c_bands:  3 eigenvalues not converged
     ethr =  4.99E-07,  avg # of iterations =  8.8

     negative rho (up, down):  7.800E-04 0.000E+00

     total cpu time spent up to now is     5394.2 secs

     total energy              =  -26031.76260708 Ry
     estimated scf accuracy    <       0.00333987 Ry

     iteration # 12     ecut=    77.00 Ry     beta= 0.20
     Davidson diagonalization with overlap
     ethr =  2.57E-07,  avg # of iterations = 11.2

     negative rho (up, down):  9.035E-04 0.000E+00

     total cpu time spent up to now is     5868.6 secs

     total energy              =  -26031.76581996 Ry
     estimated scf accuracy    <       0.00103259 Ry

     iteration # 13     ecut=    77.00 Ry     beta= 0.20
     Davidson diagonalization with overlap
     ethr =  7.96E-08,  avg # of iterations = 12.5

     negative rho (up, down):  8.192E-04 0.000E+00

     total cpu time spent up to now is     6283.0 secs

     total energy              =  -26031.76552419 Ry
     estimated scf accuracy    <       0.00153035 Ry

     iteration # 14     ecut=    77.00 Ry     beta= 0.20
     Davidson diagonalization with overlap
     ethr =  7.96E-08,  avg # of iterations =  9.5

     negative rho (up, down):  8.446E-04 0.000E+00

     total cpu time spent up to now is     6539.3 secs

     total energy              =  -26031.76566527 Ry
     estimated scf accuracy    <       0.00014601 Ry

     iteration # 15     ecut=    77.00 Ry     beta= 0.20
     Davidson diagonalization with overlap
     c_bands:  3 eigenvalues not converged
     c_bands:  1 eigenvalues not converged
     c_bands:  2 eigenvalues not converged
     c_bands:  2 eigenvalues not converged
     ethr =  1.12E-08,  avg # of iterations = 30.0

     negative rho (up, down):  8.550E-04 0.000E+00

     total cpu time spent up to now is     7432.1 secs

     total energy              =  -26031.76603480 Ry
     estimated scf accuracy    <       0.00005642 Ry

     iteration # 16     ecut=    77.00 Ry     beta= 0.20
     Davidson diagonalization with overlap
     c_bands:  1 eigenvalues not converged
     ethr =  4.35E-09,  avg # of iterations = 14.0

     negative rho (up, down):  9.218E-04 0.000E+00

     total cpu time spent up to now is     7734.2 secs

     total energy              =  -26031.76603361 Ry
     estimated scf accuracy    <       0.00003863 Ry

     iteration # 17     ecut=    77.00 Ry     beta= 0.20
     Davidson diagonalization with overlap
     c_bands:  1 eigenvalues not converged
     c_bands:  2 eigenvalues not converged
     c_bands:  1 eigenvalues not converged
     ethr =  2.98E-09,  avg # of iterations = 19.8

     negative rho (up, down):  9.169E-04 0.000E+00

     total cpu time spent up to now is     8409.2 secs

     total energy              =  -26031.76603903 Ry
     estimated scf accuracy    <       0.00033472 Ry

     iteration # 18     ecut=    77.00 Ry     beta= 0.20
     Davidson diagonalization with overlap
     c_bands:  1 eigenvalues not converged
     ethr =  2.98E-09,  avg # of iterations = 14.0

     negative rho (up, down):  8.978E-04 0.000E+00

     total cpu time spent up to now is     8739.2 secs

     total energy              =  -26031.76598504 Ry
     estimated scf accuracy    <       0.00012609 Ry

     iteration # 19     ecut=    77.00 Ry     beta= 0.20
     Davidson diagonalization with overlap
     ethr =  2.98E-09,  avg # of iterations = 14.0

     negative rho (up, down):  8.968E-04 0.000E+00

     total cpu time spent up to now is     9229.5 secs

     total energy              =  -26031.76603873 Ry
     estimated scf accuracy    <       0.00000247 Ry

     iteration # 20     ecut=    77.00 Ry     beta= 0.20
     Davidson diagonalization with overlap
     ethr =  1.91E-10,  avg # of iterations = 21.8

     negative rho (up, down):  9.055E-04 0.000E+00

     total cpu time spent up to now is    10692.2 secs

     total energy              =  -26031.76603591 Ry
     estimated scf accuracy    <       0.00002820 Ry

     iteration # 21     ecut=    77.00 Ry     beta= 0.20
     Davidson diagonalization with overlap
     ethr =  1.91E-10,  avg # of iterations = 12.5

     negative rho (up, down):  9.058E-04 0.000E+00

     total cpu time spent up to now is    11159.2 secs

     total energy              =  -26031.76603799 Ry
     estimated scf accuracy    <       0.00000289 Ry

     iteration # 22     ecut=    77.00 Ry     beta= 0.20
     Davidson diagonalization with overlap
     ethr =  1.91E-10,  avg # of iterations =  7.0

     negative rho (up, down):  9.049E-04 0.000E+00

     total cpu time spent up to now is    11467.4 secs

     End of self-consistent calculation

          k = 0.0000 0.0000 0.0000 (321495 PWs)   bands (ev):

  -102.1837 -88.6113 -70.4978 -70.4958 -70.4947 -70.4934 -70.4698 -70.4655
   -70.4517 -66.6571 -66.6360 -66.6360 -66.6360 -66.6360 -66.6359 -66.6359
   -66.6148 -66.6148 -66.6148 -66.6148 -66.6148 -66.6148 -66.6148 -66.6148
   -66.6147 -66.5910 -66.5703 -66.5700 -66.5700 -66.5698 -66.5697 -66.5696
   -66.5491 -66.5491 -66.5490 -66.5488 -66.5487 -66.5486 -66.5485 -66.5485
   -66.5482 -66.5161 -66.5030 -66.4998 -66.4955 -66.4918 -66.4834 -66.4784
   -66.4702 -66.4677 -66.4643 -66.4630 -66.4578 -66.4574 -66.4536 -66.4425
   -66.4354 -56.4444 -56.4164 -56.4073 -54.4274 -54.4073 -54.4051 -40.9835
   -40.9835 -40.9835 -40.9164 -40.9162 -40.9162 -40.9087 -40.9087 -40.9087
   -40.9087 -40.9087 -40.9087 -40.8417 -40.8417 -40.8415 -40.8415 -40.8414
   -40.8413 -40.8314 -40.8311 -40.8271 -40.8172 -40.7831 -40.7831 -40.7831
   -40.7831 -40.7831 -40.7831 -40.7758 -40.7758 -40.7758 -40.7758 -40.7758
   -40.7758 -40.7608 -40.7568 -40.7550 -40.7516 -40.7503 -40.7482 -40.7482
   -40.7482 -40.7482 -40.7482 -40.7482 -40.7457 -40.7449 -40.7341 -40.7341
   -40.7341 -40.7341 -40.7341 -40.7341 -40.7340 -40.7340 -40.7340 -40.7163
   -40.7161 -40.7161 -40.7160 -40.7160 -40.7159 -40.7106 -40.7104 -40.7103
   -40.7102 -40.7101 -40.7100 -40.6925 -40.6815 -40.6814 -40.6813 -40.6812
   -40.6812 -40.6811 -40.6766 -40.6705 -40.6704 -40.6704 -40.6690 -40.6689
   -40.6689 -40.6688 -40.6685 -40.6685 -40.6684 -40.6683 -40.6681 -40.6621
   -40.6424 -40.6372 -40.6351 -40.6335 -40.6323 -40.6311 -40.6299 -40.6275
   -40.6242 -40.6236 -40.6236 -40.6236 -40.6236 -40.6236 -40.6236 -40.6128
   -40.6085 -40.6036 -40.6035 -40.6035 -40.6034 -40.6021 -40.6013 -40.6000
   -40.5958 -40.5940 -40.5932 -40.5890 -40.5888 -40.5861 -40.5827 -40.5811
   -40.5807 -40.5763 -40.5763 -40.5742 -40.5571 -40.5569 -40.5568 -40.5566
   -40.5566 -40.5566 -40.5160 -40.5160 -40.5116 -40.5095 -40.5095 -40.4744
   -40.4708 -40.4665 -40.4654 -40.4640 -40.4540 -40.4176 -40.4153 -20.0956
   -20.0124 -19.8824 -19.3393 -19.2324 -19.2257 -19.2231 -19.2228 -19.2217
   -19.2113 -19.1749 -19.1435 -19.1269 -19.1269 -19.1089 -19.0633 -19.0465
   -19.0328 -19.0202 -19.0178 -18.9867 -18.8473 -18.6837 -18.5148 -18.4948
   -18.4780 -18.4702 -18.4490 -18.4397 -18.4271 -18.3715 -18.3594 -18.3561
   -18.3263 -18.3258 -18.2915 -18.2516 -18.2118 -18.1871 -18.1847 -18.1798
   -18.1603 -18.1249 -18.1168 -18.1168 -18.1167 -18.1165 -18.1164 -18.1160
   -18.0945 -18.0763 -18.0763 -18.0763 -18.0634 -18.0620 -18.0386 -18.0367
   -18.0305 -18.0292 -18.0220 -18.0180 -18.0046 -18.0025 -18.0019 -17.9561
   -17.9474 -17.9461 -17.9363 -17.9341 -17.9192 -17.9190 -17.9147 -17.9106
   -17.9061 -17.8913 -17.8888 -17.8884 -17.8860 -17.8591 -17.8571 -17.8522
   -17.8424 -17.8366 -17.8277 -17.8201 -17.8153 -17.8143 -17.7933 -17.7879
   -17.7786 -17.7670 -17.7571 -17.7428 -17.7325 -17.7303 -17.7277 -11.9940
   -11.8652 -11.7654 -11.7405 -11.7307 -11.7240 -11.7062 -11.6506 -11.6396
   -11.6334 -11.5869 -11.3892 -11.2499 -11.2010 -11.1981 -11.1828 -11.1795
   -11.1729 -11.1555 -11.1263 -11.1114 -11.1070 -11.1060 -11.1040 -11.0941
   -11.0932 -11.0834 -11.0226 -11.0047 -10.9841 -10.9789 -10.9625 -10.9603
   -10.9490 -10.9458 -10.9339 -10.9118 -10.8950 -10.8922 -10.8918 -10.8865
   -10.8704 -10.8457 -10.8326 -10.8187 -10.8170 -10.8127 -10.8085 -10.8070
   -10.8057 -10.8021 -10.8020 -10.7924 -10.7866 -10.7809 -10.7779 -10.7665
   -10.7631 -10.7589 -10.7588 -10.7568 -10.7443 -10.7384 -10.7239 -10.7110
   -10.6992 -10.6768 -10.6568 -10.6547 -10.6208 -10.6143 -10.5927 -10.5844
   -10.5804 -10.5695 -10.2435 -10.2193 -10.1350 -10.1233 -10.0268 -10.0218
   -10.0199  -9.9212  -9.8628  -9.8508  -9.8240  -9.7643  -9.7585  -9.7539
    -9.7505  -9.7493  -9.7492  -9.7230  -9.6875  -9.6804  -9.6728  -9.6664
    -9.6620  -9.6533  -9.6415  -9.6195  -9.6167  -9.6022  -9.5982  -9.5926
    -9.5924  -9.5791  -9.5765  -9.5539  -9.5526  -9.5519  -9.5481  -9.5466
    -9.5455  -9.5431  -9.5187  -9.5085  -9.5064  -9.4900  -9.4884  -9.4416
    -9.4313  -9.4225  -9.4125  -9.4066  -9.4031  -9.3610  -9.3273  -9.3182
    -9.3091  -9.3066  -9.2948  -9.2863  -9.2840  -9.2588  -9.2577  -9.2087
    -9.1843  -9.1824  -9.1726  -9.1711  -9.1649  -9.1619  -9.1518  -9.0677
    -9.0213  -9.0154  -9.0086  -9.0063  -8.9969  -8.9961  -8.9954  -8.9951
    -8.9908  -8.9861  -8.9421  -8.9360  -8.9178  -8.9168  -8.9080  -8.8980
    -8.8798  -8.8540  -8.8490  -8.8421  -8.8016  -8.7845  -8.7784  -8.7754
    -8.7754  -8.7702  -8.7605  -8.7529  -8.7379  -8.7272  -8.7128  -8.7108
    -8.7083  -8.7008  -8.6929  -8.6915  -8.6874  -8.6562  -8.4728  -8.4147
    -8.4063  -8.4063  -8.3639  -8.3422  -8.3343  -8.3334  -8.3137  -8.2941
    -8.2940  -8.2940  -8.2939  -8.2939  -8.2939  -8.2459  -8.2302  -8.2243
    -8.2216  -8.2184  -8.2181  -8.2143  -8.2003  -8.1747  -8.1448  -8.1095
    -8.0813  -8.0467  -8.0088  -7.9509  -7.9088  -7.9084  -7.8782  -7.8713
    -7.6728  -7.6543  -7.6339  -7.5891  -7.5588  -7.5588  -7.5587  -7.5586
    -7.5586  -7.5585  -7.5130  -7.5125  -7.5125  -7.5120  -7.5116  -7.5111
    -7.5032  -7.5021  -7.4935  -7.4922  -7.4877  -7.4846  -7.4735  -7.4732
    -7.4715  -7.4565  -7.4501  -7.4425  -7.4418  -7.4385  -7.4376  -7.4367
    -7.4328  -7.4288  -7.4220  -7.4088  -7.4021  -7.4012  -7.3918  -7.3908
    -7.3807  -7.3801  -7.3769  -7.3430  -7.2963  -7.2774  -7.2774  -7.2325
    -7.2182  -7.2175  -7.2065  -7.2060  -7.1741  -7.1610  -7.1499  -7.0442
    -7.0214  -6.9772  -6.9644  -6.9105  -6.8987  -6.8799  -6.8321  -6.8290
    -6.8238  -6.7723  -6.7708  -6.7679  -6.7400  -6.6803  -6.6614  -6.6480
    -6.6478  -6.6400  -6.6232  -6.6027  -6.5990  -6.5886  -6.5751  -6.5617
    -6.5515  -6.5213  -6.5147  -6.5117  -6.5013  -6.4921  -6.4881  -6.4808
    -6.4774  -6.4704  -6.4633  -6.4508  -6.4393  -6.4319  -6.4143  -6.4130
    -6.3992  -6.3948  -6.3880  -6.3671  -6.3254  -6.3253  -6.3253  -6.3253
    -6.3253  -6.3253  -6.3218  -6.3057  -6.2780  -6.2502  -6.2474  -6.2471
    -6.2470  -6.2466  -6.2433  -6.2131  -6.1877  -6.1189  -6.1111  -6.0752
    -6.0492  -5.7725  -5.6540  -5.6045  -5.5924  -5.3831  -5.3450  -5.3270
    -5.0963  -4.3144  -3.8410  -3.8136  -3.8095  -3.8071  -3.8034  -3.7857
    -3.7801  -3.7784  -3.7733  -3.7730  -3.7729  -3.7551  -3.6664  -3.5881
    -3.5860  -3.5698  -3.5649  -3.5534  -3.5494  -3.5395  -3.5365  -3.5313
    -3.5277  -3.4659  -3.4658  -3.4658  -3.4510  -3.4481  -3.4478  -3.4465
    -3.4463  -3.4459  -3.4122  -3.3986  -3.3984  -3.3983  -3.3710  -3.3688
    -3.3543  -3.3478  -3.3466  -3.3456  -3.3394  -3.3354  -3.3324  -3.3317
    -3.3308  -3.3263  -3.3116  -3.3079  -3.3016  -3.2874  -3.2651  -3.2354
    -3.2314  -3.2287  -3.2155  -3.2055  -3.2046  -3.2013  -3.1655  -3.1503
    -3.0004  -2.9995  -2.9992  -2.9942  -2.9941  -2.9913  -2.9307  -2.9276
    -2.9273  -2.9270  -2.9268  -2.9268  -2.9266  -2.9261  -2.9261  -2.9067
    -2.9039  -2.9038  -2.8875  -2.8804  -2.8728  -2.8697  -2.8670  -2.8609
    -2.8579  -2.8551  -2.8536  -2.8519  -2.8422  -2.8386  -2.8299  -2.8202
    -2.8083  -2.7970  -2.7893  -2.7847  -2.7611  -2.7542  -2.7403  -2.7361
    -2.7355  -2.7187  -2.7150  -2.7137  -2.7102  -2.7017  -2.7003  -2.6878
    -2.6682  -2.6640  -2.6486  -2.6166  -2.6125  -2.6052  -2.5932  -2.5788
    -2.5660  -2.5131  -2.5040  -2.4977  -2.4900  -2.4754  -2.4559  -2.4354
    -2.4324  -2.4273  -2.4152

          k = 0.0000-0.5773 0.0000 (321564 PWs)   bands (ev):

  -102.1837 -88.6113 -70.4978 -70.4958 -70.4947 -70.4934 -70.4698 -70.4655
   -70.4517 -66.6509 -66.6509 -66.6403 -66.6403 -66.6254 -66.6254 -66.6254
   -66.6254 -66.6210 -66.6210 -66.6148 -66.6148 -66.6148 -66.6148 -66.6104
   -66.6104 -66.5849 -66.5848 -66.5743 -66.5742 -66.5595 -66.5594 -66.5593
   -66.5591 -66.5550 -66.5549 -66.5489 -66.5487 -66.5487 -66.5486 -66.5444
   -66.5442 -66.5147 -66.5052 -66.5006 -66.4954 -66.4912 -66.4836 -66.4759
   -66.4713 -66.4673 -66.4639 -66.4625 -66.4605 -66.4573 -66.4527 -66.4426
   -66.4353 -56.4444 -56.4164 -56.4073 -54.4274 -54.4073 -54.4051 -40.9521
   -40.9521 -40.9521 -40.9520 -40.9254 -40.9254 -40.9135 -40.9135 -40.8850
   -40.8849 -40.8848 -40.8847 -40.8631 -40.8631 -40.8631 -40.8631 -40.8583
   -40.8582 -40.8464 -40.8462 -40.8087 -40.8071 -40.8051 -40.8051 -40.7960
   -40.7960 -40.7959 -40.7959 -40.7951 -40.7951 -40.7915 -40.7844 -40.7844
   -40.7826 -40.7817 -40.7676 -40.7562 -40.7550 -40.7550 -40.7550 -40.7550
   -40.7503 -40.7463 -40.7463 -40.7396 -40.7395 -40.7341 -40.7341 -40.7341
   -40.7341 -40.7341 -40.7341 -40.7282 -40.7281 -40.7255 -40.7255 -40.7189
   -40.7188 -40.7092 -40.7064 -40.7051 -40.7044 -40.7034 -40.7034 -40.7033
   -40.7033 -40.6896 -40.6895 -40.6894 -40.6893 -40.6877 -40.6809 -40.6807
   -40.6778 -40.6688 -40.6688 -40.6688 -40.6688 -40.6688 -40.6686 -40.6686
   -40.6684 -40.6683 -40.6672 -40.6671 -40.6600 -40.6599 -40.6568 -40.6568
   -40.6479 -40.6412 -40.6376 -40.6376 -40.6366 -40.6364 -40.6363 -40.6363
   -40.6351 -40.6338 -40.6286 -40.6207 -40.6207 -40.6146 -40.6140 -40.6064
   -40.6023 -40.6021 -40.6020 -40.6019 -40.6019 -40.5991 -40.5951 -40.5903
   -40.5902 -40.5900 -40.5898 -40.5895 -40.5874 -40.5822 -40.5811 -40.5753
   -40.5737 -40.5708 -40.5706 -40.5568 -40.5544 -40.5539 -40.5538 -40.5431
   -40.5372 -40.5235 -40.5233 -40.5169 -40.5139 -40.5124 -40.5094 -40.5034
   -40.4896 -40.4852 -40.4765 -40.4632 -40.4572 -40.4376 -40.4237 -19.8773
   -19.8528 -19.8145 -19.7434 -19.6648 -19.6231 -19.4260 -19.4194 -19.3622
   -19.3263 -19.2343 -19.2135 -18.8163 -18.7524 -18.7306 -18.7196 -18.7119
   -18.7095 -18.6978 -18.6898 -18.6767 -18.6298 -18.5996 -18.5827 -18.5745
   -18.5713 -18.5540 -18.5486 -18.5149 -18.5081 -18.4628 -18.4617 -18.4367
   -18.4165 -18.4035 -18.3775 -18.3754 -18.3641 -18.3400 -18.2915 -18.2760
   -18.2461 -18.2361 -18.2075 -18.1972 -18.1866 -18.1648 -18.1319 -18.1107
   -18.1050 -18.0970 -18.0968 -18.0967 -18.0966 -18.0820 -18.0751 -18.0556
   -18.0361 -18.0255 -18.0198 -18.0172 -18.0154 -18.0051 -18.0016 -17.9824
   -17.9734 -17.9573 -17.9510 -17.9447 -17.9360 -17.9171 -17.9145 -17.9058
   -17.9006 -17.8918 -17.8853 -17.8522 -17.8444 -17.8386 -17.8334 -17.8334
   -17.8270 -17.7887 -17.7816 -17.7752 -17.7735 -17.7729 -17.7581 -17.7569
   -17.7505 -17.7417 -17.7180 -17.7138 -17.7084 -17.6554 -17.6431 -11.8944
   -11.6512 -11.6273 -11.5249 -11.4899 -11.4529 -11.4445 -11.4420 -11.4384
   -11.4257 -11.4168 -11.4089 -11.3770 -11.3665 -11.3435 -11.3407 -11.3313
   -11.3102 -11.2957 -11.2864 -11.2666 -11.2628 -11.2545 -11.2429 -11.2262
   -11.2262 -11.2014 -11.2007 -11.1804 -11.1800 -11.1338 -11.1238 -11.1224
   -11.1203 -11.0700 -11.0006 -10.9766 -10.9561 -10.9399 -10.9318 -10.9179
   -10.8880 -10.8854 -10.8784 -10.8556 -10.8496 -10.8327 -10.8262 -10.8117
   -10.8042 -10.8019 -10.8001 -10.7972 -10.7916 -10.7820 -10.7783 -10.7700
   -10.7636 -10.7506 -10.7386 -10.7249 -10.7239 -10.7145 -10.6917 -10.5720
   -10.5523 -10.4866 -10.4644 -10.4337 -10.3661 -10.3258 -10.3051 -10.2832
   -10.2735 -10.2033 -10.1448 -10.1105 -10.0885 -10.0846 -10.0787 -10.0403
    -9.9975  -9.9928  -9.9754  -9.9417  -9.9105  -9.9068  -9.9049  -9.9000
    -9.8967  -9.8843  -9.8669  -9.8655  -9.8621  -9.8543  -9.8470  -9.7818
    -9.7691  -9.7381  -9.7282  -9.7262  -9.7222  -9.7088  -9.6990  -9.6806
    -9.6792  -9.6694  -9.6692  -9.6488  -9.6312  -9.6199  -9.6122  -9.6001
    -9.5859  -9.5839  -9.5770  -9.5325  -9.5248  -9.4998  -9.4960  -9.4930
    -9.4769  -9.4398  -9.4382  -9.4218  -9.4052  -9.3222  -9.2880  -9.2685
    -9.2450  -9.1814  -9.1676  -9.1591  -9.1489  -9.1408  -9.1279  -9.1164
    -9.1039  -9.0994  -9.0980  -9.0648  -9.0539  -9.0377  -9.0201  -9.0020
    -8.9951  -8.9912  -8.9729  -8.9627  -8.9549  -8.9482  -8.9361  -8.9311
    -8.9191  -8.9156  -8.9122  -8.9045  -8.9025  -8.8996  -8.8836  -8.8747
    -8.8540  -8.8334  -8.8304  -8.8255  -8.8232  -8.8174  -8.8115  -8.8088
    -8.8076  -8.8012  -8.7877  -8.7818  -8.7705  -8.7562  -8.7519  -8.7348
    -8.7295  -8.7236  -8.7125  -8.7034  -8.6738  -8.5785  -8.4846  -8.4815
    -8.4768  -8.4425  -8.4200  -8.3996  -8.3857  -8.3207  -8.2922  -8.1936
    -8.1627  -8.1627  -8.1395  -8.1230  -8.0919  -8.0902  -8.0875  -8.0443
    -8.0254  -7.9576  -7.9193  -7.9037  -7.8976  -7.8730  -7.8498  -7.8346
    -7.8281  -7.8199  -7.8168  -7.8159  -7.8159  -7.8115  -7.8037  -7.7982
    -7.7824  -7.7719  -7.7697  -7.7695  -7.7671  -7.7486  -7.7465  -7.7407
    -7.7297  -7.7242  -7.7216  -7.7134  -7.7022  -7.6985  -7.6962  -7.6897
    -7.6832  -7.6680  -7.6642  -7.6586  -7.6572  -7.6462  -7.6357  -7.6308
    -7.6307  -7.6269  -7.6188  -7.5950  -7.5896  -7.5809  -7.5613  -7.5604
    -7.5541  -7.5424  -7.5215  -7.5017  -7.5006  -7.4840  -7.4689  -7.4309
    -7.4187  -7.3385  -7.3253  -7.2477  -7.2247  -7.2043  -7.2006  -7.1888
    -7.1773  -7.1086  -7.1032  -7.0758  -7.0614  -7.0461  -7.0057  -6.9941
    -6.9856  -6.9769  -6.9691  -6.9620  -6.9354  -6.9147  -6.9077  -6.8731
    -6.8692  -6.8626  -6.8264  -6.8160  -6.7979  -6.7737  -6.7319  -6.7270
    -6.7131  -6.6720  -6.6510  -6.6392  -6.6276  -6.6276  -6.6276  -6.6274
    -6.6075  -6.5904  -6.5739  -6.5643  -6.5600  -6.5572  -6.5569  -6.5478
    -6.5339  -6.5146  -6.4561  -6.4322  -6.4264  -6.4019  -6.3778  -6.2990
    -6.2964  -6.2959  -6.2957  -6.2899  -6.2598  -6.2309  -6.2307  -6.2222
    -6.2147  -6.2134  -6.2096  -6.2057  -6.1700  -6.1590  -6.1488  -6.1141
    -6.1069  -5.9475  -5.9475  -5.8805  -5.8740  -5.8660  -5.8536  -5.8097
    -5.7506  -5.6417  -5.6029  -5.5908  -5.5490  -5.4937  -5.3840  -5.3276
    -5.2811  -4.3108  -3.9934  -3.9864  -3.9832  -3.9591  -3.8630  -3.8630
    -3.8476  -3.8290  -3.7982  -3.7979  -3.7724  -3.7432  -3.7402  -3.7291
    -3.7194  -3.6881  -3.6515  -3.5997  -3.5685  -3.5646  -3.5636  -3.5613
    -3.5485  -3.5480  -3.5408  -3.5127  -3.5110  -3.4782  -3.4713  -3.4673
    -3.4616  -3.4561  -3.4452  -3.4419  -3.4349  -3.4337  -3.4280  -3.3889
    -3.3830  -3.3630  -3.3546  -3.3234  -3.3217  -3.3161  -3.3148  -3.3082
    -3.2885  -3.2853  -3.2795  -3.2745  -3.2683  -3.2448  -3.2394  -3.2390
    -3.2385  -3.2374  -3.2196  -3.2041  -3.1989  -3.1927  -3.1870  -3.1735
    -3.1665  -3.1646  -3.1559  -3.1501  -3.1475  -3.1313  -3.0877  -3.0823
    -3.0697  -3.0668  -3.0533  -3.0353  -3.0336  -2.9989  -2.9956  -2.9952
    -2.9916  -2.9764  -2.9762  -2.9759  -2.9756  -2.9401  -2.9291  -2.9268
    -2.9262  -2.9098  -2.9027  -2.8902  -2.8872  -2.8812  -2.8794  -2.8700
    -2.8591  -2.8492  -2.8461  -2.8358  -2.8267  -2.8202  -2.7997  -2.7934
    -2.7845  -2.7779  -2.7662  -2.7634  -2.7615  -2.6989  -2.6941  -2.6676
    -2.6594  -2.6291  -2.6141  -2.6128  -2.6114  -2.5957  -2.5948  -2.5324
    -2.5273  -2.4971  -2.4705  -2.4624  -2.4547  -2.4470  -2.4354  -2.3927
    -2.3422  -2.2846  -2.2557

          k =-0.5000-0.2887 0.0000 (321564 PWs)   bands (ev):

  -102.1837 -88.6113 -70.4978 -70.4958 -70.4947 -70.4934 -70.4698 -70.4655
   -70.4517 -66.6509 -66.6509 -66.6403 -66.6403 -66.6254 -66.6254 -66.6254
   -66.6254 -66.6210 -66.6210 -66.6148 -66.6148 -66.6148 -66.6148 -66.6104
   -66.6104 -66.5849 -66.5848 -66.5743 -66.5742 -66.5595 -66.5594 -66.5593
   -66.5591 -66.5550 -66.5549 -66.5489 -66.5487 -66.5487 -66.5485 -66.5444
   -66.5442 -66.5147 -66.5052 -66.5006 -66.4955 -66.4911 -66.4836 -66.4759
   -66.4713 -66.4673 -66.4639 -66.4625 -66.4605 -66.4573 -66.4527 -66.4426
   -66.4353 -56.4444 -56.4164 -56.4073 -54.4274 -54.4073 -54.4051 -40.9521
   -40.9521 -40.9521 -40.9521 -40.9254 -40.9254 -40.9135 -40.9135 -40.8850
   -40.8849 -40.8849 -40.8847 -40.8631 -40.8631 -40.8631 -40.8631 -40.8583
   -40.8582 -40.8464 -40.8462 -40.8086 -40.8071 -40.8051 -40.8051 -40.7960
   -40.7960 -40.7959 -40.7959 -40.7951 -40.7951 -40.7915 -40.7844 -40.7844
   -40.7826 -40.7817 -40.7677 -40.7561 -40.7550 -40.7550 -40.7550 -40.7550
   -40.7503 -40.7463 -40.7463 -40.7396 -40.7395 -40.7341 -40.7341 -40.7341
   -40.7341 -40.7341 -40.7341 -40.7282 -40.7281 -40.7255 -40.7255 -40.7189
   -40.7188 -40.7092 -40.7064 -40.7051 -40.7044 -40.7034 -40.7034 -40.7033
   -40.7033 -40.6896 -40.6895 -40.6894 -40.6893 -40.6877 -40.6809 -40.6807
   -40.6778 -40.6688 -40.6688 -40.6688 -40.6688 -40.6688 -40.6687 -40.6686
   -40.6684 -40.6683 -40.6672 -40.6671 -40.6600 -40.6599 -40.6568 -40.6568
   -40.6479 -40.6412 -40.6376 -40.6376 -40.6366 -40.6364 -40.6364 -40.6363
   -40.6351 -40.6338 -40.6285 -40.6207 -40.6207 -40.6146 -40.6140 -40.6065
   -40.6023 -40.6020 -40.6020 -40.6019 -40.6019 -40.5990 -40.5951 -40.5903
   -40.5902 -40.5900 -40.5898 -40.5895 -40.5874 -40.5822 -40.5812 -40.5753
   -40.5737 -40.5708 -40.5706 -40.5568 -40.5544 -40.5539 -40.5538 -40.5432
   -40.5372 -40.5235 -40.5233 -40.5169 -40.5139 -40.5124 -40.5094 -40.5034
   -40.4896 -40.4852 -40.4765 -40.4632 -40.4572 -40.4376 -40.4238 -19.8773
   -19.8528 -19.8145 -19.7434 -19.6648 -19.6231 -19.4260 -19.4194 -19.3622
   -19.3263 -19.2343 -19.2135 -18.8163 -18.7524 -18.7306 -18.7196 -18.7119
   -18.7095 -18.6978 -18.6898 -18.6767 -18.6298 -18.5996 -18.5827 -18.5745
   -18.5713 -18.5540 -18.5486 -18.5149 -18.5081 -18.4628 -18.4617 -18.4367
   -18.4165 -18.4035 -18.3775 -18.3754 -18.3641 -18.3400 -18.2915 -18.2760
   -18.2461 -18.2361 -18.2075 -18.1972 -18.1866 -18.1648 -18.1319 -18.1107
   -18.1050 -18.0970 -18.0968 -18.0968 -18.0966 -18.0819 -18.0751 -18.0556
   -18.0361 -18.0255 -18.0198 -18.0172 -18.0154 -18.0051 -18.0016 -17.9824
   -17.9734 -17.9573 -17.9510 -17.9447 -17.9360 -17.9171 -17.9145 -17.9058
   -17.9006 -17.8918 -17.8853 -17.8522 -17.8444 -17.8386 -17.8334 -17.8334
   -17.8270 -17.7887 -17.7816 -17.7752 -17.7735 -17.7729 -17.7581 -17.7569
   -17.7505 -17.7417 -17.7180 -17.7138 -17.7084 -17.6554 -17.6431 -11.8944
   -11.6512 -11.6273 -11.5249 -11.4899 -11.4529 -11.4445 -11.4420 -11.4384
   -11.4257 -11.4168 -11.4089 -11.3770 -11.3665 -11.3435 -11.3407 -11.3313
   -11.3102 -11.2957 -11.2864 -11.2666 -11.2628 -11.2545 -11.2429 -11.2262
   -11.2262 -11.2014 -11.2007 -11.1804 -11.1800 -11.1338 -11.1238 -11.1224
   -11.1203 -11.0700 -11.0006 -10.9766 -10.9561 -10.9399 -10.9318 -10.9179
   -10.8880 -10.8854 -10.8784 -10.8556 -10.8496 -10.8327 -10.8262 -10.8117
   -10.8042 -10.8019 -10.8002 -10.7972 -10.7916 -10.7820 -10.7783 -10.7700
   -10.7636 -10.7506 -10.7386 -10.7249 -10.7239 -10.7145 -10.6917 -10.5720
   -10.5523 -10.4866 -10.4644 -10.4337 -10.3661 -10.3258 -10.3050 -10.2832
   -10.2735 -10.2033 -10.1448 -10.1105 -10.0885 -10.0846 -10.0787 -10.0403
    -9.9975  -9.9928  -9.9754  -9.9417  -9.9105  -9.9068  -9.9049  -9.9000
    -9.8967  -9.8843  -9.8669  -9.8655  -9.8621  -9.8542  -9.8470  -9.7818
    -9.7691  -9.7381  -9.7282  -9.7262  -9.7222  -9.7088  -9.6990  -9.6806
    -9.6792  -9.6694  -9.6692  -9.6488  -9.6312  -9.6199  -9.6122  -9.6001
    -9.5859  -9.5839  -9.5770  -9.5325  -9.5248  -9.4998  -9.4960  -9.4930
    -9.4769  -9.4398  -9.4382  -9.4218  -9.4052  -9.3222  -9.2880  -9.2685
    -9.2450  -9.1814  -9.1676  -9.1591  -9.1488  -9.1408  -9.1279  -9.1164
    -9.1039  -9.0994  -9.0980  -9.0648  -9.0539  -9.0377  -9.0201  -9.0020
    -8.9951  -8.9912  -8.9729  -8.9627  -8.9549  -8.9482  -8.9361  -8.9311
    -8.9190  -8.9156  -8.9122  -8.9045  -8.9025  -8.8996  -8.8836  -8.8747
    -8.8540  -8.8333  -8.8304  -8.8255  -8.8232  -8.8174  -8.8115  -8.8088
    -8.8076  -8.8012  -8.7877  -8.7818  -8.7705  -8.7562  -8.7520  -8.7348
    -8.7295  -8.7236  -8.7125  -8.7034  -8.6738  -8.5785  -8.4845  -8.4815
    -8.4768  -8.4425  -8.4200  -8.3996  -8.3857  -8.3207  -8.2922  -8.1936
    -8.1627  -8.1627  -8.1395  -8.1230  -8.0919  -8.0902  -8.0875  -8.0443
    -8.0254  -7.9576  -7.9193  -7.9037  -7.8976  -7.8730  -7.8498  -7.8346
    -7.8281  -7.8199  -7.8168  -7.8159  -7.8159  -7.8115  -7.8037  -7.7982
    -7.7824  -7.7719  -7.7697  -7.7695  -7.7670  -7.7486  -7.7465  -7.7407
    -7.7297  -7.7242  -7.7216  -7.7134  -7.7022  -7.6985  -7.6962  -7.6897
    -7.6832  -7.6680  -7.6641  -7.6586  -7.6572  -7.6462  -7.6357  -7.6308
    -7.6308  -7.6269  -7.6188  -7.5950  -7.5896  -7.5809  -7.5613  -7.5604
    -7.5541  -7.5424  -7.5215  -7.5017  -7.5005  -7.4840  -7.4689  -7.4309
    -7.4187  -7.3384  -7.3253  -7.2477  -7.2247  -7.2043  -7.2006  -7.1888
    -7.1773  -7.1086  -7.1032  -7.0758  -7.0614  -7.0461  -7.0057  -6.9941
    -6.9857  -6.9770  -6.9691  -6.9619  -6.9354  -6.9147  -6.9077  -6.8731
    -6.8692  -6.8626  -6.8264  -6.8160  -6.7979  -6.7737  -6.7319  -6.7270
    -6.7131  -6.6720  -6.6510  -6.6392  -6.6276  -6.6276  -6.6276  -6.6274
    -6.6075  -6.5904  -6.5739  -6.5643  -6.5600  -6.5572  -6.5569  -6.5478
    -6.5339  -6.5146  -6.4561  -6.4322  -6.4264  -6.4019  -6.3778  -6.2990
    -6.2964  -6.2959  -6.2957  -6.2899  -6.2598  -6.2309  -6.2307  -6.2222
    -6.2147  -6.2134  -6.2096  -6.2057  -6.1700  -6.1590  -6.1488  -6.1141
    -6.1069  -5.9475  -5.9475  -5.8805  -5.8740  -5.8660  -5.8536  -5.8097
    -5.7506  -5.6417  -5.6029  -5.5907  -5.5490  -5.4937  -5.3840  -5.3276
    -5.2811  -4.3109  -3.9934  -3.9863  -3.9831  -3.9588  -3.8630  -3.8630
    -3.8474  -3.8290  -3.7982  -3.7979  -3.7724  -3.7432  -3.7403  -3.7292
    -3.7194  -3.6881  -3.6511  -3.5997  -3.5686  -3.5647  -3.5637  -3.5613
    -3.5485  -3.5482  -3.5408  -3.5128  -3.5110  -3.4782  -3.4714  -3.4673
    -3.4617  -3.4562  -3.4453  -3.4421  -3.4350  -3.4338  -3.4282  -3.3887
    -3.3830  -3.3629  -3.3546  -3.3234  -3.3216  -3.3161  -3.3147  -3.3082
    -3.2885  -3.2852  -3.2793  -3.2743  -3.2681  -3.2447  -3.2394  -3.2391
    -3.2385  -3.2373  -3.2195  -3.2040  -3.1990  -3.1926  -3.1868  -3.1735
    -3.1666  -3.1646  -3.1559  -3.1502  -3.1474  -3.1312  -3.0878  -3.0824
    -3.0697  -3.0669  -3.0532  -3.0357  -3.0335  -2.9988  -2.9955  -2.9952
    -2.9913  -2.9761  -2.9759  -2.9756  -2.9754  -2.9401  -2.9289  -2.9267
    -2.9259  -2.9099  -2.9026  -2.8902  -2.8871  -2.8811  -2.8792  -2.8699
    -2.8591  -2.8490  -2.8459  -2.8357  -2.8267  -2.8202  -2.7996  -2.7935
    -2.7844  -2.7774  -2.7661  -2.7643  -2.7632  -2.6990  -2.6944  -2.6690
    -2.6609  -2.6290  -2.6140  -2.6128  -2.6113  -2.5951  -2.5948  -2.5320
    -2.5273  -2.4973  -2.4707  -2.4622  -2.4538  -2.4466  -2.4351  -2.3949
    -2.3423  -2.2807  -2.2521

          k =-0.5000-0.8660 0.0000 (321564 PWs)   bands (ev):

  -102.1837 -88.6113 -70.4978 -70.4958 -70.4947 -70.4934 -70.4698 -70.4655
   -70.4517 -66.6509 -66.6509 -66.6403 -66.6403 -66.6254 -66.6254 -66.6254
   -66.6254 -66.6210 -66.6210 -66.6148 -66.6148 -66.6148 -66.6148 -66.6104
   -66.6104 -66.5850 -66.5846 -66.5744 -66.5742 -66.5594 -66.5594 -66.5594
   -66.5590 -66.5551 -66.5547 -66.5490 -66.5489 -66.5486 -66.5483 -66.5444
   -66.5442 -66.5145 -66.5061 -66.4999 -66.4959 -66.4904 -66.4830 -66.4768
   -66.4707 -66.4690 -66.4636 -66.4629 -66.4579 -66.4576 -66.4537 -66.4427
   -66.4353 -56.4444 -56.4164 -56.4073 -54.4274 -54.4073 -54.4051 -40.9521
   -40.9521 -40.9521 -40.9521 -40.9254 -40.9254 -40.9135 -40.9135 -40.8851
   -40.8850 -40.8848 -40.8845 -40.8631 -40.8631 -40.8631 -40.8631 -40.8584
   -40.8581 -40.8464 -40.8462 -40.8051 -40.8051 -40.8040 -40.7996 -40.7963
   -40.7961 -40.7960 -40.7959 -40.7959 -40.7951 -40.7951 -40.7939 -40.7844
   -40.7844 -40.7828 -40.7695 -40.7565 -40.7550 -40.7550 -40.7550 -40.7550
   -40.7463 -40.7463 -40.7450 -40.7397 -40.7394 -40.7341 -40.7341 -40.7341
   -40.7341 -40.7341 -40.7341 -40.7282 -40.7281 -40.7255 -40.7255 -40.7189
   -40.7188 -40.7085 -40.7058 -40.7040 -40.7034 -40.7034 -40.7033 -40.7033
   -40.7022 -40.6896 -40.6896 -40.6894 -40.6892 -40.6874 -40.6810 -40.6806
   -40.6790 -40.6689 -40.6688 -40.6688 -40.6688 -40.6688 -40.6687 -40.6685
   -40.6682 -40.6672 -40.6671 -40.6661 -40.6600 -40.6599 -40.6568 -40.6568
   -40.6465 -40.6434 -40.6417 -40.6376 -40.6376 -40.6367 -40.6367 -40.6362
   -40.6361 -40.6341 -40.6207 -40.6207 -40.6207 -40.6161 -40.6120 -40.6098
   -40.6042 -40.6021 -40.6020 -40.6019 -40.6018 -40.5976 -40.5941 -40.5902
   -40.5902 -40.5901 -40.5901 -40.5897 -40.5858 -40.5847 -40.5822 -40.5742
   -40.5731 -40.5710 -40.5705 -40.5548 -40.5539 -40.5538 -40.5536 -40.5466
   -40.5422 -40.5236 -40.5232 -40.5161 -40.5135 -40.5113 -40.5095 -40.4991
   -40.4936 -40.4872 -40.4749 -40.4596 -40.4566 -40.4327 -40.4303 -19.8739
   -19.8534 -19.8108 -19.7505 -19.6644 -19.6315 -19.4236 -19.4192 -19.3540
   -19.3243 -19.2313 -19.2115 -18.8209 -18.7741 -18.7382 -18.7235 -18.7110
   -18.7083 -18.6985 -18.6960 -18.6832 -18.6027 -18.5969 -18.5856 -18.5718
   -18.5707 -18.5437 -18.5417 -18.5170 -18.4850 -18.4668 -18.4611 -18.4443
   -18.4189 -18.4071 -18.3961 -18.3784 -18.3602 -18.3424 -18.3148 -18.2614
   -18.2369 -18.2308 -18.2111 -18.1956 -18.1824 -18.1418 -18.1394 -18.1150
   -18.0975 -18.0975 -18.0968 -18.0967 -18.0958 -18.0761 -18.0725 -18.0577
   -18.0450 -18.0260 -18.0215 -18.0174 -18.0151 -18.0056 -18.0041 -17.9888
   -17.9659 -17.9608 -17.9474 -17.9419 -17.9376 -17.9204 -17.9168 -17.9047
   -17.9017 -17.8958 -17.8888 -17.8548 -17.8430 -17.8416 -17.8342 -17.8334
   -17.8334 -17.7871 -17.7864 -17.7752 -17.7735 -17.7733 -17.7577 -17.7567
   -17.7557 -17.7326 -17.7151 -17.7137 -17.7013 -17.6575 -17.6407 -11.8914
   -11.6543 -11.6240 -11.4922 -11.4893 -11.4744 -11.4455 -11.4411 -11.4372
   -11.4371 -11.4219 -11.4084 -11.3796 -11.3602 -11.3496 -11.3436 -11.3357
   -11.3169 -11.3133 -11.3001 -11.2681 -11.2535 -11.2519 -11.2467 -11.2262
   -11.2262 -11.1978 -11.1809 -11.1801 -11.1747 -11.1335 -11.1247 -11.1212
   -11.1205 -11.0605 -10.9834 -10.9805 -10.9514 -10.9479 -10.9285 -10.9162
   -10.8847 -10.8844 -10.8792 -10.8598 -10.8379 -10.8351 -10.8308 -10.8259
   -10.8018 -10.8012 -10.7993 -10.7979 -10.7948 -10.7803 -10.7796 -10.7655
   -10.7608 -10.7479 -10.7376 -10.7256 -10.7214 -10.7146 -10.6834 -10.5737
   -10.5463 -10.4853 -10.4655 -10.4308 -10.3866 -10.3832 -10.3315 -10.3070
   -10.2555 -10.1397 -10.1276 -10.1045 -10.0927 -10.0829 -10.0783 -10.0318
   -10.0019  -9.9958  -9.9725  -9.9437  -9.9235  -9.9107  -9.9051  -9.9014
    -9.8946  -9.8732  -9.8704  -9.8642  -9.8555  -9.8536  -9.8497  -9.7891
    -9.7768  -9.7352  -9.7284  -9.7252  -9.7133  -9.7128  -9.7009  -9.6790
    -9.6783  -9.6767  -9.6656  -9.6523  -9.6423  -9.6199  -9.6003  -9.5871
    -9.5822  -9.5787  -9.5774  -9.5146  -9.5047  -9.5022  -9.4920  -9.4852
    -9.4757  -9.4453  -9.4428  -9.4381  -9.4117  -9.3443  -9.3184  -9.2530
    -9.2403  -9.1830  -9.1750  -9.1648  -9.1612  -9.1399  -9.1231  -9.1117
    -9.1012  -9.1010  -9.0986  -9.0654  -9.0636  -9.0202  -9.0117  -8.9982
    -8.9934  -8.9891  -8.9818  -8.9703  -8.9671  -8.9428  -8.9344  -8.9291
    -8.9220  -8.9162  -8.9114  -8.9026  -8.9008  -8.8930  -8.8766  -8.8649
    -8.8609  -8.8520  -8.8281  -8.8272  -8.8193  -8.8105  -8.8089  -8.8058
    -8.8056  -8.7912  -8.7898  -8.7877  -8.7671  -8.7585  -8.7532  -8.7396
    -8.7332  -8.7181  -8.7112  -8.7103  -8.6715  -8.5510  -8.4827  -8.4812
    -8.4665  -8.4376  -8.4263  -8.3946  -8.3826  -8.3771  -8.2498  -8.2136
    -8.1870  -8.1627  -8.1627  -8.1439  -8.0912  -8.0900  -8.0743  -8.0479
    -8.0211  -7.9580  -7.9099  -7.9018  -7.9010  -7.8415  -7.8410  -7.8356
    -7.8304  -7.8191  -7.8174  -7.8159  -7.8159  -7.8117  -7.8046  -7.7938
    -7.7713  -7.7707  -7.7699  -7.7692  -7.7532  -7.7488  -7.7442  -7.7433
    -7.7296  -7.7198  -7.7139  -7.7076  -7.7061  -7.6982  -7.6974  -7.6949
    -7.6797  -7.6758  -7.6636  -7.6589  -7.6583  -7.6439  -7.6415  -7.6308
    -7.6307  -7.6289  -7.6027  -7.6011  -7.5988  -7.5857  -7.5655  -7.5626
    -7.5602  -7.5320  -7.5240  -7.5220  -7.4891  -7.4803  -7.4760  -7.4628
    -7.3983  -7.3499  -7.3123  -7.2356  -7.2142  -7.2124  -7.1979  -7.1785
    -7.1669  -7.1201  -7.1035  -7.0867  -7.0569  -7.0241  -7.0227  -7.0088
    -6.9816  -6.9787  -6.9635  -6.9563  -6.9428  -6.9321  -6.9165  -6.8879
    -6.8688  -6.8649  -6.8354  -6.8103  -6.8031  -6.7573  -6.7359  -6.7204
    -6.6970  -6.6655  -6.6488  -6.6484  -6.6276  -6.6276  -6.6275  -6.6273
    -6.5999  -6.5959  -6.5850  -6.5649  -6.5618  -6.5580  -6.5565  -6.5523
    -6.5362  -6.5170  -6.4727  -6.4358  -6.4185  -6.4037  -6.3558  -6.3051
    -6.2960  -6.2958  -6.2955  -6.2940  -6.2462  -6.2320  -6.2207  -6.2158
    -6.2151  -6.2138  -6.2111  -6.1811  -6.1771  -6.1554  -6.1329  -6.1268
    -6.1049  -5.9475  -5.9475  -5.9147  -5.8718  -5.8695  -5.8377  -5.8216
    -5.7637  -5.6308  -5.5893  -5.5832  -5.5666  -5.4925  -5.3897  -5.3338
    -5.2678  -4.3057  -3.9919  -3.9906  -3.9767  -3.9631  -3.8631  -3.8630
    -3.8436  -3.8374  -3.7981  -3.7980  -3.7551  -3.7496  -3.7474  -3.7221
    -3.7198  -3.7131  -3.6427  -3.6033  -3.5682  -3.5660  -3.5641  -3.5608
    -3.5485  -3.5484  -3.5293  -3.5188  -3.5155  -3.4981  -3.4709  -3.4676
    -3.4578  -3.4474  -3.4424  -3.4396  -3.4365  -3.4313  -3.4304  -3.3783
    -3.3656  -3.3595  -3.3509  -3.3301  -3.3257  -3.3161  -3.3154  -3.2930
    -3.2919  -3.2848  -3.2756  -3.2756  -3.2676  -3.2395  -3.2395  -3.2387
    -3.2375  -3.2302  -3.2220  -3.2052  -3.2015  -3.1977  -3.1893  -3.1756
    -3.1718  -3.1662  -3.1578  -3.1521  -3.1450  -3.1433  -3.1013  -3.0917
    -3.0759  -3.0592  -3.0415  -3.0352  -3.0346  -2.9995  -2.9983  -2.9940
    -2.9919  -2.9762  -2.9761  -2.9759  -2.9757  -2.9358  -2.9320  -2.9268
    -2.9264  -2.9108  -2.9029  -2.8854  -2.8840  -2.8830  -2.8826  -2.8803
    -2.8628  -2.8480  -2.8435  -2.8355  -2.8324  -2.8076  -2.8035  -2.7863
    -2.7817  -2.7759  -2.7727  -2.7646  -2.7623  -2.6974  -2.6934  -2.6679
    -2.6575  -2.6389  -2.6131  -2.6126  -2.6027  -2.5928  -2.5910  -2.5328
    -2.5266  -2.4968  -2.4689  -2.4605  -2.4604  -2.4498  -2.4168  -2.4081
    -2.3524  -2.2922  -2.2496

     the Fermi energy is    -4.7189 ev

!    total energy              =  -26031.76603856 Ry
     total all-electron energy =   -512284.335666 Ry
     estimated scf accuracy    <       0.00000031 Ry
     smearing contrib. (-TS)   =      -0.00000134 Ry
     internal energy E=F+TS    =  -26031.76603723 Ry

     The total energy is F=E-TS. E is the sum of the following terms:
     one-electron contribution =  492145.83822260 Ry
     hartree contribution      = -246212.84673672 Ry
     xc contribution           =   -1534.65711864 Ry
     ewald contribution        = -254237.31279514 Ry
     DFT-D3 Dispersion         =      -4.01995833 Ry
     one-center paw contrib.   =  -16188.76765100 Ry

     convergence has been achieved in  22 iterations

     negative rho (up, down):  9.049E-04 0.000E+00

     Forces acting on atoms (cartesian axes, Ry/au):

     atom    1 type  1   force =     0.00057448    0.00037166    0.00063305
     atom    2 type  1   force =    -0.00000193   -0.00000205    0.00190889
     atom    3 type  1   force =     0.00003350    0.00000840   -0.00005321
     atom    4 type  2   force =     0.00000039   -0.00000052   -0.00342925
     atom    5 type  2   force =     0.00000946   -0.00000002   -0.00020928
     atom    6 type  2   force =     0.00006751    0.00005359   -0.00034157
     atom    7 type  2   force =     0.00000147   -0.00000123    0.00163980
     atom    8 type  2   force =    -0.00000292    0.00000295    0.00015461
     atom    9 type  2   force =     0.00028735    0.00037339    0.00007021
     atom   10 type  1   force =     0.00112810   -0.00427139   -0.00193619
     atom   11 type  1   force =     0.00000905   -0.00001059    0.00190480
     atom   12 type  1   force =    -0.00001262   -0.00006642    0.00002715
     atom   13 type  2   force =     0.00000136   -0.00000239   -0.00342766
     atom   14 type  2   force =    -0.00002251   -0.00001443   -0.00019195
     atom   15 type  2   force =     0.00007868   -0.00107729   -0.00154051
     atom   16 type  2   force =     0.00000139   -0.00000173    0.00165845
     atom   17 type  2   force =    -0.00003698   -0.00004272    0.00014260
     atom   18 type  2   force =     0.00018628    0.00097735   -0.00201599
     atom   19 type  1   force =    -0.00019625    0.00013284   -0.03427376
     atom   20 type  1   force =    -0.00000395    0.00001069    0.00190616
     atom   21 type  1   force =     0.00001282    0.00002945   -0.00003179
     atom   22 type  2   force =     0.00000070    0.00000145   -0.00344130
     atom   23 type  2   force =     0.00000575    0.00000666   -0.00018648
     atom   24 type  2   force =     0.00084044    0.00029871    0.00361021
     atom   25 type  2   force =    -0.00000076    0.00000543    0.00164598
     atom   26 type  2   force =    -0.00000494    0.00000831    0.00022537
     atom   27 type  2   force =    -0.02227206   -0.01231642    0.02464021
     atom   28 type  1   force =    -0.00255943    0.00341159   -0.00234360
     atom   29 type  1   force =     0.00000210    0.00000223    0.00191147
     atom   30 type  1   force =    -0.00003825    0.00002544    0.00001034
     atom   31 type  2   force =    -0.00000096    0.00000132   -0.00343077
     atom   32 type  2   force =    -0.00000372    0.00000275   -0.00020489
     atom   33 type  2   force =    -0.00115159    0.00066681   -0.00157370
     atom   34 type  2   force =    -0.00000380   -0.00000184    0.00165019
     atom   35 type  2   force =     0.00000040    0.00000108    0.00024781
     atom   36 type  2   force =     0.00106367   -0.00061262   -0.00171272
     atom   37 type  1   force =    -0.00007041   -0.00074751    0.00018425
     atom   38 type  1   force =     0.00000024   -0.00000223    0.00191127
     atom   39 type  1   force =    -0.00004600    0.00001693   -0.00000874
     atom   40 type  2   force =    -0.00000128   -0.00000008   -0.00342685
     atom   41 type  2   force =    -0.00001192    0.00000280   -0.00018053
     atom   42 type  2   force =    -0.00019347    0.00036153   -0.00014176
     atom   43 type  2   force =    -0.00000140    0.00000442    0.00164855
     atom   44 type  2   force =    -0.00001129   -0.00000997    0.00021106
     atom   45 type  2   force =    -0.00013559    0.00058402    0.00090862
     atom   46 type  1   force =    -0.00080713    0.00046679   -0.00120945
     atom   47 type  1   force =    -0.00000212    0.00000412    0.00191051
     atom   48 type  1   force =    -0.00002501   -0.00005010    0.00000003
     atom   49 type  2   force =     0.00000107   -0.00000073   -0.00343125
     atom   50 type  2   force =    -0.00000404    0.00000354   -0.00018410
     atom   51 type  2   force =    -0.00001667   -0.00001609   -0.00022939
     atom   52 type  2   force =     0.00000114    0.00000616    0.00164634
     atom   53 type  2   force =    -0.00000139    0.00001131    0.00017735
     atom   54 type  2   force =     0.00045114   -0.00036977    0.00076886
     atom   55 type  1   force =     0.00426521    0.00117258   -0.00193584
     atom   56 type  1   force =     0.00001217   -0.00000495    0.00190523
     atom   57 type  1   force =    -0.00000080    0.00000835   -0.00001174
     atom   58 type  2   force =     0.00000164   -0.00000034   -0.00343366
     atom   59 type  2   force =     0.00000619   -0.00000511   -0.00016193
     atom   60 type  2   force =    -0.00037500    0.00022278    0.00395350
     atom   61 type  2   force =     0.00000517   -0.00000182    0.00164919
     atom   62 type  2   force =     0.00001230   -0.00000828    0.00020402
     atom   63 type  2   force =     0.02233303   -0.01289087    0.02492676
     atom   64 type  1   force =     0.00251719    0.00325030   -0.00173567
     atom   65 type  1   force =    -0.00000147    0.00000803    0.00190711
     atom   66 type  1   force =    -0.00000661   -0.00002047   -0.00003062
     atom   67 type  2   force =    -0.00000044    0.00000014   -0.00342843
     atom   68 type  2   force =    -0.00000216   -0.00000819   -0.00017880
     atom   69 type  2   force =     0.00016828   -0.00087515    0.00361428
     atom   70 type  2   force =     0.00000212   -0.00000111    0.00165298
     atom   71 type  2   force =    -0.00001020    0.00000072    0.00022189
     atom   72 type  2   force =    -0.00046789    0.02544064    0.02464106
     atom   73 type  1   force =    -0.00050747    0.00027733    0.00055428
     atom   74 type  1   force =    -0.00000354   -0.00000512    0.00190934
     atom   75 type  1   force =     0.00005518   -0.00001028   -0.00000533
     atom   76 type  2   force =     0.00000049   -0.00000120   -0.00343046
     atom   77 type  2   force =     0.00004418    0.00002364   -0.00015956
     atom   78 type  2   force =     0.00009262   -0.00017903   -0.00026166
     atom   79 type  2   force =    -0.00000358   -0.00000151    0.00163994
     atom   80 type  2   force =    -0.00002562   -0.00001354    0.00021428
     atom   81 type  2   force =     0.00020697    0.00055060    0.00091974
     atom   82 type  1   force =     0.00059762    0.00043636    0.00018784
     atom   83 type  1   force =    -0.00000043   -0.00000308    0.00190593
     atom   84 type  1   force =     0.00000924   -0.00000659   -0.00004092
     atom   85 type  2   force =    -0.00000142    0.00000046   -0.00343259
     atom   86 type  2   force =     0.00002192   -0.00001372   -0.00018053
     atom   87 type  2   force =    -0.00029223    0.00016853   -0.00019136
     atom   88 type  2   force =    -0.00000161    0.00000756    0.00164691
     atom   89 type  2   force =     0.00003948   -0.00002351    0.00015128
     atom   90 type  2   force =     0.00022303   -0.00012918    0.00020740
     atom   91 type  1   force =    -0.00004846   -0.00068070    0.00063828
     atom   92 type  1   force =    -0.00000954    0.00000345    0.00190879
     atom   93 type  1   force =     0.00002747    0.00005131    0.00000260
     atom   94 type  2   force =     0.00000042    0.00000020   -0.00343180
     atom   95 type  2   force =    -0.00000744   -0.00000291   -0.00018288
     atom   96 type  2   force =     0.00000360    0.00002734   -0.00023176
     atom   97 type  2   force =     0.00000000   -0.00000030    0.00164617
     atom   98 type  2   force =    -0.00000989   -0.00000626    0.00017247
     atom   99 type  2   force =     0.00054335   -0.00020481    0.00077220
     atom  100 type  1   force =     0.00045520    0.00004090    0.00072096
     atom  101 type  1   force =     0.00000702    0.00000281    0.00190506
     atom  102 type  1   force =     0.00004042    0.00004449    0.00002735
     atom  103 type  2   force =     0.00000225    0.00000056   -0.00343522
     atom  104 type  2   force =    -0.00000154    0.00002572   -0.00019080
     atom  105 type  2   force =     0.00097066    0.00047120   -0.00153178
     atom  106 type  2   force =     0.00000539   -0.00000250    0.00165096
     atom  107 type  2   force =     0.00001672    0.00005450    0.00014435
     atom  108 type  2   force =    -0.00075208   -0.00064997   -0.00202036
     atom  109 type  1   force =     0.00019222   -0.00043044    0.00071810
     atom  110 type  1   force =     0.00000718   -0.00000549    0.00190758
     atom  111 type  1   force =    -0.00004167    0.00001966    0.00007226
     atom  112 type  2   force =     0.00000274   -0.00000105   -0.00342915
     atom  113 type  2   force =    -0.00004494    0.00002570   -0.00014432
     atom  114 type  2   force =    -0.00005194    0.00002611   -0.00070264
     atom  115 type  2   force =     0.00000092   -0.00000157    0.00166130
     atom  116 type  2   force =     0.00003957   -0.00002161    0.00022480
     atom  117 type  2   force =    -0.00043464    0.00024899   -0.00027326
     atom  118 type  1   force =    -0.00155388   -0.00379985   -0.00173025
     atom  119 type  1   force =    -0.00000235   -0.00000363    0.00190841
     atom  120 type  1   force =     0.00002772   -0.00004889   -0.00000493
     atom  121 type  2   force =     0.00000013   -0.00000035   -0.00343046
     atom  122 type  2   force =     0.00000228   -0.00005287   -0.00016137
     atom  123 type  2   force =     0.00019673    0.00000857   -0.00026860
     atom  124 type  2   force =    -0.00000179    0.00000106    0.00165710
     atom  125 type  2   force =     0.00000158    0.00002727    0.00021448
     atom  126 type  2   force =    -0.00037347   -0.00045675    0.00092621
     atom  127 type  1   force =    -0.00423363    0.00052316   -0.00234111
     atom  128 type  1   force =     0.00000037    0.00000611    0.00190942
     atom  129 type  1   force =    -0.00003850    0.00003291   -0.00000764
     atom  130 type  2   force =    -0.00000018    0.00000068   -0.00343840
     atom  131 type  2   force =    -0.00000694    0.00000753   -0.00018685
     atom  132 type  2   force =    -0.00041211   -0.00001118   -0.00014735
     atom  133 type  2   force =    -0.00000549   -0.00000328    0.00165066
     atom  134 type  2   force =     0.00000416    0.00001564    0.00021691
     atom  135 type  2   force =    -0.00057676   -0.00017335    0.00091382
     atom  136 type  1   force =    -0.00037602    0.00021792    0.00082098
     atom  137 type  1   force =    -0.00000218    0.00000372    0.00190875
     atom  138 type  1   force =     0.00000675   -0.00002884   -0.00005029
     atom  139 type  2   force =     0.00000040    0.00000015   -0.00342760
     atom  140 type  2   force =     0.00000678   -0.00000519   -0.00020630
     atom  141 type  2   force =    -0.00001632   -0.00008678   -0.00034089
     atom  142 type  2   force =    -0.00000509   -0.00000252    0.00164143
     atom  143 type  2   force =    -0.00000380    0.00000376    0.00015218
     atom  144 type  2   force =    -0.00018105   -0.00043529    0.00006703
     atom  145 type  3   force =    -0.00072526    0.00042545    0.00034818
     atom  146 type  4   force =     0.00132321   -0.00080104   -0.03605232

[...]
     atom   69 type  2   force =     0.00001111   -0.00013726   -0.00045499
     atom   70 type  2   force =     0.00000423   -0.00000236    0.00149918
     atom   71 type  2   force =    -0.00002213   -0.00001707   -0.00000786
     atom   72 type  2   force =    -0.00000665    0.00009053   -0.00000866
     atom   73 type  1   force =     0.00006963   -0.00003962   -0.00001272
     atom   74 type  1   force =    -0.00000232    0.00000047    0.00189824
     atom   75 type  1   force =     0.00000500    0.00002463   -0.00000857
     atom   76 type  2   force =    -0.00000055    0.00000005   -0.00327952
     atom   77 type  2   force =    -0.00002694   -0.00000967    0.00001877
     atom   78 type  2   force =     0.00008228   -0.00038652    0.00031779
     atom   79 type  2   force =    -0.00000237   -0.00000183    0.00149166
     atom   80 type  2   force =     0.00002208    0.00000727   -0.00005443
     atom   81 type  2   force =    -0.00013314    0.00008059   -0.00028579
     atom   82 type  1   force =    -0.00010011   -0.00003319   -0.00034419
     atom   83 type  1   force =    -0.00000051   -0.00000002    0.00189724
     atom   84 type  1   force =    -0.00000343    0.00000313    0.00007460
     atom   85 type  2   force =     0.00000005    0.00000007   -0.00327851
     atom   86 type  2   force =    -0.00002012    0.00001243    0.00008164
     atom   87 type  2   force =     0.00003760   -0.00002134   -0.00033234
     atom   88 type  2   force =     0.00000051    0.00000686    0.00150023
     atom   89 type  2   force =     0.00000765   -0.00000337    0.00005080
     atom   90 type  2   force =    -0.00022049    0.00012631   -0.00070187
     atom   91 type  1   force =     0.00003491    0.00011100   -0.00003503
     atom   92 type  1   force =    -0.00000205   -0.00000048    0.00189650
     atom   93 type  1   force =     0.00002764   -0.00000811   -0.00001275
     atom   94 type  2   force =     0.00000027   -0.00000010   -0.00327892
     atom   95 type  2   force =     0.00000124   -0.00002217    0.00008174
     atom   96 type  2   force =    -0.00025931    0.00031795    0.00022482
     atom   97 type  2   force =    -0.00000070    0.00000046    0.00149546
     atom   98 type  2   force =     0.00000193    0.00001531    0.00004101
     atom   99 type  2   force =     0.00006859    0.00012175   -0.00027474
     atom  100 type  1   force =    -0.00005235   -0.00001321   -0.00027380
     atom  101 type  1   force =    -0.00000022   -0.00000190    0.00189601
     atom  102 type  1   force =    -0.00001678   -0.00001374    0.00001628
     atom  103 type  2   force =    -0.00000003   -0.00000027   -0.00327893
     atom  104 type  2   force =    -0.00002149   -0.00001616    0.00001978
     atom  105 type  2   force =    -0.00077683   -0.00037276    0.00084300
     atom  106 type  2   force =     0.00000164   -0.00000377    0.00149202
     atom  107 type  2   force =     0.00001567    0.00000939   -0.00005677
     atom  108 type  2   force =     0.00012637    0.00010290    0.00016567
     atom  109 type  1   force =    -0.00001579    0.00005201   -0.00027353
     atom  110 type  1   force =     0.00000045   -0.00000053    0.00190198
     atom  111 type  1   force =     0.00001440   -0.00000803   -0.00001675
     atom  112 type  2   force =    -0.00000022   -0.00000023   -0.00327936
     atom  113 type  2   force =     0.00000213   -0.00000080   -0.00001838
     atom  114 type  2   force =    -0.00049551    0.00028555   -0.00025491
     atom  115 type  2   force =    -0.00000293   -0.00000122    0.00150741
     atom  116 type  2   force =     0.00000291   -0.00000177   -0.00002658
     atom  117 type  2   force =     0.00004590   -0.00002727   -0.00027091
     atom  118 type  1   force =    -0.00003530    0.00060127    0.00030731
     atom  119 type  1   force =    -0.00000186    0.00000139    0.00189821
     atom  120 type  1   force =    -0.00002049   -0.00001678   -0.00000999
     atom  121 type  2   force =    -0.00000041    0.00000027   -0.00327968
     atom  122 type  2   force =    -0.00000472    0.00002782    0.00001837
     atom  123 type  2   force =     0.00037684    0.00012356    0.00031892
     atom  124 type  2   force =     0.00000254   -0.00000144    0.00149953
     atom  125 type  2   force =     0.00000560   -0.00002245   -0.00005343
     atom  126 type  2   force =    -0.00013586    0.00007504   -0.00028597
     atom  127 type  1   force =     0.00047772   -0.00034554    0.00024777
     atom  128 type  1   force =    -0.00000087   -0.00000063    0.00189853
     atom  129 type  1   force =    -0.00002482   -0.00000524   -0.00001070
     atom  130 type  2   force =     0.00000000   -0.00000001   -0.00327851
     atom  131 type  2   force =    -0.00001014   -0.00001069    0.00002097
     atom  132 type  2   force =     0.00026549    0.00028536    0.00025650
     atom  133 type  2   force =    -0.00000572   -0.00000388    0.00150037
     atom  134 type  2   force =    -0.00004234   -0.00001810   -0.00007553
     atom  135 type  2   force =    -0.00002997   -0.00012222   -0.00026931
     atom  136 type  1   force =     0.00009197   -0.00005349   -0.00027371
     atom  137 type  1   force =    -0.00000145   -0.00000081    0.00189957
     atom  138 type  1   force =     0.00000225    0.00001653   -0.00002361
     atom  139 type  2   force =     0.00000025   -0.00000042   -0.00327921
     atom  140 type  2   force =     0.00001692   -0.00001127    0.00001912
     atom  141 type  2   force =     0.00005394   -0.00057836   -0.00018885
     atom  142 type  2   force =    -0.00000666    0.00000150    0.00148724
     atom  143 type  2   force =    -0.00001177    0.00001545   -0.00006088
     atom  144 type  2   force =     0.00002160    0.00006458   -0.00024173
     atom  145 type  3   force =     0.00011045   -0.00006372   -0.00044434
     atom  146 type  4   force =    -0.00002175    0.00001727   -0.00006738

     Total force =     0.003592     Total SCF correction =     0.000301
     Energy error            =      4.7E-05 Ry
     Gradient error          =      8.6E-04 Ry/Bohr

     bfgs converged in  17 scf cycles and  16 bfgs steps
     (criteria: energy <  1.0E-04 Ry, force <  1.0E-03 Ry/Bohr)

     End of BFGS Geometry Optimization

     Final energy             =  -26031.7954806929 Ry

     File ./outdir/pwscf.bfgs deleted, as requested
Begin final coordinates

ATOMIC_POSITIONS (angstrom)
Mo               1.5716424818        2.7182667071        6.0746189414
Mo               1.5769197498        0.9104407117       -6.0872367793    0   0   0
Mo               0.0003096066        1.8211573387       -0.0010665058
S                0.0000044503        0.0000077495       -7.6506323570    0   0   0
S                1.5769644276        0.9108476027       -1.5668561926
S               -0.0019337787        1.8201982757        4.5005677446
S                0.0000053241        0.0000068460       -4.5222282367    0   0   0
S                1.5770304259        0.9099766114        1.5654835712
S               -0.0099055147        1.8097093015        7.6416005680
Mo              -0.0086568072        5.4425005045        6.0938836623
Mo               0.0000011799        3.6417399547       -6.0872367793    0   0   0
Mo              -1.5766979248        4.5523876914       -0.0004036926
S               -1.5769141197        2.7313069925       -7.6506323570    0   0   0
S                0.0001974851        3.6421403621       -1.5659935059
S               -1.5744572112        4.5512637825        4.5058281945
S               -1.5769132459        2.7313060890       -4.5222282367    0   0   0
S                0.0008201185        3.6421314452        1.5670335688
S               -1.5935149812        4.5405454982        7.6481184798
Mo              -1.5778875357        8.1944363823        6.1382946612
Mo              -1.5769173901        6.3730391977       -6.0872367793    0   0   0
Mo              -3.1534838528        7.2835741344       -0.0016237585
S               -3.1538326896        5.4626062355       -7.6506323570    0   0   0
S               -1.5766623179        6.3726698468       -1.5666649708
S               -3.1302964002        7.2987634055        4.5596523271
S               -3.1538318159        5.4626053320       -4.5222282367    0   0   0
S               -1.5770553984        6.3736762688        1.5666581400
S               -3.2828024933        7.2080323231        7.7177470592
Mo               3.1404170655        0.0131023004        6.0835874890
Mo              -3.1538359601        9.1043384407       -6.0872367793    0   0   0
Mo              -4.7307315438       10.0147373954       -0.0018993259
S               -4.7307512596        8.1939054785       -7.6506323570    0   0   0
S               -3.1537546881        9.1042735868       -1.5673742675
S               -4.7305974221       10.0146507739        4.5074921104
S               -4.7307503859        8.1939045750       -4.5222282367    0   0   0
S               -3.1538074304        9.1043029510        1.5656624509
S               -4.7382715002       10.0190812378        7.6448839748
Mo               4.7365824929        2.7203927766        6.0806604404
Mo               4.7307503218        0.9104407117       -6.0872367793    0   0   0
Mo               3.1539618336        1.8207043661       -0.0009225411
S                3.1538350223        0.0000077495       -7.6506323570    0   0   0
S                4.7310076445        0.9105586750       -1.5663450461
S                3.1556541013        1.8206121283        4.5049227133
S                3.1538358961        0.0000068460       -4.5222282367    0   0   0
S                4.7302817668        0.9085895822        1.5666643299
S                3.1459276214        1.8325593998        7.6471481132
Mo               3.1529360257        5.4630960590        6.1360120915
Mo               3.1538317519        3.6417399547       -6.0872367793    0   0   0
Mo               1.5769910367        4.5526414065       -0.0003631916
S                1.5769164523        2.7313069925       -7.6506323570    0   0   0
S                3.1534759581        3.6417838684       -1.5664359835
S                1.5961323285        4.5651922746        4.5481357852
S                1.5769173261        2.7313060890       -4.5222282367    0   0   0
S                3.1539789478        3.6417684463        1.5663122731
S                1.4915206126        4.4770803602        7.7013980782
Mo               1.5899677211        8.2114134019        6.0938832840
Mo               1.5769131819        6.3730391977       -6.0872367793    0   0   0
Mo              -0.0002505326        7.2835951948       -0.0009308445
S               -0.0000021176        5.4626062355       -7.6506323570    0   0   0
S                1.5767767636        6.3730947548       -1.5660884187
S               -0.0204096314        7.2952222072        4.5681493057
S               -0.0000012439        5.4626053320       -4.5222282367    0   0   0
S                1.5756102129        6.3737691608        1.5676703233
S                0.1323849753        7.2070091191        7.7282190120
Mo               6.3217723827        0.0151867628        6.0776873779
Mo              -0.0000053881        9.1043384407       -6.0872367793    0   0   0
Mo              -1.5768519446       10.0143864482       -0.0016212812
S               -1.5769206876        8.1939054785       -7.6506323570    0   0   0
S                0.0004206656        9.1042691444       -1.5666679701
S               -1.5784232835        9.9866899624        4.5596544432
S               -1.5769198139        8.1939045750       -4.5222282367    0   0   0
S               -0.0006464816        9.1041057705        1.5666657383
S               -1.5760941430       10.1641502054        7.7177517441
Mo               7.8844987943        2.7313249517        6.0605867522
Mo               7.8845808939        0.9104407117       -6.0872367793    0   0   0
Mo               6.3072889148        1.8207502632       -0.0000971190
S                6.3076655943        0.0000077495       -7.6506323570    0   0   0
S                7.8841919179        0.9103782658       -1.5659219174
S                6.3031971266        1.8214330865        4.4968935581
S                6.3076664681        0.0000068460       -4.5222282367    0   0   0
S                7.8846299248        0.9102617865        1.5661956447
S                6.3270515040        1.8281239064        7.6437958053
Mo               6.3200040258        5.4629694029        6.0806574845
Mo               6.3076623239        3.6417399547       -6.0872367793    0   0   0
Mo               4.7304081532        4.5523456100       -0.0012860533
S                4.7307470244        2.7313069925       -7.6506323570    0   0   0
S                6.3078377010        3.6416144192       -1.5658365904
S                4.7090558468        4.5646665318        4.5522638498
S                4.7307478981        2.7313060890       -4.5222282367    0   0   0
S                6.3063581107        3.6424671978        1.5668561220
S                4.8219452908        4.4994935714        7.6979168813
Mo               4.7393745380        8.2049567407        6.0746157404
Mo               4.7307437539        6.3730391977       -6.0872367793    0   0   0
Mo               3.1534393599        7.2831386062       -0.0003640033
S                3.1538284544        5.4626062355       -7.6506323570    0   0   0
S                4.7305088701        6.3732922259       -1.5664354593
S                3.1521321561        7.2602814290        4.5481361764
S                3.1538293281        5.4626053320       -4.5222282367    0   0   0
S                4.7307721463        6.3728638966        1.5663131823
S                3.1761385926        7.3949358775        7.7013957305
Mo               9.4635402861        0.0026466144        6.0714236851
Mo               3.1538251839        9.1043384407       -6.0872367793    0   0   0
Mo               1.5768086355       10.0144438870       -0.0004039583
S                1.5769098844        8.1939054785       -7.6506323570    0   0   0
S                3.1535534043        9.1039362895       -1.5659914594
S                1.5789026867       10.0130564294        4.5058293162
S                1.5769107581        8.1939045750       -4.5222282367    0   0   0
S                3.1538712284        9.1034004757        1.5670310168
S                1.5786550925       10.0349187700        7.6481150151
Mo              -1.5781980114        2.7281791284        6.0714234606
Mo              11.0384114659        0.9104407117       -6.0872367793    0   0   0
Mo               9.4612871774        1.8209705978       -0.0011368966
S                9.4614961663        0.0000077495       -7.6506323570    0   0   0
S               11.0383593951        0.9104477770       -1.5663634955
S                9.4653938576        1.8185979584        4.4995455886
S                9.4614970401        0.0000068460       -4.5222282367    0   0   0
S               11.0385550465        0.9103353824        1.5650987892
S                9.4594227775        1.8220453418        7.6355737119
Mo              -3.1599479437        5.4427609333        6.0776892172
Mo               9.4614928959        3.6417399547       -6.0872367793    0   0   0
Mo               7.8844771608        4.5525254869       -0.0000963006
S                7.8845775964        2.7313069925       -7.6506323570    0   0   0
S                9.4613330307        3.6420739763       -1.5659205937
S                7.8818323596        4.5557163775        4.4968920819
S                7.8845784701        2.7313060890       -4.5222282367    0   0   0
S                9.4616517409        3.6417509259        1.5661939224
S                7.8879642546        4.5317172493        7.6437950220
Mo              -4.7488219807        8.1989343951        6.0835910302
Mo               7.8845743259        6.3730391977       -6.0872367793    0   0   0
Mo               6.3078492033        7.2834124401       -0.0009218811
S                6.3076590264        5.4626062355       -7.6506323570    0   0   0
S                7.8845825804        6.3727226116       -1.5663447366
S                6.3087720892        7.2819869672        4.5049206874
S                6.3076599001        5.4626053320       -4.5222282367    0   0   0
S                7.8859244809        6.3743358839        1.5666623373
S                6.2935588070        7.2844321501        7.6471477016
Mo              -0.0028991494        0.0016593599        6.0697691175
Mo               6.3076557559        9.1043384407       -6.0872367793    0   0   0
Mo               4.7306268221       10.0143328057       -0.0010656151
S                4.7307404564        8.1939054785       -7.6506323570    0   0   0
S                6.3073060841        9.1040625453       -1.5668535397
S                4.7303335075       10.0167545259        4.5005669537
S                4.7307413301        8.1939045750       -4.5222282367    0   0   0
S                6.3080954911        9.1044407385        1.5654830644
S                4.7354329857       10.0288952380        7.6415980078
Pd               3.1426097296        5.4690623747        9.0166996690
Pt              -1.5694447084        8.1895520977        8.8824312708
End final coordinates



     Writing all to output data dir ./outdir/pwscf.save/ :
     XML data file, charge density, pseudopotentials, collected wavefunctions
 
     init_run     :     96.48s CPU     98.76s WALL (       1 calls)
     electrons    :  77412.95s CPU  78594.55s WALL (      17 calls)
     update_pot   :     21.11s CPU     21.79s WALL (      16 calls)
     forces       :   1228.53s CPU   1255.41s WALL (      17 calls)
     force_dftd3  :      6.47s CPU      6.79s WALL (      17 calls)

     Called by init_run:
     wfcinit      :     77.87s CPU     78.91s WALL (       1 calls)
     potinit      :      1.10s CPU      1.18s WALL (       1 calls)
     hinit0       :      9.77s CPU      9.84s WALL (       1 calls)

     Called by electrons:
     c_bands      :  67304.59s CPU  68016.37s WALL (     234 calls)
     sum_band     :   8660.42s CPU   8897.71s WALL (     234 calls)
     v_of_rho     :     68.83s CPU     77.01s WALL (     241 calls)
     newd         :   1217.73s CPU   1445.35s WALL (     241 calls)
     PAW_pot      :    197.59s CPU    199.14s WALL (     257 calls)
     mix_rho      :     18.88s CPU     21.23s WALL (     234 calls)
     energy_dftd3 :      3.68s CPU      3.71s WALL (      17 calls)

     Called by c_bands:
     init_us_2    :    325.72s CPU    327.23s WALL (    2008 calls)
     init_us_2:cp :    325.71s CPU    327.22s WALL (    2008 calls)
     cegterg      :  65927.60s CPU  66633.39s WALL (     960 calls)

     Called by *egterg:
     cdiaghg      :   3267.39s CPU   3412.04s WALL (   10989 calls)
     h_psi        :  34421.74s CPU  34663.48s WALL (   11105 calls)
     s_psi        :   7365.69s CPU   7396.93s WALL (   11105 calls)
     g_psi        :     75.69s CPU     76.01s WALL (   10141 calls)

     Called by h_psi:
     h_psi:calbec :   7210.76s CPU   7235.96s WALL (   11105 calls)
     vloc_psi     :  19647.08s CPU  19773.48s WALL (   11105 calls)
     add_vuspsi   :   7399.43s CPU   7433.62s WALL (   11105 calls)

     General routines
     calbec       :  10264.50s CPU  10299.55s WALL (   12377 calls)
     fft          :     54.76s CPU     62.46s WALL (    3312 calls)
     ffts         :      3.17s CPU      3.25s WALL (     475 calls)
     fftw         :  14554.33s CPU  14648.47s WALL ( 5173772 calls)
     interpolate  :      5.72s CPU      6.24s WALL (     241 calls)
 
     Parallel routines
 
     PWSCF        :     21h59m CPU     22h20m WALL

 
   This run was terminated on:   5:18:51  12Mar2024            

=------------------------------------------------------------------------------=
   JOB DONE.
=------------------------------------------------------------------------------=
