
     Program PWSCF v.7.3 starts on  2May2024 at 23:23:32 

     This program is part of the open-source Quantum ESPRESSO suite
     for quantum simulation of materials; please cite
         "P. Giannozzi et al., J. Phys.:Condens. Matter 21 395502 (2009);
         "P. Giannozzi et al., J. Phys.:Condens. Matter 29 465901 (2017);
         "P. Giannozzi et al., J. Chem. Phys. 152 154105 (2020);
          URL http://www.quantum-espresso.org", 
     in publications or presentations arising from this work. More details at
     http://www.quantum-espresso.org/quote

     Parallel version (MPI & OpenMP), running on      36 processor cores
     Number of MPI processes:                36
     Threads/MPI process:                     1

     MPI processes distributed on     1 nodes
     559815 MiB available memory on the printing compute node when the environment starts
 
     Waiting for input...
     Reading input from standard input
Warning: card &CELL ignored
Warning: card / ignored

     Current dimensions of program PWSCF are:
     Max number of different atomic species (ntypx) = 10
     Max number of k-points (npk) =  40000
     Max angular momentum in pseudopotentials (lmaxx) =  4
     file Mo.pbe-spn-kjpaw_psl.1.0.0.UPF: wavefunction(s)  4S 4D renormalized
     file S.pbe-n-kjpaw_psl.1.0.0.UPF: wavefunction(s)  3S 3P renormalized
     file Pt.pbe-spfn-kjpaw_psl.1.0.0.UPF: wavefunction(s)  5P 4F renormalized
     file Pd.pbe-spn-kjpaw_psl.1.0.0.UPF: wavefunction(s)  4S 5S 4D renormalized
 
     R & G space division:  proc/nbgrp/npool/nimage =      36
     Subspace diagonalization in iterative solution of the eigenvalue problem:
     one sub-group per band group will be used
     scalapack distributed-memory algorithm (size of sub-group:  6*  6 procs)

 
     Parallelization info
     --------------------
     sticks:   dense  smooth     PW     G-vecs:    dense   smooth      PW
     Min         585     334     89               198743    85850   11735
     Max         586     335     90               198750    85861   11748
     Sum       21073   12049   3205              7154885  3090769  422587
 
     Using Slab Decomposition
 


     bravais-lattice index     =            0
     lattice parameter (alat)  =      23.8199  a.u.
     unit-cell volume          =   33861.0370 (a.u.)^3
     number of atoms/cell      =          195
     number of atomic types    =            4
     number of electrons       =      1746.00
     number of Kohn-Sham states=         1048
     kinetic-energy cutoff     =      77.0000  Ry
     charge density cutoff     =     539.0000  Ry
     scf convergence threshold =      1.0E-06
     mixing beta               =       0.2000
     number of iterations used =            8  plain     mixing
     energy convergence thresh.=      1.0E-04
     force convergence thresh. =      1.0E-03
     Exchange-correlation= SLA  PW   PBX  PBC
                           (   1   4   3   4   0   0   0)
     nstep                     =         1000


     Effective Screening Medium Method
     =================================
     Boundary Conditions: Vacuum-Slab-Vacuum
     total charge in unit cell        =   0.0000
     grid points for fit at edges     =        4 
 

     celldm(1)=  23.819920  celldm(2)=   0.000000  celldm(3)=   0.000000
     celldm(4)=   0.000000  celldm(5)=   0.000000  celldm(6)=   0.000000

     crystal axes: (cart. coord. in units of alat)
               a(1) = (   1.000000   0.000000   0.000000 )  
               a(2) = (  -0.499999   0.866026   0.000000 )  
               a(3) = (   0.000000   0.000000   2.893000 )  

     reciprocal axes: (cart. coord. in units 2 pi/alat)
               b(1) = (  1.000000  0.577349  0.000000 )  
               b(2) = (  0.000000  1.154700  0.000000 )  
               b(3) = (  0.000000  0.000000  0.345662 )  


     PseudoPot. # 1 for Mo read from file:
     ./pseudo/Mo.pbe-spn-kjpaw_psl.1.0.0.UPF
     MD5 check sum: 317bf72632116215fd98f72de1686f13
     Pseudo is Projector augmented-wave + core cor, Zval = 14.0
     Generated using 'atomic' code by A. Dal Corso  v.7.2
     Shape of augmentation charge: PSQ
     Using radial grid of 1229 points,  6 beta functions with: 
                l(1) =   0
                l(2) =   0
                l(3) =   1
                l(4) =   1
                l(5) =   2
                l(6) =   2
     Q(r) pseudized with 0 coefficients 


     PseudoPot. # 2 for S  read from file:
     ./pseudo/S.pbe-n-kjpaw_psl.1.0.0.UPF
     MD5 check sum: 8b7b5302570d38d5e87fed6a1065abda
     Pseudo is Projector augmented-wave + core cor, Zval =  6.0
     Generated using 'atomic' code by A. Dal Corso  v.7.2
     Shape of augmentation charge: PSQ
     Using radial grid of 1151 points,  6 beta functions with: 
                l(1) =   0
                l(2) =   0
                l(3) =   1
                l(4) =   1
                l(5) =   2
                l(6) =   2
     Q(r) pseudized with 0 coefficients 


     PseudoPot. # 3 for Pt read from file:
     ./pseudo/Pt.pbe-spfn-kjpaw_psl.1.0.0.UPF
     MD5 check sum: 620096ebf4e6ebacc94de60fd67efcb5
     Pseudo is Projector augmented-wave + core cor, Zval = 32.0
     Generated using 'atomic' code by A. Dal Corso  v.7.2
     Shape of augmentation charge: PSQ
     Using radial grid of 1277 points,  8 beta functions with: 
                l(1) =   0
                l(2) =   0
                l(3) =   1
                l(4) =   1
                l(5) =   2
                l(6) =   2
                l(7) =   3
                l(8) =   3
     Q(r) pseudized with 0 coefficients 


     PseudoPot. # 4 for Pd read from file:
     ./pseudo/Pd.pbe-spn-kjpaw_psl.1.0.0.UPF
     MD5 check sum: a60571a671f2502b8a6a4569d20a6edb
     Pseudo is Projector augmented-wave + core cor, Zval = 18.0
     Generated using 'atomic' code by A. Dal Corso  v.7.2
     Shape of augmentation charge: PSQ
     Using radial grid of 1235 points,  6 beta functions with: 
                l(1) =   0
                l(2) =   0
                l(3) =   1
                l(4) =   1
                l(5) =   2
                l(6) =   2
     Q(r) pseudized with 0 coefficients 


     atomic species   valence    mass     pseudopotential
     Mo               14.00    95.95000     Mo( 1.00)
     S                 6.00    32.06000     S ( 1.00)
     Pt               32.00   195.08400     Pt( 1.00)
     Pd               18.00   106.42000     Pd( 1.00)

     No symmetry found



   Cartesian axes

     site n.     atom                  positions (alat units)
         1        Mo     tau(   1) = (   0.0000010   0.1443372  -0.7272732  )
         2        Mo     tau(   2) = (   0.1249995   0.0721706  -0.2424038  )
         3        S      tau(   3) = (   0.0000015   0.1443386  -0.3667807  )
         4        S      tau(   4) = (   0.1250010   0.0721682  -0.6030489  )
         5        S      tau(   5) = (   0.1250010   0.0721683  -0.8514963  )
         6        S      tau(   6) = (   0.0000015   0.1443389  -0.1180260  )
         7        Mo     tau(   7) = (   0.0000165   0.1443639   0.2424458  )
         8        Mo     tau(   8) = (   0.1250235   0.0717246   0.7263406  )
         9        S      tau(   9) = (   0.0005369   0.1448386   0.6015218  )
        10        S      tau(  10) = (   0.1249954   0.0721618   0.3668135  )
        11        S      tau(  11) = (   0.1250195   0.0721779   0.1180823  )
        12        S      tau(  12) = (  -0.0003270   0.1431025   0.8512079  )
        13        Mo     tau(  13) = (  -0.1249989   0.3608437  -0.7272732  )
        14        Mo     tau(  14) = (   0.0000030   0.2886752  -0.2424042  )
        15        S      tau(  15) = (  -0.1249977   0.3608450  -0.3667802  )
        16        S      tau(  16) = (   0.0000012   0.2886747  -0.6030489  )
        17        S      tau(  17) = (   0.0000012   0.2886748  -0.8514963  )
        18        S      tau(  18) = (  -0.1249977   0.3608454  -0.1180274  )
        19        Mo     tau(  19) = (  -0.1249838   0.3608611   0.2424564  )
        20        Mo     tau(  20) = (  -0.0010112   0.2875499   0.7275042  )
        21        S      tau(  21) = (  -0.1249589   0.3614723   0.6028911  )
        22        S      tau(  22) = (   0.0000229   0.2887164   0.3668462  )
        23        S      tau(  23) = (   0.0000319   0.2887039   0.1180849  )
        24        S      tau(  24) = (  -0.1254179   0.3601432   0.8519775  )
        25        Mo     tau(  25) = (  -0.2499987   0.5773502  -0.7272732  )
        26        Mo     tau(  26) = (  -0.1249977   0.5051839  -0.2424055  )
        27        S      tau(  27) = (  -0.2499981   0.5773518  -0.3667809  )
        28        S      tau(  28) = (  -0.1249986   0.5051812  -0.6030489  )
        29        S      tau(  29) = (  -0.1249986   0.5051813  -0.8514963  )
        30        S      tau(  30) = (  -0.2499979   0.5773512  -0.1180266  )
        31        Mo     tau(  31) = (  -0.2499892   0.5773423   0.2424725  )
        32        Mo     tau(  32) = (  -0.1256606   0.5052028   0.7286154  )
        33        S      tau(  33) = (  -0.2498226   0.5768374   0.6031862  )
        34        S      tau(  34) = (  -0.1249521   0.5051863   0.3668519  )
        35        S      tau(  35) = (  -0.1249975   0.5051799   0.1180722  )
        36        S      tau(  36) = (  -0.2499767   0.5778459   0.8528940  )
        37        Mo     tau(  37) = (  -0.3749985   0.7938567  -0.7272732  )
        38        Mo     tau(  38) = (  -0.2500001   0.7216874  -0.2424031  )
        39        S      tau(  39) = (  -0.3749980   0.7938584  -0.3667800  )
        40        S      tau(  40) = (  -0.2499984   0.7216877  -0.6030489  )
        41        S      tau(  41) = (  -0.2499984   0.7216878  -0.8514963  )
        42        S      tau(  42) = (  -0.3749982   0.7938585  -0.1180264  )
        43        Mo     tau(  43) = (  -0.3749918   0.7938447   0.2424454  )
        44        Mo     tau(  44) = (  -0.2499337   0.7214685   0.7273252  )
        45        S      tau(  45) = (  -0.3749119   0.7930997   0.6024017  )
        46        S      tau(  46) = (  -0.2499835   0.7216794   0.3668152  )
        47        S      tau(  47) = (  -0.2499982   0.7216718   0.1180690  )
        48        S      tau(  48) = (  -0.3745581   0.7945239   0.8516564  )
        49        Mo     tau(  49) = (   0.2500010   0.1443372  -0.7272732  )
        50        Mo     tau(  50) = (   0.3750034   0.0721723  -0.2424032  )
        51        S      tau(  51) = (   0.2500017   0.1443391  -0.3667788  )
        52        S      tau(  52) = (   0.3750010   0.0721682  -0.6030489  )
        53        S      tau(  53) = (   0.3750010   0.0721683  -0.8514963  )
        54        S      tau(  54) = (   0.2500016   0.1443391  -0.1180271  )
        55        Mo     tau(  55) = (   0.2500049   0.1443558   0.2424800  )
        56        Mo     tau(  56) = (   0.3750695   0.0717200   0.7264262  )
        57        S      tau(  57) = (   0.2500704   0.1440362   0.6019475  )
        58        S      tau(  58) = (   0.3750099   0.0721483   0.3668106  )
        59        S      tau(  59) = (   0.3749948   0.0721851   0.1180824  )
        60        S      tau(  60) = (   0.2500131   0.1413211   0.8516135  )
        61        Mo     tau(  61) = (   0.1250012   0.3608437  -0.7272732  )
        62        Mo     tau(  62) = (   0.2500029   0.2886782  -0.2424031  )
        63        S      tau(  63) = (   0.1250024   0.3608455  -0.3667794  )
        64        S      tau(  64) = (   0.2500012   0.2886747  -0.6030489  )
        65        S      tau(  65) = (   0.2500012   0.2886748  -0.8514963  )
        66        S      tau(  66) = (   0.1250021   0.3608455  -0.1180270  )
        67        Mo     tau(  67) = (   0.1250220   0.3608739   0.2424909  )
        68        Mo     tau(  68) = (   0.2500516   0.2862417   0.7284634  )
        69        S      tau(  69) = (   0.1251493   0.3619302   0.6061672  )
        70        S      tau(  70) = (   0.2500021   0.2887137   0.3669053  )
        71        S      tau(  71) = (   0.2500084   0.2886924   0.1181099  )
        72        S      tau(  72) = (   0.1241634   0.3514816   0.8558063  )
        73        Mo     tau(  73) = (   0.0000014   0.5773502  -0.7272732  )
        74        Mo     tau(  74) = (   0.1250045   0.5051840  -0.2424036  )
        75        S      tau(  75) = (   0.0000030   0.5773520  -0.3667799  )
        76        S      tau(  76) = (   0.1250014   0.5051812  -0.6030489  )
        77        S      tau(  77) = (   0.1250014   0.5051813  -0.8514963  )
        78        S      tau(  78) = (   0.0000026   0.5773517  -0.1180274  )
        79        Mo     tau(  79) = (   0.0000298   0.5773239   0.2424318  )
        80        Mo     tau(  80) = (   0.1235562   0.5053489   0.7306566  )
        81        S      tau(  81) = (   0.0009343   0.5763644   0.6059345  )
        82        S      tau(  82) = (   0.1250078   0.5051967   0.3669171  )
        83        S      tau(  83) = (   0.1250403   0.5051743   0.1180834  )
        84        S      tau(  84) = (  -0.0065880   0.5806588   0.8588888  )
        85        Mo     tau(  85) = (  -0.1249984   0.7938567  -0.7272732  )
        86        Mo     tau(  86) = (   0.0000069   0.7216896  -0.2424039  )
        87        S      tau(  87) = (  -0.1249975   0.7938582  -0.3667782  )
        88        S      tau(  88) = (   0.0000016   0.7216877  -0.6030489  )
        89        S      tau(  89) = (   0.0000016   0.7216878  -0.8514963  )
        90        S      tau(  90) = (  -0.1249973   0.7938582  -0.1180279  )
        91        Mo     tau(  91) = (  -0.1249912   0.7938418   0.2424335  )
        92        Mo     tau(  92) = (  -0.0002856   0.7221962   0.7280430  )
        93        S      tau(  93) = (  -0.1248457   0.7930650   0.6025902  )
        94        S      tau(  94) = (  -0.0000060   0.7216208   0.3667980  )
        95        S      tau(  95) = (   0.0000209   0.7216773   0.1180639  )
        96        S      tau(  96) = (  -0.1254320   0.7945446   0.8518225  )
        97        Mo     tau(  97) = (   0.5000010   0.1443372  -0.7272732  )
        98        Mo     tau(  98) = (   0.6250001   0.0721662  -0.2424040  )
        99        S      tau(  99) = (   0.5000017   0.1443386  -0.3667801  )
       100        S      tau( 100) = (   0.6250010   0.0721682  -0.6030489  )
       101        S      tau( 101) = (   0.6250010   0.0721683  -0.8514963  )
       102        S      tau( 102) = (   0.5000020   0.1443388  -0.1180261  )
       103        Mo     tau( 103) = (   0.4999955   0.1443611   0.2424567  )
       104        Mo     tau( 104) = (   0.6246463   0.0728119   0.7256413  )
       105        S      tau( 105) = (   0.4995556   0.1446831   0.6015045  )
       106        S      tau( 106) = (   0.6250311   0.0722157   0.3667721  )
       107        S      tau( 107) = (   0.6249808   0.0721636   0.1180639  )
       108        S      tau( 108) = (   0.5004658   0.1432308   0.8511310  )
       109        Mo     tau( 109) = (   0.3750012   0.3608437  -0.7272732  )
       110        Mo     tau( 110) = (   0.4999991   0.2886761  -0.2424038  )
       111        S      tau( 111) = (   0.3750012   0.3608452  -0.3667804  )
       112        S      tau( 112) = (   0.5000012   0.2886747  -0.6030489  )
       113        S      tau( 113) = (   0.5000012   0.2886748  -0.8514963  )
       114        S      tau( 114) = (   0.3750014   0.3608455  -0.1180261  )
       115        Mo     tau( 115) = (   0.3749911   0.3608734   0.2424983  )
       116        Mo     tau( 116) = (   0.5011245   0.2875246   0.7272611  )
       117        S      tau( 117) = (   0.3748808   0.3618865   0.6059605  )
       118        S      tau( 118) = (   0.4999884   0.2887132   0.3668588  )
       119        S      tau( 119) = (   0.4999854   0.2887028   0.1180988  )
       120        S      tau( 120) = (   0.3760770   0.3514537   0.8556312  )
       121        Mo     tau( 121) = (   0.2500014   0.5773502  -0.7272732  )
       122        Mo     tau( 122) = (   0.3749983   0.5051825  -0.2424043  )
       123        S      tau( 123) = (   0.2500017   0.5773519  -0.3667810  )
       124        S      tau( 124) = (   0.3750014   0.5051812  -0.6030489  )
       125        S      tau( 125) = (   0.3750014   0.5051813  -0.8514963  )
       126        S      tau( 126) = (   0.2500018   0.5773519  -0.1180256  )
       127        Mo     tau( 127) = (   0.2500077   0.5773382   0.2424971  )
       128        Mo     tau( 128) = (   0.3766993   0.5053238   0.7304272  )
       129        S      tau( 129) = (   0.2500029   0.5764488   0.6074621  )
       130        S      tau( 130) = (   0.3750022   0.5051973   0.3669226  )
       131        S      tau( 131) = (   0.3749796   0.5051747   0.1180897  )
       132        S      tau( 132) = (   0.2502086   0.5906803   0.8517598  )
       133        Mo     tau( 133) = (   0.1250016   0.7938567  -0.7272732  )
       134        Mo     tau( 134) = (   0.2499995   0.7216883  -0.2424036  )
       135        S      tau( 135) = (   0.1250024   0.7938578  -0.3667813  )
       136        S      tau( 136) = (   0.2500016   0.7216877  -0.6030489  )
       137        S      tau( 137) = (   0.2500016   0.7216878  -0.8514963  )
       138        S      tau( 138) = (   0.1250024   0.7938579  -0.1180253  )
       139        Mo     tau( 139) = (   0.1250030   0.7938506   0.2424689  )
       140        Mo     tau( 140) = (   0.2500869   0.7270239   0.7252501  )
       141        S      tau( 141) = (   0.1234110   0.7947569   0.6009716  )
       142        S      tau( 142) = (   0.2500041   0.7216753   0.3668766  )
       143        S      tau( 143) = (   0.2500092   0.7216778   0.1181077  )
       144        S      tau( 144) = (   0.1247568   0.7963642   0.8506634  )
       145        Mo     tau( 145) = (   0.7500010   0.1443372  -0.7272732  )
       146        Mo     tau( 146) = (   0.8750038   0.0721696  -0.2424038  )
       147        S      tau( 147) = (   0.7500016   0.1443382  -0.3667789  )
       148        S      tau( 148) = (   0.8750010   0.0721682  -0.6030489  )
       149        S      tau( 149) = (   0.8750010   0.0721683  -0.8514963  )
       150        S      tau( 150) = (   0.7500016   0.1443384  -0.1180279  )
       151        Mo     tau( 151) = (   0.7500056   0.1443690   0.2423906  )
       152        Mo     tau( 152) = (   0.8754762   0.0728639   0.7256129  )
       153        S      tau( 153) = (   0.7500308   0.1452012   0.6014640  )
       154        S      tau( 154) = (   0.8749862   0.0722263   0.3667681  )
       155        S      tau( 155) = (   0.8750254   0.0721591   0.1180621  )
       156        S      tau( 156) = (   0.7500441   0.1442691   0.8503988  )
       157        Mo     tau( 157) = (   0.6250012   0.3608437  -0.7272732  )
       158        Mo     tau( 158) = (   0.7500028   0.2886769  -0.2424041  )
       159        S      tau( 159) = (   0.6250015   0.3608451  -0.3667792  )
       160        S      tau( 160) = (   0.7500012   0.2886747  -0.6030489  )
       161        S      tau( 161) = (   0.7500012   0.2886748  -0.8514963  )
       162        S      tau( 162) = (   0.6250016   0.3608454  -0.1180280  )
       163        Mo     tau( 163) = (   0.6249990   0.3608612   0.2424707  )
       164        Mo     tau( 164) = (   0.7500746   0.2887820   0.7269162  )
       165        S      tau( 165) = (   0.6251905   0.3614018   0.6027475  )
       166        S      tau( 166) = (   0.7500151   0.2886908   0.3668035  )
       167        S      tau( 167) = (   0.7499992   0.2887185   0.1180565  )
       168        S      tau( 168) = (   0.6254399   0.3601689   0.8517611  )
       169        Mo     tau( 169) = (   0.5000014   0.5773502  -0.7272732  )
       170        Mo     tau( 170) = (   0.6250029   0.5051841  -0.2424047  )
       171        S      tau( 171) = (   0.5000014   0.5773518  -0.3667794  )
       172        S      tau( 172) = (   0.6250014   0.5051812  -0.6030489  )
       173        S      tau( 173) = (   0.6250014   0.5051813  -0.8514963  )
       174        S      tau( 174) = (   0.5000016   0.5773516  -0.1180277  )
       175        Mo     tau( 175) = (   0.4999861   0.5773259   0.2424414  )
       176        Mo     tau( 176) = (   0.6258514   0.5052144   0.7284022  )
       177        S      tau( 177) = (   0.4992455   0.5763364   0.6056359  )
       178        S      tau( 178) = (   0.6249791   0.5051944   0.3668559  )
       179        S      tau( 179) = (   0.6250105   0.5051778   0.1180820  )
       180        S      tau( 180) = (   0.5069392   0.5807955   0.8586037  )
       181        Mo     tau( 181) = (   0.3750016   0.7938567  -0.7272732  )
       182        Mo     tau( 182) = (   0.5000025   0.7216901  -0.2424039  )
       183        S      tau( 183) = (   0.3750019   0.7938578  -0.3667793  )
       184        S      tau( 184) = (   0.5000016   0.7216877  -0.6030489  )
       185        S      tau( 185) = (   0.5000016   0.7216878  -0.8514963  )
       186        S      tau( 186) = (   0.3750020   0.7938579  -0.1180272  )
       187        Mo     tau( 187) = (   0.3750095   0.7938535   0.2424732  )
       188        Mo     tau( 188) = (   0.5004392   0.7222160   0.7277389  )
       189        S      tau( 189) = (   0.3766340   0.7948794   0.6008559  )
       190        S      tau( 190) = (   0.5000179   0.7216263   0.3668038  )
       191        S      tau( 191) = (   0.4999965   0.7216810   0.1180753  )
       192        S      tau( 192) = (   0.3755295   0.7963504   0.8505132  )
       193        Pt     tau( 193) = (   0.1371069   0.5032381   0.9573497  )
       194        Pt     tau( 194) = (   0.3635722   0.5033563   0.9571359  )
       195        Pd     tau( 195) = (  -0.0003173   0.7221761   0.9778691  )

     --------------------------------------------
     DFT-D3 Dispersion Correction (3-body terms):
     --------------------------------------------
       Reference C6 values for interpolation: 

         atom   Coordination number   C6
         S          0.000           268.01
         S          0.995           261.99
         S          1.990           251.62
         Mo         0.000          1691.79
         Mo         1.942          1004.01
         Mo        11.056           674.22
         Pd         0.000          1217.01
         Pd         1.863           573.90
         Pd         5.710           531.75
         Pt         0.000           782.29
         Pt         1.919           692.72
         Pt         6.667           673.75

       Values used:

         atom   Coordination number  R0_AB[au]  C6      C8
         Mo        10.208            3.547    674.22  77634.20
         Mo        10.221            3.547    674.22  77634.20
         S          3.858            3.128    251.62  12327.25
         S          3.859            3.128    251.62  12327.25
         S          3.758            3.128    251.62  12327.25
         S          3.859            3.128    251.62  12327.25
         Mo        10.220            3.547    674.22  77634.20
         Mo        10.265            3.547    674.22  77634.20
         S          3.854            3.128    251.62  12327.25
         S          3.861            3.128    251.62  12327.25
         S          3.859            3.128    251.62  12327.25
         S          3.824            3.128    251.62  12327.25
         Mo        10.208            3.547    674.22  77634.20
         Mo        10.221            3.547    674.22  77634.20
         S          3.858            3.128    251.62  12327.25
         S          3.859            3.128    251.62  12327.25
         S          3.758            3.128    251.62  12327.25
         S          3.859            3.128    251.62  12327.25
         Mo        10.221            3.547    674.22  77634.20
         Mo        10.226            3.547    674.22  77634.20
         S          3.865            3.128    251.62  12327.25
         S          3.857            3.128    251.62  12327.25
         S          3.859            3.128    251.62  12327.25
         S          3.769            3.128    251.62  12327.25
         Mo        10.208            3.547    674.22  77634.20
         Mo        10.221            3.547    674.22  77634.20
         S          3.858            3.128    251.62  12327.25
         S          3.859            3.128    251.62  12327.25
         S          3.758            3.128    251.62  12327.25
         S          3.859            3.128    251.62  12327.25
         Mo        10.221            3.547    674.22  77634.20
         Mo        10.247            3.547    674.22  77634.20
         S          3.856            3.128    251.62  12327.25
         S          3.856            3.128    251.62  12327.25
         S          3.859            3.128    251.62  12327.25
         S          3.834            3.128    251.62  12327.25
         Mo        10.208            3.547    674.22  77634.20
         Mo        10.221            3.547    674.22  77634.20
         S          3.858            3.128    251.62  12327.25
         S          3.859            3.128    251.62  12327.25
         S          3.758            3.128    251.62  12327.25
         S          3.859            3.128    251.62  12327.25
         Mo        10.220            3.547    674.22  77634.20
         Mo        10.256            3.547    674.21  77634.20
         S          3.856            3.128    251.62  12327.25
         S          3.859            3.128    251.62  12327.25
         S          3.859            3.128    251.62  12327.25
         S          3.818            3.128    251.62  12327.25
         Mo        10.208            3.547    674.22  77634.20
         Mo        10.221            3.547    674.22  77634.20
         S          3.858            3.128    251.62  12327.25
         S          3.859            3.128    251.62  12327.25
         S          3.758            3.128    251.62  12327.25
         S          3.859            3.128    251.62  12327.25
         Mo        10.220            3.547    674.22  77634.20
         Mo        10.272            3.547    674.22  77634.20
         S          3.844            3.128    251.62  12327.25
         S          3.861            3.128    251.62  12327.25
         S          3.859            3.128    251.62  12327.25
         S          3.846            3.128    251.62  12327.25
         Mo        10.208            3.547    674.22  77634.20
         Mo        10.221            3.547    674.22  77634.20
         S          3.858            3.128    251.62  12327.25
         S          3.859            3.128    251.62  12327.25
         S          3.758            3.128    251.62  12327.25
         S          3.859            3.128    251.62  12327.25
         Mo        10.222            3.547    674.22  77634.20
         Mo        10.161            3.547    674.22  77634.20
         S          3.858            3.128    251.62  12327.25
         S          3.852            3.128    251.62  12327.25
         S          3.859            3.128    251.62  12327.25
         S          4.676            3.128    251.62  12327.25
         Mo        10.208            3.547    674.22  77634.20
         Mo        10.221            3.547    674.22  77634.20
         S          3.858            3.128    251.62  12327.25
         S          3.859            3.128    251.62  12327.25
         S          3.758            3.128    251.62  12327.25
         S          3.859            3.128    251.62  12327.25
         Mo        10.221            3.547    674.22  77634.20
         Mo        10.847            3.547    674.22  77634.20
         S          3.846            3.128    251.62  12327.25
         S          3.850            3.128    251.62  12327.25
         S          3.859            3.128    251.62  12327.25
         S          5.591            3.128    251.62  12327.25
         Mo        10.208            3.547    674.22  77634.20
         Mo        10.221            3.547    674.22  77634.20
         S          3.858            3.128    251.62  12327.25
         S          3.859            3.128    251.62  12327.25
         S          3.758            3.128    251.62  12327.25
         S          3.859            3.128    251.62  12327.25
         Mo        10.220            3.547    674.22  77634.20
         Mo        10.656            3.547    674.22  77634.20
         S          3.859            3.128    251.62  12327.25
         S          3.859            3.128    251.62  12327.25
         S          3.859            3.128    251.62  12327.25
         S          4.739            3.128    251.62  12327.25
         Mo        10.208            3.547    674.21  77634.20
         Mo        10.221            3.547    674.22  77634.20
         S          3.858            3.128    251.62  12327.25
         S          3.859            3.128    251.62  12327.25
         S          3.758            3.128    251.62  12327.25
         S          3.859            3.128    251.62  12327.25
         Mo        10.220            3.547    674.22  77634.20
         Mo        10.298            3.547    674.22  77634.20
         S          3.855            3.128    251.62  12327.25
         S          3.864            3.128    251.62  12327.25
         S          3.859            3.128    251.62  12327.25
         S          3.833            3.128    251.62  12327.25
         Mo        10.208            3.547    674.22  77634.20
         Mo        10.221            3.547    674.22  77634.20
         S          3.858            3.128    251.62  12327.25
         S          3.859            3.128    251.62  12327.25
         S          3.758            3.128    251.62  12327.25
         S          3.859            3.128    251.62  12327.25
         Mo        10.222            3.547    674.22  77634.20
         Mo        10.225            3.547    674.22  77634.20
         S          3.856            3.128    251.62  12327.25
         S          3.857            3.128    251.62  12327.25
         S          3.859            3.128    251.62  12327.25
         S          4.678            3.128    251.62  12327.25
         Mo        10.208            3.547    674.22  77634.20
         Mo        10.221            3.547    674.22  77634.20
         S          3.858            3.128    251.62  12327.25
         S          3.859            3.128    251.62  12327.25
         S          3.758            3.128    251.62  12327.25
         S          3.859            3.128    251.62  12327.25
         Mo        10.222            3.547    674.22  77634.20
         Mo        10.839            3.547    674.22  77634.20
         S          3.874            3.128    251.62  12327.25
         S          3.850            3.128    251.62  12327.25
         S          3.859            3.128    251.62  12327.25
         S          5.687            3.128    251.62  12327.25
         Mo        10.208            3.547    674.21  77634.20
         Mo        10.221            3.547    674.22  77634.20
         S          3.858            3.128    251.62  12327.25
         S          3.859            3.128    251.62  12327.25
         S          3.758            3.128    251.62  12327.25
         S          3.859            3.128    251.62  12327.25
         Mo        10.220            3.547    674.22  77634.20
         Mo        10.177            3.547    674.22  77634.20
         S          3.839            3.128    251.62  12327.25
         S          3.855            3.128    251.62  12327.25
         S          3.859            3.128    251.62  12327.25
         S          4.755            3.128    251.62  12327.25
         Mo        10.208            3.547    674.22  77634.20
         Mo        10.221            3.547    674.22  77634.20
         S          3.858            3.128    251.62  12327.25
         S          3.859            3.128    251.62  12327.25
         S          3.758            3.128    251.62  12327.25
         S          3.859            3.128    251.62  12327.25
         Mo        10.220            3.547    674.22  77634.20
         Mo        10.292            3.547    674.22  77634.20
         S          3.857            3.128    251.62  12327.25
         S          3.864            3.128    251.62  12327.25
         S          3.859            3.128    251.62  12327.25
         S          3.796            3.128    251.62  12327.25
         Mo        10.208            3.547    674.22  77634.20
         Mo        10.220            3.547    674.22  77634.20
         S          3.858            3.128    251.62  12327.25
         S          3.859            3.128    251.62  12327.25
         S          3.758            3.128    251.62  12327.25
         S          3.859            3.128    251.62  12327.25
         Mo        10.221            3.547    674.22  77634.20
         Mo        10.259            3.547    674.22  77634.20
         S          3.864            3.128    251.62  12327.25
         S          3.861            3.128    251.62  12327.25
         S          3.859            3.128    251.62  12327.25
         S          3.771            3.128    251.62  12327.25
         Mo        10.208            3.547    674.22  77634.20
         Mo        10.221            3.547    674.22  77634.20
         S          3.858            3.128    251.62  12327.25
         S          3.859            3.128    251.62  12327.25
         S          3.758            3.128    251.62  12327.25
         S          3.859            3.128    251.62  12327.25
         Mo        10.221            3.547    674.22  77634.20
         Mo        10.240            3.547    674.22  77634.20
         S          3.842            3.128    251.62  12327.25
         S          3.856            3.128    251.62  12327.25
         S          3.859            3.128    251.62  12327.25
         S          4.635            3.128    251.62  12327.25
         Mo        10.208            3.547    674.22  77634.20
         Mo        10.221            3.547    674.22  77634.20
         S          3.858            3.128    251.62  12327.25
         S          3.859            3.128    251.62  12327.25
         S          3.758            3.128    251.62  12327.25
         S          3.859            3.128    251.62  12327.25
         Mo        10.220            3.547    674.22  77634.20
         Mo        10.228            3.547    674.22  77634.20
         S          3.837            3.128    251.62  12327.25
         S          3.859            3.128    251.62  12327.25
         S          3.859            3.128    251.62  12327.25
         S          3.843            3.128    251.62  12327.25
         Pt         4.734            3.168    673.75  70061.90
         Pt         4.574            3.168    673.75  70061.94
         Pd         3.486            3.168    573.90  52582.69

         Molecular C6 ( Ry / a.u.^6 ) =  14177965.80


     number of k points=     4  Gaussian smearing, width (Ry)=  0.0100
                       cart. coord. in units 2pi/alat
        k(    1) = (   0.0000000   0.0000000   0.0000000), wk =   0.5000000
        k(    2) = (   0.0000000  -0.5773499   0.0000000), wk =   0.5000000
        k(    3) = (  -0.5000000  -0.2886744   0.0000000), wk =   0.5000000
        k(    4) = (  -0.5000000  -0.8660242   0.0000000), wk =   0.5000000

     Dense  grid:  7154885 G-vectors     FFT dimensions: ( 180, 180, 512)

     Smooth grid:  3090769 G-vectors     FFT dimensions: ( 135, 135, 400)

     Estimated max dynamical RAM per process >       4.33 GB

     Estimated total dynamical RAM >     155.86 GB

     Atomic positions and unit cell read from directory:
     ./outdir/pwscf.save/
     Atomic positions from file used, from input discarded
 

     The initial density is read from file :
     ./outdir/pwscf.save/charge-density


     negative rho (up, down):  9.143E-04 0.000E+00
     Cannot read wfcs: file not found
     Starting wfcs are 1196 randomized atomic wfcs
     Checking if some PAW data can be deallocated... 

     total cpu time spent up to now is      184.5 secs

     Self-consistent Calculation

     iteration #  1     ecut=    77.00 Ry     beta= 0.20
     Davidson diagonalization with overlap
     c_bands:  3 eigenvalues not converged
     c_bands: 11 eigenvalues not converged
     c_bands: 11 eigenvalues not converged
     c_bands: 15 eigenvalues not converged
     ethr =  1.00E-05,  avg # of iterations =120.0

     negative rho (up, down):  8.556E-04 0.000E+00

     total cpu time spent up to now is    11233.5 secs

     total energy              =  -35654.94355058 Ry
     estimated scf accuracy    <       0.03010851 Ry

     iteration #  2     ecut=    77.00 Ry     beta= 0.20
     Davidson diagonalization with overlap
     c_bands:  5 eigenvalues not converged
     c_bands:  5 eigenvalues not converged
     c_bands:  2 eigenvalues not converged
     ethr =  1.72E-06,  avg # of iterations = 62.8

     negative rho (up, down):  8.476E-04 0.000E+00

     total cpu time spent up to now is    12808.5 secs

     total energy              =  -35654.95338216 Ry
     estimated scf accuracy    <       0.01180447 Ry

     iteration #  3     ecut=    77.00 Ry     beta= 0.20
     Davidson diagonalization with overlap
     c_bands:  2 eigenvalues not converged
     ethr =  6.76E-07,  avg # of iterations = 14.5

     negative rho (up, down):  8.485E-04 0.000E+00

     total cpu time spent up to now is    13418.7 secs

     total energy              =  -35654.95375304 Ry
     estimated scf accuracy    <       0.00522664 Ry

     iteration #  4     ecut=    77.00 Ry     beta= 0.20
     Davidson diagonalization with overlap
     c_bands:  1 eigenvalues not converged
     ethr =  2.99E-07,  avg # of iterations = 14.5

     negative rho (up, down):  8.595E-04 0.000E+00

     total cpu time spent up to now is    14120.3 secs

     total energy              =  -35654.95655446 Ry
     estimated scf accuracy    <       0.00134574 Ry

     iteration #  5     ecut=    77.00 Ry     beta= 0.20
     Davidson diagonalization with overlap
     ethr =  7.71E-08,  avg # of iterations = 12.5

     negative rho (up, down):  8.812E-04 0.000E+00

     total cpu time spent up to now is    14910.8 secs

     total energy              =  -35654.95712799 Ry
     estimated scf accuracy    <       0.00062365 Ry

     iteration #  6     ecut=    77.00 Ry     beta= 0.20
     Davidson diagonalization with overlap
     ethr =  3.57E-08,  avg # of iterations = 12.2

     negative rho (up, down):  8.927E-04 0.000E+00

     total cpu time spent up to now is    15518.9 secs

     total energy              =  -35654.95727663 Ry
     estimated scf accuracy    <       0.00022270 Ry

     iteration #  7     ecut=    77.00 Ry     beta= 0.20
     Davidson diagonalization with overlap
     ethr =  1.28E-08,  avg # of iterations = 13.0

     negative rho (up, down):  8.978E-04 0.000E+00

     total cpu time spent up to now is    16309.4 secs

     total energy              =  -35654.95740502 Ry
     estimated scf accuracy    <       0.00006875 Ry

     iteration #  8     ecut=    77.00 Ry     beta= 0.20
     Davidson diagonalization with overlap
     ethr =  3.94E-09,  avg # of iterations = 15.2

     negative rho (up, down):  9.034E-04 0.000E+00

     total cpu time spent up to now is    17171.9 secs

     total energy              =  -35654.95744794 Ry
     estimated scf accuracy    <       0.00002911 Ry

     iteration #  9     ecut=    77.00 Ry     beta= 0.20
     Davidson diagonalization with overlap
     ethr =  1.67E-09,  avg # of iterations = 11.5

     negative rho (up, down):  9.093E-04 0.000E+00

     total cpu time spent up to now is    17822.8 secs

     total energy              =  -35654.95745064 Ry
     estimated scf accuracy    <       0.00001335 Ry

     iteration # 10     ecut=    77.00 Ry     beta= 0.20
     Davidson diagonalization with overlap
     ethr =  7.64E-10,  avg # of iterations = 17.0

     negative rho (up, down):  9.103E-04 0.000E+00

     total cpu time spent up to now is    18647.1 secs

     total energy              =  -35654.95745863 Ry
     estimated scf accuracy    <       0.00000586 Ry

     iteration # 11     ecut=    77.00 Ry     beta= 0.20
     Davidson diagonalization with overlap
     ethr =  3.36E-10,  avg # of iterations = 10.2

     negative rho (up, down):  9.121E-04 0.000E+00

     total cpu time spent up to now is    19227.8 secs

     total energy              =  -35654.95745872 Ry
     estimated scf accuracy    <       0.00000180 Ry

     iteration # 12     ecut=    77.00 Ry     beta= 0.20
     Davidson diagonalization with overlap
     ethr =  1.03E-10,  avg # of iterations = 16.0

     negative rho (up, down):  9.146E-04 0.000E+00

     total cpu time spent up to now is    20302.1 secs

     End of self-consistent calculation

          k = 0.0000 0.0000 0.0000 (386245 PWs)   bands (ev):

  -103.0089-102.0948 -88.9587 -71.3773 -71.3662 -71.3317 -71.2942 -71.2899
   -71.2734 -71.2715 -70.5230 -70.5057 -70.4667 -70.4116 -70.3981 -70.3735
   -70.3698 -66.6628 -66.6627 -66.6618 -66.6615 -66.6549 -66.6417 -66.6416
   -66.6416 -66.6416 -66.6415 -66.6415 -66.6415 -66.6415 -66.6414 -66.6414
   -66.6412 -66.6411 -66.6409 -66.6402 -66.6402 -66.6402 -66.6402 -66.6402
   -66.6402 -66.6339 -66.6303 -66.6254 -66.6228 -66.6205 -66.6202 -66.6202
   -66.6202 -66.6202 -66.6202 -66.6202 -66.6201 -66.6201 -66.6201 -66.6201
   -66.6201 -66.6200 -66.6200 -66.6199 -66.6198 -66.6197 -66.6196 -66.6190
   -66.6188 -66.6188 -66.6188 -66.6188 -66.6188 -66.6188 -66.6188 -66.6187
   -66.6187 -66.6151 -66.6086 -66.6033 -66.6007 -66.5918 -66.5828 -66.5778
   -66.5401 -57.3803 -57.2347 -57.0409 -56.6239 -56.2730 -55.9810 -54.8075
   -54.7597 -54.6742 -40.9902 -40.9902 -40.9902 -40.9902 -40.9901 -40.9900
   -40.9895 -40.9895 -40.9895 -40.9791 -40.9746 -40.9692 -40.9150 -40.9149
   -40.9149 -40.9149 -40.9149 -40.9148 -40.9148 -40.9148 -40.9148 -40.9147
   -40.9147 -40.9146 -40.9142 -40.9141 -40.9141 -40.9141 -40.9141 -40.9141
   -40.9069 -40.9015 -40.8996 -40.8897 -40.8856 -40.8800 -40.8432 -40.8224
   -40.8223 -40.8217 -40.8201 -40.8030 -40.7934 -40.7887 -40.7886 -40.7885
   -40.7885 -40.7885 -40.7885 -40.7885 -40.7885 -40.7885 -40.7885 -40.7883
   -40.7882 -40.7877 -40.7877 -40.7877 -40.7877 -40.7877 -40.7877 -40.7842
   -40.7813 -40.7809 -40.7808 -40.7808 -40.7807 -40.7807 -40.7807 -40.7807
   -40.7806 -40.7806 -40.7805 -40.7805 -40.7803 -40.7800 -40.7800 -40.7800
   -40.7800 -40.7800 -40.7800 -40.7776 -40.7759 -40.7735 -40.7709 -40.7690
   -40.7663 -40.7560 -40.7536 -40.7535 -40.7535 -40.7535 -40.7535 -40.7535
   -40.7535 -40.7535 -40.7535 -40.7534 -40.7533 -40.7532 -40.7530 -40.7526
   -40.7526 -40.7526 -40.7526 -40.7526 -40.7526 -40.7516 -40.7475 -40.7436
   -40.7418 -40.7398 -40.7390 -40.7389 -40.7388 -40.7388 -40.7388 -40.7388
   -40.7388 -40.7388 -40.7387 -40.7387 -40.7387 -40.7386 -40.7386 -40.7386
   -40.7386 -40.7384 -40.7384 -40.7382 -40.7380 -40.7380 -40.7380 -40.7380
   -40.7380 -40.7380 -40.7379 -40.7379 -40.7379 -40.7354 -40.7329 -40.7301
   -40.7285 -40.7263 -40.7171 -40.7161 -40.7082 -40.6818 -40.6752 -40.6752
   -40.6752 -40.6752 -40.6751 -40.6750 -40.6742 -40.6742 -40.6742 -40.6590
   -40.6572 -40.6470 -40.6282 -40.6281 -40.6281 -40.6281 -40.6280 -40.6280
   -40.6280 -40.6280 -40.6280 -40.6279 -40.6277 -40.6277 -40.6270 -40.6270
   -40.6270 -40.6270 -40.6270 -40.6270 -40.6132 -40.6098 -40.6086 -40.6003
   -40.5958 -40.5880 -40.5804 -40.5804 -40.5803 -40.5803 -40.5794 -40.5794
   -40.5508 -40.5449 -20.4096 -20.1465 -20.0510 -19.9399 -19.8385 -19.4256
   -19.3322 -19.3039 -19.2977 -19.2890 -19.2771 -19.2727 -19.2656 -19.2543
   -19.2471 -19.2319 -19.1923 -19.1832 -19.1757 -19.1675 -19.1621 -19.1486
   -19.0868 -19.0807 -19.0776 -19.0747 -19.0731 -19.0679 -18.9581 -18.8804
   -18.8337 -18.6785 -18.6517 -18.6055 -18.5760 -18.5534 -18.5431 -18.5181
   -18.5012 -18.4691 -18.4621 -18.4563 -18.4503 -18.4279 -18.3960 -18.3442
   -18.3345 -18.3260 -18.3246 -18.3097 -18.2883 -18.2571 -18.2440 -18.2312
   -18.2236 -18.2198 -18.2129 -18.2085 -18.2011 -18.1925 -18.1620 -18.1601
   -18.1587 -18.1580 -18.1574 -18.1560 -18.1340 -18.1277 -18.1251 -18.1226
   -18.1206 -18.1186 -18.1154 -18.1142 -18.1139 -18.1000 -18.0901 -18.0885
   -18.0867 -18.0822 -18.0744 -18.0709 -18.0702 -18.0619 -18.0538 -18.0483
   -18.0450 -18.0405 -18.0371 -18.0291 -18.0275 -18.0262 -17.9972 -17.9938
   -17.9897 -17.9855 -17.9707 -17.9613 -17.9585 -17.9555 -17.9553 -17.9360
   -17.9338 -17.9311 -17.9250 -17.9183 -17.9142 -17.9091 -17.9048 -17.9025
   -17.8988 -17.8969 -17.8954 -17.8800 -17.8796 -17.8789 -17.8713 -17.8678
   -17.8669 -17.8625 -17.8593 -17.8573 -17.8365 -17.8357 -17.8355 -17.8341
   -17.8328 -17.8317 -12.4954 -12.3597 -12.0075 -11.9810 -11.9186 -11.8422
   -11.8324 -11.8270 -11.7540 -11.7285 -11.7106 -11.7052 -11.6155 -11.5958
   -11.5928 -11.5856 -11.4705 -11.4210 -11.4123 -11.3135 -11.2851 -11.2816
   -11.2784 -11.2750 -11.2544 -11.2346 -11.2125 -11.1838 -11.1720 -11.1700
   -11.1677 -11.1650 -11.1617 -11.1532 -11.1469 -11.1250 -11.1137 -11.1051
   -11.1023 -11.1018 -11.0941 -11.0845 -11.0826 -11.0681 -11.0659 -11.0614
   -11.0448 -11.0086 -11.0031 -10.9973 -10.9917 -10.9781 -10.9780 -10.9613
   -10.9503 -10.9357 -10.9344 -10.9283 -10.9204 -10.9158 -10.9084 -10.8952
   -10.8901 -10.8833 -10.8786 -10.8731 -10.8715 -10.8690 -10.8667 -10.8649
   -10.8589 -10.8556 -10.8536 -10.8479 -10.8460 -10.8427 -10.8221 -10.8204
   -10.8173 -10.8161 -10.8125 -10.8101 -10.8085 -10.8058 -10.7959 -10.7771
   -10.7762 -10.7760 -10.7759 -10.7741 -10.7730 -10.7350 -10.7047 -10.6968
   -10.6837 -10.6522 -10.6354 -10.6312 -10.6253 -10.6222 -10.6018 -10.5364
   -10.4797 -10.3800 -10.2548 -10.2121 -10.1783 -10.1152 -10.0496 -10.0126
    -9.9612  -9.9302  -9.8975  -9.8762  -9.8600  -9.8481  -9.8467  -9.8358
    -9.8201  -9.8158  -9.8148  -9.8092  -9.8086  -9.8052  -9.8014  -9.7932
    -9.7918  -9.7882  -9.7875  -9.7852  -9.7780  -9.7590  -9.7468  -9.7281
    -9.7181  -9.6898  -9.6763  -9.6727  -9.6702  -9.6669  -9.6635  -9.6586
    -9.6580  -9.6567  -9.6561  -9.6542  -9.6511  -9.6485  -9.6159  -9.6064
    -9.5904  -9.5834  -9.5802  -9.5801  -9.5798  -9.5796  -9.5794  -9.5792
    -9.5678  -9.5617  -9.5472  -9.5464  -9.5400  -9.5269  -9.5064  -9.4889
    -9.4526  -9.4272  -9.4157  -9.4077  -9.4056  -9.3959  -9.3846  -9.3825
    -9.3752  -9.3706  -9.3604  -9.3505  -9.3437  -9.3218  -9.2999  -9.2876
    -9.2787  -9.2736  -9.2702  -9.2531  -9.2341  -9.2272  -9.2223  -9.2210
    -9.2204  -9.2175  -9.2126  -9.1964  -9.1817  -9.1749  -9.1521  -9.1478
    -9.1220  -9.1083  -9.0835  -9.0681  -9.0321  -9.0210  -9.0200  -9.0180
    -9.0051  -8.9966  -8.9869  -8.9859  -8.9772  -8.9677  -8.9561  -8.9559
    -8.9554  -8.9503  -8.9383  -8.9354  -8.9316  -8.9243  -8.8692  -8.8605
    -8.8602  -8.8597  -8.8590  -8.8587  -8.8578  -8.8066  -8.8040  -8.7946
    -8.7890  -8.7744  -8.7699  -8.7268  -8.7128  -8.7083  -8.7022  -8.6972
    -8.6909  -8.6636  -8.6352  -8.6328  -8.6305  -8.6299  -8.6282  -8.6218
    -8.5820  -8.5614  -8.5460  -8.4690  -8.4304  -8.4049  -8.4049  -8.4000
    -8.3998  -8.3936  -8.3934  -8.3856  -8.3665  -8.3431  -8.3247  -8.3145
    -8.3143  -8.3141  -8.3135  -8.3122  -8.3084  -8.2884  -8.2878  -8.2875
    -8.2864  -8.2849  -8.2822  -8.2601  -8.2596  -8.2594  -8.2589  -8.2583
    -8.2574  -8.2219  -8.1698  -8.1481  -8.1000  -8.0364  -7.9900  -7.9031
    -7.8973  -7.8941  -7.8503  -7.8421  -7.8056  -7.7959  -7.7710  -7.7376
    -7.7331  -7.7161  -7.6935  -7.6872  -7.6833  -7.6754  -7.6583  -7.6530
    -7.6470  -7.6429  -7.6373  -7.6162  -7.6114  -7.5999  -7.5922  -7.5814
    -7.5741  -7.5732  -7.5725  -7.5722  -7.5709  -7.5690  -7.5595  -7.5500
    -7.5464  -7.5457  -7.5455  -7.5430  -7.5410  -7.5343  -7.5256  -7.5213
    -7.5208  -7.5202  -7.5200  -7.5194  -7.5181  -7.5047  -7.4895  -7.4768
    -7.4727  -7.4659  -7.4587  -7.4532  -7.4481  -7.4356  -7.4249  -7.4009
    -7.3915  -7.3897  -7.3731  -7.3677  -7.3576  -7.3481  -7.3408  -7.3386
    -7.3322  -7.3316  -7.3301  -7.3191  -7.2896  -7.2889  -7.2747  -7.2721
    -7.2704  -7.2659  -7.2522  -7.2517  -7.2267  -7.2015  -7.1788  -7.1596
    -7.1570  -7.1332  -7.0807  -7.0689  -7.0518  -7.0142  -6.9736  -6.9296
    -6.9204  -6.9059  -6.8893  -6.8604  -6.8268  -6.8216  -6.8195  -6.8113
    -6.7841  -6.7790  -6.7596  -6.7370  -6.7333  -6.7249  -6.7101  -6.7040
    -6.6843  -6.6623  -6.6600  -6.6580  -6.6527  -6.6324  -6.6184  -6.6101
    -6.6058  -6.6028  -6.5923  -6.5797  -6.5633  -6.5573  -6.5537  -6.5532
    -6.5513  -6.5491  -6.5474  -6.5446  -6.5388  -6.5359  -6.5359  -6.5357
    -6.5356  -6.5354  -6.5350  -6.5262  -6.5215  -6.4888  -6.4805  -6.4802
    -6.4569  -6.4485  -6.4477  -6.4460  -6.4268  -6.4023  -6.3740  -6.3728
    -6.3702  -6.3691  -6.3686  -6.3662  -6.3422  -6.3404  -6.3324  -6.3306
    -6.3286  -6.3262  -6.3145  -6.3125  -6.3022  -6.2968  -6.2921  -6.2915
    -6.2905  -6.2885  -6.2840  -6.2775  -6.2285  -6.2207  -6.1233  -6.0850
    -5.9480  -5.8109  -5.7388  -5.6653  -5.5519  -5.4663  -5.3821  -5.2424
    -5.1813  -4.3181  -4.1702  -3.9115  -3.8968  -3.8929  -3.8817  -3.8746
    -3.8698  -3.8686  -3.8671  -3.8635  -3.8615  -3.8428  -3.8373  -3.7780
    -3.7557  -3.7467  -3.7302  -3.7261  -3.7236  -3.7174  -3.7154  -3.7087
    -3.7067  -3.6317  -3.6133  -3.5789  -3.5651  -3.5553  -3.5484  -3.5398
    -3.5271  -3.5246  -3.5144  -3.5114  -3.5094  -3.5073  -3.5063  -3.4986
    -3.4965  -3.4918  -3.4815  -3.4808  -3.4802  -3.4783  -3.4752  -3.4671
    -3.4656  -3.4641  -3.4615  -3.4570  -3.4512  -3.4469  -3.4456  -3.4428
    -3.4388  -3.4361  -3.4307  -3.4298  -3.4202  -3.4024  -3.3967  -3.3948
    -3.3924  -3.3882  -3.3838  -3.3820  -3.3783  -3.3714  -3.3617  -3.3502
    -3.3432  -3.3396  -3.3304  -3.3239  -3.3234  -3.3189  -3.3138  -3.3000
    -3.2808  -3.2542  -3.2500  -3.2375  -3.2285  -3.1605  -3.1342  -3.1198
    -3.1087  -3.1034  -3.0991  -3.0975  -3.0935  -3.0883  -3.0807  -3.0755
    -3.0488  -3.0341  -3.0281  -3.0231  -3.0159  -3.0128  -3.0119  -3.0075
    -3.0033  -3.0022  -3.0008  -3.0003  -2.9968  -2.9930  -2.9915  -2.9910
    -2.9844  -2.9807  -2.9740  -2.9724  -2.9718  -2.9704  -2.9696  -2.9691
    -2.9682  -2.9628  -2.9617  -2.9538  -2.9436  -2.9310  -2.9262  -2.9242
    -2.9140  -2.9045  -2.8997  -2.8831  -2.8443  -2.8443  -2.8441  -2.8440
    -2.8437  -2.8436  -2.8435  -2.8411  -2.8402  -2.8314  -2.8228  -2.8205
    -2.8097  -2.7907  -2.7801  -2.7735  -2.7721  -2.7625  -2.7569  -2.7256
    -2.7119  -2.7067  -2.6781  -2.6769  -2.6672  -2.6649  -2.6618  -2.6570
    -2.6557  -2.6479  -2.6221  -2.5939  -2.5882  -2.5837  -2.5763  -2.5587
    -2.4962  -2.4908  -2.4884  -2.4815  -2.4674  -2.4644  -2.4488  -2.4449

          k = 0.0000-0.5773 0.0000 (386352 PWs)   bands (ev):

  -103.0089-102.0948 -88.9587 -71.3773 -71.3662 -71.3317 -71.2942 -71.2899
   -71.2734 -71.2715 -70.5230 -70.5057 -70.4667 -70.4116 -70.3981 -70.3735
   -70.3698 -66.6606 -66.6566 -66.6566 -66.6565 -66.6564 -66.6559 -66.6553
   -66.6553 -66.6459 -66.6459 -66.6459 -66.6458 -66.6446 -66.6446 -66.6413
   -66.6364 -66.6309 -66.6308 -66.6308 -66.6308 -66.6308 -66.6308 -66.6307
   -66.6305 -66.6295 -66.6295 -66.6295 -66.6295 -66.6271 -66.6264 -66.6264
   -66.6263 -66.6262 -66.6257 -66.6250 -66.6250 -66.6225 -66.6202 -66.6202
   -66.6201 -66.6201 -66.6201 -66.6201 -66.6200 -66.6197 -66.6188 -66.6188
   -66.6188 -66.6188 -66.6188 -66.6157 -66.6157 -66.6156 -66.6155 -66.6149
   -66.6143 -66.6143 -66.6093 -66.6031 -66.6009 -66.5921 -66.5827 -66.5778
   -66.5401 -57.3803 -57.2347 -57.0409 -56.6239 -56.2730 -55.9810 -54.8075
   -54.7597 -54.6742 -40.9586 -40.9586 -40.9586 -40.9586 -40.9585 -40.9585
   -40.9585 -40.9583 -40.9582 -40.9579 -40.9579 -40.9579 -40.9579 -40.9497
   -40.9370 -40.9318 -40.9318 -40.9317 -40.9316 -40.9310 -40.9310 -40.9285
   -40.9211 -40.9197 -40.9197 -40.9196 -40.9196 -40.9190 -40.9190 -40.9120
   -40.8957 -40.8896 -40.8690 -40.8690 -40.8690 -40.8690 -40.8690 -40.8689
   -40.8689 -40.8689 -40.8682 -40.8682 -40.8682 -40.8682 -40.8546 -40.8474
   -40.8459 -40.8401 -40.8382 -40.8158 -40.8123 -40.8103 -40.8102 -40.8102
   -40.8100 -40.8096 -40.8095 -40.8007 -40.8007 -40.8007 -40.8006 -40.7998
   -40.7998 -40.7939 -40.7894 -40.7893 -40.7893 -40.7893 -40.7887 -40.7887
   -40.7809 -40.7783 -40.7737 -40.7711 -40.7661 -40.7604 -40.7598 -40.7598
   -40.7597 -40.7597 -40.7597 -40.7597 -40.7596 -40.7595 -40.7590 -40.7590
   -40.7590 -40.7590 -40.7538 -40.7511 -40.7510 -40.7510 -40.7508 -40.7503
   -40.7503 -40.7486 -40.7457 -40.7411 -40.7392 -40.7392 -40.7392 -40.7391
   -40.7389 -40.7388 -40.7388 -40.7387 -40.7386 -40.7386 -40.7386 -40.7383
   -40.7383 -40.7382 -40.7380 -40.7380 -40.7379 -40.7379 -40.7309 -40.7300
   -40.7300 -40.7300 -40.7299 -40.7293 -40.7293 -40.7285 -40.7232 -40.7161
   -40.7139 -40.7084 -40.7083 -40.7083 -40.7083 -40.7082 -40.7082 -40.7082
   -40.7080 -40.7073 -40.7073 -40.7073 -40.7073 -40.6998 -40.6971 -40.6881
   -40.6820 -40.6736 -40.6736 -40.6735 -40.6735 -40.6735 -40.6735 -40.6734
   -40.6734 -40.6726 -40.6726 -40.6726 -40.6726 -40.6694 -40.6615 -40.6614
   -40.6614 -40.6612 -40.6604 -40.6604 -40.6553 -40.6538 -40.6477 -40.6448
   -40.6422 -40.6421 -40.6421 -40.6420 -40.6419 -40.6411 -40.6411 -40.6283
   -40.6262 -40.6251 -40.6251 -40.6251 -40.6250 -40.6241 -40.6241 -40.6136
   -40.5945 -40.5944 -40.5944 -40.5943 -40.5934 -40.5934 -40.5916 -40.5880
   -40.5794 -40.5499 -20.3653 -19.9297 -19.9104 -19.8716 -19.8188 -19.7787
   -19.7117 -19.6864 -19.6452 -19.5381 -19.4733 -19.4626 -19.3877 -19.3687
   -19.2842 -19.2672 -19.2068 -18.9503 -18.8754 -18.8515 -18.8221 -18.7899
   -18.7623 -18.7601 -18.7556 -18.7528 -18.7457 -18.7166 -18.6966 -18.6904
   -18.6848 -18.6765 -18.6350 -18.6227 -18.6128 -18.5995 -18.5922 -18.5873
   -18.5834 -18.5632 -18.5512 -18.5343 -18.5233 -18.5165 -18.5071 -18.4874
   -18.4709 -18.4510 -18.4463 -18.4405 -18.4186 -18.3992 -18.3871 -18.3698
   -18.3581 -18.3235 -18.3103 -18.2946 -18.2866 -18.2725 -18.2566 -18.2269
   -18.2201 -18.2134 -18.1909 -18.1719 -18.1647 -18.1529 -18.1405 -18.1393
   -18.1368 -18.1345 -18.1268 -18.1143 -18.1108 -18.1089 -18.1068 -18.1031
   -18.1013 -18.0940 -18.0909 -18.0859 -18.0791 -18.0687 -18.0501 -18.0466
   -18.0433 -18.0411 -18.0377 -18.0365 -18.0347 -18.0279 -18.0262 -18.0177
   -17.9920 -17.9844 -17.9758 -17.9742 -17.9659 -17.9603 -17.9320 -17.9302
   -17.9259 -17.9154 -17.9059 -17.8879 -17.8860 -17.8795 -17.8760 -17.8749
   -17.8578 -17.8574 -17.8572 -17.8560 -17.8550 -17.8543 -17.8447 -17.8420
   -17.8259 -17.8214 -17.8004 -17.7967 -17.7808 -17.7760 -17.7653 -17.7618
   -17.7571 -17.7566 -12.4746 -12.3100 -11.8055 -11.7669 -11.7313 -11.6982
   -11.6391 -11.5638 -11.5604 -11.5388 -11.5364 -11.5338 -11.5211 -11.5101
   -11.5005 -11.4968 -11.4734 -11.4446 -11.4331 -11.4261 -11.4157 -11.3874
   -11.3823 -11.3734 -11.3531 -11.3429 -11.3298 -11.3155 -11.3110 -11.3031
   -11.2979 -11.2962 -11.2914 -11.2767 -11.2518 -11.2442 -11.2384 -11.2292
   -11.2219 -11.2174 -11.2077 -11.2068 -11.1969 -11.1859 -11.1828 -11.1722
   -11.1648 -11.1538 -11.1278 -11.1213 -11.1038 -11.0781 -11.0560 -11.0331
   -10.9993 -10.9984 -10.9776 -10.9594 -10.9545 -10.9438 -10.9356 -10.9212
   -10.9027 -10.8914 -10.8737 -10.8723 -10.8677 -10.8647 -10.8512 -10.8497
   -10.8484 -10.8479 -10.8454 -10.8404 -10.8363 -10.8350 -10.8303 -10.8297
   -10.8232 -10.8211 -10.8204 -10.8165 -10.7867 -10.7813 -10.7809 -10.7803
   -10.7737 -10.7305 -10.6316 -10.5937 -10.5799 -10.5676 -10.5560 -10.5419
   -10.5151 -10.4658 -10.4349 -10.3976 -10.3159 -10.2928 -10.2761 -10.2384
   -10.2012 -10.1740 -10.1628 -10.1577 -10.1484 -10.1402 -10.1188 -10.0965
   -10.0902 -10.0811 -10.0750 -10.0708 -10.0655 -10.0590 -10.0440 -10.0396
    -9.9995  -9.9865  -9.9686  -9.9645  -9.9544  -9.9453  -9.9433  -9.9353
    -9.9277  -9.9152  -9.8967  -9.8827  -9.8726  -9.8553  -9.8400  -9.8223
    -9.8163  -9.8108  -9.7964  -9.7789  -9.7744  -9.7562  -9.7367  -9.7254
    -9.7090  -9.6990  -9.6759  -9.6668  -9.6640  -9.6497  -9.6408  -9.6138
    -9.6020  -9.5978  -9.5943  -9.5850  -9.5780  -9.5598  -9.5309  -9.5295
    -9.5282  -9.5252  -9.5137  -9.5064  -9.5008  -9.4972  -9.4941  -9.4840
    -9.4720  -9.4641  -9.4283  -9.4249  -9.4179  -9.3798  -9.3629  -9.3462
    -9.3097  -9.2775  -9.2685  -9.2630  -9.2564  -9.2471  -9.2406  -9.2326
    -9.2091  -9.1960  -9.1867  -9.1795  -9.1615  -9.1493  -9.1329  -9.1264
    -9.1056  -9.1025  -9.1002  -9.0857  -9.0807  -9.0768  -9.0581  -9.0529
    -9.0225  -9.0131  -9.0018  -8.9934  -8.9841  -8.9810  -8.9760  -8.9628
    -8.9559  -8.9445  -8.9292  -8.9273  -8.9261  -8.9244  -8.9239  -8.9180
    -8.9089  -8.9067  -8.9059  -8.8984  -8.8964  -8.8880  -8.8851  -8.8775
    -8.8772  -8.8721  -8.8699  -8.8552  -8.8332  -8.8316  -8.8309  -8.8286
    -8.8225  -8.8209  -8.8030  -8.8012  -8.7996  -8.7799  -8.7734  -8.7703
    -8.7696  -8.7601  -8.7542  -8.7328  -8.6975  -8.6913  -8.6882  -8.6545
    -8.6056  -8.5441  -8.5420  -8.5162  -8.4981  -8.4774  -8.4721  -8.4277
    -8.3958  -8.3835  -8.3405  -8.3109  -8.2924  -8.2474  -8.2429  -8.1651
    -8.1650  -8.1584  -8.1563  -8.1559  -8.1449  -8.1447  -8.1305  -8.1122
    -8.0976  -8.0720  -8.0238  -8.0112  -8.0061  -7.9931  -7.9555  -7.9452
    -7.8939  -7.8820  -7.8813  -7.8726  -7.8680  -7.8598  -7.8570  -7.8530
    -7.8468  -7.8423  -7.8388  -7.8369  -7.8338  -7.8274  -7.8254  -7.8214
    -7.8192  -7.8181  -7.8089  -7.8075  -7.8050  -7.8031  -7.8022  -7.8021
    -7.7998  -7.7964  -7.7950  -7.7917  -7.7748  -7.7733  -7.7710  -7.7675
    -7.7622  -7.7576  -7.7360  -7.7345  -7.7337  -7.7331  -7.7169  -7.7040
    -7.7033  -7.7023  -7.7019  -7.6931  -7.6872  -7.6703  -7.6567  -7.6494
    -7.6467  -7.6454  -7.6400  -7.6379  -7.6366  -7.6234  -7.6224  -7.6120
    -7.6026  -7.6015  -7.6009  -7.5982  -7.5888  -7.5824  -7.5417  -7.5091
    -7.5021  -7.4964  -7.4927  -7.4743  -7.4721  -7.4653  -7.4089  -7.3467
    -7.2782  -7.2701  -7.2117  -7.2091  -7.2050  -7.2031  -7.1791  -7.1748
    -7.1657  -7.1521  -7.1453  -7.1285  -7.1189  -7.1068  -7.0902  -7.0731
    -7.0642  -7.0530  -7.0425  -7.0301  -7.0249  -7.0139  -6.9934  -6.9713
    -6.9571  -6.9527  -6.9497  -6.9382  -6.9288  -6.9110  -6.8976  -6.8952
    -6.8822  -6.8756  -6.8595  -6.8437  -6.8179  -6.7947  -6.7758  -6.7341
    -6.7277  -6.7195  -6.6780  -6.6731  -6.6634  -6.6533  -6.6502  -6.6437
    -6.6426  -6.6411  -6.6393  -6.6261  -6.6256  -6.6239  -6.6236  -6.6166
    -6.6164  -6.6161  -6.6159  -6.6107  -6.5836  -6.5635  -6.5463  -6.5255
    -6.4797  -6.4695  -6.4516  -6.4051  -6.3922  -6.3679  -6.3621  -6.3540
    -6.3522  -6.3391  -6.3292  -6.3192  -6.3154  -6.3148  -6.3104  -6.3101
    -6.2997  -6.2978  -6.2916  -6.2894  -6.2778  -6.2603  -6.2439  -6.2427
    -6.2395  -6.2340  -6.2032  -6.1814  -6.1143  -6.0831  -6.0292  -6.0248
    -5.9790  -5.9650  -5.9434  -5.9063  -5.8922  -5.8796  -5.8558  -5.8329
    -5.7826  -5.7119  -5.6900  -5.6625  -5.6258  -5.6159  -5.5805  -5.4198
    -5.2323  -4.3066  -4.2042  -4.1329  -4.1269  -4.0936  -4.0787  -3.9758
    -3.9661  -3.9609  -3.9526  -3.8953  -3.8888  -3.8803  -3.8773  -3.8682
    -3.8618  -3.8503  -3.8464  -3.8356  -3.8347  -3.8074  -3.7826  -3.7385
    -3.7212  -3.6912  -3.6706  -3.6548  -3.6415  -3.6400  -3.6338  -3.6186
    -3.6003  -3.5916  -3.5886  -3.5815  -3.5660  -3.5593  -3.5513  -3.5440
    -3.5430  -3.5233  -3.5211  -3.5204  -3.5105  -3.5093  -3.5030  -3.4963
    -3.4900  -3.4864  -3.4843  -3.4658  -3.4605  -3.4554  -3.4476  -3.4374
    -3.4234  -3.3915  -3.3879  -3.3866  -3.3824  -3.3800  -3.3746  -3.3734
    -3.3670  -3.3436  -3.3369  -3.3308  -3.3206  -3.3184  -3.3162  -3.3153
    -3.3136  -3.3066  -3.3002  -3.2868  -3.2813  -3.2764  -3.2724  -3.2631
    -3.2625  -3.2496  -3.2483  -3.2459  -3.2436  -3.2291  -3.2241  -3.2217
    -3.2115  -3.2082  -3.2039  -3.2003  -3.1977  -3.1976  -3.1949  -3.1623
    -3.1454  -3.1332  -3.1254  -3.1146  -3.1044  -3.1010  -3.0944  -3.0735
    -3.0668  -3.0612  -3.0583  -3.0566  -3.0562  -3.0559  -3.0494  -3.0458
    -3.0430  -3.0417  -3.0365  -3.0352  -3.0307  -3.0267  -3.0235  -3.0183
    -3.0105  -3.0055  -3.0033  -3.0006  -2.9940  -2.9868  -2.9828  -2.9810
    -2.9754  -2.9702  -2.9673  -2.9643  -2.9474  -2.9416  -2.9385  -2.9288
    -2.9256  -2.9183  -2.9128  -2.9056  -2.8842  -2.8757  -2.8373  -2.8320
    -2.8251  -2.8184  -2.7841  -2.7534  -2.7501  -2.7421  -2.6663  -2.6485
    -2.6328  -2.6180  -2.6114  -2.6061  -2.5889  -2.5814  -2.5710  -2.5652
    -2.5633  -2.5609  -2.5575  -2.5475  -2.5114  -2.4764  -2.4534  -2.4321
    -2.4309  -2.4285  -2.4229  -2.4217  -2.4178  -2.3993  -2.3795  -2.3776

          k =-0.5000-0.2887 0.0000 (386352 PWs)   bands (ev):

  -103.0089-102.0948 -88.9587 -71.3773 -71.3662 -71.3317 -71.2942 -71.2899
   -71.2734 -71.2715 -70.5230 -70.5057 -70.4667 -70.4116 -70.3981 -70.3735
   -70.3698 -66.6588 -66.6584 -66.6566 -66.6565 -66.6565 -66.6565 -66.6553
   -66.6552 -66.6459 -66.6459 -66.6459 -66.6458 -66.6446 -66.6446 -66.6404
   -66.6339 -66.6325 -66.6308 -66.6308 -66.6308 -66.6308 -66.6308 -66.6308
   -66.6307 -66.6306 -66.6295 -66.6295 -66.6295 -66.6295 -66.6264 -66.6263
   -66.6263 -66.6263 -66.6251 -66.6250 -66.6235 -66.6210 -66.6202 -66.6201
   -66.6201 -66.6201 -66.6200 -66.6200 -66.6200 -66.6199 -66.6190 -66.6188
   -66.6188 -66.6188 -66.6187 -66.6160 -66.6157 -66.6157 -66.6156 -66.6155
   -66.6143 -66.6143 -66.6091 -66.6036 -66.6000 -66.5925 -66.5826 -66.5778
   -66.5401 -57.3803 -57.2347 -57.0409 -56.6239 -56.2730 -55.9810 -54.8075
   -54.7597 -54.6742 -40.9586 -40.9586 -40.9585 -40.9585 -40.9585 -40.9585
   -40.9585 -40.9584 -40.9579 -40.9579 -40.9579 -40.9579 -40.9564 -40.9547
   -40.9326 -40.9318 -40.9317 -40.9317 -40.9317 -40.9310 -40.9310 -40.9259
   -40.9238 -40.9197 -40.9197 -40.9196 -40.9196 -40.9190 -40.9190 -40.9121
   -40.8992 -40.8854 -40.8690 -40.8690 -40.8690 -40.8690 -40.8690 -40.8689
   -40.8689 -40.8689 -40.8682 -40.8682 -40.8682 -40.8682 -40.8539 -40.8508
   -40.8455 -40.8414 -40.8358 -40.8215 -40.8102 -40.8102 -40.8101 -40.8101
   -40.8096 -40.8095 -40.8080 -40.8007 -40.8007 -40.8007 -40.8006 -40.7998
   -40.7998 -40.7898 -40.7894 -40.7893 -40.7893 -40.7893 -40.7887 -40.7887
   -40.7852 -40.7809 -40.7741 -40.7709 -40.7650 -40.7598 -40.7597 -40.7597
   -40.7597 -40.7597 -40.7597 -40.7596 -40.7596 -40.7590 -40.7590 -40.7590
   -40.7590 -40.7564 -40.7551 -40.7510 -40.7510 -40.7510 -40.7509 -40.7507
   -40.7503 -40.7503 -40.7430 -40.7407 -40.7392 -40.7392 -40.7392 -40.7391
   -40.7388 -40.7388 -40.7387 -40.7387 -40.7386 -40.7386 -40.7386 -40.7385
   -40.7383 -40.7383 -40.7380 -40.7379 -40.7379 -40.7379 -40.7318 -40.7300
   -40.7300 -40.7300 -40.7299 -40.7293 -40.7293 -40.7284 -40.7198 -40.7162
   -40.7142 -40.7084 -40.7083 -40.7083 -40.7083 -40.7083 -40.7082 -40.7082
   -40.7081 -40.7074 -40.7073 -40.7073 -40.7073 -40.6975 -40.6935 -40.6879
   -40.6830 -40.6800 -40.6736 -40.6736 -40.6735 -40.6735 -40.6735 -40.6735
   -40.6735 -40.6734 -40.6726 -40.6726 -40.6726 -40.6726 -40.6614 -40.6614
   -40.6614 -40.6613 -40.6604 -40.6604 -40.6586 -40.6535 -40.6472 -40.6451
   -40.6421 -40.6421 -40.6420 -40.6419 -40.6411 -40.6411 -40.6404 -40.6263
   -40.6251 -40.6251 -40.6251 -40.6250 -40.6241 -40.6241 -40.6200 -40.6198
   -40.5959 -40.5945 -40.5944 -40.5944 -40.5943 -40.5934 -40.5934 -40.5832
   -40.5743 -40.5536 -20.3634 -19.9342 -19.9105 -19.8778 -19.8191 -19.7835
   -19.7112 -19.6881 -19.6401 -19.5160 -19.4733 -19.4567 -19.3881 -19.3637
   -19.2880 -19.2652 -19.2286 -18.9541 -18.8808 -18.8389 -18.8158 -18.8132
   -18.7622 -18.7602 -18.7573 -18.7555 -18.7328 -18.7222 -18.6951 -18.6909
   -18.6838 -18.6812 -18.6354 -18.6220 -18.6106 -18.5939 -18.5937 -18.5861
   -18.5787 -18.5659 -18.5553 -18.5267 -18.5200 -18.5162 -18.5080 -18.4840
   -18.4629 -18.4492 -18.4470 -18.4399 -18.4214 -18.3953 -18.3919 -18.3684
   -18.3613 -18.3244 -18.3072 -18.3039 -18.2869 -18.2747 -18.2522 -18.2300
   -18.2246 -18.2107 -18.1889 -18.1727 -18.1626 -18.1546 -18.1415 -18.1396
   -18.1366 -18.1354 -18.1271 -18.1138 -18.1121 -18.1096 -18.1077 -18.1024
   -18.1007 -18.0961 -18.0887 -18.0856 -18.0791 -18.0695 -18.0487 -18.0481
   -18.0438 -18.0410 -18.0376 -18.0367 -18.0346 -18.0277 -18.0254 -18.0191
   -17.9877 -17.9839 -17.9785 -17.9740 -17.9677 -17.9607 -17.9307 -17.9289
   -17.9266 -17.9162 -17.9044 -17.8885 -17.8842 -17.8792 -17.8781 -17.8742
   -17.8573 -17.8570 -17.8568 -17.8558 -17.8555 -17.8549 -17.8437 -17.8410
   -17.8252 -17.8198 -17.8008 -17.7961 -17.7820 -17.7762 -17.7660 -17.7630
   -17.7572 -17.7568 -12.4763 -12.2862 -11.8191 -11.7684 -11.7523 -11.6967
   -11.6615 -11.5653 -11.5599 -11.5463 -11.5368 -11.5358 -11.5205 -11.5146
   -11.5007 -11.4949 -11.4718 -11.4450 -11.4289 -11.4219 -11.4180 -11.3912
   -11.3832 -11.3716 -11.3571 -11.3428 -11.3317 -11.3145 -11.3110 -11.3037
   -11.2985 -11.2942 -11.2921 -11.2720 -11.2541 -11.2419 -11.2388 -11.2324
   -11.2195 -11.2134 -11.2085 -11.2039 -11.1975 -11.1861 -11.1800 -11.1729
   -11.1641 -11.1523 -11.1213 -11.1142 -11.0991 -11.0722 -11.0480 -11.0285
   -10.9951 -10.9921 -10.9737 -10.9675 -10.9526 -10.9506 -10.9396 -10.9157
   -10.9123 -10.8988 -10.8747 -10.8722 -10.8676 -10.8618 -10.8528 -10.8492
   -10.8483 -10.8482 -10.8455 -10.8403 -10.8367 -10.8345 -10.8308 -10.8297
   -10.8268 -10.8214 -10.8201 -10.8178 -10.8053 -10.7813 -10.7809 -10.7804
   -10.7793 -10.7145 -10.6318 -10.5878 -10.5744 -10.5620 -10.5590 -10.5329
   -10.4969 -10.4635 -10.4300 -10.3866 -10.3172 -10.2843 -10.2772 -10.2271
   -10.2099 -10.1805 -10.1613 -10.1540 -10.1526 -10.1427 -10.1042 -10.0959
   -10.0928 -10.0841 -10.0741 -10.0723 -10.0623 -10.0504 -10.0481 -10.0428
   -10.0000  -9.9810  -9.9715  -9.9608  -9.9523  -9.9461  -9.9358  -9.9316
    -9.9291  -9.9103  -9.9009  -9.8894  -9.8751  -9.8550  -9.8354  -9.8276
    -9.8148  -9.8093  -9.7908  -9.7811  -9.7707  -9.7491  -9.7418  -9.7344
    -9.7128  -9.6971  -9.6843  -9.6708  -9.6629  -9.6565  -9.6383  -9.6195
    -9.6084  -9.6044  -9.5932  -9.5819  -9.5798  -9.5616  -9.5345  -9.5317
    -9.5291  -9.5248  -9.5115  -9.5108  -9.5014  -9.4977  -9.4959  -9.4910
    -9.4742  -9.4653  -9.4375  -9.4298  -9.4191  -9.3856  -9.3691  -9.3495
    -9.3024  -9.2783  -9.2692  -9.2660  -9.2509  -9.2460  -9.2438  -9.2193
    -9.2134  -9.1935  -9.1859  -9.1805  -9.1546  -9.1533  -9.1371  -9.1261
    -9.1119  -9.1029  -9.0946  -9.0846  -9.0782  -9.0738  -9.0633  -9.0501
    -9.0252  -9.0096  -9.0025  -8.9969  -8.9900  -8.9833  -8.9763  -8.9693
    -8.9512  -8.9449  -8.9303  -8.9274  -8.9266  -8.9251  -8.9238  -8.9166
    -8.9102  -8.9065  -8.9060  -8.8970  -8.8966  -8.8928  -8.8845  -8.8781
    -8.8775  -8.8759  -8.8675  -8.8561  -8.8472  -8.8313  -8.8297  -8.8279
    -8.8234  -8.8231  -8.8169  -8.8011  -8.7988  -8.7746  -8.7706  -8.7696
    -8.7665  -8.7597  -8.7496  -8.7121  -8.6963  -8.6948  -8.6866  -8.6658
    -8.5887  -8.5627  -8.5430  -8.5390  -8.4998  -8.4767  -8.4613  -8.4192
    -8.3926  -8.3804  -8.3343  -8.3293  -8.3043  -8.2377  -8.1775  -8.1697
    -8.1650  -8.1646  -8.1561  -8.1553  -8.1448  -8.1444  -8.1305  -8.1083
    -8.0892  -8.0867  -8.0425  -8.0094  -8.0057  -7.9821  -7.9515  -7.9268
    -7.9046  -7.8839  -7.8785  -7.8757  -7.8679  -7.8650  -7.8574  -7.8507
    -7.8460  -7.8432  -7.8398  -7.8333  -7.8323  -7.8266  -7.8214  -7.8195
    -7.8189  -7.8176  -7.8086  -7.8072  -7.8046  -7.8028  -7.8018  -7.8013
    -7.7987  -7.7962  -7.7945  -7.7923  -7.7790  -7.7711  -7.7695  -7.7673
    -7.7655  -7.7524  -7.7353  -7.7344  -7.7337  -7.7332  -7.7127  -7.7046
    -7.7038  -7.7030  -7.7017  -7.6890  -7.6876  -7.6765  -7.6665  -7.6476
    -7.6459  -7.6451  -7.6421  -7.6397  -7.6319  -7.6231  -7.6228  -7.6119
    -7.6036  -7.6016  -7.6004  -7.5943  -7.5921  -7.5847  -7.5428  -7.5080
    -7.5008  -7.4987  -7.4938  -7.4869  -7.4711  -7.4500  -7.4040  -7.3555
    -7.2668  -7.2542  -7.2310  -7.2083  -7.2052  -7.2042  -7.1979  -7.1614
    -7.1529  -7.1513  -7.1379  -7.1285  -7.1239  -7.1073  -7.0772  -7.0716
    -7.0621  -7.0560  -7.0410  -7.0330  -7.0163  -7.0099  -6.9914  -6.9786
    -6.9689  -6.9529  -6.9495  -6.9322  -6.9253  -6.9058  -6.8990  -6.8962
    -6.8894  -6.8787  -6.8728  -6.8388  -6.8206  -6.8001  -6.7856  -6.7769
    -6.7316  -6.7159  -6.7144  -6.6738  -6.6647  -6.6562  -6.6484  -6.6436
    -6.6432  -6.6415  -6.6376  -6.6291  -6.6259  -6.6253  -6.6242  -6.6223
    -6.6164  -6.6164  -6.6160  -6.6158  -6.5902  -6.5721  -6.5407  -6.5278
    -6.4732  -6.4592  -6.4397  -6.4069  -6.3800  -6.3638  -6.3609  -6.3544
    -6.3523  -6.3444  -6.3303  -6.3212  -6.3148  -6.3144  -6.3099  -6.3098
    -6.3001  -6.2941  -6.2918  -6.2782  -6.2606  -6.2486  -6.2444  -6.2402
    -6.2389  -6.2318  -6.2075  -6.1685  -6.1282  -6.0389  -6.0290  -6.0102
    -5.9782  -5.9623  -5.9322  -5.9100  -5.8896  -5.8839  -5.8738  -5.8311
    -5.7964  -5.7542  -5.7036  -5.6619  -5.6289  -5.6060  -5.5395  -5.4245
    -5.2372  -4.3233  -4.1750  -4.1412  -4.1313  -4.0956  -4.0715  -3.9866
    -3.9722  -3.9628  -3.9578  -3.8986  -3.8875  -3.8794  -3.8781  -3.8666
    -3.8650  -3.8496  -3.8486  -3.8355  -3.8353  -3.8051  -3.7765  -3.7486
    -3.7342  -3.6948  -3.6654  -3.6525  -3.6387  -3.6367  -3.6344  -3.6132
    -3.5935  -3.5897  -3.5873  -3.5701  -3.5629  -3.5610  -3.5556  -3.5474
    -3.5441  -3.5292  -3.5220  -3.5180  -3.5129  -3.5104  -3.5044  -3.4991
    -3.4878  -3.4849  -3.4822  -3.4688  -3.4640  -3.4530  -3.4511  -3.4332
    -3.4279  -3.3922  -3.3888  -3.3870  -3.3817  -3.3786  -3.3765  -3.3741
    -3.3673  -3.3436  -3.3377  -3.3255  -3.3191  -3.3173  -3.3152  -3.3141
    -3.3127  -3.3080  -3.2960  -3.2847  -3.2785  -3.2739  -3.2672  -3.2638
    -3.2596  -3.2525  -3.2480  -3.2442  -3.2380  -3.2300  -3.2234  -3.2211
    -3.2147  -3.2092  -3.2041  -3.1977  -3.1976  -3.1968  -3.1802  -3.1596
    -3.1363  -3.1316  -3.1246  -3.1176  -3.1091  -3.1001  -3.0952  -3.0726
    -3.0662  -3.0615  -3.0579  -3.0571  -3.0564  -3.0558  -3.0499  -3.0478
    -3.0437  -3.0386  -3.0372  -3.0293  -3.0277  -3.0251  -3.0190  -3.0158
    -3.0131  -3.0076  -3.0065  -3.0031  -2.9981  -2.9883  -2.9831  -2.9814
    -2.9790  -2.9701  -2.9670  -2.9543  -2.9489  -2.9428  -2.9338  -2.9284
    -2.9232  -2.9177  -2.9123  -2.9085  -2.8966  -2.8829  -2.8425  -2.8322
    -2.8264  -2.8197  -2.7789  -2.7691  -2.7567  -2.7340  -2.6609  -2.6471
    -2.6314  -2.6212  -2.6142  -2.6079  -2.5934  -2.5808  -2.5734  -2.5679
    -2.5650  -2.5610  -2.5601  -2.5452  -2.5232  -2.4623  -2.4552  -2.4335
    -2.4300  -2.4274  -2.4208  -2.4183  -2.4171  -2.3889  -2.3798  -2.3770

          k =-0.5000-0.8660 0.0000 (386352 PWs)   bands (ev):

  -103.0089-102.0948 -88.9587 -71.3773 -71.3662 -71.3317 -71.2942 -71.2899
   -71.2734 -71.2715 -70.5230 -70.5057 -70.4667 -70.4116 -70.3981 -70.3735
   -70.3698 -66.6596 -66.6574 -66.6566 -66.6566 -66.6566 -66.6564 -66.6553
   -66.6552 -66.6459 -66.6459 -66.6459 -66.6458 -66.6446 -66.6446 -66.6413
   -66.6359 -66.6311 -66.6309 -66.6308 -66.6308 -66.6308 -66.6308 -66.6305
   -66.6305 -66.6295 -66.6295 -66.6295 -66.6295 -66.6280 -66.6264 -66.6264
   -66.6264 -66.6262 -66.6251 -66.6250 -66.6243 -66.6214 -66.6204 -66.6201
   -66.6201 -66.6201 -66.6201 -66.6201 -66.6198 -66.6197 -66.6190 -66.6188
   -66.6188 -66.6187 -66.6187 -66.6171 -66.6157 -66.6157 -66.6156 -66.6155
   -66.6143 -66.6143 -66.6090 -66.6032 -66.6004 -66.5922 -66.5826 -66.5779
   -66.5401 -57.3803 -57.2347 -57.0409 -56.6239 -56.2730 -55.9810 -54.8075
   -54.7597 -54.6742 -40.9587 -40.9586 -40.9586 -40.9585 -40.9585 -40.9585
   -40.9584 -40.9583 -40.9579 -40.9579 -40.9579 -40.9579 -40.9551 -40.9421
   -40.9390 -40.9338 -40.9318 -40.9317 -40.9317 -40.9316 -40.9310 -40.9310
   -40.9286 -40.9197 -40.9197 -40.9196 -40.9196 -40.9190 -40.9190 -40.9138
   -40.9037 -40.8770 -40.8690 -40.8690 -40.8690 -40.8690 -40.8690 -40.8689
   -40.8689 -40.8689 -40.8682 -40.8682 -40.8682 -40.8682 -40.8590 -40.8470
   -40.8434 -40.8356 -40.8337 -40.8215 -40.8102 -40.8102 -40.8102 -40.8101
   -40.8096 -40.8095 -40.8056 -40.8007 -40.8007 -40.8007 -40.8006 -40.7998
   -40.7998 -40.7910 -40.7894 -40.7893 -40.7893 -40.7893 -40.7887 -40.7887
   -40.7886 -40.7833 -40.7738 -40.7659 -40.7641 -40.7599 -40.7599 -40.7597
   -40.7597 -40.7597 -40.7597 -40.7597 -40.7595 -40.7595 -40.7590 -40.7590
   -40.7590 -40.7590 -40.7541 -40.7521 -40.7510 -40.7510 -40.7510 -40.7509
   -40.7503 -40.7503 -40.7428 -40.7411 -40.7392 -40.7392 -40.7392 -40.7391
   -40.7389 -40.7388 -40.7387 -40.7387 -40.7387 -40.7386 -40.7384 -40.7384
   -40.7383 -40.7383 -40.7380 -40.7380 -40.7379 -40.7379 -40.7310 -40.7300
   -40.7300 -40.7300 -40.7300 -40.7293 -40.7293 -40.7282 -40.7245 -40.7158
   -40.7158 -40.7086 -40.7083 -40.7083 -40.7083 -40.7083 -40.7082 -40.7081
   -40.7080 -40.7074 -40.7074 -40.7073 -40.7073 -40.6964 -40.6915 -40.6908
   -40.6824 -40.6813 -40.6736 -40.6736 -40.6735 -40.6735 -40.6735 -40.6735
   -40.6734 -40.6734 -40.6726 -40.6726 -40.6726 -40.6726 -40.6614 -40.6614
   -40.6614 -40.6613 -40.6608 -40.6604 -40.6604 -40.6538 -40.6490 -40.6486
   -40.6422 -40.6421 -40.6421 -40.6418 -40.6411 -40.6411 -40.6334 -40.6274
   -40.6251 -40.6251 -40.6251 -40.6249 -40.6244 -40.6241 -40.6241 -40.6103
   -40.5976 -40.5944 -40.5944 -40.5944 -40.5942 -40.5934 -40.5934 -40.5781
   -40.5719 -40.5602 -20.3617 -19.9425 -19.9106 -19.8856 -19.8186 -19.7884
   -19.7074 -19.6893 -19.6066 -19.5129 -19.4733 -19.4559 -19.3905 -19.3634
   -19.2960 -19.2651 -19.2389 -18.9825 -18.9032 -18.8397 -18.8072 -18.7678
   -18.7641 -18.7599 -18.7576 -18.7372 -18.7276 -18.7148 -18.7068 -18.6868
   -18.6828 -18.6611 -18.6456 -18.6430 -18.6265 -18.5971 -18.5938 -18.5864
   -18.5769 -18.5653 -18.5624 -18.5401 -18.5241 -18.5143 -18.5094 -18.4907
   -18.4550 -18.4488 -18.4444 -18.4361 -18.4025 -18.3915 -18.3831 -18.3719
   -18.3636 -18.3300 -18.2997 -18.2922 -18.2870 -18.2643 -18.2552 -18.2286
   -18.2217 -18.2102 -18.2001 -18.1801 -18.1573 -18.1479 -18.1451 -18.1406
   -18.1364 -18.1345 -18.1323 -18.1219 -18.1098 -18.1095 -18.1078 -18.1053
   -18.1006 -18.0919 -18.0893 -18.0842 -18.0805 -18.0779 -18.0493 -18.0464
   -18.0460 -18.0425 -18.0400 -18.0352 -18.0334 -18.0323 -18.0265 -18.0185
   -17.9925 -17.9833 -17.9776 -17.9730 -17.9717 -17.9678 -17.9322 -17.9298
   -17.9263 -17.9201 -17.9000 -17.8878 -17.8839 -17.8812 -17.8752 -17.8621
   -17.8575 -17.8572 -17.8568 -17.8557 -17.8546 -17.8534 -17.8429 -17.8413
   -17.8240 -17.8209 -17.7997 -17.7967 -17.7807 -17.7768 -17.7654 -17.7630
   -17.7571 -17.7568 -12.4728 -12.2786 -11.8080 -11.7809 -11.7521 -11.7330
   -11.6576 -11.6000 -11.5613 -11.5402 -11.5369 -11.5346 -11.5307 -11.5239
   -11.5054 -11.4797 -11.4589 -11.4418 -11.4257 -11.4246 -11.4197 -11.3981
   -11.3677 -11.3606 -11.3550 -11.3407 -11.3190 -11.3123 -11.3117 -11.3084
   -11.2989 -11.2915 -11.2908 -11.2640 -11.2497 -11.2409 -11.2358 -11.2271
   -11.2215 -11.2144 -11.2061 -11.2023 -11.1894 -11.1841 -11.1821 -11.1641
   -11.1600 -11.1382 -11.1310 -11.1213 -11.0937 -11.0833 -11.0635 -11.0367
   -11.0035 -10.9982 -10.9933 -10.9628 -10.9539 -10.9505 -10.9480 -10.9302
   -10.8993 -10.8846 -10.8823 -10.8684 -10.8594 -10.8558 -10.8524 -10.8497
   -10.8490 -10.8485 -10.8468 -10.8419 -10.8375 -10.8322 -10.8307 -10.8296
   -10.8256 -10.8226 -10.8205 -10.8169 -10.7934 -10.7815 -10.7807 -10.7804
   -10.7762 -10.6882 -10.6518 -10.6010 -10.5754 -10.5702 -10.5621 -10.5425
   -10.5023 -10.4533 -10.4303 -10.3719 -10.3183 -10.2773 -10.2601 -10.2203
   -10.1945 -10.1726 -10.1692 -10.1546 -10.1467 -10.1337 -10.1234 -10.1034
   -10.0853 -10.0744 -10.0720 -10.0701 -10.0597 -10.0575 -10.0504 -10.0384
   -10.0155  -9.9793  -9.9712  -9.9705  -9.9664  -9.9383  -9.9339  -9.9285
    -9.9151  -9.9125  -9.8978  -9.8733  -9.8682  -9.8529  -9.8386  -9.8264
    -9.8216  -9.8066  -9.8009  -9.7981  -9.7508  -9.7373  -9.7307  -9.7115
    -9.7037  -9.7018  -9.6910  -9.6810  -9.6621  -9.6457  -9.6444  -9.6369
    -9.6092  -9.6041  -9.5945  -9.5779  -9.5742  -9.5725  -9.5603  -9.5303
    -9.5278  -9.5212  -9.5172  -9.5109  -9.5013  -9.4968  -9.4951  -9.4939
    -9.4804  -9.4768  -9.4613  -9.4482  -9.4344  -9.3903  -9.3670  -9.3248
    -9.3026  -9.2946  -9.2724  -9.2649  -9.2516  -9.2478  -9.2327  -9.2261
    -9.2073  -9.2056  -9.1934  -9.1689  -9.1620  -9.1573  -9.1284  -9.1226
    -9.1163  -9.1041  -9.0880  -9.0831  -9.0805  -9.0707  -9.0375  -9.0324
    -9.0306  -9.0208  -9.0066  -8.9992  -8.9880  -8.9858  -8.9738  -8.9707
    -8.9429  -8.9362  -8.9300  -8.9270  -8.9266  -8.9217  -8.9189  -8.9163
    -8.9084  -8.9064  -8.9052  -8.9002  -8.8969  -8.8952  -8.8915  -8.8829
    -8.8782  -8.8774  -8.8769  -8.8490  -8.8405  -8.8306  -8.8300  -8.8285
    -8.8238  -8.8216  -8.8188  -8.8002  -8.7997  -8.7906  -8.7708  -8.7700
    -8.7695  -8.7571  -8.7459  -8.7173  -8.6992  -8.6893  -8.6860  -8.6426
    -8.6046  -8.5524  -8.5409  -8.5359  -8.4969  -8.4784  -8.4735  -8.4563
    -8.3992  -8.3917  -8.3672  -8.3325  -8.2660  -8.2513  -8.1761  -8.1652
    -8.1651  -8.1572  -8.1567  -8.1486  -8.1455  -8.1433  -8.1356  -8.1106
    -8.0929  -8.0460  -8.0079  -8.0059  -7.9987  -7.9850  -7.9448  -7.9363
    -7.9051  -7.8980  -7.8841  -7.8774  -7.8698  -7.8674  -7.8611  -7.8536
    -7.8473  -7.8416  -7.8382  -7.8371  -7.8350  -7.8320  -7.8208  -7.8193
    -7.8179  -7.8155  -7.8141  -7.8068  -7.8056  -7.8038  -7.8015  -7.8006
    -7.7997  -7.7959  -7.7953  -7.7845  -7.7741  -7.7689  -7.7671  -7.7670
    -7.7633  -7.7351  -7.7345  -7.7339  -7.7337  -7.7124  -7.7058  -7.7046
    -7.7034  -7.7015  -7.6976  -7.6906  -7.6867  -7.6780  -7.6760  -7.6482
    -7.6470  -7.6447  -7.6426  -7.6379  -7.6376  -7.6228  -7.6220  -7.6151
    -7.6087  -7.6019  -7.6015  -7.5954  -7.5915  -7.5756  -7.5679  -7.5196
    -7.5004  -7.4980  -7.4962  -7.4834  -7.4601  -7.4346  -7.3876  -7.3402
    -7.2809  -7.2212  -7.2115  -7.2103  -7.2053  -7.2012  -7.1834  -7.1806
    -7.1614  -7.1486  -7.1461  -7.1355  -7.1319  -7.1164  -7.0871  -7.0771
    -7.0669  -7.0590  -7.0544  -7.0401  -7.0152  -7.0136  -7.0012  -6.9888
    -6.9621  -6.9539  -6.9508  -6.9385  -6.9240  -6.9215  -6.8982  -6.8969
    -6.8894  -6.8596  -6.8466  -6.8345  -6.8195  -6.7946  -6.7803  -6.7694
    -6.7572  -6.7375  -6.7240  -6.6944  -6.6644  -6.6596  -6.6478  -6.6461
    -6.6423  -6.6414  -6.6395  -6.6308  -6.6249  -6.6247  -6.6233  -6.6189
    -6.6163  -6.6162  -6.6159  -6.6147  -6.5936  -6.5873  -6.5610  -6.5260
    -6.4905  -6.4568  -6.4537  -6.3729  -6.3674  -6.3613  -6.3592  -6.3504
    -6.3484  -6.3382  -6.3208  -6.3153  -6.3148  -6.3102  -6.3098  -6.3051
    -6.2935  -6.2925  -6.2848  -6.2736  -6.2641  -6.2451  -6.2424  -6.2386
    -6.2368  -6.2151  -6.1934  -6.1260  -6.1049  -6.0713  -6.0319  -6.0204
    -5.9894  -5.9595  -5.9449  -5.9283  -5.8966  -5.8863  -5.8658  -5.8471
    -5.7867  -5.7252  -5.7017  -5.6832  -5.6325  -5.6180  -5.5652  -5.4169
    -5.2362  -4.3350  -4.1693  -4.1410  -4.1211  -4.1137  -4.0379  -3.9843
    -3.9786  -3.9648  -3.9453  -3.9304  -3.8861  -3.8778  -3.8709  -3.8618
    -3.8512  -3.8480  -3.8369  -3.8358  -3.8275  -3.8259  -3.7816  -3.7385
    -3.7267  -3.7234  -3.6544  -3.6455  -3.6389  -3.6369  -3.6335  -3.6121
    -3.5912  -3.5875  -3.5862  -3.5718  -3.5610  -3.5584  -3.5516  -3.5463
    -3.5400  -3.5283  -3.5200  -3.5175  -3.5116  -3.5099  -3.5062  -3.5036
    -3.4849  -3.4820  -3.4770  -3.4693  -3.4593  -3.4533  -3.4442  -3.4353
    -3.4029  -3.3966  -3.3869  -3.3844  -3.3834  -3.3786  -3.3767  -3.3706
    -3.3643  -3.3447  -3.3405  -3.3311  -3.3253  -3.3196  -3.3163  -3.3148
    -3.3106  -3.3095  -3.3047  -3.2915  -3.2857  -3.2749  -3.2737  -3.2713
    -3.2654  -3.2530  -3.2476  -3.2451  -3.2442  -3.2396  -3.2254  -3.2189
    -3.2163  -3.2119  -3.2010  -3.1977  -3.1977  -3.1945  -3.1684  -3.1561
    -3.1421  -3.1376  -3.1327  -3.1170  -3.1038  -3.1010  -3.0967  -3.0734
    -3.0622  -3.0604  -3.0597  -3.0585  -3.0568  -3.0539  -3.0509  -3.0500
    -3.0450  -3.0404  -3.0377  -3.0321  -3.0286  -3.0210  -3.0178  -3.0143
    -3.0130  -3.0081  -3.0049  -2.9955  -2.9919  -2.9842  -2.9832  -2.9801
[...]
     atom  172 type  2   force =    -0.00000460   -0.00000217    0.00161528
     atom  173 type  2   force =    -0.00000473   -0.00000267   -0.00236018
     atom  174 type  2   force =    -0.00001290   -0.00001887   -0.00000423
     atom  175 type  1   force =    -0.00003611    0.00000409    0.00001212
     atom  176 type  1   force =     0.00009425   -0.00014175   -0.00013804
     atom  177 type  2   force =    -0.00042806   -0.00010657    0.00036859
     atom  178 type  2   force =    -0.00001437   -0.00003789   -0.00000220
     atom  179 type  2   force =    -0.00001690   -0.00004184   -0.00001493
     atom  180 type  2   force =     0.00011361    0.00005983    0.00013017
     atom  181 type  1   force =    -0.00000239   -0.00000322    0.00068813
     atom  182 type  1   force =    -0.00001695   -0.00001864    0.00000070
     atom  183 type  2   force =    -0.00000560   -0.00000250    0.00000519
     atom  184 type  2   force =    -0.00000460   -0.00000212    0.00161533
     atom  185 type  2   force =    -0.00000480   -0.00000262   -0.00236012
     atom  186 type  2   force =    -0.00001283   -0.00001929   -0.00000930
     atom  187 type  1   force =    -0.00002319    0.00001318    0.00004101
     atom  188 type  1   force =     0.00013127    0.00005601   -0.00041443
     atom  189 type  2   force =     0.00010527   -0.00004981    0.00026005
     atom  190 type  2   force =    -0.00000535   -0.00002698   -0.00003452
     atom  191 type  2   force =    -0.00000306   -0.00003253   -0.00001790
     atom  192 type  2   force =     0.00005798    0.00008220    0.00042973
     atom  193 type  3   force =     0.00065605    0.00038713    0.00018903
     atom  194 type  3   force =     0.00000562   -0.00018730   -0.00064786
     atom  195 type  4   force =    -0.00064425    0.00042061   -0.00006630

     Total force =     0.002885     Total SCF correction =     0.000622
     SCF correction compared to forces is large: reduce conv_thr to get better values
     Energy error            =      1.1E-05 Ry
     Gradient error          =      8.3E-04 Ry/Bohr

     bfgs converged in 120 scf cycles and 105 bfgs steps
     (criteria: energy <  1.0E-04 Ry, force <  1.0E-03 Ry/Bohr)

     End of BFGS Geometry Optimization

     Final energy             =  -35654.9581359994 Ry

     File ./outdir/pwscf.bfgs deleted, as requested
Begin final coordinates

ATOMIC_POSITIONS (angstrom)
Mo               0.0000119917        1.8193638619       -9.1672481230    0   0   0
Mo               1.5756136568        0.9097075315       -3.0554901653    0   0   0
S                0.0000188998        1.8193822938       -4.6232556019    0   0   0
S                1.5756321638        0.9096773839       -7.6014065489    0   0   0
S                1.5756326175        0.9096785128      -10.7330757790    0   0   0
S                0.0000189190        1.8193860094       -1.4877129945    0   0   0
Mo              -0.0008666651        1.8158833593        3.0554412128
Mo               1.5721009788        0.8952713761        9.1606529255
S               -0.0029049636        1.7917281709        7.5813096447
S                1.5749171300        0.9062704785        4.6232615447
S                1.5748641560        0.9064717873        1.4879011604
S               -0.0097445478        1.8090414429       10.7191220225
Mo              -1.5756053507        4.5484193819       -9.1672481230    0   0   0
Mo               0.0000378379        3.6387394919       -3.0554952701    0   0   0
S               -1.5755913433        4.5484363582       -4.6232494962    0   0   0
S                0.0000148214        3.6387329039       -7.6014065489    0   0   0
S                0.0000152751        3.6387340328      -10.7330757790    0   0   0
S               -1.5755906502        4.5484413613       -1.4877305502    0   0   0
Mo              -1.5769093352        4.5452137167        3.0555545754
Mo              -0.0085985411        3.6158469641        9.1391084820
S               -1.5879114191        4.5299710079        7.5702083123
S               -0.0015010652        3.6350397055        4.6228049786
S               -0.0006177981        3.6358641894        1.4881955894
S               -1.5864199680        4.5154427477       10.7126426067
Mo              -3.1512226931        7.2774749019       -9.1672481230    0   0   0
Mo              -1.5755910988        6.3678216792       -3.0555115988    0   0   0
S               -3.1512162438        7.2774954350       -4.6232578178    0   0   0
S               -1.5756025210        6.3677884239       -7.6014065489    0   0   0
S               -1.5756020673        6.3677895528      -10.7330757790    0   0   0
S               -3.1512127704        7.2774877076       -1.4877200710    0   0   0
Mo              -3.1523990265        7.2745257687        3.0561158030
Mo              -1.6018122178        6.3422281507        9.1474139263
S               -3.1687633992        7.2730787819        7.5905661525
S               -1.5768806828        6.3644751234        4.6236201582
S               -1.5766588853        6.3649508869        1.4882600614
S               -3.1408512034        7.2542053209       10.7405661962
Mo              -4.7268400355       10.0065304219       -9.1672481230    0   0   0
Mo              -3.1512405618        9.0968403586       -3.0554816746    0   0   0
S               -4.7268341792       10.0065523623       -4.6232463762    0   0   0
S               -3.1512198634        9.0968439439       -7.6014065489    0   0   0
S               -3.1512194097        9.0968450728      -10.7330757790    0   0   0
S               -4.7268370797       10.0065537885       -1.4877176751    0   0   0
Mo              -4.7276473784       10.0031690231        3.0557345434
Mo              -3.1625424291        9.0789459859        9.1832001807
S               -4.7250696386        9.9865364659        7.5998970485
S               -3.1514884236        9.0942599509        4.6235261744
S               -3.1524269446        9.0935078249        1.4876961196
S               -4.7337965971       10.0100792709       10.7441921871
Mo               3.1512517547        1.8193638619       -9.1672481230    0   0   0
Mo               4.7269020221        0.9097289540       -3.0554823951    0   0   0
S                3.1512612351        1.8193882564       -4.6232320683    0   0   0
S                4.7268719268        0.9096773839       -7.6014065489    0   0   0
S                4.7268723805        0.9096785128      -10.7330757790    0   0   0
S                3.1512592485        1.8193890201       -1.4877261251    0   0   0
Mo               3.1505439661        1.8160714756        3.0556462735
Mo               4.7180208996        0.9034217454        9.1817449787
S                3.1535177197        1.8004385914        7.5953761438
S                4.7257791100        0.9055579897        4.6234092275
S                4.7260961811        0.9069864892        1.4876150833
S                3.1324235453        1.8076106468       10.7426809451
Mo               1.5756344123        4.5484193819       -9.1672481230    0   0   0
Mo               3.1512756394        3.6387769522       -3.0554814834    0   0   0
S                1.5756504879        4.5484423799       -4.6232390542    0   0   0
S                3.1512545844        3.6387329039       -7.6014065489    0   0   0
S                3.1512550381        3.6387340328      -10.7330757790    0   0   0
S                1.5756466253        4.5484431864       -1.4877251801    0   0   0
Mo               1.5748269680        4.5452885264        3.0565862898
Mo               3.1396648210        3.6131829529        9.1668244244
S                1.5752809073        4.5037665001        7.5631896933
S                3.1514309902        3.6353978013        4.6234826217
S                3.1501783061        3.6359892314        1.4882562000
S                1.5562287913        4.5224164380       10.7130061215
Mo               0.0000170699        7.2774749019       -9.1672481230    0   0   0
Mo               1.5756764447        6.3678236689       -3.0554877708    0   0   0
S                0.0000381981        7.2774979204       -4.6232454413    0   0   0
S                1.5756372420        6.3677884239       -7.6014065489    0   0   0
S                1.5756376957        6.3677895528      -10.7330757790    0   0   0
S                0.0000328088        7.2774946042       -1.4877307940    0   0   0
Mo              -0.0010850610        7.2744878998        3.0560286916
Mo               1.5367339768        6.3226641132        9.1214771419
S               -0.0293396606        7.2926992099        7.6049457463
S                1.5742564335        6.3648788531        4.6248388154
S                1.5748481202        6.3647163199        1.4888754120
S               -0.0186247216        7.1336195026       10.7605021507
Mo              -1.5756002725       10.0065304219       -9.1672481230    0   0   0
Mo               0.0000873425        9.0968676911       -3.0554912329    0   0   0
S               -1.5755883952       10.0065504530       -4.6232240150    0   0   0
S                0.0000198996        9.0968439439       -7.6014065489    0   0   0
S                0.0000203533        9.0968450728      -10.7330757790    0   0   0
S               -1.5755859047       10.0065492576       -1.4877362381    0   0   0
Mo              -1.5765053452       10.0033442811        3.0546548756
Mo              -0.0055312255        9.0782560316        9.2156674637
S               -1.5654530809        9.9833055626        7.6439761524
S               -0.0015169893        9.0942632689        4.6228360840
S               -0.0005969369        9.0934954731        1.4875280748
S               -1.6462190261       10.0304033641       10.8009320108
Mo               6.3024915177        1.8193638619       -9.1672481230    0   0   0
Mo               7.8781001445        0.9096521684       -3.0554919963    0   0   0
S                6.3025008696        1.8193826232       -4.6232480596    0   0   0
S                7.8781116898        0.9096773839       -7.6014065489    0   0   0
S                7.8781121435        0.9096785128      -10.7330757790    0   0   0
S                6.3025042007        1.8193849068       -1.4877147524    0   0   0
Mo               6.3013020397        1.8162852259        3.0560433463
Mo               7.8714280992        0.9186908852        9.1508043248
S                6.2811190701        1.8117375691        7.5915827124
S                7.8768237914        0.9064065587        4.6238438629
S                7.8769323906        0.9067248934        1.4880819071
S                6.3034767073        1.8042987773       10.7392156429
Mo               4.7268741753        4.5484193819       -9.1672481230    0   0   0
Mo               6.3024679138        3.6387501714       -3.0554895197    0   0   0
S                4.7268748770        4.5484386753       -4.6232519432    0   0   0
S                6.3024943474        3.6387329039       -7.6014065489    0   0   0
S                6.3024948011        3.6387340328      -10.7330757790    0   0   0
S                4.7268770533        4.5484432419       -1.4877137856    0   0   0
Mo               4.7260204438        4.5456383526        3.0556085578
Mo               6.2992178062        3.6172278500        9.1715282063
S                4.7233068067        4.5550839883        7.6288008705
S                6.3011207288        3.6359332918        4.6237201311
S                6.3014146552        3.6357645120        1.4880102624
S                4.7206015745        4.4571229692       10.7918330006
Mo               3.1512568329        7.2774749019       -9.1672481230    0   0   0
Mo               4.7268384135        6.3678043337       -3.0554959052    0   0   0
S                3.1512606125        7.2774972547       -4.6232589675    0   0   0
S                4.7268770050        6.3677884239       -7.6014065489    0   0   0
S                4.7268774587        6.3677895528      -10.7330757790    0   0   0
S                3.1512629079        7.2774963749       -1.4877081835    0   0   0
Mo               3.1501856642        7.2744472291        3.0568245356
Mo               4.7293900686        6.3543138443        9.2002692378
S                3.1643574369        7.2616453164        7.6211130131
S                4.7260805068        6.3646267725        4.6242769572
S                4.7254280852        6.3652105291        1.4882689446
S                3.0055016730        7.3130203346       10.6993208599
Mo               1.5756394905       10.0065304219       -9.1672481230    0   0   0
Mo               3.1512330605        9.0968514907       -3.0554878870    0   0   0
S                1.5756499830       10.0065443759       -4.6232632674    0   0   0
S                3.1512596626        9.0968439439       -7.6014065489    0   0   0
S                3.1512601163        9.0968450728      -10.7330757790    0   0   0
S                1.5756503041       10.0065459699       -1.4877044377    0   0   0
Mo               1.5744883216       10.0034153057        3.0556412395
Mo               3.1482593222        9.1130594957        9.1644439961
S                1.5416324541        9.9902341668        7.6184499736
S                3.1496122579        9.0939630762        4.6244524899
S                3.1503506128        9.0935053563        1.4885572572
S                1.6490419701       10.0794652465       10.7612317211
Mo               9.4537312807        1.8193638619       -9.1672481230    0   0   0
Mo              11.0293863460        0.9096952246       -3.0554894007    0   0   0
S                9.4537395970        1.8193770750       -4.6232328036    0   0   0
S               11.0293514528        0.9096773839       -7.6014065489    0   0   0
S               11.0293519066        0.9096785128      -10.7330757790    0   0   0
S                9.4537393632        1.8193794783       -1.4877366147    0   0   0
Mo               9.4525129284        1.8161471227        3.0556249008
Mo              11.0248735798        0.8928568441        9.1533702637
S                9.4489712116        1.8028218622        7.5761358631
S               11.0282647377        0.9063753961        4.6229990453
S               11.0282919855        0.9062009695        1.4880849631
S                9.4570001142        1.8160673057       10.7202808043
Mo               7.8781139383        4.5484193819       -9.1672481230    0   0   0
Mo               9.4537539161        3.6387607911       -3.0554933032    0   0   0
S                7.8781175448        4.5484378232       -4.6232366318    0   0   0
S                9.4537341104        3.6387329039       -7.6014065489    0   0   0
S                9.4537345641        3.6387340328      -10.7330757790    0   0   0
S                7.8781194018        4.5484411585       -1.4877377057    0   0   0
Mo               7.8768082278        4.5454303348        3.0556755483
Mo               9.4479547071        3.6206654844        9.1450636782
S                7.8636006421        4.5381173242        7.5926750490
S                9.4520554702        3.6355873789        4.6229898924
S                9.4525112333        3.6357489973        1.4878472643
S                7.8815566903        4.5255840189       10.7292243168
Mo               6.3024965959        7.2774749019       -9.1672481230    0   0   0
Mo               7.8781361655        6.3678242352       -3.0555014130    0   0   0
S                6.3024973331        7.2774953556       -4.6232392528    0   0   0
S                7.8781167680        6.3677884239       -7.6014065489    0   0   0
S                7.8781172217        6.3677895528      -10.7330757790    0   0   0
S                6.3024989866        7.2774929744       -1.4877349119    0   0   0
Mo               6.3013483903        7.2743142919        3.0557773433
Mo               7.8870867790        6.3511396785        9.1746686954
S                6.2894045992        7.2546185240        7.6354647345
S                7.8766017127        6.3646957495        4.6236671359
S                7.8770909990        6.3649942744        1.4880842235
S                6.4096902261        7.3203816392       10.8151382390
Mo               4.7268792535       10.0065304219       -9.1672481230    0   0   0
Mo               6.3025111524        9.0968738021       -3.0554915260    0   0   0
S                4.7268840634       10.0065452125       -4.6232380477    0   0   0
S                6.3024994256        9.0968439439       -7.6014065489    0   0   0
S                6.3024998793        9.0968450728      -10.7330757790    0   0   0
S                4.7268847312       10.0065459141       -1.4877283294    0   0   0
Mo               4.7258796724       10.0030168095        3.0562529757
Mo               6.3052759558        9.0908000242        9.1782988669
S                4.7338071182        9.9888753205        7.5862767122
S                6.3018694741        9.0930629973        4.6238290603
S                6.3013983037        9.0937900229        1.4881751073
S                4.7287454623        9.9996047041       10.7320654553
Pt               2.1029506384        7.2071404258       12.6940414880
Pt               4.6204982780        6.5149125953       12.0400952871
Pd               0.0717421968        8.9943977345       12.1096796527
End final coordinates



     Writing all to output data dir ./outdir/pwscf.save/ :
     XML data file, charge density, pseudopotentials, collected wavefunctions
 
     init_run     :    179.93s CPU    183.33s WALL (       1 calls)
     electrons    : 240378.15s CPU 243409.84s WALL (      31 calls)
     update_pot   :     60.20s CPU     61.90s WALL (      30 calls)
     forces       :   4152.89s CPU   4226.15s WALL (      31 calls)
     force_dftd3  :     21.57s CPU     22.42s WALL (      31 calls)

     Called by init_run:
     wfcinit      :    155.30s CPU    157.03s WALL (       1 calls)
     potinit      :      1.66s CPU      1.84s WALL (       1 calls)
     hinit0       :     13.21s CPU     13.37s WALL (       1 calls)

     Called by electrons:
     c_bands      : 212367.79s CPU 214371.08s WALL (     384 calls)
     sum_band     :  24979.07s CPU  25524.61s WALL (     384 calls)
     v_of_rho     :    140.38s CPU    157.95s WALL (     389 calls)
     newd         :   2473.65s CPU   2944.55s WALL (     389 calls)
     PAW_pot      :    491.96s CPU    496.50s WALL (     419 calls)
     mix_rho      :     36.81s CPU     43.14s WALL (     384 calls)
     energy_dftd3 :     12.56s CPU     12.64s WALL (      31 calls)

     Called by c_bands:
     init_us_2    :    839.27s CPU    843.58s WALL (    3320 calls)
     init_us_2:cp :    839.24s CPU    843.52s WALL (    3320 calls)
     cegterg      : 208645.41s CPU 210614.14s WALL (    1567 calls)

     Called by *egterg:
     cdiaghg      :  12390.61s CPU  12827.92s WALL (   18604 calls)
     h_psi        : 105292.61s CPU 105939.87s WALL (   18852 calls)
     s_psi        :  24663.82s CPU  24812.75s WALL (   18852 calls)
     g_psi        :    185.93s CPU    186.82s WALL (   17281 calls)

     Called by h_psi:
     h_psi:calbec :  24099.41s CPU  24174.55s WALL (   18852 calls)
     vloc_psi     :  55962.76s CPU  56235.94s WALL (   18852 calls)
     add_vuspsi   :  24803.90s CPU  24956.48s WALL (   18852 calls)

     General routines
     calbec       :  34919.55s CPU  35030.12s WALL (   21004 calls)
     fft          :    107.94s CPU    123.18s WALL (    5392 calls)
     ffts         :      6.86s CPU      7.45s WALL (     773 calls)
     fftw         :  42312.90s CPU  42518.40s WALL (11077504 calls)
     interpolate  :     12.07s CPU     13.23s WALL (     389 calls)
 
     Parallel routines
 
     PWSCF        :   2d20h20m CPU   2d21h14m WALL

 
   This run was terminated on:  20:38:19   5May2024            

=------------------------------------------------------------------------------=
   JOB DONE.
=------------------------------------------------------------------------------=
