
     Program PWSCF v.7.2 starts on  4Oct2023 at 23:35:28 

     This program is part of the open-source Quantum ESPRESSO suite
     for quantum simulation of materials; please cite
         "P. Giannozzi et al., J. Phys.:Condens. Matter 21 395502 (2009);
         "P. Giannozzi et al., J. Phys.:Condens. Matter 29 465901 (2017);
         "P. Giannozzi et al., J. Chem. Phys. 152 154105 (2020);
          URL http://www.quantum-espresso.org", 
     in publications or presentations arising from this work. More details at
     http://www.quantum-espresso.org/quote

     Parallel version (MPI), running on    36 processors

     MPI processes distributed on     1 nodes
     769946 MiB available memory on the printing compute node when the environment starts
 
     Waiting for input...
     Reading input from standard input
Warning: card &CELL ignored
Warning: card / ignored

     Current dimensions of program PWSCF are:
     Max number of different atomic species (ntypx) = 10
     Max number of k-points (npk) =  40000
     Max angular momentum in pseudopotentials (lmaxx) =  4
     file Mo.pbe-spn-kjpaw_psl.1.0.0.UPF: wavefunction(s)  4S 4D renormalized
     file S.pbe-n-kjpaw_psl.1.0.0.UPF: wavefunction(s)  3S 3P renormalized
     file Pd.pbe-spn-kjpaw_psl.1.0.0.UPF: wavefunction(s)  4S 5S 4D renormalized
 
     R & G space division:  proc/nbgrp/npool/nimage =      36
     Subspace diagonalization in iterative solution of the eigenvalue problem:
     one sub-group per band group will be used
     custom distributed-memory algorithm (size of sub-group:  6*  6 procs)

 
     Parallelization info
     --------------------
     sticks:   dense  smooth     PW     G-vecs:    dense   smooth      PW
     Min         585     334     89               198743    85850   11735
     Max         586     335     90               198750    85861   11748
     Sum       21073   12049   3205              7154885  3090769  422587
 
     Using Slab Decomposition
 


     bravais-lattice index     =            0
     lattice parameter (alat)  =      23.8199  a.u.
     unit-cell volume          =   33861.0370 (a.u.)^3
     number of atoms/cell      =          194
     number of atomic types    =            3
     number of electrons       =      1700.00
     number of Kohn-Sham states=         1020
     kinetic-energy cutoff     =      77.0000  Ry
     charge density cutoff     =     539.0000  Ry
     scf convergence threshold =      1.0E-06
     mixing beta               =       0.2000
     number of iterations used =            8  plain     mixing
     energy convergence thresh.=      1.0E-04
     force convergence thresh. =      1.0E-03
     Exchange-correlation= SLA  PW   PBX  PBC
                           (   1   4   3   4   0   0   0)
     nstep                     =         1000


     Effective Screening Medium Method
     =================================
     Boundary Conditions: Vacuum-Slab-Vacuum
     total charge in unit cell        =   0.0000
     grid points for fit at edges     =        4 
 

     celldm(1)=  23.819920  celldm(2)=   0.000000  celldm(3)=   0.000000
     celldm(4)=   0.000000  celldm(5)=   0.000000  celldm(6)=   0.000000

     crystal axes: (cart. coord. in units of alat)
               a(1) = (   1.000000   0.000000   0.000000 )  
               a(2) = (  -0.499999   0.866026   0.000000 )  
               a(3) = (   0.000000   0.000000   2.893000 )  

     reciprocal axes: (cart. coord. in units 2 pi/alat)
               b(1) = (  1.000000  0.577349  0.000000 )  
               b(2) = (  0.000000  1.154700  0.000000 )  
               b(3) = (  0.000000  0.000000  0.345662 )  


     PseudoPot. # 1 for Mo read from file:
     ./pseudo/Mo.pbe-spn-kjpaw_psl.1.0.0.UPF
     MD5 check sum: 317bf72632116215fd98f72de1686f13
     Pseudo is Projector augmented-wave + core cor, Zval = 14.0
     Generated using 'atomic' code by A. Dal Corso  v.7.2
     Shape of augmentation charge: PSQ
     Using radial grid of 1229 points,  6 beta functions with: 
                l(1) =   0
                l(2) =   0
                l(3) =   1
                l(4) =   1
                l(5) =   2
                l(6) =   2
     Q(r) pseudized with 0 coefficients 


     PseudoPot. # 2 for S  read from file:
     ./pseudo/S.pbe-n-kjpaw_psl.1.0.0.UPF
     MD5 check sum: 8b7b5302570d38d5e87fed6a1065abda
     Pseudo is Projector augmented-wave + core cor, Zval =  6.0
     Generated using 'atomic' code by A. Dal Corso  v.7.2
     Shape of augmentation charge: PSQ
     Using radial grid of 1151 points,  6 beta functions with: 
                l(1) =   0
                l(2) =   0
                l(3) =   1
                l(4) =   1
                l(5) =   2
                l(6) =   2
     Q(r) pseudized with 0 coefficients 


     PseudoPot. # 3 for Pd read from file:
     ./pseudo/Pd.pbe-spn-kjpaw_psl.1.0.0.UPF
     MD5 check sum: a60571a671f2502b8a6a4569d20a6edb
     Pseudo is Projector augmented-wave + core cor, Zval = 18.0
     Generated using 'atomic' code by A. Dal Corso  v.7.2
     Shape of augmentation charge: PSQ
     Using radial grid of 1235 points,  6 beta functions with: 
                l(1) =   0
                l(2) =   0
                l(3) =   1
                l(4) =   1
                l(5) =   2
                l(6) =   2
     Q(r) pseudized with 0 coefficients 


     atomic species   valence    mass     pseudopotential
        Mo            14.00    95.95000     Mo( 1.00)
        S              6.00    32.06000     S ( 1.00)
        Pd            18.00   106.42000     Pd( 1.00)

     No symmetry found



   Cartesian axes

     site n.     atom                  positions (alat units)
         1           Mo  tau(   1) = (   0.0000010   0.1443372  -0.7272732  )
         2           Mo  tau(   2) = (   0.1249995   0.0721706  -0.2424038  )
         3           S   tau(   3) = (   0.0000015   0.1443386  -0.3667807  )
         4           S   tau(   4) = (   0.1250010   0.0721682  -0.6030489  )
         5           S   tau(   5) = (   0.1250010   0.0721683  -0.8514963  )
         6           S   tau(   6) = (   0.0000015   0.1443389  -0.1180260  )
         7           Mo  tau(   7) = (   0.0000007   0.1443589   0.2424205  )
         8           Mo  tau(   8) = (   0.1250041   0.0720322   0.7266168  )
         9           S   tau(   9) = (   0.0000742   0.1444871   0.6020949  )
        10           S   tau(  10) = (   0.1250024   0.0721701   0.3667478  )
        11           S   tau(  11) = (   0.1250035   0.0721876   0.1180348  )
        12           S   tau(  12) = (  -0.0004118   0.1430864   0.8514340  )
        13           Mo  tau(  13) = (  -0.1249989   0.3608437  -0.7272732  )
        14           Mo  tau(  14) = (   0.0000030   0.2886752  -0.2424042  )
        15           S   tau(  15) = (  -0.1249977   0.3608450  -0.3667802  )
        16           S   tau(  16) = (   0.0000012   0.2886747  -0.6030489  )
        17           S   tau(  17) = (   0.0000012   0.2886748  -0.8514963  )
        18           S   tau(  18) = (  -0.1249977   0.3608454  -0.1180274  )
        19           Mo  tau(  19) = (  -0.1249729   0.3608584   0.2424608  )
        20           Mo  tau(  20) = (  -0.0007193   0.2876626   0.7275440  )
        21           S   tau(  21) = (  -0.1251115   0.3607789   0.6027257  )
        22           S   tau(  22) = (   0.0000621   0.2887099   0.3668377  )
        23           S   tau(  23) = (  -0.0000096   0.2886902   0.1180527  )
        24           S   tau(  24) = (  -0.1254673   0.3605734   0.8517408  )
        25           Mo  tau(  25) = (  -0.2499987   0.5773502  -0.7272732  )
        26           Mo  tau(  26) = (  -0.1249977   0.5051839  -0.2424055  )
        27           S   tau(  27) = (  -0.2499981   0.5773518  -0.3667809  )
        28           S   tau(  28) = (  -0.1249986   0.5051812  -0.6030489  )
        29           S   tau(  29) = (  -0.1249986   0.5051813  -0.8514963  )
        30           S   tau(  30) = (  -0.2499979   0.5773512  -0.1180266  )
        31           Mo  tau(  31) = (  -0.2499795   0.5773389   0.2424205  )
        32           Mo  tau(  32) = (  -0.1262356   0.5050639   0.7275441  )
        33           S   tau(  33) = (  -0.2498323   0.5773390   0.6020948  )
        34           S   tau(  34) = (  -0.1249376   0.5052159   0.3668377  )
        35           S   tau(  35) = (  -0.1249905   0.5051638   0.1180531  )
        36           S   tau(  36) = (  -0.2512883   0.5776183   0.8514340  )
        37           Mo  tau(  37) = (  -0.3749985   0.7938567  -0.7272732  )
        38           Mo  tau(  38) = (  -0.2500001   0.7216874  -0.2424031  )
        39           S   tau(  39) = (  -0.3749980   0.7938584  -0.3667800  )
        40           S   tau(  40) = (  -0.2499984   0.7216877  -0.6030489  )
        41           S   tau(  41) = (  -0.2499984   0.7216878  -0.8514963  )
        42           S   tau(  42) = (  -0.3749982   0.7938585  -0.1180264  )
        43           Mo  tau(  43) = (  -0.3749962   0.7938568   0.2423838  )
        44           Mo  tau(  44) = (  -0.2501148   0.7217588   0.7266170  )
        45           S   tau(  45) = (  -0.3749945   0.7938590   0.6021274  )
        46           S   tau(  46) = (  -0.2499958   0.7216877   0.3667488  )
        47           S   tau(  47) = (  -0.2499810   0.7216794   0.1180323  )
        48           S   tau(  48) = (  -0.3749953   0.7938585   0.8511588  )
        49           Mo  tau(  49) = (   0.2500010   0.1443372  -0.7272732  )
        50           Mo  tau(  50) = (   0.3750034   0.0721723  -0.2424032  )
        51           S   tau(  51) = (   0.2500017   0.1443391  -0.3667788  )
        52           S   tau(  52) = (   0.3750010   0.0721682  -0.6030489  )
        53           S   tau(  53) = (   0.3750010   0.0721683  -0.8514963  )
        54           S   tau(  54) = (   0.2500016   0.1443391  -0.1180271  )
        55           Mo  tau(  55) = (   0.2500054   0.1443594   0.2424211  )
        56           Mo  tau(  56) = (   0.3749279   0.0721263   0.7263991  )
        57           S   tau(  57) = (   0.2499344   0.1444864   0.6020948  )
        58           S   tau(  58) = (   0.3750316   0.0721860   0.3667597  )
        59           S   tau(  59) = (   0.3749924   0.0721644   0.1180346  )
        60           S   tau(  60) = (   0.2504199   0.1430865   0.8514340  )
        61           Mo  tau(  61) = (   0.1250012   0.3608437  -0.7272732  )
        62           Mo  tau(  62) = (   0.2500029   0.2886782  -0.2424031  )
        63           S   tau(  63) = (   0.1250024   0.3608455  -0.3667794  )
        64           S   tau(  64) = (   0.2500012   0.2886747  -0.6030489  )
        65           S   tau(  65) = (   0.2500012   0.2886748  -0.8514963  )
        66           S   tau(  66) = (   0.1250021   0.3608455  -0.1180270  )
        67           Mo  tau(  67) = (   0.1250038   0.3608653   0.2423963  )
        68           Mo  tau(  68) = (   0.2507284   0.2876625   0.7275438  )
        69           S   tau(  69) = (   0.1250046   0.3627170   0.6061948  )
        70           S   tau(  70) = (   0.2499461   0.2887116   0.3668373  )
        71           S   tau(  71) = (   0.2500171   0.2886900   0.1180543  )
        72           S   tau(  72) = (   0.1250046   0.3519103   0.8557806  )
        73           Mo  tau(  73) = (   0.0000014   0.5773502  -0.7272732  )
        74           Mo  tau(  74) = (   0.1250045   0.5051840  -0.2424036  )
        75           S   tau(  75) = (   0.0000030   0.5773520  -0.3667799  )
        76           S   tau(  76) = (   0.1250014   0.5051812  -0.6030489  )
        77           S   tau(  77) = (   0.1250014   0.5051813  -0.8514963  )
        78           S   tau(  78) = (   0.0000026   0.5773517  -0.1180274  )
        79           Mo  tau(  79) = (   0.0000222   0.5773400   0.2423964  )
        80           Mo  tau(  80) = (   0.1250047   0.5051836   0.7321380  )
        81           S   tau(  81) = (   0.0016251   0.5764170   0.6061946  )
        82           S   tau(  82) = (   0.1250047   0.5051815   0.3667777  )
        83           S   tau(  83) = (   0.1250048   0.5051819   0.1179962  )
        84           S   tau(  84) = (  -0.0077335   0.5818202   0.8557807  )
        85           Mo  tau(  85) = (  -0.1249984   0.7938567  -0.7272732  )
        86           Mo  tau(  86) = (   0.0000069   0.7216896  -0.2424039  )
        87           S   tau(  87) = (  -0.1249975   0.7938582  -0.3667782  )
        88           S   tau(  88) = (   0.0000016   0.7216877  -0.6030489  )
        89           S   tau(  89) = (   0.0000016   0.7216878  -0.8514963  )
        90           S   tau(  90) = (  -0.1249973   0.7938582  -0.1180279  )
        91           Mo  tau(  91) = (  -0.1249774   0.7938494   0.2424207  )
        92           Mo  tau(  92) = (  -0.0005116   0.7228241   0.7275438  )
        93           S   tau(  93) = (  -0.1249026   0.7937246   0.6020948  )
        94           S   tau(  94) = (   0.0000043   0.7216209   0.3668361  )
        95           S   tau(  95) = (   0.0000226   0.7216928   0.1180549  )
        96           S   tau(  96) = (  -0.1258721   0.7948451   0.8514341  )
        97           Mo  tau(  97) = (   0.5000010   0.1443372  -0.7272732  )
        98           Mo  tau(  98) = (   0.6250001   0.0721662  -0.2424040  )
        99           S   tau(  99) = (   0.5000017   0.1443386  -0.3667801  )
       100           S   tau( 100) = (   0.6250010   0.0721682  -0.6030489  )
       101           S   tau( 101) = (   0.6250010   0.0721683  -0.8514963  )
       102           S   tau( 102) = (   0.5000020   0.1443388  -0.1180261  )
       103           Mo  tau( 103) = (   0.5000075   0.1443411   0.2423793  )
       104           Mo  tau( 104) = (   0.6250042   0.0723339   0.7270464  )
       105           S   tau( 105) = (   0.5002366   0.1444733   0.6023595  )
       106           S   tau( 106) = (   0.6250029   0.0721787   0.3667562  )
       107           S   tau( 107) = (   0.6250040   0.0721260   0.1180315  )
       108           S   tau( 108) = (   0.4998752   0.1442648   0.8512770  )
       109           Mo  tau( 109) = (   0.3750012   0.3608437  -0.7272732  )
       110           Mo  tau( 110) = (   0.4999991   0.2886761  -0.2424038  )
       111           S   tau( 111) = (   0.3750012   0.3608452  -0.3667804  )
       112           S   tau( 112) = (   0.5000012   0.2886747  -0.6030489  )
       113           S   tau( 113) = (   0.5000012   0.2886748  -0.8514963  )
       114           S   tau( 114) = (   0.3750014   0.3608455  -0.1180261  )
       115           Mo  tau( 115) = (   0.3749795   0.3608597   0.2424601  )
       116           Mo  tau( 116) = (   0.5001461   0.2885951   0.7270464  )
       117           S   tau( 117) = (   0.3751205   0.3607791   0.6027254  )
       118           S   tau( 118) = (   0.5000105   0.2886721   0.3667569  )
       119           S   tau( 119) = (   0.4999655   0.2886989   0.1180297  )
       120           S   tau( 120) = (   0.3754765   0.3605739   0.8517402  )
       121           Mo  tau( 121) = (   0.2500014   0.5773502  -0.7272732  )
       122           Mo  tau( 122) = (   0.3749983   0.5051825  -0.2424043  )
       123           S   tau( 123) = (   0.2500017   0.5773519  -0.3667810  )
       124           S   tau( 124) = (   0.3750014   0.5051812  -0.6030489  )
       125           S   tau( 125) = (   0.3750014   0.5051813  -0.8514963  )
       126           S   tau( 126) = (   0.2500018   0.5773519  -0.1180256  )
       127           Mo  tau( 127) = (   0.2499863   0.5773402   0.2423965  )
       128           Mo  tau( 128) = (   0.3762454   0.5050642   0.7275433  )
       129           S   tau( 129) = (   0.2483844   0.5764169   0.6061944  )
       130           S   tau( 130) = (   0.3749442   0.5052158   0.3668400  )
       131           S   tau( 131) = (   0.3749972   0.5051650   0.1180510  )
       132           S   tau( 132) = (   0.2577438   0.5818204   0.8557797  )
       133           Mo  tau( 133) = (   0.1250016   0.7938567  -0.7272732  )
       134           Mo  tau( 134) = (   0.2499995   0.7216883  -0.2424036  )
       135           S   tau( 135) = (   0.1250024   0.7938578  -0.3667813  )
       136           S   tau( 136) = (   0.2500016   0.7216877  -0.6030489  )
       137           S   tau( 137) = (   0.2500016   0.7216878  -0.8514963  )
       138           S   tau( 138) = (   0.1250024   0.7938579  -0.1180253  )
       139           Mo  tau( 139) = (   0.1250047   0.7938294   0.2424606  )
       140           Mo  tau( 140) = (   0.2505220   0.7228241   0.7275433  )
       141           S   tau( 141) = (   0.1250053   0.7939926   0.6027252  )
       142           S   tau( 142) = (   0.2500048   0.7216200   0.3668387  )
       143           S   tau( 143) = (   0.2499864   0.7216915   0.1180524  )
       144           S   tau( 144) = (   0.1250054   0.7944033   0.8517402  )
       145           Mo  tau( 145) = (   0.7500010   0.1443372  -0.7272732  )
       146           Mo  tau( 146) = (   0.8750038   0.0721696  -0.2424038  )
       147           S   tau( 147) = (   0.7500016   0.1443382  -0.3667789  )
       148           S   tau( 148) = (   0.8750010   0.0721682  -0.6030489  )
       149           S   tau( 149) = (   0.8750010   0.0721683  -0.8514963  )
       150           S   tau( 150) = (   0.7500016   0.1443384  -0.1180279  )
       151           Mo  tau( 151) = (   0.7499986   0.1443409   0.2423802  )
       152           Mo  tau( 152) = (   0.8750804   0.0721266   0.7263988  )
       153           S   tau( 153) = (   0.7497713   0.1444738   0.6023592  )
       154           S   tau( 154) = (   0.8749758   0.0721848   0.3667595  )
       155           S   tau( 155) = (   0.8750127   0.0721632   0.1180342  )
       156           S   tau( 156) = (   0.7501331   0.1442647   0.8512770  )
       157           Mo  tau( 157) = (   0.6250012   0.3608437  -0.7272732  )
       158           Mo  tau( 158) = (   0.7500028   0.2886769  -0.2424041  )
       159           S   tau( 159) = (   0.6250015   0.3608451  -0.3667792  )
       160           S   tau( 160) = (   0.7500012   0.2886747  -0.6030489  )
       161           S   tau( 161) = (   0.7500012   0.2886748  -0.8514963  )
       162           S   tau( 162) = (   0.6250016   0.3608454  -0.1180280  )
       163           Mo  tau( 163) = (   0.6250032   0.3608391   0.2423797  )
       164           Mo  tau( 164) = (   0.7498627   0.2885951   0.7270467  )
       165           S   tau( 165) = (   0.6250046   0.3605769   0.6023590  )
       166           S   tau( 166) = (   0.7499943   0.2886711   0.3667569  )
       167           S   tau( 167) = (   0.7500399   0.2886970   0.1180318  )
       168           S   tau( 168) = (   0.6250043   0.3609947   0.8512770  )
       169           Mo  tau( 169) = (   0.5000014   0.5773502  -0.7272732  )
       170           Mo  tau( 170) = (   0.6250029   0.5051841  -0.2424047  )
       171           S   tau( 171) = (   0.5000014   0.5773518  -0.3667794  )
       172           S   tau( 172) = (   0.6250014   0.5051812  -0.6030489  )
       173           S   tau( 173) = (   0.6250014   0.5051813  -0.8514963  )
       174           S   tau( 174) = (   0.5000016   0.5773516  -0.1180277  )
       175           Mo  tau( 175) = (   0.4999855   0.5773383   0.2424207  )
       176           Mo  tau( 176) = (   0.6250049   0.5052713   0.7263986  )
       177           S   tau( 177) = (   0.4998428   0.5773389   0.6020941  )
       178           S   tau( 178) = (   0.6250030   0.5051500   0.3667588  )
       179           S   tau( 179) = (   0.6250025   0.5051935   0.1180351  )
       180           S   tau( 180) = (   0.5012979   0.5776190   0.8514332  )
       181           Mo  tau( 181) = (   0.3750016   0.7938567  -0.7272732  )
       182           Mo  tau( 182) = (   0.5000025   0.7216901  -0.2424039  )
       183           S   tau( 183) = (   0.3750019   0.7938578  -0.3667793  )
       184           S   tau( 184) = (   0.5000016   0.7216877  -0.6030489  )
       185           S   tau( 185) = (   0.5000016   0.7216878  -0.8514963  )
       186           S   tau( 186) = (   0.3750020   0.7938579  -0.1180272  )
       187           Mo  tau( 187) = (   0.3749848   0.7938487   0.2424206  )
       188           Mo  tau( 188) = (   0.5001249   0.7217591   0.7266160  )
       189           S   tau( 189) = (   0.3749125   0.7937251   0.6020942  )
       190           S   tau( 190) = (   0.5000021   0.7216868   0.3667472  )
       191           S   tau( 191) = (   0.4999874   0.7216780   0.1180346  )
       192           S   tau( 192) = (   0.3758826   0.7948451   0.8514332  )
       193           Pd  tau( 193) = (   0.1250063   0.5051842   0.9601361  )
       194           Pd  tau( 194) = (   0.1250302   0.5066260   1.1663664  )

     --------------------------------------------
     DFT-D3 Dispersion Correction (3-body terms):
     --------------------------------------------
       Reference C6 values for interpolation: 

         atom   Coordination number   C6
         S          0.000           268.01
         S          0.995           261.99
         S          1.990           251.62
         Mo         0.000          1691.79
         Mo         1.942          1004.01
         Mo        11.056           674.22
         Pd         0.000          1217.01
         Pd         1.863           573.90
         Pd         5.710           531.75

       Values used:

         atom   Coordination number  R0_AB[au]  C6      C8
         Mo        10.208            3.547    674.22  77634.20
         Mo        10.221            3.547    674.22  77634.20
         S          3.858            3.128    251.62  12327.25
         S          3.859            3.128    251.62  12327.25
         S          3.758            3.128    251.62  12327.25
         S          3.859            3.128    251.62  12327.25
         Mo        10.220            3.547    674.22  77634.20
         Mo        10.233            3.547    674.22  77634.20
         S          3.846            3.128    251.62  12327.25
         S          3.861            3.128    251.62  12327.25
         S          3.859            3.128    251.62  12327.25
         S          3.805            3.128    251.62  12327.25
         Mo        10.208            3.547    674.22  77634.20
         Mo        10.221            3.547    674.22  77634.20
         S          3.858            3.128    251.62  12327.25
         S          3.859            3.128    251.62  12327.25
         S          3.758            3.128    251.62  12327.25
         S          3.859            3.128    251.62  12327.25
         Mo        10.221            3.547    674.22  77634.20
         Mo        10.191            3.547    674.22  77634.20
         S          3.855            3.128    251.62  12327.25
         S          3.856            3.128    251.62  12327.25
         S          3.859            3.128    251.62  12327.25
         S          3.757            3.128    251.62  12327.25
         Mo        10.208            3.547    674.22  77634.20
         Mo        10.221            3.547    674.22  77634.20
         S          3.858            3.128    251.62  12327.25
         S          3.859            3.128    251.62  12327.25
         S          3.758            3.128    251.62  12327.25
         S          3.859            3.128    251.62  12327.25
         Mo        10.220            3.547    674.22  77634.20
         Mo        10.191            3.547    674.22  77634.20
         S          3.846            3.128    251.62  12327.25
         S          3.856            3.128    251.62  12327.25
         S          3.859            3.128    251.62  12327.25
         S          3.805            3.128    251.62  12327.25
         Mo        10.208            3.547    674.22  77634.20
         Mo        10.221            3.547    674.22  77634.20
         S          3.858            3.128    251.62  12327.25
         S          3.859            3.128    251.62  12327.25
         S          3.758            3.128    251.62  12327.25
         S          3.859            3.128    251.62  12327.25
         Mo        10.219            3.547    674.22  77634.20
         Mo        10.233            3.547    674.22  77634.20
         S          3.856            3.128    251.62  12327.25
         S          3.861            3.128    251.62  12327.25
         S          3.859            3.128    251.62  12327.25
         S          3.781            3.128    251.62  12327.25
         Mo        10.208            3.547    674.22  77634.20
         Mo        10.221            3.547    674.22  77634.20
         S          3.858            3.128    251.62  12327.25
         S          3.859            3.128    251.62  12327.25
         S          3.758            3.128    251.62  12327.25
         S          3.859            3.128    251.62  12327.25
         Mo        10.220            3.547    674.22  77634.20
         Mo        10.243            3.547    674.22  77634.20
         S          3.846            3.128    251.62  12327.25
         S          3.860            3.128    251.62  12327.25
         S          3.859            3.128    251.62  12327.25
         S          3.805            3.128    251.62  12327.25
         Mo        10.208            3.547    674.22  77634.20
         Mo        10.221            3.547    674.22  77634.20
         S          3.858            3.128    251.62  12327.25
         S          3.859            3.128    251.62  12327.25
         S          3.758            3.128    251.62  12327.25
         S          3.859            3.128    251.62  12327.25
         Mo        10.222            3.547    674.22  77634.20
         Mo        10.191            3.547    674.22  77634.20
         S          3.865            3.128    251.62  12327.25
         S          3.856            3.128    251.62  12327.25
         S          3.859            3.128    251.62  12327.25
         S          4.656            3.128    251.62  12327.25
         Mo        10.208            3.547    674.22  77634.20
         Mo        10.221            3.547    674.22  77634.20
         S          3.858            3.128    251.62  12327.25
         S          3.859            3.128    251.62  12327.25
         S          3.758            3.128    251.62  12327.25
         S          3.859            3.128    251.62  12327.25
         Mo        10.222            3.547    674.22  77634.20
         Mo        10.822            3.547    674.22  77634.20
         S          3.865            3.128    251.62  12327.25
         S          3.853            3.128    251.62  12327.25
         S          3.859            3.128    251.62  12327.25
         S          4.656            3.128    251.62  12327.25
         Mo        10.208            3.547    674.22  77634.20
         Mo        10.221            3.547    674.22  77634.20
         S          3.858            3.128    251.62  12327.25
         S          3.859            3.128    251.62  12327.25
         S          3.758            3.128    251.62  12327.25
         S          3.859            3.128    251.62  12327.25
         Mo        10.220            3.547    674.22  77634.20
         Mo        10.191            3.547    674.22  77634.20
         S          3.846            3.128    251.62  12327.25
         S          3.856            3.128    251.62  12327.25
         S          3.859            3.128    251.62  12327.25
         S          3.805            3.128    251.62  12327.25
         Mo        10.208            3.547    674.22  77634.20
         Mo        10.221            3.547    674.22  77634.20
         S          3.858            3.128    251.62  12327.25
         S          3.859            3.128    251.62  12327.25
         S          3.758            3.128    251.62  12327.25
         S          3.859            3.128    251.62  12327.25
         Mo        10.220            3.547    674.22  77634.20
         Mo        10.229            3.547    674.22  77634.20
         S          3.862            3.128    251.62  12327.25
         S          3.860            3.128    251.62  12327.25
         S          3.859            3.128    251.62  12327.25
         S          3.765            3.128    251.62  12327.25
         Mo        10.208            3.547    674.22  77634.20
         Mo        10.221            3.547    674.22  77634.20
         S          3.858            3.128    251.62  12327.25
         S          3.859            3.128    251.62  12327.25
         S          3.758            3.128    251.62  12327.25
         S          3.859            3.128    251.62  12327.25
         Mo        10.221            3.547    674.22  77634.20
         Mo        10.229            3.547    674.22  77634.20
         S          3.855            3.128    251.62  12327.25
         S          3.860            3.128    251.62  12327.25
         S          3.859            3.128    251.62  12327.25
         S          3.757            3.128    251.62  12327.25
         Mo        10.208            3.547    674.22  77634.20
         Mo        10.221            3.547    674.22  77634.20
         S          3.858            3.128    251.62  12327.25
         S          3.859            3.128    251.62  12327.25
         S          3.758            3.128    251.62  12327.25
         S          3.859            3.128    251.62  12327.25
         Mo        10.222            3.547    674.22  77634.20
         Mo        10.191            3.547    674.22  77634.20
         S          3.865            3.128    251.62  12327.25
         S          3.856            3.128    251.62  12327.25
         S          3.859            3.128    251.62  12327.25
         S          4.656            3.128    251.62  12327.25
         Mo        10.208            3.547    674.22  77634.20
         Mo        10.221            3.547    674.22  77634.20
         S          3.858            3.128    251.62  12327.25
         S          3.859            3.128    251.62  12327.25
         S          3.758            3.128    251.62  12327.25
         S          3.859            3.128    251.62  12327.25
         Mo        10.221            3.547    674.22  77634.20
         Mo        10.191            3.547    674.22  77634.20
         S          3.855            3.128    251.62  12327.25
         S          3.856            3.128    251.62  12327.25
         S          3.859            3.128    251.62  12327.25
         S          3.757            3.128    251.62  12327.25
         Mo        10.208            3.547    674.22  77634.20
         Mo        10.221            3.547    674.22  77634.20
         S          3.858            3.128    251.62  12327.25
         S          3.859            3.128    251.62  12327.25
         S          3.758            3.128    251.62  12327.25
         S          3.859            3.128    251.62  12327.25
         Mo        10.220            3.547    674.22  77634.20
         Mo        10.243            3.547    674.22  77634.20
         S          3.862            3.128    251.62  12327.25
         S          3.860            3.128    251.62  12327.25
         S          3.859            3.128    251.62  12327.25
         S          3.765            3.128    251.62  12327.25
         Mo        10.208            3.547    674.22  77634.20
         Mo        10.220            3.547    674.22  77634.20
         S          3.858            3.128    251.62  12327.25
         S          3.859            3.128    251.62  12327.25
         S          3.758            3.128    251.62  12327.25
         S          3.859            3.128    251.62  12327.25
         Mo        10.220            3.547    674.22  77634.20
         Mo        10.229            3.547    674.22  77634.20
         S          3.862            3.128    251.62  12327.25
         S          3.860            3.128    251.62  12327.25
         S          3.859            3.128    251.62  12327.25
         S          3.765            3.128    251.62  12327.25
         Mo        10.208            3.547    674.22  77634.20
         Mo        10.221            3.547    674.22  77634.20
         S          3.858            3.128    251.62  12327.25
         S          3.859            3.128    251.62  12327.25
         S          3.758            3.128    251.62  12327.25
         S          3.859            3.128    251.62  12327.25
         Mo        10.220            3.547    674.22  77634.20
         Mo        10.243            3.547    674.22  77634.20
         S          3.846            3.128    251.62  12327.25
         S          3.860            3.128    251.62  12327.25
         S          3.859            3.128    251.62  12327.25
         S          3.805            3.128    251.62  12327.25
         Mo        10.208            3.547    674.22  77634.20
         Mo        10.221            3.547    674.22  77634.20
         S          3.858            3.128    251.62  12327.25
         S          3.859            3.128    251.62  12327.25
         S          3.758            3.128    251.62  12327.25
         S          3.859            3.128    251.62  12327.25
         Mo        10.220            3.547    674.22  77634.20
         Mo        10.233            3.547    674.22  77634.20
         S          3.846            3.128    251.62  12327.25
         S          3.861            3.128    251.62  12327.25
         S          3.859            3.128    251.62  12327.25
         S          3.805            3.128    251.62  12327.25
         Pd         4.615            3.168    531.75  48720.73
         Pd         0.868            3.168   1008.14  92369.40

         Molecular C6 ( Ry / a.u.^6 ) =  14014761.84


     number of k points=     4  Gaussian smearing, width (Ry)=  0.0100
                       cart. coord. in units 2pi/alat
        k(    1) = (   0.0000000   0.0000000   0.0000000), wk =   0.5000000
        k(    2) = (   0.0000000  -0.5773499   0.0000000), wk =   0.5000000
        k(    3) = (  -0.5000000  -0.2886744   0.0000000), wk =   0.5000000
        k(    4) = (  -0.5000000  -0.8660242   0.0000000), wk =   0.5000000

     Dense  grid:  7154885 G-vectors     FFT dimensions: ( 180, 180, 512)

     Smooth grid:  3090769 G-vectors     FFT dimensions: ( 135, 135, 400)

     Estimated max dynamical RAM per process >       3.19 GB

     Estimated total dynamical RAM >     114.77 GB

     Initial potential from superposition of free atoms

     starting charge    1699.9387, renormalised to    1700.0000

     negative rho (up, down):  8.892E-04 0.000E+00
     Starting wfcs are 1172 randomized atomic wfcs
     Checking if some PAW data can be deallocated... 

     total cpu time spent up to now is      201.7 secs

     Self-consistent Calculation

     iteration #  1     ecut=    77.00 Ry     beta= 0.20
     Davidson diagonalization with overlap
     ethr =  1.00E-02,  avg # of iterations =  2.0

     Threshold (ethr) on eigenvalues was too large:
     Diagonalizing with lowered threshold

     Davidson diagonalization with overlap
     ethr =  1.97E-04,  avg # of iterations = 16.5

     negative rho (up, down):  2.563E-04 0.000E+00

     total cpu time spent up to now is     2306.5 secs

     total energy              =  -32817.43021708 Ry
     estimated scf accuracy    <       6.53613026 Ry

     iteration #  2     ecut=    77.00 Ry     beta= 0.20
     Davidson diagonalization with overlap
     ethr =  3.84E-04,  avg # of iterations =  6.0

     negative rho (up, down):  3.801E-05 0.000E+00

     total cpu time spent up to now is     2771.7 secs

     total energy              =  -32816.35502453 Ry
     estimated scf accuracy    <       3.24807327 Ry

     iteration #  3     ecut=    77.00 Ry     beta= 0.20
     Davidson diagonalization with overlap
     ethr =  1.91E-04,  avg # of iterations = 10.8

     negative rho (up, down):  2.245E-05 0.000E+00

     total cpu time spent up to now is     3275.9 secs

     total energy              =  -32816.44733689 Ry
     estimated scf accuracy    <       1.39811535 Ry

     iteration #  4     ecut=    77.00 Ry     beta= 0.20
     Davidson diagonalization with overlap
     ethr =  8.22E-05,  avg # of iterations = 12.5

     negative rho (up, down):  1.476E-05 0.000E+00

     total cpu time spent up to now is     4099.6 secs

     total energy              =  -32816.95185848 Ry
     estimated scf accuracy    <       1.01977725 Ry

     iteration #  5     ecut=    77.00 Ry     beta= 0.20
     Davidson diagonalization with overlap
     ethr =  6.00E-05,  avg # of iterations =  9.2

     negative rho (up, down):  1.519E-05 0.000E+00

     total cpu time spent up to now is     4612.1 secs

     total energy              =  -32816.66125702 Ry
     estimated scf accuracy    <       2.93256919 Ry

     iteration #  6     ecut=    77.00 Ry     beta= 0.20
     Davidson diagonalization with overlap
     ethr =  6.00E-05,  avg # of iterations =  7.0

     negative rho (up, down):  1.739E-05 0.000E+00

     total cpu time spent up to now is     5073.2 secs

     total energy              =  -32817.09643896 Ry
     estimated scf accuracy    <       2.52640847 Ry

     iteration #  7     ecut=    77.00 Ry     beta= 0.20
     Davidson diagonalization with overlap
     ethr =  6.00E-05,  avg # of iterations =  1.8

     negative rho (up, down):  1.852E-05 0.000E+00

     total cpu time spent up to now is     5511.5 secs

     total energy              =  -32817.25358979 Ry
     estimated scf accuracy    <       0.24914654 Ry

     iteration #  8     ecut=    77.00 Ry     beta= 0.20
     Davidson diagonalization with overlap
     ethr =  1.47E-05,  avg # of iterations = 16.8

     negative rho (up, down):  1.431E-05 0.000E+00

     total cpu time spent up to now is     6724.8 secs

     total energy              =  -32817.61270704 Ry
     estimated scf accuracy    <       0.35049022 Ry

     iteration #  9     ecut=    77.00 Ry     beta= 0.20
     Davidson diagonalization with overlap
     ethr =  1.47E-05,  avg # of iterations =  1.8

     negative rho (up, down):  2.889E-05 0.000E+00

     total cpu time spent up to now is     7164.0 secs

     total energy              =  -32817.54069053 Ry
     estimated scf accuracy    <       0.41221551 Ry

     iteration # 10     ecut=    77.00 Ry     beta= 0.20
     Davidson diagonalization with overlap
     ethr =  1.47E-05,  avg # of iterations =  1.5

     negative rho (up, down):  3.502E-04 0.000E+00

     total cpu time spent up to now is     7592.2 secs

     total energy              =  -32817.37754779 Ry
     estimated scf accuracy    <       0.28419195 Ry

     iteration # 11     ecut=    77.00 Ry     beta= 0.20
     Davidson diagonalization with overlap
     ethr =  1.47E-05,  avg # of iterations = 14.8

     negative rho (up, down):  6.999E-04 0.000E+00

     total cpu time spent up to now is     8342.3 secs

     total energy              =  -32817.51342335 Ry
     estimated scf accuracy    <       0.19023858 Ry

     iteration # 12     ecut=    77.00 Ry     beta= 0.20
     Davidson diagonalization with overlap
     ethr =  1.12E-05,  avg # of iterations =  6.2

     negative rho (up, down):  3.524E-04 0.000E+00

     total cpu time spent up to now is     8879.3 secs

     total energy              =  -32817.44442051 Ry
     estimated scf accuracy    <       0.22086037 Ry

     iteration # 13     ecut=    77.00 Ry     beta= 0.20
     Davidson diagonalization with overlap
     ethr =  1.12E-05,  avg # of iterations = 10.0

     negative rho (up, down):  4.515E-04 0.000E+00

     total cpu time spent up to now is     9370.5 secs

     total energy              =  -32817.47906181 Ry
     estimated scf accuracy    <       0.03121570 Ry

     iteration # 14     ecut=    77.00 Ry     beta= 0.20
     Davidson diagonalization with overlap
     c_bands:  4 eigenvalues not converged
     c_bands:  4 eigenvalues not converged
     c_bands:  4 eigenvalues not converged
     ethr =  1.84E-06,  avg # of iterations = 70.5

     negative rho (up, down):  4.256E-04 0.000E+00

     total cpu time spent up to now is    11598.7 secs

     total energy              =  -32817.49133990 Ry
     estimated scf accuracy    <       0.01411983 Ry

     iteration # 15     ecut=    77.00 Ry     beta= 0.20
     Davidson diagonalization with overlap
     c_bands:  3 eigenvalues not converged
     c_bands:  3 eigenvalues not converged
     ethr =  8.31E-07,  avg # of iterations = 23.5

     negative rho (up, down):  4.900E-04 0.000E+00

     total cpu time spent up to now is    12355.9 secs

     total energy              =  -32817.49180078 Ry
     estimated scf accuracy    <       0.00469351 Ry

     iteration # 16     ecut=    77.00 Ry     beta= 0.20
     Davidson diagonalization with overlap
     c_bands:  2 eigenvalues not converged
     ethr =  2.76E-07,  avg # of iterations = 16.2

     negative rho (up, down):  5.981E-04 0.000E+00

     total cpu time spent up to now is    13401.3 secs

     total energy              =  -32817.49669070 Ry
     estimated scf accuracy    <       0.00175229 Ry

     iteration # 17     ecut=    77.00 Ry     beta= 0.20
     Davidson diagonalization with overlap
     c_bands:  2 eigenvalues not converged
     c_bands:  5 eigenvalues not converged
     ethr =  1.03E-07,  avg # of iterations = 23.2

     negative rho (up, down):  6.777E-04 0.000E+00

     total cpu time spent up to now is    14351.0 secs

     total energy              =  -32817.49707727 Ry
     estimated scf accuracy    <       0.00209194 Ry

     iteration # 18     ecut=    77.00 Ry     beta= 0.20
     Davidson diagonalization with overlap
     c_bands:  1 eigenvalues not converged
     c_bands:  1 eigenvalues not converged
     ethr =  1.03E-07,  avg # of iterations = 14.0

     negative rho (up, down):  7.499E-04 0.000E+00

     total cpu time spent up to now is    14849.6 secs

     total energy              =  -32817.49682526 Ry
     estimated scf accuracy    <       0.00054985 Ry

     iteration # 19     ecut=    77.00 Ry     beta= 0.20
     Davidson diagonalization with overlap
     ethr =  3.23E-08,  avg # of iterations = 11.0

     negative rho (up, down):  7.784E-04 0.000E+00

     total cpu time spent up to now is    15924.9 secs

     total energy              =  -32817.49743125 Ry
     estimated scf accuracy    <       0.00024097 Ry

     iteration # 20     ecut=    77.00 Ry     beta= 0.20
     Davidson diagonalization with overlap
     ethr =  1.42E-08,  avg # of iterations =  7.8

     negative rho (up, down):  7.815E-04 0.000E+00

     total cpu time spent up to now is    16460.9 secs

     total energy              =  -32817.49741259 Ry
     estimated scf accuracy    <       0.00013583 Ry

     iteration # 21     ecut=    77.00 Ry     beta= 0.20
     Davidson diagonalization with overlap
     ethr =  7.99E-09,  avg # of iterations = 14.2

     negative rho (up, down):  7.928E-04 0.000E+00

     total cpu time spent up to now is    17200.2 secs

     total energy              =  -32817.49746408 Ry
     estimated scf accuracy    <       0.00003159 Ry

     iteration # 22     ecut=    77.00 Ry     beta= 0.20
     Davidson diagonalization with overlap
     c_bands:  2 eigenvalues not converged
     ethr =  1.86E-09,  avg # of iterations = 19.0

     negative rho (up, down):  7.997E-04 0.000E+00

     total cpu time spent up to now is    18556.1 secs

     total energy              =  -32817.49749861 Ry
     estimated scf accuracy    <       0.00002629 Ry

     iteration # 23     ecut=    77.00 Ry     beta= 0.20
     Davidson diagonalization with overlap
     ethr =  1.55E-09,  avg # of iterations = 11.2

     negative rho (up, down):  8.007E-04 0.000E+00

     total cpu time spent up to now is    19287.8 secs

     total energy              =  -32817.49750690 Ry
     estimated scf accuracy    <       0.00000324 Ry

     iteration # 24     ecut=    77.00 Ry     beta= 0.20
     Davidson diagonalization with overlap
     c_bands:  3 eigenvalues not converged
     c_bands:  4 eigenvalues not converged
     ethr =  1.90E-10,  avg # of iterations = 18.8

     negative rho (up, down):  8.000E-04 0.000E+00

     total cpu time spent up to now is    21244.0 secs

     total energy              =  -32817.49750948 Ry
     estimated scf accuracy    <       0.00001024 Ry

     iteration # 25     ecut=    77.00 Ry     beta= 0.20
     Davidson diagonalization with overlap
     ethr =  1.90E-10,  avg # of iterations = 11.5

     negative rho (up, down):  8.030E-04 0.000E+00

     total cpu time spent up to now is    22252.7 secs

     total energy              =  -32817.49750994 Ry
     estimated scf accuracy    <       0.00000191 Ry

     iteration # 26     ecut=    77.00 Ry     beta= 0.20
     Davidson diagonalization with overlap
     ethr =  1.12E-10,  avg # of iterations =  6.5

     negative rho (up, down):  8.072E-04 0.000E+00

     total cpu time spent up to now is    22744.6 secs

     total energy              =  -32817.49750493 Ry
     estimated scf accuracy    <       0.00000144 Ry

     iteration # 27     ecut=    77.00 Ry     beta= 0.20
     Davidson diagonalization with overlap
     ethr =  8.48E-11,  avg # of iterations =  7.5

     negative rho (up, down):  8.058E-04 0.000E+00

     total cpu time spent up to now is    23218.0 secs

     End of self-consistent calculation

          k = 0.0000 0.0000 0.0000 (386245 PWs)   bands (ev):

   -88.7706 -86.8354 -66.4965 -66.4955 -66.4953 -66.4948 -66.4801 -66.4764
   -66.4764 -66.4753 -66.4752 -66.4752 -66.4752 -66.4752 -66.4752 -66.4744
   -66.4743 -66.4743 -66.4741 -66.4741 -66.4740 -66.4740 -66.4740 -66.4740
   -66.4740 -66.4740 -66.4738 -66.4676 -66.4676 -66.4583 -66.4582 -66.4582
   -66.4578 -66.4539 -66.4539 -66.4539 -66.4538 -66.4538 -66.4538 -66.4538
   -66.4538 -66.4538 -66.4531 -66.4530 -66.4529 -66.4529 -66.4528 -66.4527
   -66.4527 -66.4526 -66.4526 -66.4526 -66.4526 -66.4526 -66.4526 -66.4525
   -66.4525 -66.4525 -66.4524 -66.4523 -66.4393 -66.4392 -66.4342 -66.4307
   -66.4306 -66.4278 -54.6289 -54.5146 -54.5141 -52.8151 -52.5990 -52.5988
   -40.8239 -40.8239 -40.8239 -40.8233 -40.8233 -40.8233 -40.8229 -40.8229
   -40.8227 -40.8162 -40.8161 -40.8135 -40.7486 -40.7486 -40.7486 -40.7486
   -40.7486 -40.7486 -40.7480 -40.7480 -40.7479 -40.7479 -40.7479 -40.7479
   -40.7477 -40.7477 -40.7476 -40.7474 -40.7474 -40.7473 -40.7462 -40.7425
   -40.7361 -40.7361 -40.7289 -40.7288 -40.6587 -40.6561 -40.6555 -40.6551
   -40.6288 -40.6223 -40.6223 -40.6222 -40.6222 -40.6222 -40.6222 -40.6217
   -40.6215 -40.6215 -40.6215 -40.6215 -40.6215 -40.6215 -40.6214 -40.6213
   -40.6213 -40.6211 -40.6211 -40.6210 -40.6202 -40.6192 -40.6192 -40.6167
   -40.6167 -40.6144 -40.6144 -40.6144 -40.6144 -40.6144 -40.6144 -40.6138
   -40.6138 -40.6138 -40.6138 -40.6138 -40.6137 -40.6136 -40.6135 -40.6134
   -40.6133 -40.6132 -40.6132 -40.6088 -40.6087 -40.6073 -40.6073 -40.5933
   -40.5886 -40.5872 -40.5872 -40.5872 -40.5872 -40.5872 -40.5872 -40.5864
   -40.5864 -40.5864 -40.5864 -40.5864 -40.5864 -40.5863 -40.5863 -40.5863
   -40.5860 -40.5860 -40.5860 -40.5807 -40.5798 -40.5798 -40.5774 -40.5751
   -40.5738 -40.5738 -40.5725 -40.5725 -40.5725 -40.5724 -40.5724 -40.5724
   -40.5724 -40.5724 -40.5723 -40.5718 -40.5718 -40.5718 -40.5718 -40.5717
   -40.5717 -40.5717 -40.5717 -40.5717 -40.5717 -40.5716 -40.5715 -40.5715
   -40.5714 -40.5714 -40.5713 -40.5713 -40.5713 -40.5712 -40.5711 -40.5637
   -40.5636 -40.5627 -40.5626 -40.5602 -40.5089 -40.5089 -40.5089 -40.5080
   -40.5080 -40.5080 -40.5079 -40.5079 -40.5077 -40.4993 -40.4993 -40.4993
   -40.4618 -40.4618 -40.4618 -40.4618 -40.4617 -40.4617 -40.4609 -40.4609
   -40.4608 -40.4608 -40.4608 -40.4608 -40.4608 -40.4608 -40.4608 -40.4606
   -40.4605 -40.4605 -40.4493 -40.4490 -40.4490 -40.4485 -40.4485 -40.4437
   -40.4141 -40.4141 -40.4132 -40.4132 -40.4131 -40.4131 -40.3975 -40.3975
   -19.9950 -19.9314 -19.8391 -19.7508 -19.1396 -19.1307 -19.1306 -19.1203
   -19.1193 -19.1193 -19.0900 -19.0830 -19.0829 -19.0583 -19.0564 -19.0563
   -19.0016 -18.9982 -18.9982 -18.9720 -18.9711 -18.9711 -18.9079 -18.9070
   -18.9070 -18.8960 -18.8957 -18.8957 -18.7642 -18.6393 -18.4899 -18.3885
   -18.3883 -18.3830 -18.3526 -18.3414 -18.3408 -18.3408 -18.2833 -18.2832
   -18.2730 -18.2354 -18.2334 -18.2334 -18.1607 -18.1606 -18.1493 -18.1249
   -18.1225 -18.1224 -18.0696 -18.0696 -18.0544 -18.0468 -18.0458 -18.0458
   -18.0291 -18.0290 -17.9951 -17.9936 -17.9936 -17.9934 -17.9900 -17.9900
   -17.9664 -17.9613 -17.9611 -17.9611 -17.9532 -17.9532 -17.9495 -17.9470
   -17.9470 -17.9241 -17.9232 -17.9232 -17.9204 -17.9154 -17.9147 -17.9147
   -17.8982 -17.8982 -17.8889 -17.8805 -17.8805 -17.8706 -17.8683 -17.8682
   -17.8678 -17.8543 -17.8543 -17.8522 -17.8165 -17.8165 -17.7950 -17.7910
   -17.7909 -17.7863 -17.7857 -17.7848 -17.7848 -17.7642 -17.7641 -17.7555
   -17.7456 -17.7456 -17.7375 -17.7354 -17.7331 -17.7331 -17.7293 -17.7293
   -17.7259 -17.7126 -17.7126 -17.7105 -17.6990 -17.6990 -17.6947 -17.6923
   -17.6904 -17.6904 -17.6685 -17.6685 -17.6669 -17.6659 -17.6652 -17.6652
   -11.8522 -11.7280 -11.6937 -11.6937 -11.6531 -11.6180 -11.6180 -11.6072
   -11.5331 -11.5115 -11.5115 -11.4244 -11.4173 -11.4173 -11.2808 -11.1295
   -11.1127 -11.1127 -11.1096 -11.1089 -11.1088 -11.0658 -11.0189 -11.0189
   -11.0077 -11.0056 -11.0056 -10.9941 -10.9823 -10.9822 -10.9578 -10.9410
   -10.9360 -10.9360 -10.9351 -10.9331 -10.9331 -10.9266 -10.9261 -10.9261
   -10.8942 -10.8942 -10.8900 -10.8578 -10.8483 -10.8483 -10.8218 -10.8218
   -10.8069 -10.7866 -10.7837 -10.7836 -10.7605 -10.7605 -10.7463 -10.7265
   -10.7264 -10.7218 -10.7198 -10.7197 -10.7170 -10.7077 -10.7005 -10.7005
   -10.6974 -10.6907 -10.6907 -10.6789 -10.6789 -10.6752 -10.6752 -10.6751
   -10.6745 -10.6720 -10.6701 -10.6701 -10.6478 -10.6477 -10.6398 -10.6384
   -10.6383 -10.6346 -10.6173 -10.6122 -10.6122 -10.6088 -10.6088 -10.6046
   -10.6034 -10.6023 -10.6023 -10.5225 -10.5209 -10.5209 -10.4658 -10.4533
   -10.4533 -10.4468 -10.4467 -10.4456 -10.1579 -10.1579 -10.0671  -9.9967
    -9.9967  -9.8625  -9.8050  -9.8050  -9.6860  -9.6787  -9.6787  -9.6746
    -9.6678  -9.6678  -9.6560  -9.6491  -9.6400  -9.6400  -9.6387  -9.6387
    -9.6378  -9.6270  -9.6270  -9.6268  -9.6182  -9.6182  -9.6151  -9.5921
    -9.5921  -9.5766  -9.5241  -9.5018  -9.5010  -9.4983  -9.4983  -9.4962
    -9.4962  -9.4885  -9.4884  -9.4884  -9.4879  -9.4873  -9.4873  -9.4746
    -9.4746  -9.4549  -9.4393  -9.4393  -9.4139  -9.4139  -9.4135  -9.4130
    -9.4128  -9.4128  -9.3938  -9.3938  -9.3921  -9.3893  -9.3848  -9.3848
    -9.3640  -9.3640  -9.3256  -9.3171  -9.3170  -9.3157  -9.2256  -9.2256
    -9.2180  -9.2014  -9.2014  -9.1972  -9.1972  -9.1892  -9.1833  -9.1774
    -9.1750  -9.1750  -9.1070  -9.1070  -9.1047  -9.0917  -9.0916  -9.0812
    -9.0543  -9.0543  -9.0528  -9.0488  -9.0487  -9.0449  -9.0026  -8.9992
    -8.9882  -8.9882  -8.9717  -8.9717  -8.9215  -8.9214  -8.8718  -8.8568
    -8.8530  -8.8530  -8.8516  -8.8253  -8.8253  -8.8245  -8.8072  -8.8072
    -8.7977  -8.7958  -8.7958  -8.7878  -8.7877  -8.7812  -8.7619  -8.7600
    -8.7600  -8.7408  -8.7140  -8.7140  -8.6928  -8.6928  -8.6927  -8.6923
    -8.6923  -8.6920  -8.6117  -8.6117  -8.6088  -8.6088  -8.6039  -8.5931
    -8.5336  -8.5335  -8.5248  -8.5248  -8.5232  -8.5072  -8.4639  -8.4639
    -8.4602  -8.4602  -8.4601  -8.4537  -8.4117  -8.2928  -8.2927  -8.2385
    -8.2385  -8.2331  -8.2331  -8.2268  -8.2268  -8.2054  -8.2054  -8.1809
    -8.1576  -8.1531  -8.1531  -8.1506  -8.1474  -8.1473  -8.1416  -8.1370
    -8.1370  -8.1301  -8.1202  -8.1202  -8.1148  -8.1126  -8.1126  -8.1052
    -8.0925  -8.0925  -8.0903  -8.0899  -8.0899  -8.0865  -7.9126  -7.9126
    -7.8565  -7.7361  -7.7306  -7.7305  -7.6648  -7.6502  -7.6501  -7.5805
    -7.5709  -7.5708  -7.5129  -7.5128  -7.5128  -7.5027  -7.5003  -7.5003
    -7.4819  -7.4786  -7.4786  -7.4358  -7.4355  -7.4303  -7.4196  -7.4196
    -7.4115  -7.4096  -7.4096  -7.4084  -7.4039  -7.4039  -7.3968  -7.3968
    -7.3947  -7.3894  -7.3849  -7.3773  -7.3773  -7.3756  -7.3756  -7.3720
    -7.3600  -7.3542  -7.3541  -7.3531  -7.3531  -7.3520  -7.3414  -7.3205
    -7.3205  -7.2921  -7.2916  -7.2827  -7.2827  -7.2796  -7.2796  -7.2754
    -7.2754  -7.2720  -7.2679  -7.2222  -7.1985  -7.1984  -7.1749  -7.1747
    -7.1647  -7.1633  -7.1599  -7.1599  -7.1559  -7.1559  -7.1456  -7.1289
    -7.1289  -7.1195  -7.1194  -7.1018  -7.1018  -7.0954  -7.0849  -7.0849
    -6.9899  -6.9893  -6.9720  -6.9720  -6.9411  -6.9015  -6.9010  -6.8976
    -6.7476  -6.7476  -6.7166  -6.7166  -6.7143  -6.6881  -6.6663  -6.6552
    -6.6552  -6.6110  -6.6108  -6.5906  -6.5903  -6.5572  -6.5572  -6.5416
    -6.5022  -6.5022  -6.4849  -6.4804  -6.4804  -6.4768  -6.4750  -6.4749
    -6.4598  -6.4289  -6.4289  -6.4107  -6.4107  -6.4081  -6.3932  -6.3845
    -6.3845  -6.3833  -6.3784  -6.3784  -6.3775  -6.3775  -6.3763  -6.3697
    -6.3689  -6.3689  -6.3685  -6.3685  -6.3684  -6.3514  -6.3323  -6.3322
    -6.3176  -6.2953  -6.2953  -6.2845  -6.2772  -6.2772  -6.2624  -6.2218
    -6.2216  -6.2093  -6.2061  -6.2045  -6.2044  -6.1966  -6.1965  -6.1801
    -6.1718  -6.1665  -6.1665  -6.1575  -6.1574  -6.1459  -6.1362  -6.1284
    -6.1283  -6.1235  -6.1234  -6.1197  -6.1141  -6.0889  -6.0885  -6.0695
    -5.9144  -5.9108  -5.5794  -5.2601  -5.2544  -5.2543  -5.0850  -5.0316
    -5.0303  -5.0041  -4.5664  -3.7233  -3.7232  -3.7198  -3.7172  -3.7172
    -3.7055  -3.6949  -3.6948  -3.6943  -3.6926  -3.6926  -3.6851  -3.5681
    -3.5681  -3.5596  -3.5544  -3.5544  -3.5508  -3.5470  -3.5469  -3.5468
    -3.5441  -3.5441  -3.4930  -3.3766  -3.3766  -3.3715  -3.3657  -3.3657
    -3.3607  -3.3522  -3.3440  -3.3440  -3.3440  -3.3405  -3.3405  -3.3269
    -3.3269  -3.3229  -3.3191  -3.3191  -3.3141  -3.3138  -3.3138  -3.3053
    -3.2993  -3.2993  -3.2981  -3.2856  -3.2839  -3.2838  -3.2832  -3.2831
    -3.2828  -3.2730  -3.2729  -3.2720  -3.2686  -3.2644  -3.2644  -3.2268
    -3.2153  -3.2152  -3.2144  -3.2094  -3.2094  -3.2081  -3.2080  -3.2043
    -3.2032  -3.1870  -3.1870  -3.1577  -3.1535  -3.1534  -3.1532  -3.1369
    -3.1369  -3.0874  -3.0873  -3.0797  -3.0713  -3.0712  -3.0542  -2.9366
    -2.9366  -2.9324  -2.9311  -2.9303  -2.9302  -2.9149  -2.9124  -2.9124
    -2.8558  -2.8556  -2.8457  -2.8445  -2.8433  -2.8430  -2.8419  -2.8346
    -2.8345  -2.8339  -2.8339  -2.8309  -2.8309  -2.8297  -2.8251  -2.8251
    -2.8145  -2.8145  -2.8070  -2.8069  -2.8028  -2.8022  -2.8021  -2.7989
    -2.7987  -2.7983  -2.7981  -2.7939  -2.7937  -2.7462  -2.7459  -2.7459
    -2.7222  -2.7219  -2.7178  -2.7176  -2.6946  -2.6810  -2.6747  -2.6734
    -2.6731  -2.6728  -2.6725  -2.6724  -2.6723  -2.6721  -2.6717  -2.6586
    -2.6586  -2.6247  -2.6185  -2.6184  -2.6046  -2.6046  -2.5977  -2.5976
    -2.5943  -2.5437  -2.5436  -2.5089  -2.5088  -2.4953  -2.4947  -2.4929
    -2.4897  -2.4870  -2.4862  -2.4366  -2.4251  -2.4250  -2.4128  -2.4126
    -2.4074  -2.2860  -2.2816  -2.2787

          k = 0.0000-0.5773 0.0000 (386352 PWs)   bands (ev):

   -88.7706 -86.8354 -66.4915 -66.4903 -66.4903 -66.4893 -66.4892 -66.4891
   -66.4890 -66.4876 -66.4796 -66.4796 -66.4786 -66.4786 -66.4784 -66.4784
   -66.4774 -66.4725 -66.4665 -66.4650 -66.4645 -66.4645 -66.4645 -66.4645
   -66.4637 -66.4636 -66.4633 -66.4633 -66.4633 -66.4633 -66.4633 -66.4633
   -66.4614 -66.4601 -66.4601 -66.4598 -66.4591 -66.4589 -66.4588 -66.4588
   -66.4583 -66.4551 -66.4539 -66.4538 -66.4538 -66.4538 -66.4530 -66.4528
   -66.4527 -66.4526 -66.4526 -66.4525 -66.4525 -66.4525 -66.4494 -66.4494
   -66.4483 -66.4483 -66.4481 -66.4481 -66.4396 -66.4392 -66.4339 -66.4318
   -66.4312 -66.4267 -54.6289 -54.5146 -54.5141 -52.8151 -52.5990 -52.5988
   -40.7960 -40.7923 -40.7923 -40.7923 -40.7922 -40.7917 -40.7917 -40.7917
   -40.7917 -40.7914 -40.7913 -40.7913 -40.7910 -40.7855 -40.7803 -40.7688
   -40.7655 -40.7655 -40.7648 -40.7648 -40.7645 -40.7644 -40.7633 -40.7605
   -40.7534 -40.7534 -40.7528 -40.7528 -40.7524 -40.7523 -40.7437 -40.7276
   -40.7027 -40.7027 -40.7027 -40.7027 -40.7020 -40.7020 -40.7020 -40.7020
   -40.7017 -40.7017 -40.7017 -40.7016 -40.6924 -40.6904 -40.6896 -40.6824
   -40.6481 -40.6456 -40.6439 -40.6439 -40.6433 -40.6433 -40.6429 -40.6429
   -40.6344 -40.6344 -40.6336 -40.6336 -40.6334 -40.6334 -40.6305 -40.6233
   -40.6231 -40.6231 -40.6229 -40.6224 -40.6224 -40.6221 -40.6220 -40.6182
   -40.6059 -40.5961 -40.5950 -40.5934 -40.5934 -40.5934 -40.5934 -40.5928
   -40.5928 -40.5928 -40.5928 -40.5926 -40.5925 -40.5923 -40.5923 -40.5909
   -40.5882 -40.5847 -40.5847 -40.5841 -40.5840 -40.5838 -40.5836 -40.5799
   -40.5795 -40.5730 -40.5729 -40.5724 -40.5724 -40.5724 -40.5724 -40.5721
   -40.5721 -40.5719 -40.5719 -40.5717 -40.5717 -40.5717 -40.5717 -40.5716
   -40.5714 -40.5713 -40.5713 -40.5712 -40.5699 -40.5664 -40.5637 -40.5637
   -40.5636 -40.5630 -40.5630 -40.5630 -40.5627 -40.5627 -40.5599 -40.5561
   -40.5420 -40.5420 -40.5420 -40.5420 -40.5412 -40.5412 -40.5412 -40.5411
   -40.5411 -40.5410 -40.5408 -40.5408 -40.5363 -40.5327 -40.5319 -40.5273
   -40.5073 -40.5073 -40.5073 -40.5073 -40.5064 -40.5064 -40.5064 -40.5064
   -40.5063 -40.5062 -40.5062 -40.5062 -40.4991 -40.4951 -40.4951 -40.4942
   -40.4942 -40.4941 -40.4940 -40.4940 -40.4922 -40.4906 -40.4888 -40.4758
   -40.4758 -40.4749 -40.4749 -40.4749 -40.4746 -40.4728 -40.4669 -40.4621
   -40.4588 -40.4588 -40.4579 -40.4579 -40.4578 -40.4577 -40.4440 -40.4369
   -40.4282 -40.4281 -40.4272 -40.4272 -40.4272 -40.4270 -40.4209 -40.4057
   -19.7606 -19.7553 -19.7035 -19.6889 -19.6121 -19.5972 -19.5195 -19.5137
   -19.3204 -19.3198 -19.2636 -19.2627 -19.1776 -19.1776 -19.0917 -19.0915
   -18.6750 -18.6630 -18.6251 -18.6182 -18.6043 -18.5997 -18.5848 -18.5823
   -18.5700 -18.5457 -18.5428 -18.5242 -18.5100 -18.4974 -18.4846 -18.4728
   -18.4453 -18.4411 -18.4261 -18.4185 -18.4136 -18.4069 -18.3946 -18.3772
   -18.3543 -18.3485 -18.3342 -18.3340 -18.3247 -18.3041 -18.2785 -18.2741
   -18.2650 -18.2408 -18.2191 -18.2121 -18.1969 -18.1813 -18.1405 -18.1211
   -18.1142 -18.1084 -18.0965 -18.0909 -18.0503 -18.0475 -18.0189 -18.0050
   -17.9916 -17.9795 -17.9783 -17.9727 -17.9727 -17.9725 -17.9661 -17.9551
   -17.9443 -17.9437 -17.9380 -17.9360 -17.9335 -17.9219 -17.9180 -17.9149
   -17.9090 -17.9083 -17.9023 -17.9012 -17.8780 -17.8743 -17.8713 -17.8675
   -17.8660 -17.8641 -17.8593 -17.8586 -17.8532 -17.8452 -17.8111 -17.8075
   -17.8038 -17.7963 -17.7902 -17.7892 -17.7602 -17.7514 -17.7455 -17.7455
   -17.7176 -17.7135 -17.7098 -17.7098 -17.6924 -17.6907 -17.6899 -17.6891
   -17.6881 -17.6880 -17.6816 -17.6777 -17.6704 -17.6641 -17.6524 -17.6485
   -17.6305 -17.6284 -17.6118 -17.6088 -17.5975 -17.5953 -17.5905 -17.5901
   -11.5953 -11.5872 -11.4894 -11.3968 -11.3906 -11.3855 -11.3825 -11.3637
   -11.3544 -11.3504 -11.3452 -11.3340 -11.3148 -11.3068 -11.2975 -11.2630
   -11.2472 -11.2369 -11.2118 -11.2068 -11.1924 -11.1878 -11.1849 -11.1575
   -11.1504 -11.1402 -11.1351 -11.1306 -11.1273 -11.1265 -11.1157 -11.1078
   -11.0759 -11.0689 -11.0593 -11.0548 -11.0495 -11.0380 -11.0377 -11.0372
   -11.0335 -11.0153 -11.0148 -11.0108 -10.9804 -10.9764 -10.9385 -10.9298
   -10.9220 -10.9217 -10.8473 -10.8203 -10.8072 -10.7916 -10.7763 -10.7759
   -10.7748 -10.7538 -10.7440 -10.7214 -10.7103 -10.7002 -10.6994 -10.6901
   -10.6896 -10.6853 -10.6818 -10.6817 -10.6805 -10.6781 -10.6759 -10.6653
   -10.6649 -10.6629 -10.6614 -10.6607 -10.6600 -10.6599 -10.6513 -10.6479
   -10.6478 -10.6324 -10.6139 -10.6134 -10.6132 -10.6109 -10.4161 -10.4047
   -10.3982 -10.3924 -10.3690 -10.3476 -10.2908 -10.2510 -10.2330 -10.1925
   -10.1167 -10.0915 -10.0182 -10.0128 -10.0048  -9.9998  -9.9692  -9.9671
    -9.9527  -9.9485  -9.9252  -9.9221  -9.9189  -9.8994  -9.8932  -9.8873
    -9.8824  -9.8807  -9.8630  -9.8531  -9.8039  -9.7970  -9.7890  -9.7836
    -9.7762  -9.7715  -9.7707  -9.7666  -9.7545  -9.7281  -9.7100  -9.7090
    -9.6794  -9.6626  -9.6570  -9.6484  -9.6308  -9.6305  -9.6232  -9.6040
    -9.5865  -9.5851  -9.5532  -9.5498  -9.5441  -9.5274  -9.5129  -9.5086
    -9.4811  -9.4762  -9.4707  -9.4349  -9.4264  -9.4116  -9.4080  -9.4070
    -9.4034  -9.4034  -9.3799  -9.3786  -9.3568  -9.3557  -9.3391  -9.3363
    -9.3342  -9.3286  -9.3233  -9.3232  -9.2964  -9.2951  -9.2937  -9.2871
    -9.2289  -9.2157  -9.1529  -9.1278  -9.1196  -9.1087  -9.0780  -9.0755
    -9.0612  -9.0566  -9.0545  -9.0379  -9.0371  -9.0266  -9.0008  -8.9909
    -8.9777  -8.9494  -8.9461  -8.9432  -8.9309  -8.9116  -8.9105  -8.9008
    -8.8941  -8.8907  -8.8879  -8.8837  -8.8389  -8.8356  -8.8303  -8.8216
    -8.8123  -8.8053  -8.8037  -8.7927  -8.7749  -8.7600  -8.7571  -8.7554
    -8.7529  -8.7431  -8.7419  -8.7403  -8.7401  -8.7357  -8.7350  -8.7291
    -8.7233  -8.7150  -8.7107  -8.7091  -8.7066  -8.7015  -8.6983  -8.6897
    -8.6743  -8.6707  -8.6604  -8.6561  -8.6546  -8.6520  -8.6510  -8.6496
    -8.6318  -8.6250  -8.6036  -8.6008  -8.5922  -8.5919  -8.5682  -8.5584
    -8.5286  -8.5131  -8.5024  -8.4669  -8.4375  -8.3926  -8.3735  -8.3614
    -8.3125  -8.2945  -8.2294  -8.2246  -8.2180  -8.1832  -8.1458  -8.0977
    -8.0780  -7.9992  -7.9985  -7.9931  -7.9893  -7.9843  -7.9781  -7.9760
    -7.9317  -7.9294  -7.9177  -7.8540  -7.8497  -7.8318  -7.8228  -7.7574
    -7.7192  -7.7118  -7.7110  -7.7026  -7.6985  -7.6851  -7.6847  -7.6774
    -7.6745  -7.6680  -7.6665  -7.6633  -7.6618  -7.6591  -7.6573  -7.6543
    -7.6539  -7.6533  -7.6495  -7.6445  -7.6413  -7.6395  -7.6385  -7.6366
    -7.6344  -7.6315  -7.6287  -7.6278  -7.6244  -7.6175  -7.6065  -7.6007
    -7.5961  -7.5931  -7.5908  -7.5813  -7.5802  -7.5722  -7.5661  -7.5655
    -7.5641  -7.5633  -7.5373  -7.5368  -7.5349  -7.5349  -7.5214  -7.5131
    -7.4941  -7.4859  -7.4784  -7.4769  -7.4749  -7.4680  -7.4663  -7.4647
    -7.4624  -7.4540  -7.4503  -7.4391  -7.4343  -7.4333  -7.4183  -7.4164
    -7.4090  -7.4090  -7.3691  -7.3274  -7.3256  -7.3238  -7.3193  -7.2925
    -7.2711  -7.1675  -7.1234  -7.0627  -7.0441  -7.0437  -7.0375  -7.0313
    -7.0077  -6.9991  -6.9957  -6.9807  -6.9719  -6.9698  -6.9532  -6.9355
    -6.9190  -6.9020  -6.8970  -6.8886  -6.8872  -6.8602  -6.8578  -6.8469
    -6.8309  -6.8137  -6.7979  -6.7862  -6.7718  -6.7651  -6.7442  -6.7373
    -6.7311  -6.7310  -6.7188  -6.7005  -6.6906  -6.6676  -6.6362  -6.6280
    -6.6196  -6.5803  -6.5614  -6.5471  -6.5191  -6.5141  -6.5025  -6.4865
    -6.4828  -6.4787  -6.4770  -6.4747  -6.4741  -6.4618  -6.4591  -6.4572
    -6.4569  -6.4510  -6.4499  -6.4495  -6.4494  -6.4458  -6.4125  -6.3866
    -6.3598  -6.3448  -6.3396  -6.2793  -6.2617  -6.2222  -6.1980  -6.1956
    -6.1953  -6.1831  -6.1695  -6.1552  -6.1488  -6.1464  -6.1461  -6.1458
    -6.1441  -6.1425  -6.1406  -6.1215  -6.0998  -6.0983  -6.0948  -6.0899
    -6.0780  -6.0680  -6.0673  -6.0662  -6.0643  -5.9424  -5.9165  -5.8648
    -5.8641  -5.8130  -5.8128  -5.7555  -5.7552  -5.7342  -5.7118  -5.7112
    -5.7100  -5.5553  -5.5402  -5.4641  -5.4597  -5.2546  -5.2546  -5.0523
    -5.0269  -5.0267  -4.5570  -3.9610  -3.9592  -3.9529  -3.9444  -3.8075
    -3.7968  -3.7857  -3.7831  -3.7700  -3.7496  -3.7113  -3.7108  -3.6955
    -3.6935  -3.6792  -3.6770  -3.6675  -3.6671  -3.6593  -3.6347  -3.5505
    -3.5498  -3.5417  -3.5186  -3.4759  -3.4727  -3.4694  -3.4688  -3.4667
    -3.4486  -3.4231  -3.4209  -3.3948  -3.3902  -3.3893  -3.3851  -3.3835
    -3.3800  -3.3510  -3.3507  -3.3436  -3.3428  -3.3410  -3.3385  -3.3384
    -3.3269  -3.3167  -3.3141  -3.2967  -3.2926  -3.2891  -3.2858  -3.2754
    -3.2733  -3.2263  -3.2173  -3.2168  -3.2151  -3.2125  -3.2103  -3.2095
    -3.2088  -3.1810  -3.1746  -3.1609  -3.1587  -3.1571  -3.1506  -3.1500
    -3.1475  -3.1463  -3.1446  -3.1200  -3.1148  -3.1117  -3.1047  -3.1046
    -3.0944  -3.0933  -3.0825  -3.0786  -3.0785  -3.0689  -3.0588  -3.0530
    -3.0501  -3.0403  -3.0399  -3.0367  -3.0337  -3.0311  -3.0311  -3.0237
    -3.0101  -2.9746  -2.9676  -2.9374  -2.9352  -2.9331  -2.9320  -2.9257
    -2.9207  -2.8931  -2.8923  -2.8914  -2.8908  -2.8906  -2.8889  -2.8816
    -2.8794  -2.8752  -2.8718  -2.8682  -2.8642  -2.8593  -2.8556  -2.8464
    -2.8426  -2.8381  -2.8371  -2.8359  -2.8311  -2.8251  -2.8198  -2.8178
    -2.8158  -2.8137  -2.8096  -2.8051  -2.7995  -2.7961  -2.7837  -2.7637
    -2.7597  -2.7533  -2.7497  -2.7448  -2.7422  -2.7308  -2.7285  -2.6617
    -2.6583  -2.6550  -2.6548  -2.5904  -2.5892  -2.5773  -2.5751  -2.4828
    -2.4788  -2.4523  -2.4413  -2.4275  -2.4252  -2.4112  -2.4030  -2.3976
    -2.3947  -2.3925  -2.3919  -2.3895  -2.3836  -2.2682  -2.2659  -2.2640
    -2.2582  -2.2545  -2.2343  -2.2287

          k =-0.5000-0.2887 0.0000 (386352 PWs)   bands (ev):

   -88.7706 -86.8354 -66.4915 -66.4903 -66.4903 -66.4893 -66.4892 -66.4891
   -66.4890 -66.4876 -66.4796 -66.4796 -66.4786 -66.4786 -66.4784 -66.4784
   -66.4774 -66.4725 -66.4665 -66.4651 -66.4645 -66.4645 -66.4645 -66.4645
   -66.4637 -66.4636 -66.4633 -66.4633 -66.4633 -66.4633 -66.4633 -66.4633
   -66.4614 -66.4601 -66.4601 -66.4597 -66.4591 -66.4590 -66.4588 -66.4588
   -66.4582 -66.4552 -66.4539 -66.4538 -66.4538 -66.4538 -66.4530 -66.4528
   -66.4527 -66.4526 -66.4526 -66.4526 -66.4525 -66.4525 -66.4494 -66.4494
   -66.4483 -66.4483 -66.4481 -66.4481 -66.4396 -66.4391 -66.4339 -66.4319
   -66.4311 -66.4267 -54.6289 -54.5146 -54.5141 -52.8151 -52.5990 -52.5988
   -40.7960 -40.7923 -40.7923 -40.7923 -40.7922 -40.7917 -40.7917 -40.7917
   -40.7917 -40.7913 -40.7913 -40.7913 -40.7910 -40.7856 -40.7803 -40.7687
   -40.7655 -40.7654 -40.7648 -40.7648 -40.7645 -40.7644 -40.7633 -40.7604
   -40.7534 -40.7534 -40.7528 -40.7528 -40.7524 -40.7523 -40.7437 -40.7276
   -40.7027 -40.7027 -40.7027 -40.7027 -40.7020 -40.7020 -40.7020 -40.7020
   -40.7017 -40.7017 -40.7016 -40.7016 -40.6924 -40.6904 -40.6896 -40.6825
   -40.6481 -40.6456 -40.6439 -40.6439 -40.6433 -40.6433 -40.6429 -40.6429
   -40.6344 -40.6344 -40.6336 -40.6336 -40.6334 -40.6334 -40.6305 -40.6233
   -40.6231 -40.6231 -40.6229 -40.6224 -40.6224 -40.6221 -40.6220 -40.6182
   -40.6059 -40.5961 -40.5950 -40.5934 -40.5934 -40.5934 -40.5934 -40.5928
   -40.5928 -40.5928 -40.5928 -40.5926 -40.5925 -40.5923 -40.5923 -40.5908
   -40.5882 -40.5847 -40.5847 -40.5841 -40.5840 -40.5837 -40.5837 -40.5799
   -40.5795 -40.5730 -40.5729 -40.5724 -40.5724 -40.5724 -40.5724 -40.5721
   -40.5721 -40.5719 -40.5719 -40.5717 -40.5717 -40.5717 -40.5717 -40.5715
   -40.5715 -40.5714 -40.5713 -40.5712 -40.5698 -40.5664 -40.5637 -40.5637
   -40.5636 -40.5630 -40.5630 -40.5630 -40.5627 -40.5627 -40.5599 -40.5561
   -40.5420 -40.5420 -40.5420 -40.5420 -40.5412 -40.5412 -40.5412 -40.5411
   -40.5411 -40.5410 -40.5409 -40.5408 -40.5363 -40.5327 -40.5319 -40.5272
   -40.5073 -40.5073 -40.5073 -40.5073 -40.5064 -40.5064 -40.5064 -40.5064
   -40.5063 -40.5062 -40.5062 -40.5062 -40.4991 -40.4951 -40.4951 -40.4942
   -40.4942 -40.4941 -40.4940 -40.4940 -40.4922 -40.4907 -40.4888 -40.4758
   -40.4758 -40.4749 -40.4749 -40.4749 -40.4746 -40.4728 -40.4669 -40.4621
   -40.4588 -40.4588 -40.4579 -40.4579 -40.4578 -40.4577 -40.4440 -40.4370
   -40.4282 -40.4281 -40.4272 -40.4272 -40.4272 -40.4270 -40.4209 -40.4056
   -19.7606 -19.7553 -19.7034 -19.6889 -19.6121 -19.5972 -19.5195 -19.5137
   -19.3204 -19.3198 -19.2636 -19.2627 -19.1776 -19.1776 -19.0917 -19.0915
   -18.6749 -18.6632 -18.6250 -18.6183 -18.6043 -18.5997 -18.5848 -18.5822
   -18.5700 -18.5457 -18.5428 -18.5242 -18.5100 -18.4974 -18.4846 -18.4728
   -18.4453 -18.4411 -18.4261 -18.4185 -18.4136 -18.4069 -18.3946 -18.3772
   -18.3543 -18.3485 -18.3343 -18.3340 -18.3247 -18.3041 -18.2785 -18.2741
   -18.2650 -18.2407 -18.2190 -18.2121 -18.1969 -18.1813 -18.1404 -18.1212
   -18.1142 -18.1084 -18.0964 -18.0909 -18.0502 -18.0475 -18.0189 -18.0050
   -17.9916 -17.9795 -17.9783 -17.9728 -17.9727 -17.9725 -17.9661 -17.9552
   -17.9443 -17.9437 -17.9381 -17.9359 -17.9335 -17.9220 -17.9180 -17.9148
   -17.9091 -17.9083 -17.9023 -17.9011 -17.8779 -17.8744 -17.8712 -17.8676
   -17.8660 -17.8641 -17.8592 -17.8586 -17.8532 -17.8452 -17.8110 -17.8075
   -17.8038 -17.7964 -17.7902 -17.7892 -17.7601 -17.7514 -17.7455 -17.7455
   -17.7175 -17.7135 -17.7098 -17.7097 -17.6924 -17.6906 -17.6899 -17.6891
   -17.6881 -17.6880 -17.6816 -17.6777 -17.6704 -17.6641 -17.6524 -17.6485
   -17.6305 -17.6284 -17.6118 -17.6088 -17.5975 -17.5953 -17.5905 -17.5901
   -11.5953 -11.5872 -11.4894 -11.3968 -11.3906 -11.3855 -11.3825 -11.3637
   -11.3544 -11.3504 -11.3452 -11.3340 -11.3149 -11.3068 -11.2976 -11.2630
   -11.2471 -11.2369 -11.2119 -11.2068 -11.1924 -11.1878 -11.1849 -11.1575
   -11.1504 -11.1402 -11.1351 -11.1306 -11.1273 -11.1265 -11.1156 -11.1078
   -11.0759 -11.0688 -11.0593 -11.0547 -11.0495 -11.0380 -11.0377 -11.0372
   -11.0335 -11.0153 -11.0148 -11.0108 -10.9804 -10.9764 -10.9385 -10.9299
   -10.9220 -10.9217 -10.8473 -10.8203 -10.8071 -10.7916 -10.7763 -10.7759
   -10.7748 -10.7538 -10.7440 -10.7215 -10.7103 -10.7003 -10.6994 -10.6901
   -10.6896 -10.6852 -10.6818 -10.6817 -10.6805 -10.6781 -10.6759 -10.6653
   -10.6649 -10.6629 -10.6614 -10.6606 -10.6600 -10.6599 -10.6513 -10.6479
   -10.6478 -10.6324 -10.6138 -10.6135 -10.6132 -10.6109 -10.4161 -10.4047
   -10.3982 -10.3924 -10.3690 -10.3476 -10.2908 -10.2510 -10.2330 -10.1925
   -10.1168 -10.0915 -10.0182 -10.0128 -10.0048  -9.9998  -9.9692  -9.9671
    -9.9527  -9.9485  -9.9252  -9.9221  -9.9189  -9.8993  -9.8932  -9.8873
    -9.8824  -9.8807  -9.8630  -9.8531  -9.8039  -9.7969  -9.7890  -9.7836
    -9.7762  -9.7715  -9.7707  -9.7666  -9.7545  -9.7281  -9.7100  -9.7090
    -9.6794  -9.6626  -9.6570  -9.6484  -9.6308  -9.6305  -9.6232  -9.6040
    -9.5865  -9.5851  -9.5532  -9.5498  -9.5441  -9.5274  -9.5130  -9.5086
    -9.4811  -9.4762  -9.4707  -9.4349  -9.4264  -9.4116  -9.4080  -9.4070
    -9.4034  -9.4034  -9.3799  -9.3786  -9.3568  -9.3557  -9.3391  -9.3363
    -9.3342  -9.3286  -9.3233  -9.3231  -9.2965  -9.2951  -9.2937  -9.2871
    -9.2289  -9.2157  -9.1529  -9.1278  -9.1196  -9.1087  -9.0780  -9.0755
    -9.0612  -9.0566  -9.0545  -9.0379  -9.0371  -9.0265  -9.0008  -8.9909
    -8.9778  -8.9494  -8.9461  -8.9432  -8.9309  -8.9116  -8.9105  -8.9007
    -8.8941  -8.8907  -8.8879  -8.8837  -8.8389  -8.8356  -8.8303  -8.8216
    -8.8123  -8.8053  -8.8037  -8.7927  -8.7749  -8.7600  -8.7571  -8.7554
    -8.7529  -8.7431  -8.7419  -8.7403  -8.7401  -8.7357  -8.7350  -8.7292
    -8.7233  -8.7150  -8.7107  -8.7091  -8.7065  -8.7015  -8.6983  -8.6897
    -8.6743  -8.6707  -8.6604  -8.6561  -8.6547  -8.6520  -8.6510  -8.6496
    -8.6318  -8.6250  -8.6036  -8.6008  -8.5922  -8.5918  -8.5682  -8.5584
    -8.5286  -8.5131  -8.5024  -8.4669  -8.4375  -8.3926  -8.3735  -8.3614
    -8.3125  -8.2945  -8.2292  -8.2244  -8.2180  -8.1833  -8.1459  -8.0977
    -8.0779  -7.9992  -7.9985  -7.9931  -7.9893  -7.9843  -7.9781  -7.9759
    -7.9317  -7.9294  -7.9177  -7.8539  -7.8498  -7.8318  -7.8229  -7.7573
    -7.7193  -7.7118  -7.7110  -7.7026  -7.6985  -7.6852  -7.6847  -7.6775
    -7.6744  -7.6679  -7.6664  -7.6633  -7.6618  -7.6591  -7.6573  -7.6544
    -7.6539  -7.6533  -7.6495  -7.6445  -7.6413  -7.6395  -7.6385  -7.6366
    -7.6344  -7.6315  -7.6287  -7.6278  -7.6244  -7.6175  -7.6065  -7.6007
    -7.5961  -7.5931  -7.5908  -7.5813  -7.5802  -7.5722  -7.5661  -7.5655
    -7.5641  -7.5633  -7.5373  -7.5368  -7.5349  -7.5349  -7.5214  -7.5131
    -7.4940  -7.4859  -7.4783  -7.4769  -7.4749  -7.4680  -7.4662  -7.4647
    -7.4624  -7.4540  -7.4503  -7.4391  -7.4342  -7.4333  -7.4183  -7.4164
    -7.4090  -7.4090  -7.3692  -7.3275  -7.3255  -7.3238  -7.3193  -7.2925
    -7.2712  -7.1675  -7.1235  -7.0625  -7.0441  -7.0437  -7.0375  -7.0313
    -7.0076  -6.9992  -6.9958  -6.9808  -6.9718  -6.9698  -6.9530  -6.9354
    -6.9193  -6.9021  -6.8970  -6.8885  -6.8871  -6.8602  -6.8582  -6.8469
    -6.8308  -6.8137  -6.7979  -6.7861  -6.7720  -6.7651  -6.7441  -6.7372
    -6.7311  -6.7310  -6.7188  -6.7005  -6.6908  -6.6671  -6.6362  -6.6275
    -6.6197  -6.5799  -6.5614  -6.5472  -6.5194  -6.5141  -6.5027  -6.4865
    -6.4830  -6.4787  -6.4770  -6.4747  -6.4741  -6.4618  -6.4591  -6.4572
    -6.4570  -6.4510  -6.4499  -6.4495  -6.4494  -6.4458  -6.4130  -6.3867
    -6.3598  -6.3443  -6.3394  -6.2793  -6.2617  -6.2219  -6.1980  -6.1956
    -6.1953  -6.1828  -6.1696  -6.1551  -6.1488  -6.1464  -6.1461  -6.1459
    -6.1441  -6.1425  -6.1404  -6.1215  -6.0997  -6.0983  -6.0947  -6.0898
    -6.0779  -6.0680  -6.0673  -6.0663  -6.0643  -5.9450  -5.9149  -5.8649
    -5.8640  -5.8131  -5.8127  -5.7556  -5.7552  -5.7341  -5.7117  -5.7112
    -5.7100  -5.5552  -5.5402  -5.4641  -5.4597  -5.2546  -5.2546  -5.0522
    -5.0279  -5.0257  -4.5570  -3.9610  -3.9593  -3.9528  -3.9443  -3.8075
    -3.7969  -3.7857  -3.7831  -3.7699  -3.7494  -3.7113  -3.7108  -3.6955
    -3.6935  -3.6792  -3.6771  -3.6676  -3.6671  -3.6593  -3.6348  -3.5505
    -3.5498  -3.5417  -3.5183  -3.4759  -3.4727  -3.4693  -3.4689  -3.4667
    -3.4487  -3.4231  -3.4209  -3.3947  -3.3902  -3.3893  -3.3851  -3.3834
    -3.3801  -3.3510  -3.3507  -3.3436  -3.3428  -3.3410  -3.3385  -3.3384
    -3.3269  -3.3167  -3.3141  -3.2966  -3.2925  -3.2890  -3.2859  -3.2754
    -3.2735  -3.2262  -3.2173  -3.2168  -3.2151  -3.2125  -3.2103  -3.2094
    -3.2087  -3.1811  -3.1746  -3.1609  -3.1587  -3.1570  -3.1506  -3.1500
    -3.1474  -3.1463  -3.1445  -3.1200  -3.1148  -3.1118  -3.1047  -3.1047
    -3.0945  -3.0932  -3.0825  -3.0786  -3.0784  -3.0689  -3.0585  -3.0529
    -3.0500  -3.0404  -3.0399  -3.0366  -3.0337  -3.0312  -3.0312  -3.0239
    -3.0099  -2.9745  -2.9676  -2.9375  -2.9352  -2.9331  -2.9321  -2.9258
    -2.9206  -2.8931  -2.8922  -2.8914  -2.8908  -2.8903  -2.8889  -2.8816
    -2.8794  -2.8753  -2.8716  -2.8681  -2.8640  -2.8593  -2.8556  -2.8461
    -2.8425  -2.8379  -2.8366  -2.8357  -2.8308  -2.8250  -2.8196  -2.8177
    -2.8157  -2.8137  -2.8095  -2.8052  -2.7995  -2.7961  -2.7837  -2.7629
    -2.7593  -2.7527  -2.7496  -2.7448  -2.7422  -2.7281  -2.7254  -2.6619
    -2.6587  -2.6551  -2.6550  -2.5902  -2.5891  -2.5772  -2.5752  -2.4823
    -2.4788  -2.4496  -2.4409  -2.4203  -2.4109  -2.4100  -2.4000  -2.3947
    -2.3920  -2.3909  -2.3883  -2.3872  -2.3829  -2.2676  -2.2650  -2.2625
    -2.2558  -2.2534  -2.2333  -2.2269

          k =-0.5000-0.8660 0.0000 (386352 PWs)   bands (ev):

   -88.7706 -86.8354 -66.4915 -66.4903 -66.4903 -66.4893 -66.4892 -66.4891
   -66.4891 -66.4875 -66.4796 -66.4796 -66.4786 -66.4786 -66.4784 -66.4784
   -66.4774 -66.4725 -66.4665 -66.4650 -66.4645 -66.4645 -66.4645 -66.4645
   -66.4637 -66.4636 -66.4633 -66.4633 -66.4633 -66.4633 -66.4633 -66.4633
   -66.4613 -66.4601 -66.4601 -66.4598 -66.4591 -66.4589 -66.4588 -66.4588
   -66.4583 -66.4551 -66.4538 -66.4538 -66.4538 -66.4538 -66.4530 -66.4528
   -66.4528 -66.4526 -66.4526 -66.4526 -66.4526 -66.4525 -66.4494 -66.4494
   -66.4483 -66.4483 -66.4481 -66.4481 -66.4396 -66.4391 -66.4339 -66.4319
   -66.4311 -66.4267 -54.6289 -54.5146 -54.5141 -52.8151 -52.5990 -52.5988
   -40.7960 -40.7923 -40.7923 -40.7923 -40.7923 -40.7917 -40.7917 -40.7917
   -40.7917 -40.7914 -40.7913 -40.7913 -40.7910 -40.7856 -40.7803 -40.7687
   -40.7655 -40.7655 -40.7648 -40.7648 -40.7645 -40.7644 -40.7633 -40.7604
   -40.7534 -40.7534 -40.7528 -40.7528 -40.7524 -40.7523 -40.7437 -40.7277
   -40.7027 -40.7027 -40.7027 -40.7027 -40.7020 -40.7020 -40.7020 -40.7020
   -40.7017 -40.7017 -40.7017 -40.7016 -40.6923 -40.6904 -40.6896 -40.6825
   -40.6481 -40.6456 -40.6439 -40.6439 -40.6433 -40.6433 -40.6429 -40.6429
   -40.6344 -40.6344 -40.6336 -40.6336 -40.6334 -40.6334 -40.6305 -40.6233
   -40.6231 -40.6231 -40.6229 -40.6224 -40.6224 -40.6221 -40.6220 -40.6182
   -40.6059 -40.5961 -40.5950 -40.5934 -40.5934 -40.5934 -40.5934 -40.5928
   -40.5928 -40.5928 -40.5928 -40.5926 -40.5925 -40.5923 -40.5923 -40.5909
   -40.5882 -40.5847 -40.5847 -40.5840 -40.5840 -40.5838 -40.5836 -40.5799
   -40.5795 -40.5730 -40.5729 -40.5724 -40.5724 -40.5724 -40.5724 -40.5721
   -40.5721 -40.5719 -40.5719 -40.5717 -40.5717 -40.5717 -40.5717 -40.5716
   -40.5714 -40.5713 -40.5713 -40.5712 -40.5698 -40.5664 -40.5637 -40.5637
   -40.5636 -40.5630 -40.5630 -40.5630 -40.5627 -40.5627 -40.5599 -40.5561
   -40.5420 -40.5420 -40.5420 -40.5420 -40.5412 -40.5412 -40.5411 -40.5411
   -40.5411 -40.5411 -40.5409 -40.5407 -40.5363 -40.5327 -40.5319 -40.5272
   -40.5073 -40.5073 -40.5073 -40.5073 -40.5064 -40.5064 -40.5064 -40.5064
   -40.5063 -40.5062 -40.5062 -40.5062 -40.4991 -40.4951 -40.4951 -40.4942
   -40.4942 -40.4942 -40.4940 -40.4940 -40.4922 -40.4907 -40.4888 -40.4758
   -40.4758 -40.4749 -40.4749 -40.4749 -40.4746 -40.4728 -40.4668 -40.4621
   -40.4588 -40.4588 -40.4579 -40.4579 -40.4578 -40.4577 -40.4440 -40.4370
   -40.4282 -40.4281 -40.4272 -40.4272 -40.4272 -40.4270 -40.4209 -40.4056
   -19.7606 -19.7553 -19.7034 -19.6889 -19.6121 -19.5972 -19.5194 -19.5137
   -19.3204 -19.3198 -19.2636 -19.2627 -19.1776 -19.1776 -19.0917 -19.0915
   -18.6749 -18.6631 -18.6250 -18.6183 -18.6043 -18.5997 -18.5849 -18.5822
   -18.5700 -18.5457 -18.5428 -18.5242 -18.5100 -18.4974 -18.4846 -18.4728
   -18.4453 -18.4411 -18.4261 -18.4185 -18.4136 -18.4069 -18.3946 -18.3773
   -18.3543 -18.3485 -18.3343 -18.3340 -18.3247 -18.3041 -18.2785 -18.2741
   -18.2650 -18.2408 -18.2190 -18.2121 -18.1969 -18.1813 -18.1404 -18.1211
   -18.1142 -18.1084 -18.0965 -18.0909 -18.0503 -18.0475 -18.0189 -18.0050
   -17.9916 -17.9795 -17.9783 -17.9728 -17.9727 -17.9725 -17.9661 -17.9552
   -17.9443 -17.9437 -17.9381 -17.9359 -17.9335 -17.9220 -17.9180 -17.9148
   -17.9090 -17.9083 -17.9023 -17.9011 -17.8780 -17.8744 -17.8713 -17.8675
   -17.8660 -17.8641 -17.8592 -17.8586 -17.8532 -17.8452 -17.8111 -17.8075
   -17.8038 -17.7963 -17.7902 -17.7892 -17.7601 -17.7514 -17.7455 -17.7455
   -17.7176 -17.7135 -17.7098 -17.7097 -17.6924 -17.6907 -17.6899 -17.6891
   -17.6881 -17.6880 -17.6816 -17.6777 -17.6704 -17.6641 -17.6524 -17.6485
   -17.6305 -17.6284 -17.6118 -17.6088 -17.5975 -17.5953 -17.5905 -17.5901
   -11.5953 -11.5872 -11.4894 -11.3968 -11.3906 -11.3855 -11.3825 -11.3637
   -11.3544 -11.3504 -11.3452 -11.3340 -11.3148 -11.3068 -11.2976 -11.2630
   -11.2471 -11.2369 -11.2118 -11.2068 -11.1924 -11.1878 -11.1849 -11.1575
   -11.1504 -11.1402 -11.1351 -11.1306 -11.1273 -11.1265 -11.1156 -11.1078
   -11.0759 -11.0688 -11.0593 -11.0547 -11.0495 -11.0380 -11.0377 -11.0372
   -11.0335 -11.0153 -11.0148 -11.0108 -10.9804 -10.9764 -10.9385 -10.9298
   -10.9220 -10.9217 -10.8473 -10.8203 -10.8071 -10.7916 -10.7763 -10.7759
   -10.7748 -10.7538 -10.7440 -10.7215 -10.7103 -10.7003 -10.6994 -10.6901
   -10.6896 -10.6852 -10.6818 -10.6817 -10.6805 -10.6781 -10.6759 -10.6653
   -10.6649 -10.6629 -10.6614 -10.6607 -10.6600 -10.6599 -10.6513 -10.6479
   -10.6478 -10.6324 -10.6139 -10.6134 -10.6132 -10.6109 -10.4161 -10.4047
   -10.3982 -10.3924 -10.3690 -10.3476 -10.2908 -10.2510 -10.2330 -10.1925
   -10.1167 -10.0916 -10.0182 -10.0128 -10.0048  -9.9998  -9.9692  -9.9671
    -9.9527  -9.9485  -9.9252  -9.9221  -9.9189  -9.8994  -9.8932  -9.8873
    -9.8824  -9.8807  -9.8630  -9.8531  -9.8039  -9.7969  -9.7889  -9.7836
    -9.7762  -9.7715  -9.7707  -9.7666  -9.7545  -9.7281  -9.7100  -9.7090
    -9.6794  -9.6626  -9.6570  -9.6484  -9.6308  -9.6305  -9.6232  -9.6040
    -9.5865  -9.5851  -9.5532  -9.5498  -9.5441  -9.5274  -9.5130  -9.5086
    -9.4811  -9.4762  -9.4707  -9.4349  -9.4264  -9.4116  -9.4080  -9.4070
    -9.4034  -9.4033  -9.3799  -9.3786  -9.3568  -9.3557  -9.3391  -9.3363
    -9.3342  -9.3286  -9.3233  -9.3231  -9.2965  -9.2951  -9.2937  -9.2871
    -9.2289  -9.2157  -9.1529  -9.1278  -9.1197  -9.1087  -9.0780  -9.0755
    -9.0612  -9.0566  -9.0545  -9.0379  -9.0370  -9.0266  -9.0008  -8.9909
    -8.9778  -8.9494  -8.9461  -8.9432  -8.9309  -8.9116  -8.9105  -8.9008
    -8.8941  -8.8907  -8.8879  -8.8837  -8.8389  -8.8356  -8.8303  -8.8216
[...]
     atom  163 type  1   force =    -0.00000000   -0.00000152   -0.00000188
     atom  164 type  1   force =     0.00010936    0.00006312   -0.00243811
     atom  165 type  2   force =     0.00000000   -0.00000381   -0.00016884
     atom  166 type  2   force =    -0.00000717   -0.00000414    0.00004321
     atom  167 type  2   force =     0.00000024    0.00000013   -0.00009597
     atom  168 type  2   force =    -0.00000001    0.00003217   -0.00437916
     atom  169 type  1   force =    -0.00000015   -0.00000011    0.00255906
     atom  170 type  1   force =    -0.00000005   -0.00000000    0.00001501
     atom  171 type  2   force =    -0.00000005   -0.00000003   -0.00003331
     atom  172 type  2   force =    -0.00000000    0.00000003    0.00017173
     atom  173 type  2   force =    -0.00000000   -0.00000001    0.00441303
     atom  174 type  2   force =    -0.00000017   -0.00000006    0.00009803
     atom  175 type  1   force =     0.00000966    0.00000117   -0.00000881
     atom  176 type  1   force =    -0.00000000    0.00002276   -0.00245475
     atom  177 type  2   force =    -0.00000073    0.00000876   -0.00011798
     atom  178 type  2   force =     0.00000001    0.00000268    0.00004121
     atom  179 type  2   force =    -0.00000001    0.00000055   -0.00009565
     atom  180 type  2   force =    -0.00036155   -0.00006964   -0.00424308
     atom  181 type  1   force =    -0.00000018   -0.00000008    0.00255906
     atom  182 type  1   force =    -0.00000009   -0.00000002    0.00001517
     atom  183 type  2   force =    -0.00000005   -0.00000003   -0.00003330
     atom  184 type  2   force =    -0.00000002   -0.00000001    0.00017177
     atom  185 type  2   force =    -0.00000007   -0.00000004    0.00441305
     atom  186 type  2   force =    -0.00000014   -0.00000009    0.00009802
     atom  187 type  1   force =     0.00000587    0.00000779   -0.00000884
     atom  188 type  1   force =    -0.00008366   -0.00004821   -0.00242950
     atom  189 type  2   force =     0.00000736   -0.00000501   -0.00011800
     atom  190 type  2   force =     0.00001683    0.00000973    0.00003640
     atom  191 type  2   force =     0.00000054    0.00000032   -0.00009608
     atom  192 type  2   force =    -0.00024209   -0.00027867   -0.00424221
     atom  193 type  3   force =    -0.00000072   -0.00004200   -0.01207591
     atom  194 type  3   force =     0.00000070    0.00004112    0.00089346

     Total force =     0.001925     Total SCF correction =     0.000414
     SCF correction compared to forces is large: reduce conv_thr to get better values
     Energy error            =      4.1E-06 Ry
     Gradient error          =      7.8E-04 Ry/Bohr

     bfgs converged in   9 scf cycles and   8 bfgs steps
     (criteria: energy <  1.0E-04 Ry, force <  1.0E-03 Ry/Bohr)

     End of BFGS Geometry Optimization

     Final energy             =  -32817.4988160708 Ry

     File ./outdir/pwscf.bfgs deleted, as requested
Begin final coordinates

ATOMIC_POSITIONS (angstrom)
Mo            0.0000119917        1.8193638619       -9.1672481230    0   0   0
Mo            1.5756136568        0.9097075315       -3.0554901653    0   0   0
S             0.0000188998        1.8193822938       -4.6232556019    0   0   0
S             1.5756321638        0.9096773839       -7.6014065489    0   0   0
S             1.5756326175        0.9096785128      -10.7330757790    0   0   0
S             0.0000189190        1.8193860094       -1.4877129945    0   0   0
Mo            0.0000386573        1.8195839191        3.0556683013
Mo            1.5756725140        0.9074996975        9.1581819807
S             0.0002180624        1.8217706356        7.5902143457
S             1.5756643487        0.9097552535        4.6229772964
S             1.5756603115        0.9098653660        1.4877977926
S            -0.0034317566        1.8011905429       10.7340774099
Mo           -1.5756053507        4.5484193819       -9.1672481230    0   0   0
Mo            0.0000378379        3.6387394919       -3.0554952701    0   0   0
S            -1.5755913433        4.5484363582       -4.6232494962    0   0   0
S             0.0000148214        3.6387329039       -7.6014065489    0   0   0
S             0.0000152751        3.6387340328      -10.7330757790    0   0   0
S            -1.5755906502        4.5484413613       -1.4877305502    0   0   0
Mo           -1.5753553556        4.5485576149        3.0559565130
Mo           -0.0073251814        3.6243271857        9.1730417774
S            -1.5736724771        4.5495826055        7.6003348640
S             0.0005728114        3.6391583926        4.6237386393
S            -0.0000195057        3.6388470788        1.4879096510
S            -1.5801823300        4.5457074793       10.7359884041
Mo           -3.1512226931        7.2774749019       -9.1672481230    0   0   0
Mo           -1.5755910988        6.3678216792       -3.0555115988    0   0   0
S            -3.1512162438        7.2774954350       -4.6232578178    0   0   0
S            -1.5756025210        6.3677884239       -7.6014065489    0   0   0
S            -1.5756020673        6.3677895528      -10.7330757790    0   0   0
S            -3.1512127704        7.2774877076       -1.4877200710    0   0   0
Mo           -3.1510125043        7.2773785103        3.0556671614
Mo           -1.5917431825        6.3685722366        9.1731695365
S            -3.1489871133        7.2764380098        7.5902869468
S            -1.5749469388        6.3680580150        4.6237366651
S            -1.5755173888        6.3676969477        1.4879063399
S            -3.1686996542        7.2835899230       10.7341166833
Mo           -4.7268400355       10.0065304219       -9.1672481230    0   0   0
Mo           -3.1512405618        9.0968403586       -3.0554816746    0   0   0
S            -4.7268341792       10.0065523623       -4.6232463762    0   0   0
S            -3.1512198634        9.0968439439       -7.6014065489    0   0   0
S            -3.1512194097        9.0968450728      -10.7330757790    0   0   0
S            -4.7268370797       10.0065537885       -1.4877176751    0   0   0
Mo           -4.7268118778       10.0065412919        3.0553515646
Mo           -3.1530825551        9.0979690111        9.1582279437
S            -4.7267946305       10.0065434390        7.5880103569
S            -3.1511283229        9.0968288240        4.6229808138
S            -3.1510362829        9.0967705507        1.4878006305
S            -4.7267963397       10.0065788369       10.7269187424
Mo            3.1512517547        1.8193638619       -9.1672481230    0   0   0
Mo            4.7269020221        0.9097289540       -3.0554823951    0   0   0
S             3.1512612351        1.8193882564       -4.6232320683    0   0   0
S             4.7268719268        0.9096773839       -7.6014065489    0   0   0
S             4.7268723805        0.9096785128      -10.7330757790    0   0   0
S             3.1512592485        1.8193890201       -1.4877261251    0   0   0
Mo            3.1512801527        1.8195842117        3.0556639274
Mo            4.7253249719        0.9087782218        9.1577432568
S             3.1511268324        1.8217701961        7.5902143599
S             4.7270714302        0.9097849115        4.6231495411
S             4.7268443457        0.9096549884        1.4878473295
S             3.1547778126        1.8011911557       10.7340791473
Mo            1.5756344123        4.5484193819       -9.1672481230    0   0   0
Mo            3.1512756394        3.6387769522       -3.0554814834    0   0   0
S             1.5756504879        4.5484423799       -4.6232390542    0   0   0
S             3.1512545844        3.6387329039       -7.6014065489    0   0   0
S             3.1512550381        3.6387340328      -10.7330757790    0   0   0
S             1.5756466253        4.5484431864       -1.4877251801    0   0   0
Mo            1.5756621471        4.5487441516        3.0553406152
Mo            3.1586760161        3.6243271816        9.1730426725
S             1.5756748953        4.5723683492        7.6424584964
S             3.1507547531        3.6391519474        4.6237377169
S             3.1513442685        3.6388436926        1.4879010757
S             1.5756759284        4.4336749184       10.7884471228
Mo            0.0000170699        7.2774749019       -9.1672481230    0   0   0
Mo            1.5756764447        6.3678236689       -3.0554877708    0   0   0
S             0.0000381981        7.2774979204       -4.6232454413    0   0   0
S             1.5756372420        6.3677884239       -7.6014065489    0   0   0
S             1.5756376957        6.3677895528      -10.7330757790    0   0   0
S             0.0000328088        7.2774946042       -1.4877307940    0   0   0
Mo            0.0003162908        7.2773301831        3.0553390179
Mo            1.5756796079        6.3677066462        9.2325017787
S             0.0207826706        7.2655290318        7.6426001151
S             1.5756635116        6.3678064492        4.6232575472
S             1.5756621216        6.3678019631        1.4872526020
S            -0.0990181200        7.3346230494       10.7885029215
Mo           -1.5756002725       10.0065304219       -9.1672481230    0   0   0
Mo            0.0000873425        9.0968676911       -3.0554912329    0   0   0
S            -1.5755883952       10.0065504530       -4.6232240150    0   0   0
S             0.0000198996        9.0968439439       -7.6014065489    0   0   0
S             0.0000203533        9.0968450728      -10.7330757790    0   0   0
S            -1.5755859047       10.0065492576       -1.4877362381    0   0   0
Mo           -1.5753837958       10.0064368314        3.0556661835
Mo           -0.0086920871        9.1104522240        9.1732407440
S            -1.5735080145       10.0051646873        7.5903084801
S             0.0001393943        9.0961951184        4.6237381793
S             0.0001689943        9.0968661756        1.4878949129
S            -1.5896062331       10.0186877753       10.7341391120
Mo            6.3024915177        1.8193638619       -9.1672481230    0   0   0
Mo            7.8781001445        0.9096521684       -3.0554919963    0   0   0
S             6.3025008696        1.8193826232       -4.6232480596    0   0   0
S             7.8781116898        0.9096773839       -7.6014065489    0   0   0
S             7.8781121435        0.9096785128      -10.7330757790    0   0   0
S             6.3025042007        1.8193849068       -1.4877147524    0   0   0
Mo            6.3025556935        1.8193935513        3.0554314962
Mo            7.8781518199        0.9108891207        9.1638386856
S             6.3041407719        1.8203025076        7.5929563016
S             7.8781299670        0.9096260172        4.6231648378
S             7.8781341981        0.9094580479        1.4878344489
S             6.3012724053        1.8186726685       10.7296674554
Mo            4.7268741753        4.5484193819       -9.1672481230    0   0   0
Mo            6.3024679138        3.6387501714       -3.0554895197    0   0   0
S             4.7268748770        4.5484386753       -4.6232519432    0   0   0
S             6.3024943474        3.6387329039       -7.6014065489    0   0   0
S             6.3024948011        3.6387340328      -10.7330757790    0   0   0
S             4.7268770533        4.5484432419       -1.4877137856    0   0   0
Mo            4.7266813950        4.5485535619        3.0559561647
Mo            6.3035814372        3.6381563494        9.1638064910
S             4.7250251590        4.5495813239        7.6003305313
S             6.3024622902        3.6387660578        4.6231682582
S             6.3023221717        3.6388556040        1.4878370388
S             4.7315343956        4.5457099377       10.7359905136
Mo            3.1512568329        7.2774749019       -9.1672481230    0   0   0
Mo            4.7268384135        6.3678043337       -3.0554959052    0   0   0
S             3.1512606125        7.2774972547       -4.6232589675    0   0   0
S             4.7268770050        6.3677884239       -7.6014065489    0   0   0
S             4.7268774587        6.3677895528      -10.7330757790    0   0   0
S             3.1512629079        7.2774963749       -1.4877081835    0   0   0
Mo            3.1510139313        7.2773305060        3.0553393769
Mo            4.7431028777        6.3685715491        9.1731668592
S             3.1305763339        7.2655308387        7.6425962590
S             4.7262789575        6.3680499695        4.6237322133
S             4.7268478092        6.3676941429        1.4879040171
S             3.2503816541        7.3346260154       10.7885010852
Mo            1.5756394905       10.0065304219       -9.1672481230    0   0   0
Mo            3.1512330605        9.0968514907       -3.0554878870    0   0   0
S             1.5756499830       10.0065443759       -4.6232632674    0   0   0
S             3.1512596626        9.0968439439       -7.6014065489    0   0   0
S             3.1512601163        9.0968450728      -10.7330757790    0   0   0
S             1.5756503041       10.0065459699       -1.4877044377    0   0   0
Mo            1.5756655804       10.0062891624        3.0559542125
Mo            3.1600562699        9.1104546622        9.1732370519
S             1.5756811380       10.0042985959        7.6004129796
S             3.1511888655        9.0961928556        4.6237377815
S             3.1511625331        9.0968631460        1.4878983882
S             1.5756840495       10.0119351629       10.7360802543
Mo            9.4537312807        1.8193638619       -9.1672481230    0   0   0
Mo           11.0293863460        0.9096952246       -3.0554894007    0   0   0
S             9.4537395970        1.8193770750       -4.6232328036    0   0   0
S            11.0293514528        0.9096773839       -7.6014065489    0   0   0
S            11.0293519066        0.9096785128      -10.7330757790    0   0   0
S             9.4537393632        1.8193794783       -1.4877366147    0   0   0
Mo            9.4537229560        1.8193979085        3.0554280107
Mo           11.0309790937        0.9087787117        9.1577413875
S             9.4521640790        1.8203032012        7.5929557166
S            11.0292088612        0.9097820723        4.6231487035
S            11.0294348962        0.9096545640        1.4878613523
S             9.4550332531        1.8186724784       10.7296663432
Mo            7.8781139383        4.5484193819       -9.1672481230    0   0   0
Mo            9.4537539161        3.6387607911       -3.0554933032    0   0   0
S             7.8781175448        4.5484378232       -4.6232366318    0   0   0
S             9.4537341104        3.6387329039       -7.6014065489    0   0   0
S             9.4537345641        3.6387340328      -10.7330757790    0   0   0
S             7.8781194018        4.5484411585       -1.4877377057    0   0   0
Mo            7.8781470526        4.5483902018        3.0554296678
Mo            9.4527279640        3.6381556302        9.1638066910
S             7.8781563148        4.5466034748        7.5929424779
S             9.4538126647        3.6387710343        4.6231563683
S             9.4539574219        3.6388582466        1.4878492804
S             7.8781559316        4.5498838410       10.7296723942
Mo            6.3024965959        7.2774749019       -9.1672481230    0   0   0
Mo            7.8781361655        6.3678242352       -3.0555014130    0   0   0
S             6.3024973331        7.2774953556       -4.6232392528    0   0   0
S             7.8781167680        6.3677884239       -7.6014065489    0   0   0
S             7.8781172217        6.3677895528      -10.7330757790    0   0   0
S             6.3024989866        7.2774929744       -1.4877349119    0   0   0
Mo            6.3023484074        7.2773806697        3.0556660107
Mo            7.8781586264        6.3696492026        9.1577483714
S             6.3003495659        7.2764393302        7.5902837536
S             7.8781452439        6.3676081883        4.6231461679
S             7.8781449961        6.3678661725        1.4878624231
S             6.3200600562        7.2835909670       10.7341141060
Mo            4.7268792535       10.0065304219       -9.1672481230    0   0   0
Mo            6.3025111524        9.0968738021       -3.0554915260    0   0   0
S             4.7268840634       10.0065452125       -4.6232380477    0   0   0
S             6.3024994256        9.0968439439       -7.6014065489    0   0   0
S             6.3024998793        9.0968450728      -10.7330757790    0   0   0
S             4.7268847312       10.0065459141       -1.4877283294    0   0   0
Mo            4.7267270207       10.0064393745        3.0556690083
Mo            6.3044479460        9.0979699032        9.1582256966
S             4.7248744533       10.0051680968        7.5903047012
S             6.3024726784        9.0968280536        4.6229763774
S             6.3023782493        9.0967731295        1.4877972876
S             4.7409734892       10.0186891065       10.7341352759
Pd            1.5756932817        6.3678863486       12.0558631133
Pd            1.5760215186        6.3871457616       14.7039842940
End final coordinates



     Writing all to output data dir ./outdir/pwscf.save/
 
     init_run     :    197.76s CPU    201.33s WALL (       1 calls)
     electrons    :  77562.00s CPU  78361.49s WALL (       9 calls)
     update_pot   :     43.44s CPU     43.71s WALL (       8 calls)
     forces       :   1137.59s CPU   1163.87s WALL (       9 calls)
     force_dftd3  :      6.92s CPU      7.39s WALL (       9 calls)

     Called by init_run:
     wfcinit      :    172.64s CPU    174.81s WALL (       1 calls)
     potinit      :      2.21s CPU      2.29s WALL (       1 calls)
     hinit0       :     16.12s CPU     16.13s WALL (       1 calls)

     Called by electrons:
     c_bands      :  69473.58s CPU  69930.49s WALL (     114 calls)
     sum_band     :   7616.64s CPU   7819.50s WALL (     114 calls)
     v_of_rho     :     55.94s CPU     57.08s WALL (     114 calls)
     newd         :    309.98s CPU    456.42s WALL (     114 calls)
     PAW_pot      :     82.07s CPU     82.06s WALL (     122 calls)
     mix_rho      :     13.66s CPU     13.66s WALL (     114 calls)
     energy_dftd3 :      3.31s CPU      3.30s WALL (       9 calls)

     Called by c_bands:
     init_us_2    :    281.97s CPU    282.18s WALL (     984 calls)
     init_us_2:cp :    281.97s CPU    282.18s WALL (     984 calls)
     cegterg      :  68521.93s CPU  68962.68s WALL (     471 calls)

     Called by *egterg:
     cdiaghg      :   4190.84s CPU   4204.45s WALL (    5812 calls)
     h_psi        :  35976.03s CPU  36104.76s WALL (    5884 calls)
     s_psi        :   7395.19s CPU   7423.60s WALL (    5884 calls)
     g_psi        :     61.79s CPU     61.71s WALL (    5409 calls)

     Called by h_psi:
     h_psi:calbec :   7943.01s CPU   7944.57s WALL (    5884 calls)
     vloc_psi     :  20533.48s CPU  20570.77s WALL (    5884 calls)
     add_vuspsi   :   7428.54s CPU   7457.36s WALL (    5884 calls)

     General routines
     calbec       :  11417.87s CPU  11420.05s WALL (    6516 calls)
     fft          :     61.08s CPU     62.30s WALL (    1580 calls)
     ffts         :      2.85s CPU      2.94s WALL (     228 calls)
     fftw         :  16978.40s CPU  17011.39s WALL ( 3237192 calls)
     interpolate  :      5.86s CPU      5.93s WALL (     114 calls)
 
     Parallel routines
 
     PWSCF        :     22h 1m CPU     22h15m WALL

 
   This run was terminated on:  21:51:26   5Oct2023            

=------------------------------------------------------------------------------=
   JOB DONE.
=------------------------------------------------------------------------------=
Application 11268024 resources: utime ~2854932s, stime ~30576s, Rss ~3502924, inblocks ~0, outblocks ~53386288
