
     Program PWSCF v.7.3 starts on 10Mar2024 at  5:21:52 

     This program is part of the open-source Quantum ESPRESSO suite
     for quantum simulation of materials; please cite
         "P. Giannozzi et al., J. Phys.:Condens. Matter 21 395502 (2009);
         "P. Giannozzi et al., J. Phys.:Condens. Matter 29 465901 (2017);
         "P. Giannozzi et al., J. Chem. Phys. 152 154105 (2020);
          URL http://www.quantum-espresso.org", 
     in publications or presentations arising from this work. More details at
     http://www.quantum-espresso.org/quote

     Parallel version (MPI & OpenMP), running on      36 processor cores
     Number of MPI processes:                36
     Threads/MPI process:                     1

     MPI processes distributed on     1 nodes
     555509 MiB available memory on the printing compute node when the environment starts
 
     Waiting for input...
     Reading input from standard input
Warning: card &CELL ignored
Warning: card / ignored

     Current dimensions of program PWSCF are:
     Max number of different atomic species (ntypx) = 10
     Max number of k-points (npk) =  40000
     Max angular momentum in pseudopotentials (lmaxx) =  4
     file Mo.pbe-spn-kjpaw_psl.1.0.0.UPF: wavefunction(s)  4S 4D renormalized
     file S.pbe-n-kjpaw_psl.1.0.0.UPF: wavefunction(s)  3S 3P renormalized
     file Pt.pbe-spfn-kjpaw_psl.1.0.0.UPF: wavefunction(s)  5P 4F renormalized
     file Pd.pbe-spn-kjpaw_psl.1.0.0.UPF: wavefunction(s)  4S 5S 4D renormalized
 
     R & G space division:  proc/nbgrp/npool/nimage =      36
     Subspace diagonalization in iterative solution of the eigenvalue problem:
     one sub-group per band group will be used
     scalapack distributed-memory algorithm (size of sub-group:  6*  6 procs)

 
     Parallelization info
     --------------------
     sticks:   dense  smooth     PW     G-vecs:    dense   smooth      PW
     Min         586     335     89               165416    71459    9765
     Max         587     337     90               165425    71461    9778
     Sum       21109   12085   3205              5955087  2572543  351657
 
     Using Slab Decomposition
 


     bravais-lattice index     =            0
     lattice parameter (alat)  =      23.8395  a.u.
     unit-cell volume          =   28182.8498 (a.u.)^3
     number of atoms/cell      =          146
     number of atomic types    =            4
     number of electrons       =      1298.00
     number of Kohn-Sham states=          779
     kinetic-energy cutoff     =      77.0000  Ry
     charge density cutoff     =     539.0000  Ry
     scf convergence threshold =      1.0E-06
     mixing beta               =       0.2000
     number of iterations used =            8  plain     mixing
     energy convergence thresh.=      1.0E-04
     force convergence thresh. =      1.0E-03
     Exchange-correlation= SLA  PW   PBX  PBC
                           (   1   4   3   4   0   0   0)
     nstep                     =         1000


     Effective Screening Medium Method
     =================================
     Boundary Conditions: Vacuum-Slab-Vacuum
     total charge in unit cell        =   0.0000
     grid points for fit at edges     =        4 
 

     celldm(1)=  23.839504  celldm(2)=   0.000000  celldm(3)=   0.000000
     celldm(4)=   0.000000  celldm(5)=   0.000000  celldm(6)=   0.000000

     crystal axes: (cart. coord. in units of alat)
               a(1) = (   1.000000   0.000000   0.000000 )  
               a(2) = (  -0.500001   0.866026   0.000000 )  
               a(3) = (   0.000000   0.000000   2.401941 )  

     reciprocal axes: (cart. coord. in units 2 pi/alat)
               b(1) = (  1.000000  0.577351  0.000000 )  
               b(2) = (  0.000000  1.154700  0.000000 )  
               b(3) = (  0.000000  0.000000  0.416330 )  


     PseudoPot. # 1 for Mo read from file:
     ./pseudo/Mo.pbe-spn-kjpaw_psl.1.0.0.UPF
     MD5 check sum: 317bf72632116215fd98f72de1686f13
     Pseudo is Projector augmented-wave + core cor, Zval = 14.0
     Generated using 'atomic' code by A. Dal Corso  v.7.2
     Shape of augmentation charge: PSQ
     Using radial grid of 1229 points,  6 beta functions with: 
                l(1) =   0
                l(2) =   0
                l(3) =   1
                l(4) =   1
                l(5) =   2
                l(6) =   2
     Q(r) pseudized with 0 coefficients 


     PseudoPot. # 2 for S  read from file:
     ./pseudo/S.pbe-n-kjpaw_psl.1.0.0.UPF
     MD5 check sum: 8b7b5302570d38d5e87fed6a1065abda
     Pseudo is Projector augmented-wave + core cor, Zval =  6.0
     Generated using 'atomic' code by A. Dal Corso  v.7.2
     Shape of augmentation charge: PSQ
     Using radial grid of 1151 points,  6 beta functions with: 
                l(1) =   0
                l(2) =   0
                l(3) =   1
                l(4) =   1
                l(5) =   2
                l(6) =   2
     Q(r) pseudized with 0 coefficients 


     PseudoPot. # 3 for Pt read from file:
     ./pseudo/Pt.pbe-spfn-kjpaw_psl.1.0.0.UPF
     MD5 check sum: 620096ebf4e6ebacc94de60fd67efcb5
     Pseudo is Projector augmented-wave + core cor, Zval = 32.0
     Generated using 'atomic' code by A. Dal Corso  v.7.2
     Shape of augmentation charge: PSQ
     Using radial grid of 1277 points,  8 beta functions with: 
                l(1) =   0
                l(2) =   0
                l(3) =   1
                l(4) =   1
                l(5) =   2
                l(6) =   2
                l(7) =   3
                l(8) =   3
     Q(r) pseudized with 0 coefficients 


     PseudoPot. # 4 for Pd read from file:
     ./pseudo/Pd.pbe-spn-kjpaw_psl.1.0.0.UPF
     MD5 check sum: a60571a671f2502b8a6a4569d20a6edb
     Pseudo is Projector augmented-wave + core cor, Zval = 18.0
     Generated using 'atomic' code by A. Dal Corso  v.7.2
     Shape of augmentation charge: PSQ
     Using radial grid of 1235 points,  6 beta functions with: 
                l(1) =   0
                l(2) =   0
                l(3) =   1
                l(4) =   1
                l(5) =   2
                l(6) =   2
     Q(r) pseudized with 0 coefficients 


     atomic species   valence    mass     pseudopotential
     Mo               14.00    95.95000     Mo( 1.00)
     S                 6.00    32.06000     S ( 1.00)
     Pt               32.00   195.08400     Pt( 1.00)
     Pd               18.00   106.42000     Pd( 1.00)

     No symmetry found



   Cartesian axes

     site n.     atom                  positions (alat units)
         1        Mo     tau(   1) = (   0.1245066   0.2151403   0.4829270  )
         2        Mo     tau(   2) = (   0.1250004   0.0721694  -0.4825273  )
         3        Mo     tau(   3) = (   0.0000143   0.1443586  -0.0000404  )
         4        S      tau(   4) = (   0.0000004   0.0000006  -0.6064556  )
         5        S      tau(   5) = (   0.1249859   0.0722111  -0.1241825  )
         6        S      tau(   6) = (   0.0002990   0.1445714   0.3572522  )
         7        S      tau(   7) = (   0.0000004   0.0000005  -0.3584711  )
         8        S      tau(   8) = (   0.1250243   0.0721377   0.1241202  )
         9        S      tau(   9) = (  -0.0011552   0.1430195   0.6061730  )
        10        Mo     tau(  10) = (  -0.0014303   0.4332690   0.4829269  )
        11        Mo     tau(  11) = (   0.0000001   0.2886759  -0.4825273  )
        12        Mo     tau(  12) = (  -0.1249759   0.3608474  -0.0000404  )
        13        S      tau(  13) = (  -0.1249999   0.2165071  -0.6064556  )
        14        S      tau(  14) = (   0.0000250   0.2886908  -0.1241273  )
        15        S      tau(  15) = (  -0.1246483   0.3609863   0.3572522  )
        16        S      tau(  16) = (  -0.1249998   0.2165070  -0.3584711  )
        17        S      tau(  17) = (   0.0000923   0.2887297   0.1242244  )
        18        S      tau(  18) = (  -0.1267194   0.3605027   0.6061730  )
        19        Mo     tau(  19) = (  -0.1251617   0.6496109   0.4820319  )
        20        Mo     tau(  20) = (  -0.1250002   0.5051824  -0.4825273  )
        21        Mo     tau(  21) = (  -0.2500022   0.5773395  -0.0001503  )
        22        S      tau(  22) = (  -0.2500002   0.4330136  -0.6064556  )
        23        S      tau(  23) = (  -0.1249718   0.5051500  -0.1241823  )
        24        S      tau(  24) = (  -0.2500018   0.5776353   0.3574746  )
        25        S      tau(  25) = (  -0.2500001   0.4330135  -0.3584711  )
        26        S      tau(  26) = (  -0.1250162   0.5052198   0.1241203  )
        27        S      tau(  27) = (  -0.2500018   0.5771316   0.6060170  )
        28        Mo     tau(  28) = (   0.2499988  -0.0001852   0.4820322  )
        29        Mo     tau(  29) = (  -0.2500004   0.7216889  -0.4825273  )
        30        Mo     tau(  30) = (  -0.3750121   0.7938628  -0.0001504  )
        31        S      tau(  31) = (  -0.3750004   0.6495201  -0.6064556  )
        32        S      tau(  32) = (  -0.2500022   0.7216884  -0.1242395  )
        33        S      tau(  33) = (  -0.3747547   0.7937137   0.3574746  )
        34        S      tau(  34) = (  -0.3750004   0.6495200  -0.3584711  )
        35        S      tau(  35) = (  -0.2500023   0.7216883   0.1240244  )
        36        S      tau(  36) = (  -0.3751912   0.7939655   0.6060169  )
        37        Mo     tau(  37) = (   0.3754907   0.2151405   0.4829271  )
        38        Mo     tau(  38) = (   0.3750004   0.0721694  -0.4825273  )
        39        Mo     tau(  39) = (   0.2499984   0.1443573  -0.0000731  )
        40        S      tau(  40) = (   0.2500004   0.0000006  -0.6064556  )
        41        S      tau(  41) = (   0.3750112   0.0722112  -0.1241824  )
        42        S      tau(  42) = (   0.2499987   0.1444686   0.3583292  )
        43        S      tau(  43) = (   0.2500004   0.0000005  -0.3584711  )
        44        S      tau(  44) = (   0.3749727   0.0721378   0.1241202  )
        45        S      tau(  45) = (   0.2499989   0.1436262   0.6067914  )
        46        Mo     tau(  46) = (   0.2499982   0.4330120   0.4873213  )
        47        Mo     tau(  47) = (   0.2500001   0.2886759  -0.4825273  )
        48        Mo     tau(  48) = (   0.1250313   0.3608632  -0.0000369  )
        49        S      tau(  49) = (   0.1250001   0.2165071  -0.6064556  )
        50        S      tau(  50) = (   0.2499984   0.2886902  -0.1241509  )
        51        S      tau(  51) = (   0.1269276   0.3619573   0.3622727  )
        52        S      tau(  52) = (   0.1250002   0.2165070  -0.3584711  )
        53        S      tau(  53) = (   0.2499983   0.2886817   0.1242427  )
        54        S      tau(  54) = (   0.1143670   0.3547054   0.6129634  )
        55        Mo     tau(  55) = (   0.1240620   0.6506275   0.4829270  )
        56        Mo     tau(  56) = (   0.1249998   0.5051824  -0.4825273  )
        57        Mo     tau(  57) = (   0.0000150   0.5773409  -0.0000731  )
        58        S      tau(  58) = (  -0.0000002   0.4330136  -0.6064556  )
        59        S      tau(  59) = (   0.1250108   0.5051746  -0.1241509  )
        60        S      tau(  60) = (   0.0001121   0.5772840   0.3583290  )
        61        S      tau(  61) = (  -0.0000001   0.4330135  -0.3584711  )
        62        S      tau(  62) = (   0.1250034   0.5051788   0.1242428  )
        63        S      tau(  63) = (  -0.0006172   0.5777056   0.6067911  )
        64        Mo     tau(  64) = (   0.5000733   0.0000423   0.4811256  )
        65        Mo     tau(  65) = (  -0.0000004   0.7216889  -0.4825273  )
        66        Mo     tau(  66) = (  -0.1249927   0.7938628  -0.0001503  )
        67        S      tau(  67) = (  -0.1250004   0.6495201  -0.6064556  )
        68        S      tau(  68) = (   0.0000406   0.7216783  -0.1241824  )
        69        S      tau(  69) = (  -0.1252496   0.7937135   0.3574746  )
        70        S      tau(  70) = (  -0.1250004   0.6495200  -0.3584711  )
        71        S      tau(  71) = (  -0.0000422   0.7216817   0.1241204  )
        72        S      tau(  72) = (  -0.1248129   0.7939655   0.6060170  )
        73        Mo     tau(  73) = (   0.6251034   0.2164454   0.4813717  )
        74        Mo     tau(  74) = (   0.6250004   0.0721694  -0.4825273  )
        75        Mo     tau(  75) = (   0.4999826   0.1443587  -0.0000403  )
        76        S      tau(  76) = (   0.5000004   0.0000006  -0.6064556  )
        77        S      tau(  77) = (   0.6249765   0.0721563  -0.1241436  )
        78        S      tau(  78) = (   0.4996985   0.1445712   0.3572516  )
        79        S      tau(  79) = (   0.5000004   0.0000005  -0.3584711  )
        80        S      tau(  80) = (   0.6250052   0.0721729   0.1241442  )
        81        S      tau(  81) = (   0.5011529   0.1430194   0.6061729  )
        82        Mo     tau(  82) = (   0.5014272   0.4332689   0.4829269  )
        83        Mo     tau(  83) = (   0.5000001   0.2886759  -0.4825273  )
        84        Mo     tau(  84) = (   0.3749652   0.3608633  -0.0000370  )
        85        S      tau(  85) = (   0.3750001   0.2165071  -0.6064556  )
        86        S      tau(  86) = (   0.4999715   0.2886908  -0.1241272  )
        87        S      tau(  87) = (   0.3730698   0.3619571   0.3622724  )
        88        S      tau(  88) = (   0.3750002   0.2165070  -0.3584711  )
        89        S      tau(  89) = (   0.4999043   0.2887298   0.1242243  )
        90        S      tau(  90) = (   0.3856284   0.3547066   0.6129638  )
        91        Mo     tau(  91) = (   0.3759345   0.6506277   0.4829270  )
        92        Mo     tau(  92) = (   0.3749998   0.5051824  -0.4825273  )
        93        Mo     tau(  93) = (   0.2499980   0.5773127  -0.0000370  )
        94        S      tau(  94) = (   0.2499998   0.4330136  -0.6064556  )
        95        S      tau(  95) = (   0.3749852   0.5051745  -0.1241508  )
        96        S      tau(  96) = (   0.2499983   0.5751230   0.3622722  )
        97        S      tau(  97) = (   0.2499999   0.4330135  -0.3584711  )
        98        S      tau(  98) = (   0.3749925   0.5051788   0.1242430  )
        99        S      tau(  99) = (   0.2499985   0.5896211   0.6129642  )
       100        Mo     tau( 100) = (   0.7499990   0.0001203   0.4813716  )
       101        Mo     tau( 101) = (   0.2499996   0.7216889  -0.4825273  )
       102        Mo     tau( 102) = (   0.1250080   0.7938333  -0.0000403  )
       103        S      tau( 103) = (   0.1249996   0.6495201  -0.6064556  )
       104        S      tau( 104) = (   0.2499977   0.7216576  -0.1241273  )
       105        S      tau( 105) = (   0.1250507   0.7934796   0.3572514  )
       106        S      tau( 106) = (   0.1249996   0.6495200  -0.3584711  )
       107        S      tau( 107) = (   0.2499978   0.7215798   0.1242243  )
       108        S      tau( 108) = (   0.1244341   0.7955149   0.6061727  )
       109        Mo     tau( 109) = (  -0.1251058   0.2164455   0.4813720  )
       110        Mo     tau( 110) = (   0.8750004   0.0721694  -0.4825273  )
       111        Mo     tau( 111) = (   0.7499984   0.1443377  -0.0000951  )
       112        S      tau( 112) = (   0.7500004   0.0000006  -0.6064556  )
       113        S      tau( 113) = (   0.8750204   0.0721563  -0.1241436  )
       114        S      tau( 114) = (   0.7499989   0.1443372   0.3571897  )
       115        S      tau( 115) = (   0.7500004   0.0000005  -0.3584711  )
       116        S      tau( 116) = (   0.8749917   0.0721728   0.1241442  )
       117        S      tau( 117) = (   0.7499986   0.1443371   0.6056765  )
       118        Mo     tau( 118) = (  -0.2500015   0.4329261   0.4811261  )
       119        Mo     tau( 119) = (   0.7500001   0.2886759  -0.4825273  )
       120        Mo     tau( 120) = (   0.6249722   0.3608476  -0.0000403  )
       121        S      tau( 121) = (   0.6250001   0.2165071  -0.6064556  )
       122        S      tau( 122) = (   0.7499981   0.2887008  -0.1241435  )
       123        S      tau( 123) = (   0.6246456   0.3609863   0.3572519  )
       124        S      tau( 124) = (   0.6250002   0.2165070  -0.3584711  )
       125        S      tau( 125) = (   0.7499982   0.2886677   0.1241441  )
       126        S      tau( 126) = (   0.6267164   0.3605023   0.6061731  )
       127        Mo     tau( 127) = (  -0.3748420   0.6496111   0.4820319  )
       128        Mo     tau( 128) = (   0.6249998   0.5051824  -0.4825273  )
       129        Mo     tau( 129) = (   0.4999808   0.5773409  -0.0000733  )
       130        S      tau( 130) = (   0.4999998   0.4330136  -0.6064556  )
       131        S      tau( 131) = (   0.6249676   0.5051499  -0.1241823  )
       132        S      tau( 132) = (   0.4998845   0.5772841   0.3583289  )
       133        S      tau( 133) = (   0.4999999   0.4330135  -0.3584711  )
       134        S      tau( 134) = (   0.6250119   0.5052197   0.1241202  )
       135        S      tau( 135) = (   0.5006138   0.5777054   0.6067911  )
       136        Mo     tau( 136) = (  -0.0000756   0.0000425   0.4811258  )
       137        Mo     tau( 137) = (   0.4999996   0.7216889  -0.4825273  )
       138        Mo     tau( 138) = (   0.3749875   0.7938333  -0.0000404  )
       139        S      tau( 139) = (   0.3749996   0.6495201  -0.6064556  )
       140        S      tau( 140) = (   0.4999549   0.7216781  -0.1241825  )
       141        S      tau( 141) = (   0.3749453   0.7934797   0.3572516  )
       142        S      tau( 142) = (   0.3749996   0.6495200  -0.3584711  )
       143        S      tau( 143) = (   0.5000375   0.7216816   0.1241203  )
       144        S      tau( 144) = (   0.3755618   0.7955149   0.6061729  )
       145        Pt     tau( 145) = (   0.2499972   0.4330095   0.7045710  )
       146        Pd     tau( 146) = (   0.5014537   0.4332826   0.7336317  )

     --------------------------------------------
     DFT-D3 Dispersion Correction (3-body terms):
     --------------------------------------------
       Reference C6 values for interpolation: 

         atom   Coordination number   C6
         S          0.000           268.01
         S          0.995           261.99
         S          1.990           251.62
         Mo         0.000          1691.79
         Mo         1.942          1004.01
         Mo        11.056           674.22
         Pd         0.000          1217.01
         Pd         1.863           573.90
         Pd         5.710           531.75
         Pt         0.000           782.29
         Pt         1.919           692.72
         Pt         6.667           673.75

       Values used:

         atom   Coordination number  R0_AB[au]  C6      C8
         Mo        10.173            3.547    674.22  77634.20
         Mo        10.189            3.547    674.22  77634.20
         Mo        10.200            3.547    674.22  77634.20
         S          3.753            3.128    251.62  12327.25
         S          3.858            3.128    251.62  12327.25
         S          3.845            3.128    251.62  12327.25
         S          3.859            3.128    251.62  12327.25
         S          3.860            3.128    251.62  12327.25
         S          3.821            3.128    251.62  12327.25
         Mo        10.173            3.547    674.22  77634.20
         Mo        10.189            3.547    674.22  77634.20
         Mo        10.200            3.547    674.22  77634.20
         S          3.753            3.128    251.62  12327.25
         S          3.859            3.128    251.62  12327.25
         S          3.845            3.128    251.62  12327.25
         S          3.858            3.128    251.62  12327.25
         S          3.855            3.128    251.62  12327.25
         S          3.822            3.128    251.62  12327.25
         Mo        10.217            3.547    674.22  77634.20
         Mo        10.189            3.547    674.22  77634.20
         Mo        10.200            3.547    674.22  77634.20
         S          3.753            3.128    251.62  12327.25
         S          3.858            3.128    251.62  12327.25
         S          3.861            3.128    251.62  12327.25
         S          3.859            3.128    251.62  12327.25
         S          3.860            3.128    251.62  12327.25
         S          3.771            3.128    251.62  12327.25
         Mo        10.217            3.547    674.22  77634.20
         Mo        10.189            3.547    674.22  77634.20
         Mo        10.200            3.547    674.22  77634.20
         S          3.753            3.128    251.62  12327.25
         S          3.858            3.128    251.62  12327.25
         S          3.861            3.128    251.62  12327.25
         S          3.859            3.128    251.62  12327.25
         S          3.863            3.128    251.62  12327.25
         S          3.763            3.128    251.62  12327.25
         Mo        10.179            3.547    674.22  77634.20
         Mo        10.189            3.547    674.22  77634.20
         Mo        10.202            3.547    674.22  77634.20
         S          3.753            3.128    251.62  12327.25
         S          3.858            3.128    251.62  12327.25
         S          3.858            3.128    251.62  12327.25
         S          3.859            3.128    251.62  12327.25
         S          3.860            3.128    251.62  12327.25
         S          3.752            3.128    251.62  12327.25
         Mo        10.896            3.547    674.22  77634.20
         Mo        10.189            3.547    674.22  77634.20
         Mo        10.203            3.547    674.22  77634.20
         S          3.753            3.128    251.62  12327.25
         S          3.859            3.128    251.62  12327.25
         S          3.864            3.128    251.62  12327.25
         S          3.859            3.128    251.62  12327.25
         S          3.851            3.128    251.62  12327.25
         S          4.654            3.128    251.62  12327.25
         Mo        10.173            3.547    674.22  77634.20
         Mo        10.189            3.547    674.22  77634.20
         Mo        10.201            3.547    674.22  77634.20
         S          3.753            3.128    251.62  12327.25
         S          3.859            3.128    251.62  12327.25
         S          3.858            3.128    251.62  12327.25
         S          3.859            3.128    251.62  12327.25
         S          3.851            3.128    251.62  12327.25
         S          3.752            3.128    251.62  12327.25
         Mo        10.230            3.547    674.22  77634.20
         Mo        10.189            3.547    674.22  77634.20
         Mo        10.200            3.547    674.22  77634.20
         S          3.753            3.128    251.62  12327.25
         S          3.858            3.128    251.62  12327.25
         S          3.861            3.128    251.62  12327.25
         S          3.859            3.128    251.62  12327.25
         S          3.860            3.128    251.62  12327.25
         S          3.762            3.128    251.62  12327.25
         Mo        10.222            3.547    674.22  77634.20
         Mo        10.189            3.547    674.22  77634.20
         Mo        10.200            3.547    674.22  77634.20
         S          3.753            3.128    251.62  12327.25
         S          3.858            3.128    251.62  12327.25
         S          3.846            3.128    251.62  12327.25
         S          3.859            3.128    251.62  12327.25
         S          3.860            3.128    251.62  12327.25
         S          3.829            3.128    251.62  12327.25
         Mo        10.585            3.547    674.22  77634.20
         Mo        10.189            3.547    674.22  77634.20
         Mo        10.203            3.547    674.22  77634.20
         S          3.753            3.128    251.62  12327.25
         S          3.859            3.128    251.62  12327.25
         S          3.865            3.128    251.62  12327.25
         S          3.859            3.128    251.62  12327.25
         S          3.855            3.128    251.62  12327.25
         S          5.614            3.128    251.62  12327.25
         Mo        10.179            3.547    674.22  77634.20
         Mo        10.189            3.547    674.22  77634.20
         Mo        10.203            3.547    674.22  77634.20
         S          3.753            3.128    251.62  12327.25
         S          3.859            3.128    251.62  12327.25
         S          3.865            3.128    251.62  12327.25
         S          3.859            3.128    251.62  12327.25
         S          3.851            3.128    251.62  12327.25
         S          4.660            3.128    251.62  12327.25
         Mo        10.215            3.547    674.22  77634.20
         Mo        10.189            3.547    674.22  77634.20
         Mo        10.200            3.547    674.22  77634.20
         S          3.753            3.128    251.62  12327.25
         S          3.859            3.128    251.62  12327.25
         S          3.845            3.128    251.62  12327.25
         S          3.859            3.128    251.62  12327.25
         S          3.855            3.128    251.62  12327.25
         S          3.821            3.128    251.62  12327.25
         Mo        10.216            3.547    674.22  77634.20
         Mo        10.189            3.547    674.22  77634.20
         Mo        10.200            3.547    674.22  77634.20
         S          3.753            3.128    251.62  12327.25
         S          3.858            3.128    251.62  12327.25
         S          3.853            3.128    251.62  12327.25
         S          3.858            3.128    251.62  12327.25
         S          3.860            3.128    251.62  12327.25
         S          3.786            3.128    251.62  12327.25
         Mo        10.237            3.547    674.22  77634.20
         Mo        10.189            3.547    674.22  77634.20
         Mo        10.200            3.547    674.22  77634.20
         S          3.753            3.128    251.62  12327.25
         S          3.858            3.128    251.62  12327.25
         S          3.846            3.128    251.62  12327.25
         S          3.858            3.128    251.62  12327.25
         S          3.860            3.128    251.62  12327.25
         S          4.738            3.128    251.62  12327.25
         Mo        10.224            3.547    674.22  77634.20
         Mo        10.189            3.547    674.22  77634.20
         Mo        10.202            3.547    674.22  77634.20
         S          3.753            3.128    251.62  12327.25
         S          3.858            3.128    251.62  12327.25
         S          3.859            3.128    251.62  12327.25
         S          3.859            3.128    251.62  12327.25
         S          3.860            3.128    251.62  12327.25
         S          4.674            3.128    251.62  12327.25
         Mo        10.230            3.547    674.22  77634.20
         Mo        10.189            3.547    674.22  77634.20
         Mo        10.200            3.547    674.22  77634.20
         S          3.753            3.128    251.62  12327.25
         S          3.858            3.128    251.62  12327.25
         S          3.845            3.128    251.62  12327.25
         S          3.859            3.128    251.62  12327.25
         S          3.860            3.128    251.62  12327.25
         S          3.822            3.128    251.62  12327.25
         Pt         4.239            3.168    690.46  71800.30
         Pd         3.511            3.168    573.89  52582.23

         Molecular C6 ( Ry / a.u.^6 ) =   7937375.97


     number of k points=     4  Gaussian smearing, width (Ry)=  0.0100
                       cart. coord. in units 2pi/alat
        k(    1) = (   0.0000000   0.0000000   0.0000000), wk =   0.5000000
        k(    2) = (   0.0000000  -0.5773499   0.0000000), wk =   0.5000000
        k(    3) = (  -0.5000000  -0.2886755   0.0000000), wk =   0.5000000
        k(    4) = (  -0.5000000  -0.8660254   0.0000000), wk =   0.5000000

     Dense  grid:  5955087 G-vectors     FFT dimensions: ( 180, 180, 432)

     Smooth grid:  2572543 G-vectors     FFT dimensions: ( 135, 135, 320)

     Estimated max dynamical RAM per process >       3.07 GB

     Estimated total dynamical RAM >     110.53 GB

     Initial potential from superposition of free atoms

     starting charge    1297.9541, renormalised to    1298.0000

     negative rho (up, down):  9.233E-04 0.000E+00
     Starting wfcs are  891 randomized atomic wfcs
     Checking if some PAW data can be deallocated... 

     total cpu time spent up to now is       99.1 secs

     Self-consistent Calculation

     iteration #  1     ecut=    77.00 Ry     beta= 0.20
     Davidson diagonalization with overlap
     ethr =  1.00E-02,  avg # of iterations =  2.0

     Threshold (ethr) on eigenvalues was too large:
     Diagonalizing with lowered threshold

     Davidson diagonalization with overlap
     c_bands:  2 eigenvalues not converged
     ethr =  1.77E-04,  avg # of iterations = 14.2

     negative rho (up, down):  2.937E-04 0.000E+00

     total cpu time spent up to now is     1129.0 secs

     total energy              =  -26031.72347548 Ry
     estimated scf accuracy    <       5.09792163 Ry

     iteration #  2     ecut=    77.00 Ry     beta= 0.20
     Davidson diagonalization with overlap
     ethr =  3.93E-04,  avg # of iterations =  2.0

     negative rho (up, down):  4.386E-05 0.000E+00

     total cpu time spent up to now is     1347.0 secs

     total energy              =  -26030.70782759 Ry
     estimated scf accuracy    <       2.62585776 Ry

     iteration #  3     ecut=    77.00 Ry     beta= 0.20
     Davidson diagonalization with overlap
     ethr =  2.02E-04,  avg # of iterations = 20.0

     negative rho (up, down):  4.009E-05 0.000E+00

     total cpu time spent up to now is     1642.2 secs

     total energy              =  -26031.03505534 Ry
     estimated scf accuracy    <       1.73823591 Ry

     iteration #  4     ecut=    77.00 Ry     beta= 0.20
     Davidson diagonalization with overlap
     ethr =  1.34E-04,  avg # of iterations =  6.0

     negative rho (up, down):  2.913E-05 0.000E+00

     total cpu time spent up to now is     1875.8 secs

     total energy              =  -26031.10581443 Ry
     estimated scf accuracy    <       0.47390274 Ry

     iteration #  5     ecut=    77.00 Ry     beta= 0.20
     Davidson diagonalization with overlap
     c_bands:  1 eigenvalues not converged
     c_bands:  1 eigenvalues not converged
     c_bands:  1 eigenvalues not converged
     c_bands:  2 eigenvalues not converged
     ethr =  3.65E-05,  avg # of iterations = 20.0

     negative rho (up, down):  4.239E-05 0.000E+00

     total cpu time spent up to now is     2721.7 secs

     total energy              =  -26031.74551751 Ry
     estimated scf accuracy    <       0.47265409 Ry

     iteration #  6     ecut=    77.00 Ry     beta= 0.20
     Davidson diagonalization with overlap
     ethr =  3.64E-05,  avg # of iterations =  1.5

     negative rho (up, down):  7.319E-05 0.000E+00

     total cpu time spent up to now is     2929.6 secs

     total energy              =  -26031.70721527 Ry
     estimated scf accuracy    <       0.26779508 Ry

     iteration #  7     ecut=    77.00 Ry     beta= 0.20
     Davidson diagonalization with overlap
     ethr =  2.06E-05,  avg # of iterations =  9.0

     negative rho (up, down):  3.133E-04 0.000E+00

     total cpu time spent up to now is     3165.3 secs

     total energy              =  -26031.66612026 Ry
     estimated scf accuracy    <       0.13898307 Ry

     iteration #  8     ecut=    77.00 Ry     beta= 0.20
     Davidson diagonalization with overlap
     c_bands:  3 eigenvalues not converged
     c_bands:  5 eigenvalues not converged
     c_bands:  4 eigenvalues not converged
     c_bands:  4 eigenvalues not converged
     ethr =  1.07E-05,  avg # of iterations = 20.0

     negative rho (up, down):  3.114E-04 0.000E+00

     total cpu time spent up to now is     3694.5 secs

     total energy              =  -26031.75605981 Ry
     estimated scf accuracy    <       0.51479792 Ry

     iteration #  9     ecut=    77.00 Ry     beta= 0.20
     Davidson diagonalization with overlap
     ethr =  1.07E-05,  avg # of iterations = 11.8

     negative rho (up, down):  2.611E-04 0.000E+00

     total cpu time spent up to now is     3941.1 secs

     total energy              =  -26031.74707920 Ry
     estimated scf accuracy    <       0.07866788 Ry

     iteration # 10     ecut=    77.00 Ry     beta= 0.20
     Davidson diagonalization with overlap
     c_bands:  5 eigenvalues not converged
     c_bands:  3 eigenvalues not converged
     c_bands:  1 eigenvalues not converged
     ethr =  6.06E-06,  avg # of iterations = 37.8

     negative rho (up, down):  2.942E-04 0.000E+00

     total cpu time spent up to now is     4489.8 secs

     total energy              =  -26031.77439412 Ry
     estimated scf accuracy    <       0.00887548 Ry

     iteration # 11     ecut=    77.00 Ry     beta= 0.20
     Davidson diagonalization with overlap
     c_bands:  3 eigenvalues not converged
     c_bands:  2 eigenvalues not converged
     c_bands:  1 eigenvalues not converged
     ethr =  6.84E-07,  avg # of iterations = 30.5

     negative rho (up, down):  3.425E-04 0.000E+00

     total cpu time spent up to now is     5667.3 secs

     total energy              =  -26031.80209861 Ry
     estimated scf accuracy    <       0.03325170 Ry

     iteration # 12     ecut=    77.00 Ry     beta= 0.20
     Davidson diagonalization with overlap
     c_bands:  3 eigenvalues not converged
     ethr =  6.84E-07,  avg # of iterations =  6.2

     negative rho (up, down):  6.246E-04 0.000E+00

     total cpu time spent up to now is     5888.2 secs

     total energy              =  -26031.78690060 Ry
     estimated scf accuracy    <       0.02212876 Ry

     iteration # 13     ecut=    77.00 Ry     beta= 0.20
     Davidson diagonalization with overlap
     ethr =  6.84E-07,  avg # of iterations = 14.2

     negative rho (up, down):  7.751E-04 0.000E+00

     total cpu time spent up to now is     6386.2 secs

     total energy              =  -26031.80129043 Ry
     estimated scf accuracy    <       0.00716918 Ry

     iteration # 14     ecut=    77.00 Ry     beta= 0.20
     Davidson diagonalization with overlap
     ethr =  5.52E-07,  avg # of iterations =  3.5

     negative rho (up, down):  8.233E-04 0.000E+00

     total cpu time spent up to now is     6606.5 secs

     total energy              =  -26031.79679842 Ry
     estimated scf accuracy    <       0.00965552 Ry

     iteration # 15     ecut=    77.00 Ry     beta= 0.20
     Davidson diagonalization with overlap
     ethr =  5.52E-07,  avg # of iterations =  1.8

     negative rho (up, down):  8.504E-04 0.000E+00

     total cpu time spent up to now is     6819.1 secs

     total energy              =  -26031.79652127 Ry
     estimated scf accuracy    <       0.00161209 Ry

     iteration # 16     ecut=    77.00 Ry     beta= 0.20
     Davidson diagonalization with overlap
     ethr =  1.24E-07,  avg # of iterations = 12.5

     negative rho (up, down):  8.549E-04 0.000E+00

     total cpu time spent up to now is     7188.3 secs

     total energy              =  -26031.79747000 Ry
     estimated scf accuracy    <       0.00006769 Ry

     iteration # 17     ecut=    77.00 Ry     beta= 0.20
     Davidson diagonalization with overlap
     ethr =  5.21E-09,  avg # of iterations = 20.8

     negative rho (up, down):  8.507E-04 0.000E+00

     total cpu time spent up to now is     8587.2 secs

     total energy              =  -26031.79784861 Ry
     estimated scf accuracy    <       0.00023904 Ry

     iteration # 18     ecut=    77.00 Ry     beta= 0.20
     Davidson diagonalization with overlap
     ethr =  5.21E-09,  avg # of iterations =  1.0

     negative rho (up, down):  8.605E-04 0.000E+00

     total cpu time spent up to now is     8785.2 secs

     total energy              =  -26031.79778880 Ry
     estimated scf accuracy    <       0.00023581 Ry

     iteration # 19     ecut=    77.00 Ry     beta= 0.20
     Davidson diagonalization with overlap
     ethr =  5.21E-09,  avg # of iterations =  2.8

     negative rho (up, down):  8.773E-04 0.000E+00

     total cpu time spent up to now is     9006.0 secs

     total energy              =  -26031.79771195 Ry
     estimated scf accuracy    <       0.00012928 Ry

     iteration # 20     ecut=    77.00 Ry     beta= 0.20
     Davidson diagonalization with overlap
     ethr =  5.21E-09,  avg # of iterations = 14.5

     negative rho (up, down):  8.804E-04 0.000E+00

     total cpu time spent up to now is     9452.0 secs

     total energy              =  -26031.79777097 Ry
     estimated scf accuracy    <       0.00004808 Ry

     iteration # 21     ecut=    77.00 Ry     beta= 0.20
     Davidson diagonalization with overlap
     ethr =  3.70E-09,  avg # of iterations =  6.5

     negative rho (up, down):  9.043E-04 0.000E+00

     total cpu time spent up to now is     9680.3 secs

     total energy              =  -26031.79776015 Ry
     estimated scf accuracy    <       0.00001574 Ry

     iteration # 22     ecut=    77.00 Ry     beta= 0.20
     Davidson diagonalization with overlap
     ethr =  1.21E-09,  avg # of iterations = 14.0

     negative rho (up, down):  9.187E-04 0.000E+00

     total cpu time spent up to now is    10083.4 secs

     total energy              =  -26031.79776561 Ry
     estimated scf accuracy    <       0.00000829 Ry

     iteration # 23     ecut=    77.00 Ry     beta= 0.20
     Davidson diagonalization with overlap
     ethr =  6.38E-10,  avg # of iterations = 10.8

     negative rho (up, down):  9.261E-04 0.000E+00

     total cpu time spent up to now is    10354.9 secs

     total energy              =  -26031.79776151 Ry
     estimated scf accuracy    <       0.00000506 Ry

     iteration # 24     ecut=    77.00 Ry     beta= 0.20
     Davidson diagonalization with overlap
     ethr =  3.89E-10,  avg # of iterations = 14.0

     negative rho (up, down):  9.284E-04 0.000E+00

     total cpu time spent up to now is    10697.9 secs

     End of self-consistent calculation

          k = 0.0000 0.0000 0.0000 (321495 PWs)   bands (ev):

  -102.9884 -88.2704 -71.3110 -71.2986 -71.2890 -71.2767 -71.2694 -71.2629
   -71.2553 -66.6955 -66.6745 -66.6745 -66.6744 -66.6744 -66.6744 -66.6744
   -66.6533 -66.6533 -66.6533 -66.6533 -66.6532 -66.6532 -66.6532 -66.6532
   -66.6532 -66.6297 -66.6090 -66.6087 -66.6086 -66.6085 -66.6083 -66.6083
   -66.5880 -66.5877 -66.5876 -66.5874 -66.5873 -66.5873 -66.5871 -66.5871
   -66.5869 -66.5613 -66.5499 -66.5423 -66.5403 -66.5357 -66.5280 -66.5271
   -66.5198 -66.5178 -66.5111 -66.5043 -66.4978 -66.4942 -66.4897 -66.4829
   -66.4763 -57.2334 -57.2206 -57.1837 -54.1314 -54.0803 -54.0057 -41.0219
   -41.0219 -41.0219 -40.9550 -40.9549 -40.9548 -40.9471 -40.9471 -40.9471
   -40.9471 -40.9471 -40.9471 -40.8804 -40.8802 -40.8801 -40.8801 -40.8801
   -40.8800 -40.8797 -40.8783 -40.8725 -40.8557 -40.8216 -40.8216 -40.8216
   -40.8216 -40.8216 -40.8215 -40.8143 -40.8142 -40.8142 -40.8142 -40.8142
   -40.8142 -40.8082 -40.8060 -40.8009 -40.7969 -40.7903 -40.7867 -40.7867
   -40.7867 -40.7867 -40.7867 -40.7867 -40.7824 -40.7808 -40.7726 -40.7726
   -40.7726 -40.7726 -40.7725 -40.7725 -40.7725 -40.7725 -40.7725 -40.7549
   -40.7548 -40.7547 -40.7546 -40.7546 -40.7546 -40.7492 -40.7490 -40.7489
   -40.7489 -40.7487 -40.7486 -40.7441 -40.7201 -40.7201 -40.7199 -40.7199
   -40.7198 -40.7197 -40.7186 -40.7089 -40.7089 -40.7089 -40.7078 -40.7075
   -40.7074 -40.7073 -40.7072 -40.7071 -40.7070 -40.7070 -40.7068 -40.6917
   -40.6858 -40.6844 -40.6832 -40.6823 -40.6802 -40.6791 -40.6731 -40.6689
   -40.6667 -40.6621 -40.6621 -40.6621 -40.6621 -40.6621 -40.6621 -40.6535
   -40.6521 -40.6511 -40.6472 -40.6465 -40.6423 -40.6422 -40.6422 -40.6408
   -40.6386 -40.6382 -40.6376 -40.6315 -40.6312 -40.6266 -40.6246 -40.6196
   -40.6188 -40.6180 -40.6148 -40.6148 -40.5958 -40.5955 -40.5954 -40.5954
   -40.5953 -40.5952 -40.5641 -40.5618 -40.5588 -40.5482 -40.5482 -40.5147
   -40.5134 -40.5083 -40.5072 -40.5027 -40.4997 -40.4546 -40.4495 -20.1409
   -20.0727 -19.9320 -19.4792 -19.2925 -19.2748 -19.2622 -19.2612 -19.2603
   -19.2531 -19.2372 -19.2229 -19.1655 -19.1551 -19.1470 -19.1077 -19.0931
   -19.0891 -19.0563 -19.0395 -19.0216 -18.8862 -18.7466 -18.6692 -18.5555
   -18.5508 -18.5086 -18.4793 -18.4688 -18.4636 -18.4387 -18.4146 -18.3901
   -18.3563 -18.3460 -18.3108 -18.2813 -18.2683 -18.2237 -18.2223 -18.2092
   -18.1718 -18.1607 -18.1568 -18.1553 -18.1553 -18.1549 -18.1548 -18.1540
   -18.1519 -18.1148 -18.1148 -18.1147 -18.0896 -18.0824 -18.0771 -18.0742
   -18.0707 -18.0677 -18.0623 -18.0430 -18.0427 -18.0394 -18.0215 -17.9962
   -17.9881 -17.9815 -17.9773 -17.9754 -17.9599 -17.9564 -17.9552 -17.9450
   -17.9349 -17.9312 -17.9297 -17.9284 -17.9260 -17.9017 -17.8962 -17.8922
   -17.8764 -17.8715 -17.8627 -17.8610 -17.8566 -17.8536 -17.8322 -17.8284
   -17.8215 -17.7993 -17.7894 -17.7845 -17.7783 -17.7763 -17.7687 -12.0773
   -11.9732 -11.8513 -11.7932 -11.7691 -11.7676 -11.7586 -11.6885 -11.6843
   -11.6758 -11.6439 -11.3827 -11.3620 -11.3329 -11.2487 -11.2211 -11.2192
   -11.2166 -11.2084 -11.2013 -11.1915 -11.1491 -11.1439 -11.1427 -11.1410
   -11.1390 -11.1339 -11.1193 -11.0666 -11.0505 -11.0216 -11.0138 -11.0040
   -10.9963 -10.9868 -10.9821 -10.9557 -10.9431 -10.9366 -10.9344 -10.9288
   -10.9248 -10.9005 -10.8995 -10.8754 -10.8656 -10.8555 -10.8492 -10.8465
   -10.8460 -10.8444 -10.8434 -10.8403 -10.8224 -10.8176 -10.8171 -10.8144
   -10.8009 -10.7976 -10.7958 -10.7935 -10.7926 -10.7799 -10.7701 -10.7419
   -10.7385 -10.7230 -10.7066 -10.6991 -10.6685 -10.6502 -10.6394 -10.6210
   -10.6142 -10.6101 -10.4727 -10.3881 -10.1095 -10.0854 -10.0632 -10.0620
   -10.0513  -9.9172  -9.9143  -9.8882  -9.8433  -9.8330  -9.7999  -9.7960
    -9.7930  -9.7877  -9.7759  -9.7586  -9.7465  -9.7276  -9.7140  -9.7091
    -9.7034  -9.6951  -9.6801  -9.6623  -9.6459  -9.6445  -9.6361  -9.6340
    -9.6275  -9.6223  -9.6057  -9.5918  -9.5900  -9.5893  -9.5882  -9.5862
    -9.5854  -9.5834  -9.5679  -9.5529  -9.5394  -9.5363  -9.5271  -9.4815
    -9.4717  -9.4550  -9.4515  -9.4478  -9.4435  -9.4163  -9.3798  -9.3753
    -9.3547  -9.3520  -9.3443  -9.3295  -9.3176  -9.3021  -9.2753  -9.2623
    -9.2423  -9.2356  -9.2188  -9.2088  -9.2073  -9.2040  -9.1901  -9.1357
    -9.1222  -9.0967  -9.0740  -9.0443  -9.0367  -9.0337  -9.0336  -9.0333
    -9.0279  -9.0259  -9.0003  -8.9740  -8.9580  -8.9561  -8.9538  -8.9363
    -8.9052  -8.8896  -8.8741  -8.8627  -8.8324  -8.8265  -8.8177  -8.8155
    -8.8136  -8.8090  -8.8057  -8.7981  -8.7927  -8.7719  -8.7647  -8.7553
    -8.7460  -8.7389  -8.7321  -8.7267  -8.7113  -8.7070  -8.6142  -8.4981
    -8.4786  -8.4447  -8.4446  -8.3721  -8.3721  -8.3513  -8.3356  -8.3327
    -8.3326  -8.3325  -8.3325  -8.3325  -8.3293  -8.2961  -8.2918  -8.2834
    -8.2644  -8.2616  -8.2549  -8.2545  -8.2534  -8.2510  -8.2264  -8.2026
    -8.1416  -8.0972  -8.0326  -7.9577  -7.9494  -7.9280  -7.9048  -7.7415
    -7.7095  -7.6942  -7.6717  -7.6313  -7.5986  -7.5974  -7.5972  -7.5970
    -7.5969  -7.5965  -7.5799  -7.5714  -7.5517  -7.5513  -7.5509  -7.5506
    -7.5503  -7.5500  -7.5337  -7.5269  -7.5242  -7.5206  -7.5170  -7.5145
    -7.5130  -7.5054  -7.4947  -7.4856  -7.4816  -7.4789  -7.4773  -7.4753
    -7.4694  -7.4637  -7.4586  -7.4525  -7.4368  -7.4351  -7.4336  -7.4324
    -7.4307  -7.4201  -7.3975  -7.3848  -7.3158  -7.3158  -7.3023  -7.2909
    -7.2662  -7.2599  -7.2475  -7.2432  -7.2370  -7.2062  -7.1941  -7.1554
    -7.0707  -7.0400  -7.0049  -6.9809  -6.9427  -6.9157  -6.8968  -6.8919
    -6.8522  -6.8433  -6.8203  -6.8112  -6.8072  -6.7869  -6.7184  -6.6820
    -6.6795  -6.6706  -6.6611  -6.6443  -6.6314  -6.6297  -6.6259  -6.6145
    -6.5813  -6.5574  -6.5409  -6.5362  -6.5332  -6.5263  -6.5234  -6.5222
    -6.5150  -6.4929  -6.4886  -6.4783  -6.4731  -6.4578  -6.4537  -6.4393
    -6.4343  -6.4302  -6.4258  -6.3872  -6.3683  -6.3638  -6.3638  -6.3638
    -6.3637  -6.3637  -6.3637  -6.3369  -6.3088  -6.2966  -6.2886  -6.2872
    -6.2854  -6.2846  -6.2832  -6.2750  -6.2549  -6.2307  -6.1989  -6.1887
    -6.1116  -5.9782  -5.8403  -5.7377  -5.5322  -5.4809  -5.4002  -5.3693
    -5.1402  -4.1614  -3.9094  -3.8494  -3.8482  -3.8449  -3.8417  -3.8227
    -3.8198  -3.8157  -3.8146  -3.8130  -3.8107  -3.7899  -3.7275  -3.6229
    -3.6182  -3.6039  -3.5982  -3.5945  -3.5885  -3.5835  -3.5805  -3.5788
    -3.5746  -3.5043  -3.5043  -3.5043  -3.4902  -3.4874  -3.4864  -3.4862
    -3.4845  -3.4841  -3.4466  -3.4374  -3.4371  -3.4370  -3.4253  -3.4115
    -3.4074  -3.3921  -3.3899  -3.3870  -3.3818  -3.3804  -3.3773  -3.3703
    -3.3690  -3.3539  -3.3526  -3.3487  -3.3412  -3.3181  -3.3054  -3.2867
    -3.2805  -3.2744  -3.2695  -3.2480  -3.2435  -3.2384  -3.2214  -3.1980
    -3.0387  -3.0383  -3.0382  -3.0328  -3.0328  -3.0248  -2.9789  -2.9690
    -2.9663  -2.9658  -2.9655  -2.9654  -2.9653  -2.9650  -2.9637  -2.9553
    -2.9468  -2.9450  -2.9419  -2.9387  -2.9150  -2.9118  -2.9042  -2.9018
    -2.8994  -2.8964  -2.8927  -2.8921  -2.8807  -2.8795  -2.8792  -2.8615
    -2.8589  -2.8275  -2.8269  -2.8169  -2.8113  -2.8067  -2.7953  -2.7749
    -2.7746  -2.7576  -2.7554  -2.7547  -2.7522  -2.7475  -2.7466  -2.7057
    -2.7048  -2.7024  -2.6783  -2.6591  -2.6461  -2.6403  -2.6360  -2.6222
    -2.6111  -2.5564  -2.5460  -2.5367  -2.5294  -2.5069  -2.4912  -2.4795
    -2.4661  -2.4609  -2.4556

          k = 0.0000-0.5773 0.0000 (321564 PWs)   bands (ev):

  -102.9884 -88.2704 -71.3111 -71.2986 -71.2890 -71.2767 -71.2694 -71.2629
   -71.2553 -66.6894 -66.6893 -66.6788 -66.6788 -66.6639 -66.6639 -66.6638
   -66.6638 -66.6595 -66.6594 -66.6533 -66.6533 -66.6532 -66.6532 -66.6488
   -66.6488 -66.6236 -66.6234 -66.6130 -66.6129 -66.5981 -66.5981 -66.5980
   -66.5978 -66.5937 -66.5935 -66.5877 -66.5874 -66.5873 -66.5872 -66.5830
   -66.5829 -66.5599 -66.5520 -66.5434 -66.5396 -66.5357 -66.5277 -66.5258
   -66.5203 -66.5170 -66.5119 -66.5042 -66.4979 -66.4946 -66.4896 -66.4830
   -66.4762 -57.2334 -57.2206 -57.1837 -54.1314 -54.0803 -54.0057 -40.9905
   -40.9905 -40.9905 -40.9905 -40.9639 -40.9639 -40.9520 -40.9520 -40.9238
   -40.9235 -40.9234 -40.9233 -40.9015 -40.9015 -40.9015 -40.9015 -40.8970
   -40.8968 -40.8850 -40.8849 -40.8639 -40.8478 -40.8436 -40.8435 -40.8389
   -40.8347 -40.8346 -40.8346 -40.8345 -40.8336 -40.8336 -40.8287 -40.8228
   -40.8228 -40.8227 -40.8177 -40.8049 -40.7934 -40.7934 -40.7934 -40.7934
   -40.7898 -40.7848 -40.7847 -40.7783 -40.7780 -40.7726 -40.7726 -40.7725
   -40.7725 -40.7725 -40.7725 -40.7668 -40.7667 -40.7639 -40.7639 -40.7575
   -40.7574 -40.7540 -40.7533 -40.7513 -40.7427 -40.7418 -40.7418 -40.7418
   -40.7418 -40.7295 -40.7282 -40.7282 -40.7281 -40.7279 -40.7195 -40.7193
   -40.7164 -40.7076 -40.7073 -40.7073 -40.7073 -40.7073 -40.7072 -40.7071
   -40.7071 -40.7058 -40.7057 -40.7037 -40.6987 -40.6986 -40.6953 -40.6952
   -40.6898 -40.6814 -40.6795 -40.6761 -40.6761 -40.6752 -40.6752 -40.6751
   -40.6750 -40.6749 -40.6662 -40.6604 -40.6594 -40.6592 -40.6592 -40.6514
   -40.6492 -40.6433 -40.6407 -40.6406 -40.6406 -40.6405 -40.6405 -40.6372
   -40.6324 -40.6287 -40.6287 -40.6287 -40.6284 -40.6259 -40.6239 -40.6201
   -40.6180 -40.6095 -40.6093 -40.6028 -40.5978 -40.5926 -40.5924 -40.5924
   -40.5831 -40.5633 -40.5622 -40.5619 -40.5562 -40.5542 -40.5511 -40.5436
   -40.5291 -40.5270 -40.5244 -40.5057 -40.4874 -40.4831 -40.4547 -19.9617
   -19.8916 -19.8718 -19.7812 -19.7131 -19.6593 -19.4743 -19.4609 -19.4235
   -19.3853 -19.2853 -19.2656 -19.0069 -18.8243 -18.8052 -18.7532 -18.7502
   -18.7478 -18.7441 -18.7355 -18.7097 -18.6758 -18.6507 -18.6248 -18.6207
   -18.6058 -18.5889 -18.5585 -18.5501 -18.5476 -18.5023 -18.4998 -18.4809
   -18.4618 -18.4349 -18.4208 -18.4084 -18.4024 -18.3743 -18.3441 -18.3101
   -18.2884 -18.2809 -18.2427 -18.2285 -18.2253 -18.2038 -18.1843 -18.1508
   -18.1355 -18.1354 -18.1353 -18.1352 -18.1301 -18.1201 -18.1095 -18.0966
   -18.0734 -18.0607 -18.0596 -18.0571 -18.0544 -18.0504 -18.0205 -18.0203
   -18.0022 -17.9965 -17.9871 -17.9796 -17.9783 -17.9564 -17.9487 -17.9449
   -17.9349 -17.9330 -17.9196 -17.8966 -17.8854 -17.8719 -17.8719 -17.8698
   -17.8675 -17.8291 -17.8228 -17.8124 -17.8121 -17.7972 -17.7959 -17.7923
   -17.7902 -17.7771 -17.7662 -17.7520 -17.7504 -17.6937 -17.6898 -11.9863
   -11.8103 -11.6864 -11.6535 -11.5957 -11.4834 -11.4829 -11.4804 -11.4798
   -11.4730 -11.4592 -11.4432 -11.4189 -11.4022 -11.3972 -11.3844 -11.3797
   -11.3497 -11.3276 -11.3177 -11.3083 -11.3022 -11.2909 -11.2848 -11.2648
   -11.2647 -11.2603 -11.2203 -11.2192 -11.2161 -11.1808 -11.1662 -11.1592
   -11.1591 -11.1281 -11.0989 -11.0156 -11.0073 -10.9973 -10.9809 -10.9754
   -10.9558 -10.9279 -10.9249 -10.9214 -10.9081 -10.8944 -10.8870 -10.8738
   -10.8574 -10.8446 -10.8399 -10.8384 -10.8376 -10.8361 -10.8331 -10.8166
   -10.8069 -10.7867 -10.7748 -10.7720 -10.7664 -10.7619 -10.7013 -10.6669
   -10.6000 -10.5952 -10.5835 -10.5023 -10.4960 -10.4075 -10.3743 -10.3130
   -10.2448 -10.1816 -10.1448 -10.1391 -10.1317 -10.1085 -10.0993 -10.0669
   -10.0520 -10.0419 -10.0155  -9.9861  -9.9613  -9.9497  -9.9446  -9.9390
    -9.9361  -9.9296  -9.9243  -9.9062  -9.8999  -9.8922  -9.8848  -9.8296
    -9.8041  -9.7978  -9.7921  -9.7657  -9.7558  -9.7445  -9.7283  -9.7210
    -9.7202  -9.7097  -9.7054  -9.6781  -9.6736  -9.6567  -9.6522  -9.6489
    -9.6249  -9.6190  -9.6093  -9.5948  -9.5535  -9.5393  -9.5380  -9.5285
    -9.5120  -9.4793  -9.4771  -9.4626  -9.4419  -9.3581  -9.3385  -9.3007
    -9.2827  -9.2710  -9.2189  -9.2082  -9.2032  -9.1786  -9.1546  -9.1462
    -9.1404  -9.1362  -9.1353  -9.1174  -9.0966  -9.0893  -9.0767  -9.0490
    -9.0460  -9.0337  -9.0286  -9.0236  -9.0069  -8.9959  -8.9767  -8.9729
    -8.9591  -8.9558  -8.9499  -8.9431  -8.9395  -8.9372  -8.9230  -8.9144
    -8.9036  -8.8890  -8.8792  -8.8671  -8.8658  -8.8614  -8.8541  -8.8478
    -8.8470  -8.8450  -8.8344  -8.8227  -8.8111  -8.7968  -8.7832  -8.7768
    -8.7707  -8.7582  -8.7485  -8.7327  -8.7175  -8.6402  -8.5578  -8.5537
    -8.5196  -8.5186  -8.4414  -8.4365  -8.4213  -8.3835  -8.3360  -8.2697
    -8.2361  -8.2323  -8.2011  -8.2010  -8.1296  -8.1294  -8.1280  -8.0902
    -8.0722  -7.9998  -7.9769  -7.9506  -7.9404  -7.9321  -7.8802  -7.8699
    -7.8667  -7.8641  -7.8566  -7.8545  -7.8544  -7.8538  -7.8528  -7.8369
    -7.8165  -7.8090  -7.8084  -7.8080  -7.8022  -7.7898  -7.7843  -7.7802
    -7.7676  -7.7669  -7.7616  -7.7543  -7.7405  -7.7376  -7.7316  -7.7267
    -7.7224  -7.7130  -7.7048  -7.6973  -7.6902  -7.6856  -7.6695  -7.6692
    -7.6662  -7.6649  -7.6564  -7.6399  -7.6319  -7.6145  -7.6041  -7.6006
    -7.5951  -7.5800  -7.5719  -7.5544  -7.5349  -7.5332  -7.4735  -7.4643
    -7.4493  -7.3866  -7.3443  -7.2831  -7.2659  -7.2476  -7.2411  -7.2296
    -7.1968  -7.1931  -7.1437  -7.1274  -7.1195  -7.0756  -7.0593  -7.0233
    -7.0169  -7.0163  -6.9955  -6.9869  -6.9734  -6.9545  -6.9514  -6.9448
    -6.9101  -6.8993  -6.8619  -6.8460  -6.8366  -6.8315  -6.8102  -6.7785
    -6.7386  -6.7067  -6.6867  -6.6669  -6.6661  -6.6660  -6.6660  -6.6604
    -6.6527  -6.6384  -6.6167  -6.6012  -6.5987  -6.5954  -6.5940  -6.5832
    -6.5586  -6.5440  -6.5304  -6.5114  -6.4681  -6.4531  -6.4410  -6.3491
    -6.3352  -6.3345  -6.3343  -6.3336  -6.3094  -6.2771  -6.2734  -6.2649
    -6.2576  -6.2535  -6.2511  -6.2460  -6.2343  -6.2031  -6.1979  -6.1665
    -6.1599  -6.1072  -5.9972  -5.9859  -5.9858  -5.9098  -5.9082  -5.8564
    -5.7926  -5.7688  -5.6700  -5.6631  -5.5552  -5.5357  -5.4728  -5.3853
    -5.3250  -4.1731  -4.0463  -4.0229  -4.0224  -3.9880  -3.9015  -3.9011
    -3.9004  -3.8677  -3.8388  -3.8365  -3.8339  -3.7825  -3.7719  -3.7674
    -3.7652  -3.7202  -3.6976  -3.6380  -3.6101  -3.6061  -3.6021  -3.6013
    -3.5870  -3.5869  -3.5846  -3.5642  -3.5463  -3.5225  -3.5133  -3.5079
    -3.5053  -3.4912  -3.4840  -3.4833  -3.4781  -3.4692  -3.4682  -3.4344
    -3.4270  -3.4128  -3.3925  -3.3745  -3.3612  -3.3564  -3.3538  -3.3536
    -3.3249  -3.3235  -3.3220  -3.3125  -3.2907  -3.2811  -3.2783  -3.2776
    -3.2773  -3.2738  -3.2573  -3.2491  -3.2378  -3.2311  -3.2289  -3.2127
    -3.2127  -3.2071  -3.2052  -3.1989  -3.1902  -3.1609  -3.1485  -3.1266
    -3.1167  -3.1094  -3.0900  -3.0753  -3.0723  -3.0395  -3.0353  -3.0326
    -3.0264  -3.0160  -3.0142  -3.0140  -3.0135  -2.9868  -2.9789  -2.9671
    -2.9645  -2.9535  -2.9491  -2.9403  -2.9290  -2.9195  -2.9180  -2.9155
    -2.9015  -2.8973  -2.8918  -2.8837  -2.8678  -2.8648  -2.8488  -2.8376
    -2.8140  -2.8034  -2.7987  -2.7946  -2.7873  -2.7439  -2.7314  -2.7147
    -2.7071  -2.6590  -2.6528  -2.6515  -2.6439  -2.6351  -2.6297  -2.5713
    -2.5651  -2.5196  -2.5129  -2.5046  -2.4910  -2.4890  -2.4518  -2.3636
    -2.3458  -2.3383  -2.2948

          k =-0.5000-0.2887 0.0000 (321564 PWs)   bands (ev):

  -102.9884 -88.2704 -71.3111 -71.2986 -71.2890 -71.2767 -71.2694 -71.2629
   -71.2553 -66.6894 -66.6894 -66.6788 -66.6788 -66.6639 -66.6639 -66.6638
   -66.6638 -66.6595 -66.6594 -66.6533 -66.6532 -66.6532 -66.6532 -66.6489
   -66.6488 -66.6237 -66.6233 -66.6130 -66.6129 -66.5981 -66.5981 -66.5980
   -66.5977 -66.5938 -66.5934 -66.5877 -66.5876 -66.5873 -66.5870 -66.5831
   -66.5829 -66.5581 -66.5556 -66.5422 -66.5370 -66.5349 -66.5301 -66.5267
   -66.5206 -66.5168 -66.5107 -66.5046 -66.4977 -66.4942 -66.4899 -66.4832
   -66.4761 -57.2334 -57.2206 -57.1837 -54.1314 -54.0803 -54.0057 -40.9905
   -40.9905 -40.9905 -40.9905 -40.9639 -40.9639 -40.9520 -40.9519 -40.9237
   -40.9237 -40.9234 -40.9232 -40.9015 -40.9015 -40.9015 -40.9015 -40.8970
   -40.8967 -40.8850 -40.8849 -40.8534 -40.8530 -40.8437 -40.8436 -40.8436
   -40.8347 -40.8347 -40.8345 -40.8345 -40.8336 -40.8336 -40.8305 -40.8264
   -40.8228 -40.8228 -40.8227 -40.8036 -40.7934 -40.7934 -40.7934 -40.7934
   -40.7848 -40.7847 -40.7823 -40.7783 -40.7780 -40.7726 -40.7726 -40.7725
   -40.7725 -40.7725 -40.7725 -40.7669 -40.7667 -40.7639 -40.7639 -40.7580
   -40.7575 -40.7574 -40.7496 -40.7429 -40.7418 -40.7418 -40.7418 -40.7418
   -40.7399 -40.7336 -40.7282 -40.7281 -40.7281 -40.7279 -40.7196 -40.7193
   -40.7128 -40.7095 -40.7075 -40.7074 -40.7073 -40.7073 -40.7073 -40.7073
   -40.7072 -40.7069 -40.7059 -40.7057 -40.6987 -40.6986 -40.6953 -40.6952
   -40.6895 -40.6823 -40.6781 -40.6761 -40.6761 -40.6753 -40.6752 -40.6750
   -40.6749 -40.6747 -40.6670 -40.6642 -40.6603 -40.6592 -40.6592 -40.6554
   -40.6452 -40.6430 -40.6407 -40.6407 -40.6405 -40.6405 -40.6385 -40.6368
   -40.6322 -40.6287 -40.6287 -40.6287 -40.6284 -40.6270 -40.6249 -40.6212
   -40.6173 -40.6096 -40.6092 -40.5981 -40.5966 -40.5934 -40.5926 -40.5924
   -40.5923 -40.5653 -40.5623 -40.5619 -40.5562 -40.5524 -40.5502 -40.5395
   -40.5341 -40.5312 -40.5162 -40.5044 -40.4833 -40.4807 -40.4611 -19.9564
   -19.8924 -19.8712 -19.7879 -19.7133 -19.6675 -19.4736 -19.4592 -19.4234
   -19.3748 -19.2854 -19.2595 -19.0073 -18.8345 -18.8053 -18.7560 -18.7488
   -18.7479 -18.7443 -18.7358 -18.7106 -18.6794 -18.6465 -18.6246 -18.6194
   -18.6134 -18.5810 -18.5603 -18.5574 -18.5458 -18.5026 -18.4997 -18.4823
   -18.4678 -18.4345 -18.4223 -18.4066 -18.3998 -18.3836 -18.3294 -18.3235
   -18.2766 -18.2618 -18.2419 -18.2346 -18.2242 -18.1916 -18.1768 -18.1646
   -18.1360 -18.1355 -18.1353 -18.1352 -18.1332 -18.1139 -18.1106 -18.0837
   -18.0764 -18.0652 -18.0605 -18.0577 -18.0533 -18.0470 -18.0370 -18.0115
   -18.0036 -17.9942 -17.9885 -17.9827 -17.9779 -17.9555 -17.9513 -17.9469
   -17.9391 -17.9331 -17.9231 -17.8920 -17.8886 -17.8765 -17.8719 -17.8718
   -17.8678 -17.8264 -17.8244 -17.8121 -17.8120 -17.8081 -17.7960 -17.7955
   -17.7882 -17.7710 -17.7573 -17.7518 -17.7479 -17.6963 -17.6864 -11.9647
   -11.7941 -11.6910 -11.6569 -11.6160 -11.5031 -11.4852 -11.4832 -11.4805
   -11.4758 -11.4591 -11.4522 -11.4396 -11.4025 -11.3930 -11.3822 -11.3772
   -11.3620 -11.3322 -11.3223 -11.3101 -11.2973 -11.2922 -11.2786 -11.2753
   -11.2647 -11.2647 -11.2192 -11.2189 -11.2067 -11.1708 -11.1667 -11.1604
   -11.1590 -11.1192 -11.0800 -11.0264 -11.0050 -10.9863 -10.9825 -10.9680
   -10.9567 -10.9289 -10.9237 -10.9168 -10.9065 -10.8929 -10.8883 -10.8812
   -10.8474 -10.8449 -10.8392 -10.8377 -10.8373 -10.8345 -10.8270 -10.8108
   -10.8016 -10.7975 -10.7808 -10.7718 -10.7686 -10.7614 -10.7466 -10.6228
   -10.6117 -10.5912 -10.5507 -10.5009 -10.4948 -10.3979 -10.3700 -10.2874
   -10.2644 -10.2236 -10.1884 -10.1370 -10.1311 -10.1202 -10.1135 -10.0594
   -10.0439 -10.0207 -10.0158  -9.9668  -9.9635  -9.9450  -9.9435  -9.9415
    -9.9338  -9.9228  -9.9122  -9.9036  -9.9001  -9.8906  -9.8668  -9.8197
    -9.7996  -9.7918  -9.7690  -9.7658  -9.7554  -9.7438  -9.7389  -9.7197
    -9.7186  -9.7080  -9.7043  -9.6840  -9.6676  -9.6617  -9.6466  -9.6323
    -9.6235  -9.6191  -9.6107  -9.5731  -9.5554  -9.5397  -9.5376  -9.5282
    -9.5217  -9.4798  -9.4781  -9.4747  -9.4380  -9.3872  -9.3415  -9.3252
    -9.3221  -9.2783  -9.2240  -9.2094  -9.2035  -9.1833  -9.1705  -9.1616
    -9.1487  -9.1359  -9.1327  -9.1191  -9.1000  -9.0866  -9.0636  -9.0518
    -9.0378  -9.0317  -9.0231  -9.0199  -9.0077  -8.9958  -8.9881  -8.9763
    -8.9659  -8.9583  -8.9527  -8.9403  -8.9399  -8.9364  -8.9263  -8.9091
    -8.8992  -8.8787  -8.8686  -8.8656  -8.8605  -8.8569  -8.8522  -8.8474
    -8.8469  -8.8390  -8.8304  -8.8265  -8.8157  -8.8101  -8.7900  -8.7748
    -8.7704  -8.7611  -8.7508  -8.7350  -8.7115  -8.6654  -8.5602  -8.5410
    -8.5197  -8.5182  -8.4428  -8.4396  -8.4332  -8.3803  -8.3609  -8.2924
    -8.2125  -8.2011  -8.2010  -8.1816  -8.1292  -8.1286  -8.1157  -8.0693
    -8.0466  -8.0275  -7.9836  -7.9440  -7.9395  -7.9236  -7.8781  -7.8707
    -7.8676  -7.8623  -7.8548  -7.8544  -7.8543  -7.8530  -7.8494  -7.8414
    -7.8185  -7.8088  -7.8083  -7.8073  -7.8053  -7.7853  -7.7842  -7.7744
    -7.7697  -7.7630  -7.7576  -7.7487  -7.7455  -7.7365  -7.7326  -7.7278
    -7.7240  -7.7169  -7.7032  -7.6936  -7.6923  -7.6796  -7.6692  -7.6692
    -7.6668  -7.6617  -7.6434  -7.6339  -7.6246  -7.6183  -7.6092  -7.5997
    -7.5903  -7.5884  -7.5694  -7.5604  -7.5243  -7.5222  -7.5006  -7.4711
    -7.4406  -7.3992  -7.3161  -7.2760  -7.2585  -7.2523  -7.2352  -7.2166
    -7.2140  -7.1745  -7.1463  -7.1371  -7.1254  -7.0790  -7.0622  -7.0421
    -7.0276  -7.0165  -7.0163  -7.0017  -6.9612  -6.9580  -6.9495  -6.9399
    -6.9119  -6.9066  -6.8789  -6.8682  -6.8411  -6.8308  -6.8206  -6.7956
    -6.7336  -6.7274  -6.6994  -6.6753  -6.6661  -6.6661  -6.6660  -6.6659
    -6.6430  -6.6272  -6.6121  -6.5994  -6.5971  -6.5959  -6.5933  -6.5712
    -6.5570  -6.5450  -6.4904  -6.4759  -6.4613  -6.4360  -6.4193  -6.4047
    -6.3577  -6.3346  -6.3343  -6.3335  -6.3331  -6.2772  -6.2705  -6.2580
    -6.2555  -6.2522  -6.2481  -6.2426  -6.2240  -6.2115  -6.2098  -6.1632
    -6.1495  -6.0199  -5.9859  -5.9859  -5.9325  -5.9202  -5.9049  -5.9021
    -5.8344  -5.7547  -5.6668  -5.6538  -5.5831  -5.5554  -5.4764  -5.3973
    -5.3233  -4.1894  -4.0426  -4.0289  -4.0210  -3.9949  -3.9014  -3.9013
    -3.8905  -3.8668  -3.8400  -3.8364  -3.8354  -3.7895  -3.7805  -3.7685
    -3.7579  -3.7319  -3.6920  -3.6369  -3.6113  -3.6054  -3.6034  -3.5998
    -3.5916  -3.5869  -3.5866  -3.5618  -3.5555  -3.5281  -3.5100  -3.5071
    -3.4988  -3.4886  -3.4829  -3.4794  -3.4729  -3.4698  -3.4672  -3.4264
    -3.4199  -3.4103  -3.3813  -3.3737  -3.3613  -3.3541  -3.3539  -3.3426
    -3.3257  -3.3222  -3.3202  -3.3129  -3.2922  -3.2816  -3.2781  -3.2778
    -3.2766  -3.2760  -3.2525  -3.2431  -3.2399  -3.2368  -3.2294  -3.2171
    -3.2101  -3.2067  -3.2009  -3.1989  -3.1888  -3.1613  -3.1370  -3.1254
    -3.1181  -3.1056  -3.0872  -3.0748  -3.0729  -3.0430  -3.0375  -3.0339
    -3.0317  -3.0150  -3.0143  -3.0140  -3.0136  -2.9833  -2.9733  -2.9667
    -2.9647  -2.9521  -2.9401  -2.9385  -2.9271  -2.9219  -2.9164  -2.9096
    -2.9020  -2.8960  -2.8879  -2.8802  -2.8716  -2.8607  -2.8482  -2.8379
    -2.8280  -2.8134  -2.8031  -2.8011  -2.7960  -2.7404  -2.7338  -2.7137
    -2.7068  -2.6698  -2.6522  -2.6518  -2.6443  -2.6332  -2.6330  -2.5729
    -2.5659  -2.5254  -2.5136  -2.5038  -2.4965  -2.4923  -2.4597  -2.3747
    -2.3491  -2.3336  -2.3021

          k =-0.5000-0.8660 0.0000 (321564 PWs)   bands (ev):

  -102.9884 -88.2704 -71.3111 -71.2986 -71.2890 -71.2767 -71.2694 -71.2629
   -71.2553 -66.6894 -66.6894 -66.6788 -66.6788 -66.6639 -66.6639 -66.6638
   -66.6638 -66.6595 -66.6595 -66.6532 -66.6532 -66.6532 -66.6532 -66.6488
   -66.6488 -66.6235 -66.6235 -66.6130 -66.6129 -66.5981 -66.5981 -66.5981
   -66.5977 -66.5936 -66.5935 -66.5876 -66.5874 -66.5873 -66.5873 -66.5831
   -66.5829 -66.5587 -66.5547 -66.5417 -66.5380 -66.5348 -66.5314 -66.5253
   -66.5201 -66.5167 -66.5115 -66.5044 -66.4978 -66.4943 -66.4897 -66.4832
   -66.4761 -57.2334 -57.2206 -57.1837 -54.1314 -54.0803 -54.0057 -40.9905
   -40.9905 -40.9905 -40.9905 -40.9639 -40.9639 -40.9520 -40.9519 -40.9236
   -40.9235 -40.9235 -40.9234 -40.9015 -40.9015 -40.9015 -40.9015 -40.8969
   -40.8969 -40.8850 -40.8849 -40.8585 -40.8501 -40.8449 -40.8436 -40.8436
   -40.8347 -40.8347 -40.8345 -40.8345 -40.8336 -40.8336 -40.8274 -40.8259
   -40.8228 -40.8228 -40.8213 -40.8011 -40.7934 -40.7934 -40.7934 -40.7934
   -40.7850 -40.7847 -40.7847 -40.7782 -40.7781 -40.7726 -40.7726 -40.7725
   -40.7725 -40.7725 -40.7725 -40.7669 -40.7667 -40.7639 -40.7639 -40.7575
   -40.7574 -40.7542 -40.7515 -40.7464 -40.7420 -40.7418 -40.7418 -40.7418
   -40.7418 -40.7329 -40.7282 -40.7282 -40.7281 -40.7279 -40.7195 -40.7194
   -40.7161 -40.7074 -40.7073 -40.7073 -40.7073 -40.7073 -40.7072 -40.7072
   -40.7071 -40.7059 -40.7057 -40.7050 -40.6987 -40.6986 -40.6953 -40.6952
   -40.6882 -40.6825 -40.6800 -40.6781 -40.6761 -40.6761 -40.6753 -40.6751
   -40.6750 -40.6750 -40.6665 -40.6626 -40.6592 -40.6592 -40.6567 -40.6544
   -40.6481 -40.6423 -40.6407 -40.6407 -40.6407 -40.6405 -40.6405 -40.6364
   -40.6324 -40.6287 -40.6287 -40.6286 -40.6285 -40.6270 -40.6250 -40.6206
   -40.6177 -40.6095 -40.6092 -40.5986 -40.5983 -40.5929 -40.5926 -40.5924
   -40.5883 -40.5629 -40.5621 -40.5620 -40.5576 -40.5520 -40.5489 -40.5428
   -40.5314 -40.5308 -40.5196 -40.5026 -40.4866 -40.4813 -40.4588 -19.9528
   -19.8931 -19.8708 -19.7939 -19.7136 -19.6736 -19.4636 -19.4610 -19.4053
   -19.3842 -19.2812 -19.2646 -19.0202 -18.8406 -18.8040 -18.7565 -18.7485
   -18.7481 -18.7443 -18.7388 -18.7041 -18.6731 -18.6460 -18.6274 -18.6159
   -18.6084 -18.5825 -18.5597 -18.5563 -18.5492 -18.5009 -18.5002 -18.4745
   -18.4658 -18.4453 -18.4194 -18.4069 -18.3984 -18.3835 -18.3260 -18.3147
   -18.3020 -18.2589 -18.2481 -18.2299 -18.2269 -18.1943 -18.1756 -18.1563
   -18.1361 -18.1354 -18.1352 -18.1352 -18.1343 -18.1133 -18.1093 -18.0806
   -18.0765 -18.0648 -18.0594 -18.0584 -18.0523 -18.0464 -18.0400 -18.0105
   -18.0047 -17.9991 -17.9852 -17.9827 -17.9782 -17.9552 -17.9498 -17.9460
   -17.9405 -17.9334 -17.9240 -17.8911 -17.8868 -17.8775 -17.8719 -17.8718
   -17.8682 -17.8269 -17.8220 -17.8126 -17.8121 -17.8085 -17.7969 -17.7955
   -17.7899 -17.7721 -17.7571 -17.7519 -17.7466 -17.6956 -17.6868 -11.9478
   -11.7963 -11.6912 -11.6609 -11.6496 -11.4943 -11.4902 -11.4816 -11.4795
   -11.4721 -11.4621 -11.4575 -11.4489 -11.4080 -11.3869 -11.3823 -11.3775
   -11.3564 -11.3520 -11.3296 -11.3145 -11.2917 -11.2897 -11.2648 -11.2647
   -11.2595 -11.2522 -11.2191 -11.2189 -11.2002 -11.1653 -11.1650 -11.1610
   -11.1594 -11.1131 -11.0629 -11.0327 -11.0244 -10.9939 -10.9765 -10.9721
   -10.9554 -10.9308 -10.9255 -10.9143 -10.9079 -10.8933 -10.8797 -10.8696
   -10.8648 -10.8402 -10.8395 -10.8377 -10.8373 -10.8321 -10.8247 -10.8207
   -10.8117 -10.7968 -10.7747 -10.7711 -10.7703 -10.7622 -10.7149 -10.6376
   -10.5920 -10.5838 -10.5454 -10.5057 -10.4969 -10.4248 -10.3819 -10.3175
   -10.2882 -10.1978 -10.1619 -10.1341 -10.1256 -10.1173 -10.1083 -10.0553
   -10.0433 -10.0249 -10.0203  -9.9710  -9.9554  -9.9472  -9.9450  -9.9399
    -9.9348  -9.9166  -9.9101  -9.9074  -9.9009  -9.8866  -9.8826  -9.8226
    -9.8098  -9.7855  -9.7691  -9.7629  -9.7597  -9.7413  -9.7254  -9.7215
    -9.7169  -9.7088  -9.7050  -9.6818  -9.6656  -9.6638  -9.6494  -9.6378
    -9.6214  -9.6160  -9.6145  -9.5688  -9.5479  -9.5424  -9.5391  -9.5318
    -9.5186  -9.4898  -9.4795  -9.4767  -9.4522  -9.3912  -9.3645  -9.3327
    -9.3098  -9.2765  -9.2187  -9.2100  -9.1972  -9.1806  -9.1621  -9.1516
    -9.1462  -9.1406  -9.1342  -9.1186  -9.0997  -9.0901  -9.0598  -9.0517
    -9.0374  -9.0356  -9.0267  -9.0071  -9.0016  -8.9957  -8.9864  -8.9713
    -8.9646  -8.9548  -8.9437  -8.9402  -8.9393  -8.9372  -8.9330  -8.9059
    -8.9036  -8.8789  -8.8667  -8.8653  -8.8619  -8.8556  -8.8488  -8.8469
    -8.8463  -8.8410  -8.8327  -8.8251  -8.8181  -8.8048  -8.8025  -8.7768
    -8.7708  -8.7662  -8.7512  -8.7324  -8.7127  -8.6540  -8.5776  -8.5363
    -8.5197  -8.5185  -8.4431  -8.4363  -8.4314  -8.4012  -8.3246  -8.3112
    -8.2011  -8.2010  -8.1938  -8.1517  -8.1377  -8.1292  -8.1280  -8.0965
    -8.0833  -8.0059  -7.9670  -7.9409  -7.9391  -7.9083  -7.8741  -7.8712
    -7.8651  -7.8638  -7.8554  -7.8545  -7.8544  -7.8542  -7.8474  -7.8459
    -7.8177  -7.8085  -7.8081  -7.8060  -7.8039  -7.7885  -7.7841  -7.7797
    -7.7685  -7.7647  -7.7561  -7.7552  -7.7391  -7.7372  -7.7332  -7.7296
    -7.7243  -7.7138  -7.7033  -7.7012  -7.6918  -7.6787  -7.6692  -7.6691
    -7.6645  -7.6576  -7.6480  -7.6371  -7.6295  -7.6109  -7.6064  -7.6023
    -7.6001  -7.5902  -7.5586  -7.5544  -7.5406  -7.5215  -7.5202  -7.4677
    -7.4560  -7.3833  -7.3458  -7.2911  -7.2670  -7.2467  -7.2426  -7.2273
    -7.2050  -7.1527  -7.1380  -7.1271  -7.1154  -7.0824  -7.0608  -7.0338
    -7.0192  -7.0168  -7.0077  -6.9924  -6.9632  -6.9579  -6.9515  -6.9167
    -6.9094  -6.9022  -6.8966  -6.8695  -6.8442  -6.8387  -6.8175  -6.7731
    -6.7346  -6.7041  -6.6978  -6.6777  -6.6690  -6.6661  -6.6661  -6.6659
    -6.6652  -6.6329  -6.6039  -6.5991  -6.5976  -6.5949  -6.5921  -6.5689
    -6.5618  -6.5474  -6.5244  -6.4937  -6.4604  -6.4451  -6.4368  -6.4154
    -6.3358  -6.3347  -6.3342  -6.3339  -6.3135  -6.2704  -6.2677  -6.2599
    -6.2523  -6.2506  -6.2481  -6.2388  -6.2153  -6.2095  -6.1906  -6.1779
    -6.1493  -5.9992  -5.9860  -5.9859  -5.9651  -5.9172  -5.9078  -5.8997
    -5.8537  -5.7575  -5.6659  -5.6481  -5.5864  -5.5476  -5.4814  -5.3837
    -5.3268  -4.1960  -4.0398  -4.0286  -4.0249  -3.9970  -3.9011  -3.9010
    -3.8927  -3.8636  -3.8366  -3.8363  -3.8318  -3.7876  -3.7843  -3.7688
    -3.7602  -3.7318  -3.6856  -3.6311  -3.6093  -3.6042  -3.6024  -3.6003
    -3.5880  -3.5867  -3.5866  -3.5591  -3.5537  -3.5264  -3.5115  -3.5095
    -3.5039  -3.4867  -3.4812  -3.4772  -3.4759  -3.4709  -3.4691  -3.4256
    -3.4136  -3.4045  -3.3785  -3.3672  -3.3643  -3.3550  -3.3540  -3.3456
    -3.3262  -3.3230  -3.3162  -3.3139  -3.3103  -3.2850  -3.2783  -3.2778
    -3.2774  -3.2759  -3.2581  -3.2442  -3.2397  -3.2325  -3.2208  -3.2155
    -3.2123  -3.2057  -3.2006  -3.1920  -3.1853  -3.1751  -3.1424  -3.1260
    -3.1159  -3.1066  -3.0937  -3.0751  -3.0727  -3.0432  -3.0372  -3.0321
    -3.0286  -3.0149  -3.0145  -3.0140  -3.0136  -2.9846  -2.9752  -2.9671
    -2.9648  -2.9520  -2.9463  -2.9363  -2.9266  -2.9230  -2.9209  -2.9145
    -2.9050  -2.8966  -2.8884  -2.8778  -2.8739  -2.8648  -2.8411  -2.8348
    -2.8313  -2.8125  -2.8047  -2.7997  -2.7897  -2.7395  -2.7351  -2.7114
    -2.7055  -2.6612  -2.6541  -2.6521  -2.6456  -2.6352  -2.6288  -2.5730
    -2.5651  -2.5238  -2.5155  -2.5034  -2.4979  -2.4872  -2.4563  -2.3666
    -2.3554  -2.3005  -2.2865

     the Fermi energy is    -4.6753 ev

!    total energy              =  -26031.79776291 Ry
     total all-electron energy =   -512284.367390 Ry
     estimated scf accuracy    <       0.00000095 Ry
     smearing contrib. (-TS)   =      -0.00000002 Ry
     internal energy E=F+TS    =  -26031.79776289 Ry

     The total energy is F=E-TS. E is the sum of the following terms:
     one-electron contribution =  491643.55268749 Ry
     hartree contribution      = -245964.28948463 Ry
     xc contribution           =   -1534.65263170 Ry
     ewald contribution        = -253983.65224223 Ry
     DFT-D3 Dispersion         =      -4.02194948 Ry
     one-center paw contrib.   =  -16188.73414234 Ry

     convergence has been achieved in  24 iterations

     negative rho (up, down):  9.284E-04 0.000E+00

     Forces acting on atoms (cartesian axes, Ry/au):

     atom    1 type  1   force =     0.00053163    0.00063969    0.00025932
     atom    2 type  1   force =    -0.00000526    0.00001060    0.00194199
     atom    3 type  1   force =    -0.00000562   -0.00001639    0.00000757
     atom    4 type  2   force =     0.00001087    0.00000759   -0.00332043
     atom    5 type  2   force =     0.00001342    0.00000332    0.00002428
     atom    6 type  2   force =     0.00003698   -0.00000088   -0.00026123
     atom    7 type  2   force =     0.00000698    0.00000151    0.00141670
     atom    8 type  2   force =     0.00001895    0.00000304   -0.00005286
     atom    9 type  2   force =    -0.00019282   -0.00002062    0.00040173
     atom   10 type  1   force =    -0.00007553   -0.00011079   -0.00000623
     atom   11 type  1   force =     0.00002241   -0.00001043    0.00194258
     atom   12 type  1   force =     0.00001452    0.00003883    0.00002690
     atom   13 type  2   force =    -0.00000094    0.00000177   -0.00331878
     atom   14 type  2   force =    -0.00001638   -0.00000971    0.00004067
     atom   15 type  2   force =    -0.00006321    0.00020329   -0.00018820
     atom   16 type  2   force =     0.00000601   -0.00000282    0.00143712
     atom   17 type  2   force =    -0.00002201   -0.00000549   -0.00002852
     atom   18 type  2   force =     0.00010604   -0.00028453    0.00111676
     atom   19 type  1   force =     0.00066279    0.00020285    0.00035016
     atom   20 type  1   force =     0.00000019    0.00001192    0.00196124
     atom   21 type  1   force =     0.00005844    0.00002795    0.00001348
     atom   22 type  2   force =     0.00000276    0.00000025   -0.00330786
     atom   23 type  2   force =     0.00001108    0.00000070    0.00004586
     atom   24 type  2   force =     0.00062322    0.00051244   -0.00104518
     atom   25 type  2   force =     0.00001187    0.00000812    0.00141716
     atom   26 type  2   force =     0.00003493    0.00003008   -0.00006362
     atom   27 type  2   force =    -0.00090429   -0.00027187   -0.00054491
     atom   28 type  1   force =     0.00003174    0.00035407    0.00033201
     atom   29 type  1   force =     0.00002063   -0.00002771    0.00194925
     atom   30 type  1   force =     0.00004250    0.00000797   -0.00000679
     atom   31 type  2   force =     0.00000529    0.00000276   -0.00330621
     atom   32 type  2   force =     0.00000336   -0.00000230   -0.00000700
     atom   33 type  2   force =     0.00022871   -0.00006004   -0.00003770
     atom   34 type  2   force =     0.00000247   -0.00000004    0.00142421
     atom   35 type  2   force =     0.00002683   -0.00000230   -0.00008860
     atom   36 type  2   force =     0.00007728   -0.00008156    0.00056401
     atom   37 type  1   force =    -0.00270780   -0.00200638    0.00213068
     atom   38 type  1   force =     0.00000569   -0.00001667    0.00194714
     atom   39 type  1   force =    -0.00000120   -0.00005715    0.00000528
     atom   40 type  2   force =     0.00000041    0.00000601   -0.00332044
     atom   41 type  2   force =    -0.00000413    0.00000727    0.00002555
     atom   42 type  2   force =     0.00054939    0.00010771   -0.00072634
     atom   43 type  2   force =     0.00000735    0.00000801    0.00143159
     atom   44 type  2   force =    -0.00001373   -0.00002545   -0.00003219
     atom   45 type  2   force =     0.00021619    0.00051138    0.00028360
     atom   46 type  1   force =    -0.00190093   -0.00045606   -0.00549985
     atom   47 type  1   force =    -0.00001577    0.00000047    0.00194452
     atom   48 type  1   force =    -0.00004220    0.00002688    0.00001637
     atom   49 type  2   force =     0.00000656   -0.00000236   -0.00330627
     atom   50 type  2   force =     0.00000346    0.00002486    0.00002387
     atom   51 type  2   force =     0.00004192    0.00047033    0.00039996
     atom   52 type  2   force =     0.00000676    0.00000267    0.00141132
     atom   53 type  2   force =     0.00000812    0.00001171   -0.00000291
     atom   54 type  2   force =    -0.00002402    0.00152389    0.00154985
     atom   55 type  1   force =    -0.00052099    0.00002756    0.00013086
     atom   56 type  1   force =     0.00000613   -0.00000756    0.00192761
     atom   57 type  1   force =    -0.00001250   -0.00003219   -0.00001276
     atom   58 type  2   force =     0.00000810    0.00000017   -0.00332464
     atom   59 type  2   force =     0.00002663   -0.00001306    0.00003102
     atom   60 type  2   force =     0.00031799   -0.00025873   -0.00054038
     atom   61 type  2   force =     0.00000546    0.00000270    0.00142463
     atom   62 type  2   force =    -0.00001368    0.00001927   -0.00006386
     atom   63 type  2   force =     0.00049878   -0.00042488    0.00033641
     atom   64 type  1   force =    -0.00011214   -0.00016414    0.00029976
     atom   65 type  1   force =     0.00000034   -0.00001129    0.00193983
     atom   66 type  1   force =    -0.00002556   -0.00000560   -0.00001167
     atom   67 type  2   force =     0.00000956    0.00000346   -0.00329219
     atom   68 type  2   force =     0.00000302   -0.00000591    0.00003863
     atom   69 type  2   force =    -0.00014812   -0.00004647   -0.00023834
     atom   70 type  2   force =     0.00001529   -0.00000035    0.00140230
     atom   71 type  2   force =    -0.00000840   -0.00002711   -0.00005585
     atom   72 type  2   force =    -0.00040987   -0.00008271   -0.00002927
     atom   73 type  1   force =     0.00154866   -0.00193547   -0.00059694
     atom   74 type  1   force =     0.00001183   -0.00001993    0.00194462
     atom   75 type  1   force =     0.00004200   -0.00003715    0.00002359
     atom   76 type  2   force =     0.00000749   -0.00000846   -0.00330870
     atom   77 type  2   force =     0.00005394    0.00002084    0.00006807
     atom   78 type  2   force =     0.00019525   -0.00077079   -0.00144875
     atom   79 type  2   force =    -0.00000173   -0.00000807    0.00141611
     atom   80 type  2   force =    -0.00003017   -0.00004473   -0.00003149
     atom   81 type  2   force =     0.00029331    0.00027589   -0.00102743
     atom   82 type  1   force =     0.00019461   -0.00156090   -0.02132494
     atom   83 type  1   force =     0.00000980   -0.00000684    0.00193278
     atom   84 type  1   force =     0.00005454    0.00000788   -0.00000315
     atom   85 type  2   force =     0.00000760    0.00000597   -0.00332796
     atom   86 type  2   force =     0.00001770   -0.00001007    0.00005669
     atom   87 type  2   force =     0.00000755    0.00016998    0.00246422
     atom   88 type  2   force =     0.00000257    0.00000536    0.00143556
     atom   89 type  2   force =     0.00003239   -0.00002845   -0.00003178
     atom   90 type  2   force =    -0.02172504   -0.00999358   -0.00137120
     atom   91 type  1   force =    -0.00129673    0.00399381   -0.00088495
     atom   92 type  1   force =    -0.00001129   -0.00000196    0.00193774
     atom   93 type  1   force =    -0.00003548    0.00004407    0.00002729
     atom   94 type  2   force =     0.00000416    0.00000166   -0.00333034
     atom   95 type  2   force =    -0.00002044   -0.00001550    0.00003451
     atom   96 type  2   force =    -0.00071631    0.00102458   -0.00040491
     atom   97 type  2   force =     0.00000842   -0.00000064    0.00143025
     atom   98 type  2   force =    -0.00000349    0.00000942   -0.00003616
     atom   99 type  2   force =    -0.00183474   -0.00211796   -0.00529324
     atom  100 type  1   force =    -0.00011729    0.00022014    0.00041374
     atom  101 type  1   force =     0.00000335   -0.00000101    0.00194155
     atom  102 type  1   force =     0.00003480    0.00002505   -0.00000997
     atom  103 type  2   force =     0.00000057    0.00000210   -0.00332137
     atom  104 type  2   force =     0.00000112    0.00002367    0.00006470
     atom  105 type  2   force =     0.00019718    0.00021908   -0.00018330
     atom  106 type  2   force =     0.00000149    0.00000204    0.00141643
     atom  107 type  2   force =    -0.00000854    0.00003235   -0.00004142
     atom  108 type  2   force =     0.00066552    0.00014222    0.00031832
     atom  109 type  1   force =    -0.00044091    0.00045968   -0.00013799
     atom  110 type  1   force =     0.00001114   -0.00000616    0.00195538
     atom  111 type  1   force =    -0.00001358   -0.00004426    0.00012020
     atom  112 type  2   force =     0.00000658   -0.00000378   -0.00332077
     atom  113 type  2   force =    -0.00004139    0.00002807    0.00006193
     atom  114 type  2   force =    -0.00031430   -0.00009447   -0.00067118
     atom  115 type  2   force =     0.00001115    0.00000108    0.00144082
     atom  116 type  2   force =     0.00005441   -0.00002686   -0.00002986
     atom  117 type  2   force =     0.00012228   -0.00017153    0.00069619
     atom  118 type  1   force =     0.00258718   -0.00031539   -0.00230378
     atom  119 type  1   force =     0.00001208   -0.00000612    0.00194252
     atom  120 type  1   force =     0.00000730   -0.00001602   -0.00000730
     atom  121 type  2   force =     0.00000490    0.00000587   -0.00332514
     atom  122 type  2   force =     0.00001025   -0.00005089    0.00007287
     atom  123 type  2   force =    -0.00028652    0.00016708    0.00260710
     atom  124 type  2   force =     0.00000761   -0.00000057    0.00143864
     atom  125 type  2   force =     0.00001597    0.00005834    0.00003836
     atom  126 type  2   force =     0.01659299   -0.00709296    0.01433172
     atom  127 type  1   force =     0.00079337    0.00215977   -0.00217610
     atom  128 type  1   force =     0.00002963    0.00001094    0.00193965
     atom  129 type  1   force =     0.00002183   -0.00000322   -0.00001404
     atom  130 type  2   force =     0.00000121   -0.00000440   -0.00334298
     atom  131 type  2   force =    -0.00000010    0.00000539    0.00002977
     atom  132 type  2   force =    -0.00052206    0.00054633    0.00242123
     atom  133 type  2   force =    -0.00000487   -0.00000316    0.00143630
     atom  134 type  2   force =     0.00000178    0.00003843    0.00000821
     atom  135 type  2   force =     0.00174230    0.01622463    0.01275473
     atom  136 type  1   force =     0.00020036   -0.00054516    0.00001721
     atom  137 type  1   force =     0.00000805   -0.00001219    0.00194530
     atom  138 type  1   force =    -0.00001981    0.00003638    0.00001942
     atom  139 type  2   force =     0.00000623    0.00000070   -0.00331659
     atom  140 type  2   force =     0.00000420   -0.00000121    0.00004598
     atom  141 type  2   force =    -0.00012688   -0.00033854   -0.00021039
     atom  142 type  2   force =    -0.00000109    0.00000064    0.00141955
     atom  143 type  2   force =     0.00001058   -0.00001375   -0.00000384
     atom  144 type  2   force =    -0.00030485    0.00047186    0.00025640
[...]
     atom   70 type  2   force =     0.00000257   -0.00000630    0.00149342
     atom   71 type  2   force =     0.00000712   -0.00001149   -0.00000514
     atom   72 type  2   force =    -0.00003263    0.00000836   -0.00010613
     atom   73 type  1   force =    -0.00019820   -0.00003393   -0.00001351
     atom   74 type  1   force =    -0.00000080   -0.00000026    0.00190151
     atom   75 type  1   force =    -0.00001156    0.00001584   -0.00000608
     atom   76 type  2   force =    -0.00000121   -0.00000032   -0.00327978
     atom   77 type  2   force =    -0.00000377    0.00000549   -0.00001163
     atom   78 type  2   force =    -0.00005711   -0.00011498   -0.00018599
     atom   79 type  2   force =    -0.00000002    0.00000429    0.00149895
     atom   80 type  2   force =     0.00000140    0.00000392   -0.00004034
     atom   81 type  2   force =    -0.00018486    0.00001564    0.00017623
     atom   82 type  1   force =    -0.00026676    0.00004322   -0.00011682
     atom   83 type  1   force =    -0.00000096    0.00000129    0.00189457
     atom   84 type  1   force =    -0.00000981    0.00000231   -0.00000244
     atom   85 type  2   force =    -0.00000123   -0.00000015   -0.00327976
     atom   86 type  2   force =    -0.00000613    0.00000569   -0.00001467
     atom   87 type  2   force =     0.00010065   -0.00022955   -0.00052253
     atom   88 type  2   force =     0.00000040    0.00001006    0.00150007
     atom   89 type  2   force =    -0.00002043    0.00000807   -0.00002623
     atom   90 type  2   force =    -0.00034437   -0.00038657    0.00028099
     atom   91 type  1   force =    -0.00018961   -0.00012630   -0.00017819
     atom   92 type  1   force =    -0.00000237   -0.00000120    0.00189437
     atom   93 type  1   force =     0.00000252   -0.00000551   -0.00002564
     atom   94 type  2   force =    -0.00000151    0.00000040   -0.00327954
     atom   95 type  2   force =     0.00001155   -0.00000602   -0.00001641
     atom   96 type  2   force =    -0.00031711   -0.00019820   -0.00042634
     atom   97 type  2   force =     0.00000004   -0.00000433    0.00149326
     atom   98 type  2   force =    -0.00000704    0.00000460   -0.00002200
     atom   99 type  2   force =    -0.00012853    0.00039670    0.00045098
     atom  100 type  1   force =    -0.00001602   -0.00001197   -0.00013223
     atom  101 type  1   force =    -0.00000118   -0.00000076    0.00189849
     atom  102 type  1   force =     0.00000538    0.00000827    0.00000613
     atom  103 type  2   force =    -0.00000129    0.00000041   -0.00327873
     atom  104 type  2   force =     0.00000740    0.00001030   -0.00000762
     atom  105 type  2   force =    -0.00008978   -0.00016866    0.00007298
     atom  106 type  2   force =     0.00000512   -0.00000533    0.00149555
     atom  107 type  2   force =    -0.00000369   -0.00000674   -0.00000711
     atom  108 type  2   force =     0.00011186   -0.00003094   -0.00003801
     atom  109 type  1   force =    -0.00000056   -0.00003056   -0.00011459
     atom  110 type  1   force =    -0.00000296   -0.00000052    0.00190194
     atom  111 type  1   force =    -0.00000840    0.00001562   -0.00002339
     atom  112 type  2   force =    -0.00000127    0.00000007   -0.00327959
     atom  113 type  2   force =     0.00000009   -0.00001001   -0.00000592
     atom  114 type  2   force =    -0.00017016    0.00008452   -0.00009312
     atom  115 type  2   force =    -0.00000259    0.00000047    0.00150682
     atom  116 type  2   force =    -0.00000408   -0.00000805    0.00001228
     atom  117 type  2   force =    -0.00007496    0.00004815   -0.00014462
     atom  118 type  1   force =     0.00002345    0.00003643    0.00001030
     atom  119 type  1   force =    -0.00000205    0.00000033    0.00189792
     atom  120 type  1   force =    -0.00001267   -0.00000551   -0.00002343
     atom  121 type  2   force =    -0.00000100   -0.00000009   -0.00327988
     atom  122 type  2   force =    -0.00001394    0.00000959   -0.00000296
     atom  123 type  2   force =    -0.00000960    0.00000487   -0.00002159
     atom  124 type  2   force =    -0.00000071    0.00000573    0.00151088
     atom  125 type  2   force =    -0.00003096    0.00001454    0.00002771
     atom  126 type  2   force =     0.00000919    0.00007142    0.00034998
     atom  127 type  1   force =     0.00010517    0.00001407   -0.00016560
     atom  128 type  1   force =    -0.00000283   -0.00000231    0.00189760
     atom  129 type  1   force =    -0.00000092    0.00000200   -0.00001489
     atom  130 type  2   force =    -0.00000118    0.00000031   -0.00327988
     atom  131 type  2   force =    -0.00000724   -0.00000613   -0.00001160
     atom  132 type  2   force =    -0.00008757    0.00037394   -0.00025144
     atom  133 type  2   force =    -0.00000461   -0.00000734    0.00149730
     atom  134 type  2   force =    -0.00000886    0.00000252   -0.00001798
     atom  135 type  2   force =     0.00009542    0.00023501    0.00033308
     atom  136 type  1   force =     0.00003292   -0.00000686   -0.00002375
     atom  137 type  1   force =    -0.00000404   -0.00000093    0.00189951
     atom  138 type  1   force =    -0.00000011   -0.00001343   -0.00001225
     atom  139 type  2   force =    -0.00000145    0.00000059   -0.00327909
     atom  140 type  2   force =     0.00000397   -0.00000571    0.00000158
     atom  141 type  2   force =     0.00000178   -0.00025831   -0.00002183
     atom  142 type  2   force =    -0.00000453   -0.00001015    0.00149268
     atom  143 type  2   force =    -0.00001153   -0.00003501    0.00001900
     atom  144 type  2   force =    -0.00004424   -0.00017560   -0.00018653
     atom  145 type  3   force =     0.00076799   -0.00024726   -0.00037654
     atom  146 type  4   force =     0.00019678   -0.00007302   -0.00012783

     Total force =     0.002088     Total SCF correction =     0.000691
     SCF correction compared to forces is large: reduce conv_thr to get better values
     Energy error            =      3.9E-06 Ry
     Gradient error          =      7.7E-04 Ry/Bohr

     bfgs converged in  25 scf cycles and  24 bfgs steps
     (criteria: energy <  1.0E-04 Ry, force <  1.0E-03 Ry/Bohr)

     End of BFGS Geometry Optimization

     Final energy             =  -26031.8089375236 Ry

     File ./outdir/pwscf.bfgs deleted, as requested
Begin final coordinates

ATOMIC_POSITIONS (angstrom)
Mo               1.5719625376        2.7213771018        6.0885897166
Mo               1.5769197498        0.9104407117       -6.0872367793    0   0   0
Mo               0.0000857951        1.8210837083       -0.0005120985
S                0.0000044503        0.0000077495       -7.6506323570    0   0   0
S                1.5767550875        0.9108651334       -1.5665147643
S                0.0012274304        1.8300420428        4.5081088765
S                0.0000053241        0.0000068460       -4.5222282367    0   0   0
S                1.5767223041        0.9095022539        1.5653098213
S               -0.0066871255        1.8099127000        7.6481644045
Mo              -0.0115503590        5.4628343102        6.0964303717
Mo               0.0000011799        3.6417399547       -6.0872367793    0   0   0
Mo              -1.5766998367        4.5522478660        0.0000335463
S               -1.5769141197        2.7313069925       -7.6506323570    0   0   0
S                0.0001609278        3.6419556593       -1.5655688389
S               -1.5754486345        4.5573877048        4.5167611674
S               -1.5769132459        2.7313060890       -4.5222282367    0   0   0
S                0.0009644301        3.6423682911        1.5674526047
S               -1.5809778962        4.5456612845        7.6614545928
Mo              -1.5765166927        8.1921245900        6.0781409051
Mo              -1.5769173901        6.3730391977       -6.0872367793    0   0   0
Mo              -3.1538812128        7.2830861043       -0.0017776783
S               -3.1538326896        5.4626062355       -7.6506323570    0   0   0
S               -1.5767927285        6.3721988984       -1.5667180877
S               -3.1532692302        7.2782917734        4.5145154525
S               -3.1538318159        5.4626053320       -4.5222282367    0   0   0
S               -1.5768272289        6.3738387505        1.5656891487
S               -3.1511802478        7.2897045122        7.6494229174
Mo               3.1510977768       -0.0065095023        6.0638197240
Mo              -3.1538359601        9.1043384407       -6.0872367793    0   0   0
Mo              -4.7309825456       10.0144030181       -0.0019543893
S               -4.7307512596        8.1939054785       -7.6506323570    0   0   0
S               -3.1539245077        9.1040356283       -1.5674702431
S               -4.7335636153       10.0103076159        4.4994257744
S               -4.7307503859        8.1939045750       -4.5222282367    0   0   0
S               -3.1538260433        9.1039819420        1.5645525859
S               -4.7267335028       10.0277926656        7.6415302222
Mo               4.7307885773        2.6790119561        6.0653024717
Mo               4.7307503218        0.9104407117       -6.0872367793    0   0   0
Mo               3.1538069633        1.8209139349       -0.0005207648
S                3.1538350223        0.0000077495       -7.6506323570    0   0   0
S                4.7310994922        0.9111181456       -1.5662167455
S                3.1402471492        1.8132918764        4.4967705796
S                3.1538358961        0.0000068460       -4.5222282367    0   0   0
S                4.7305900486        0.9094977815        1.5660444652
S                3.1501997257        1.7952913594        7.6396138441
Mo               3.1421912519        5.4611951887        6.1348023999
Mo               3.1538317519        3.6417399547       -6.0872367793    0   0   0
Mo               1.5773171671        4.5522890739       -0.0001592315
S                1.5769164523        2.7313069925       -7.6506323570    0   0   0
S                3.1541574350        3.6418558080       -1.5655354268
S                1.5933679702        4.5669038911        4.5596305914
S                1.5769173261        2.7313060890       -4.5222282367    0   0   0
S                3.1540428753        3.6419151832        1.5679629231
S                1.4806531907        4.4993492663        7.7368384095
Mo               1.5643776827        8.2081232788        6.0852481371
Mo               1.5769131819        6.3730391977       -6.0872367793    0   0   0
Mo               0.0002415754        7.2831106850       -0.0015830698
S               -0.0000021176        5.4626062355       -7.6506323570    0   0   0
S                1.5773680013        6.3725018670       -1.5664138670
S                0.0008791029        7.2767460090        4.5166854874
S               -0.0000012439        5.4626053320       -4.5222282367    0   0   0
S                1.5769892024        6.3732615576        1.5669096680
S               -0.0041675343        7.2903691912        7.6530583236
Mo               6.3117694419       -0.0062126262        6.0601159457
Mo              -0.0000053881        9.1043384407       -6.0872367793    0   0   0
Mo              -1.5768234763       10.0145810368       -0.0020881858
S               -1.5769206876        8.1939054785       -7.6506323570    0   0   0
S                0.0005269046        9.1041753686       -1.5670945575
S               -1.5775513813       10.0036359427        4.4993523670
S               -1.5769198139        8.1939045750       -4.5222282367    0   0   0
S               -0.0002051092        9.1038209361        1.5650862223
S               -1.5756333144       10.0159466681        7.6342281906
Mo               7.8896353067        2.7255153530        6.0857130839
Mo               7.8845808939        0.9104407117       -6.0872367793    0   0   0
Mo               6.3078711378        1.8208591707        0.0001162054
S                6.3076655943        0.0000077495       -7.6506323570    0   0   0
S                7.8848372170        0.9106596259       -1.5657444529
S                6.3210847944        1.8150096109        4.4945400993
S                6.3076664681        0.0000068460       -4.5222282367    0   0   0
S                7.8850980378        0.9094727401        1.5660770789
S                6.3145654040        1.7920175278        7.6373062601
Mo               6.3283161819        5.4621290355        6.1283501103
Mo               6.3076623239        3.6417399547       -6.0872367793    0   0   0
Mo               4.7307798342        4.5521973804        0.0002955109
S                4.7307470244        2.7313069925       -7.6506323570    0   0   0
S                6.3077186318        3.6416561962       -1.5650462103
S                4.7256532950        4.5674686056        4.5810316096
S                4.7307478981        2.7313060890       -4.5222282367    0   0   0
S                6.3071995824        3.6421078723        1.5682492383
S                4.7699395248        4.4028882472        7.6822650596
Mo               4.7349529137        8.2231813341        6.0938345188
Mo               4.7307437539        6.3730391977       -6.0872367793    0   0   0
Mo               3.1540866230        7.2828091016       -0.0007001122
S                3.1538284544        5.4626062355       -7.6506323570    0   0   0
S                4.7307563130        6.3722781094       -1.5660447672
S                3.1562001110        7.2648864596        4.5621762935
S                3.1538293281        5.4626053320       -4.5222282367    0   0   0
S                4.7307645275        6.3730572045        1.5676052976
S                3.1475435371        7.4160179957        7.7120090077
Mo               9.4617430240        0.0048161538        6.0699513987
Mo               3.1538251839        9.1043384407       -6.0872367793    0   0   0
Mo               1.5773141436       10.0142466563       -0.0011035702
S                1.5769098844        8.1939054785       -7.6506323570    0   0   0
S                3.1542830015        9.1038562799       -1.5661433569
S                1.5826608547       10.0092841762        4.4988997261
S                1.5769107581        8.1939045750       -4.5222282367    0   0   0
S                3.1539390273        9.1028897949        1.5666189689
S                1.5704907214       10.0320794871        7.6422571859
Mo              -1.5765880480        2.7331225880        6.0796274540
Mo              11.0384114659        0.9104407117       -6.0872367793    0   0   0
Mo               9.4616590316        1.8209410877       -0.0000918267
S                9.4614961663        0.0000077495       -7.6506323570    0   0   0
S               11.0383516562        0.9104866302       -1.5656346430
S                9.4617475500        1.8286191405        4.5094706742
S                9.4614970401        0.0000068460       -4.5222282367    0   0   0
S               11.0387074703        0.9103261364        1.5666228643
S                9.4667908838        1.8133038726        7.6482015641
Mo              -3.1456241280        5.4606372172        6.0910082890
Mo               9.4614928959        3.6417399547       -6.0872367793    0   0   0
Mo               7.8843941041        4.5522104647        0.0003516401
S                7.8845775964        2.7313069925       -7.6506323570    0   0   0
S                9.4614385997        3.6418158325       -1.5651561281
S                7.8738690300        4.5626534941        4.5458225734
S                7.8845784701        2.7313060890       -4.5222282367    0   0   0
S                9.4613172548        3.6422438331        1.5676529470
S                7.9551831597        4.5176475831        7.7107508200
Mo              -4.7214960511        8.2065478370        6.0813377956
Mo               7.8845743259        6.3730391977       -6.0872367793    0   0   0
Mo               6.3074735961        7.2828836428       -0.0007961858
S                6.3076590264        5.4626062355       -7.6506323570    0   0   0
S                7.8842268053        6.3721744559       -1.5662740953
S                6.3061254222        7.2701549532        4.5501486858
S                6.3076599001        5.4626053320       -4.5222282367    0   0   0
S                7.8846958009        6.3735921117        1.5667162739
S                6.3157436094        7.3751832010        7.6850428140
Mo               0.0005172703        0.0052790866        6.0676790429
Mo               6.3076557559        9.1043384407       -6.0872367793    0   0   0
Mo               4.7307907413       10.0143868014       -0.0003431613
S                4.7307404564        8.1939054785       -7.6506323570    0   0   0
S                6.3070286683        9.1038244635       -1.5664814299
S                4.7307529236       10.0178955141        4.5025560274
S                4.7307413301        8.1939045750       -4.5222282367    0   0   0
S                6.3080566429        9.1033445376        1.5662116846
S                4.7336835208       10.0505257935        7.6474737352
Pt               3.2557560651        5.4855105633        8.9514457689
Pd               6.1808501585        5.4985616533        9.0890497621
End final coordinates



     Writing all to output data dir ./outdir/pwscf.save/ :
     XML data file, charge density, pseudopotentials, collected wavefunctions
 
     init_run     :     95.62s CPU     97.98s WALL (       1 calls)
     electrons    :  99984.26s CPU 101500.15s WALL (      25 calls)
     update_pot   :     31.72s CPU     32.71s WALL (      24 calls)
     forces       :   1795.15s CPU   1834.11s WALL (      25 calls)
     force_dftd3  :      9.57s CPU      9.99s WALL (      25 calls)

     Called by init_run:
     wfcinit      :     77.64s CPU     78.67s WALL (       1 calls)
     potinit      :      1.10s CPU      1.21s WALL (       1 calls)
     hinit0       :      9.21s CPU      9.28s WALL (       1 calls)

     Called by electrons:
     c_bands      :  86964.90s CPU  87871.40s WALL (     303 calls)
     sum_band     :  11189.62s CPU  11508.44s WALL (     303 calls)
     v_of_rho     :     87.29s CPU     98.02s WALL (     307 calls)
     newd         :   1548.88s CPU   1835.17s WALL (     307 calls)
     PAW_pot      :    254.48s CPU    256.46s WALL (     331 calls)
     mix_rho      :     22.25s CPU     25.46s WALL (     303 calls)
     energy_dftd3 :      5.44s CPU      5.47s WALL (      25 calls)

     Called by c_bands:
     init_us_2    :    423.96s CPU    426.09s WALL (    2624 calls)
     init_us_2:cp :    423.94s CPU    426.08s WALL (    2624 calls)
     cegterg      :  85221.68s CPU  86119.98s WALL (    1223 calls)

     Called by *egterg:
     cdiaghg      :   4377.15s CPU   4565.47s WALL (   14139 calls)
     h_psi        :  44350.79s CPU  44648.31s WALL (   14324 calls)
     s_psi        :   9207.70s CPU   9248.87s WALL (   14324 calls)
     g_psi        :     98.96s CPU     99.41s WALL (   13097 calls)

     Called by h_psi:
     h_psi:calbec :   9232.93s CPU   9267.43s WALL (   14324 calls)
     vloc_psi     :  25675.54s CPU  25822.25s WALL (   14324 calls)
     add_vuspsi   :   9228.59s CPU   9273.87s WALL (   14324 calls)

     General routines
     calbec       :  13272.19s CPU  13320.78s WALL (   16032 calls)
     fft          :     76.73s CPU     86.73s WALL (    4261 calls)
     ffts         :      3.95s CPU      4.07s WALL (     610 calls)
     fftw         :  19220.84s CPU  19327.64s WALL ( 6706566 calls)
     interpolate  :      7.31s CPU      8.00s WALL (     307 calls)
 
     Parallel routines
 
     PWSCF        :   1d 4h28m CPU   1d 4h55m WALL

 
   This run was terminated on:  10:17:39  11Mar2024            

=------------------------------------------------------------------------------=
   JOB DONE.
=------------------------------------------------------------------------------=
