
     Program PWSCF v.7.2 starts on  9Dec2023 at 12:15:15 

     This program is part of the open-source Quantum ESPRESSO suite
     for quantum simulation of materials; please cite
         "P. Giannozzi et al., J. Phys.:Condens. Matter 21 395502 (2009);
         "P. Giannozzi et al., J. Phys.:Condens. Matter 29 465901 (2017);
         "P. Giannozzi et al., J. Chem. Phys. 152 154105 (2020);
          URL http://www.quantum-espresso.org", 
     in publications or presentations arising from this work. More details at
     http://www.quantum-espresso.org/quote

     Parallel version (MPI), running on    36 processors

     MPI processes distributed on     1 nodes
     768811 MiB available memory on the printing compute node when the environment starts
 
     Waiting for input...
     Reading input from standard input
Warning: card &CELL ignored
Warning: card / ignored

     Current dimensions of program PWSCF are:
     Max number of different atomic species (ntypx) = 10
     Max number of k-points (npk) =  40000
     Max angular momentum in pseudopotentials (lmaxx) =  4
     file Mo.pbe-spn-kjpaw_psl.1.0.0.UPF: wavefunction(s)  4S 4D renormalized
     file S.pbe-n-kjpaw_psl.1.0.0.UPF: wavefunction(s)  3S 3P renormalized
     file Pd.pbe-spn-kjpaw_psl.1.0.0.UPF: wavefunction(s)  4S 5S 4D renormalized
 
     R & G space division:  proc/nbgrp/npool/nimage =      36
     Subspace diagonalization in iterative solution of the eigenvalue problem:
     one sub-group per band group will be used
     custom distributed-memory algorithm (size of sub-group:  6*  6 procs)

 
     Parallelization info
     --------------------
     sticks:   dense  smooth     PW     G-vecs:    dense   smooth      PW
     Min         586     335     89               165416    71459    9765
     Max         587     337     90               165425    71461    9778
     Sum       21109   12085   3205              5955087  2572543  351657
 
     Using Slab Decomposition
 


     bravais-lattice index     =            0
     lattice parameter (alat)  =      23.8395  a.u.
     unit-cell volume          =   28182.8498 (a.u.)^3
     number of atoms/cell      =          148
     number of atomic types    =            3
     number of electrons       =      1320.00
     number of Kohn-Sham states=          792
     kinetic-energy cutoff     =      77.0000  Ry
     charge density cutoff     =     539.0000  Ry
     scf convergence threshold =      1.0E-06
     mixing beta               =       0.2000
     number of iterations used =            8  plain     mixing
     energy convergence thresh.=      1.0E-04
     force convergence thresh. =      1.0E-03
     Exchange-correlation= SLA  PW   PBX  PBC
                           (   1   4   3   4   0   0   0)
     nstep                     =         1000


     Effective Screening Medium Method
     =================================
     Boundary Conditions: Vacuum-Slab-Vacuum
     total charge in unit cell        =   0.0000
     grid points for fit at edges     =        4 
 

     celldm(1)=  23.839504  celldm(2)=   0.000000  celldm(3)=   0.000000
     celldm(4)=   0.000000  celldm(5)=   0.000000  celldm(6)=   0.000000

     crystal axes: (cart. coord. in units of alat)
               a(1) = (   1.000000   0.000000   0.000000 )  
               a(2) = (  -0.500001   0.866026   0.000000 )  
               a(3) = (   0.000000   0.000000   2.401941 )  

     reciprocal axes: (cart. coord. in units 2 pi/alat)
               b(1) = (  1.000000  0.577351  0.000000 )  
               b(2) = (  0.000000  1.154700  0.000000 )  
               b(3) = (  0.000000  0.000000  0.416330 )  


     PseudoPot. # 1 for Mo read from file:
     ./pseudo/Mo.pbe-spn-kjpaw_psl.1.0.0.UPF
     MD5 check sum: 317bf72632116215fd98f72de1686f13
     Pseudo is Projector augmented-wave + core cor, Zval = 14.0
     Generated using 'atomic' code by A. Dal Corso  v.7.2
     Shape of augmentation charge: PSQ
     Using radial grid of 1229 points,  6 beta functions with: 
                l(1) =   0
                l(2) =   0
                l(3) =   1
                l(4) =   1
                l(5) =   2
                l(6) =   2
     Q(r) pseudized with 0 coefficients 


     PseudoPot. # 2 for S  read from file:
     ./pseudo/S.pbe-n-kjpaw_psl.1.0.0.UPF
     MD5 check sum: 8b7b5302570d38d5e87fed6a1065abda
     Pseudo is Projector augmented-wave + core cor, Zval =  6.0
     Generated using 'atomic' code by A. Dal Corso  v.7.2
     Shape of augmentation charge: PSQ
     Using radial grid of 1151 points,  6 beta functions with: 
                l(1) =   0
                l(2) =   0
                l(3) =   1
                l(4) =   1
                l(5) =   2
                l(6) =   2
     Q(r) pseudized with 0 coefficients 


     PseudoPot. # 3 for Pd read from file:
     ./pseudo/Pd.pbe-spn-kjpaw_psl.1.0.0.UPF
     MD5 check sum: a60571a671f2502b8a6a4569d20a6edb
     Pseudo is Projector augmented-wave + core cor, Zval = 18.0
     Generated using 'atomic' code by A. Dal Corso  v.7.2
     Shape of augmentation charge: PSQ
     Using radial grid of 1235 points,  6 beta functions with: 
                l(1) =   0
                l(2) =   0
                l(3) =   1
                l(4) =   1
                l(5) =   2
                l(6) =   2
     Q(r) pseudized with 0 coefficients 


     atomic species   valence    mass     pseudopotential
        Mo            14.00    95.95000     Mo( 1.00)
        S              6.00    32.06000     S ( 1.00)
        Pd            18.00   106.42000     Pd( 1.00)

     No symmetry found



   Cartesian axes

     site n.     atom                  positions (alat units)
         1           Mo  tau(   1) = (   0.1249457   0.2134123   0.4819544  )
         2           Mo  tau(   2) = (   0.1250004   0.0721694  -0.4825273  )
         3           Mo  tau(   3) = (   0.0000033   0.1443330  -0.0001251  )
         4           S   tau(   4) = (   0.0000004   0.0000006  -0.6064556  )
         5           S   tau(   5) = (   0.1249914   0.0721855  -0.1242347  )
         6           S   tau(   6) = (  -0.0004758   0.1436738   0.3584209  )
         7           S   tau(   7) = (   0.0000004   0.0000005  -0.3584711  )
         8           S   tau(   8) = (   0.1249894   0.0721188   0.1240993  )
         9           S   tau(   9) = (  -0.0038222   0.1412314   0.6089205  )
        10           Mo  tau(  10) = (  -0.0025417   0.4343465   0.4820674  )
        11           Mo  tau(  11) = (   0.0000001   0.2886759  -0.4825273  )
        12           Mo  tau(  12) = (  -0.1249939   0.3608224  -0.0001227  )
        13           S   tau(  13) = (  -0.1249999   0.2165071  -0.6064556  )
        14           S   tau(  14) = (   0.0000252   0.2886771  -0.1241869  )
        15           S   tau(  15) = (  -0.1258144   0.3607062   0.3584395  )
        16           S   tau(  16) = (  -0.1249998   0.2165070  -0.3584711  )
        17           S   tau(  17) = (  -0.0000184   0.2886537   0.1241791  )
        18           S   tau(  18) = (  -0.1297187   0.3589169   0.6088290  )
        19           Mo  tau(  19) = (  -0.1254732   0.6503373   0.4817788  )
        20           Mo  tau(  20) = (  -0.1250002   0.5051824  -0.4825273  )
        21           Mo  tau(  21) = (  -0.2500004   0.5773216  -0.0001903  )
        22           S   tau(  22) = (  -0.2500002   0.4330136  -0.6064556  )
        23           S   tau(  23) = (  -0.1249698   0.5051430  -0.1242236  )
        24           S   tau(  24) = (  -0.2502762   0.5773192   0.3574700  )
        25           S   tau(  25) = (  -0.2500001   0.4330135  -0.3584711  )
        26           S   tau(  26) = (  -0.1250257   0.5051685   0.1241113  )
        27           S   tau(  27) = (  -0.2502311   0.5772924   0.6059387  )
        28           Mo  tau(  28) = (   0.2505411  -0.0008123   0.4817679  )
        29           Mo  tau(  29) = (  -0.2500004   0.7216889  -0.4825273  )
        30           Mo  tau(  30) = (  -0.3750089   0.7938393  -0.0001982  )
        31           S   tau(  31) = (  -0.3750004   0.6495201  -0.6064556  )
        32           S   tau(  32) = (  -0.2500112   0.7216608  -0.1242943  )
        33           S   tau(  33) = (  -0.3750564   0.7934661   0.3574332  )
        34           S   tau(  34) = (  -0.3750004   0.6495200  -0.3584711  )
        35           S   tau(  35) = (  -0.2500136   0.7216627   0.1240030  )
        36           S   tau(  36) = (  -0.3750619   0.7935895   0.6058394  )
        37           Mo  tau(  37) = (   0.3759002   0.2158309   0.4824179  )
        38           Mo  tau(  38) = (   0.3750004   0.0721694  -0.4825273  )
        39           Mo  tau(  39) = (   0.2499772   0.1443335  -0.0001238  )
        40           S   tau(  40) = (   0.2500004   0.0000006  -0.6064556  )
        41           S   tau(  41) = (   0.3749431   0.0721751  -0.1242724  )
        42           S   tau(  42) = (   0.2503611   0.1436581   0.3584182  )
        43           S   tau(  43) = (   0.2500004   0.0000005  -0.3584711  )
        44           S   tau(  44) = (   0.3749976   0.0721392   0.1240210  )
        45           S   tau(  45) = (   0.2537192   0.1412308   0.6089164  )
        46           Mo  tau(  46) = (   0.2524299   0.4343451   0.4820748  )
        47           Mo  tau(  47) = (   0.2500001   0.2886759  -0.4825273  )
        48           Mo  tau(  48) = (   0.1249900   0.3608263  -0.0000541  )
        49           S   tau(  49) = (   0.1250001   0.2165071  -0.6064556  )
        50           S   tau(  50) = (   0.2499552   0.2886772  -0.1241874  )
        51           S   tau(  51) = (   0.1249475   0.3607318   0.3607067  )
        52           S   tau(  52) = (   0.1250002   0.2165070  -0.3584711  )
        53           S   tau(  53) = (   0.2499975   0.2886546   0.1241799  )
        54           S   tau(  54) = (   0.1249386   0.3605111   0.6013385  )
        55           Mo  tau(  55) = (   0.1249421   0.6507104   0.4824835  )
        56           Mo  tau(  56) = (   0.1249998   0.5051824  -0.4825273  )
        57           Mo  tau(  57) = (   0.0000005   0.5773147  -0.0001121  )
        58           S   tau(  58) = (  -0.0000002   0.4330136  -0.6064556  )
        59           S   tau(  59) = (   0.1249898   0.5051260  -0.1241753  )
        60           S   tau(  60) = (  -0.0003332   0.5780034   0.3585012  )
        61           S   tau(  61) = (  -0.0000001   0.4330135  -0.3584711  )
        62           S   tau(  62) = (   0.1249897   0.5051640   0.1241981  )
        63           S   tau(  63) = (  -0.0008534   0.5823551   0.6088451  )
        64           Mo  tau(  64) = (   0.4999484  -0.0001090   0.4815964  )
        65           Mo  tau(  65) = (  -0.0000004   0.7216889  -0.4825273  )
        66           Mo  tau(  66) = (  -0.1250165   0.7938379  -0.0002116  )
        67           S   tau(  67) = (  -0.1250004   0.6495201  -0.6064556  )
        68           S   tau(  68) = (  -0.0000221   0.7216165  -0.1242706  )
        69           S   tau(  69) = (  -0.1250143   0.7937851   0.3571256  )
        70           S   tau(  70) = (  -0.1250004   0.6495200  -0.3584711  )
        71           S   tau(  71) = (  -0.0000042   0.7216983   0.1240168  )
        72           S   tau(  72) = (  -0.1248607   0.7939603   0.6065283  )
        73           Mo  tau(  73) = (   0.6249437   0.2162971   0.4815584  )
        74           Mo  tau(  74) = (   0.6250004   0.0721694  -0.4825273  )
        75           Mo  tau(  75) = (   0.4999860   0.1443114  -0.0002150  )
        76           S   tau(  76) = (   0.5000004   0.0000006  -0.6064556  )
        77           S   tau(  77) = (   0.6249893   0.0721589  -0.1243230  )
        78           S   tau(  78) = (   0.4999708   0.1441467   0.3573967  )
        79           S   tau(  79) = (   0.5000004   0.0000005  -0.3584711  )
        80           S   tau(  80) = (   0.6249907   0.0721373   0.1239916  )
        81           S   tau(  81) = (   0.5008622   0.1436573   0.6062896  )
        82           Mo  tau(  82) = (   0.5009437   0.4327079   0.4817897  )
        83           Mo  tau(  83) = (   0.5000001   0.2886759  -0.4825273  )
        84           Mo  tau(  84) = (   0.3749738   0.3608224  -0.0001230  )
        85           S   tau(  85) = (   0.3750001   0.2165071  -0.6064556  )
        86           S   tau(  86) = (   0.4999509   0.2886678  -0.1242686  )
        87           S   tau(  87) = (   0.3757123   0.3607111   0.3584390  )
        88           S   tau(  88) = (   0.3750002   0.2165070  -0.3584711  )
        89           S   tau(  89) = (   0.5000012   0.2886340   0.1240235  )
        90           S   tau(  90) = (   0.3796077   0.3589117   0.6088271  )
        91           Mo  tau(  91) = (   0.3753566   0.6503389   0.4817655  )
        92           Mo  tau(  92) = (   0.3749998   0.5051824  -0.4825273  )
        93           Mo  tau(  93) = (   0.2499792   0.5773151  -0.0001136  )
        94           S   tau(  94) = (   0.2499998   0.4330136  -0.6064556  )
        95           S   tau(  95) = (   0.3749514   0.5051432  -0.1242240  )
        96           S   tau(  96) = (   0.2502126   0.5780012   0.3584990  )
        97           S   tau(  97) = (   0.2499999   0.4330135  -0.3584711  )
        98           S   tau(  98) = (   0.3750041   0.5051691   0.1241097  )
        99           S   tau(  99) = (   0.2507435   0.5823579   0.6088411  )
       100           Mo  tau( 100) = (   0.7499376  -0.0001078   0.4816046  )
       101           Mo  tau( 101) = (   0.2499996   0.7216889  -0.4825273  )
       102           Mo  tau( 102) = (   0.1249896   0.7938384  -0.0002335  )
       103           S   tau( 103) = (   0.1249996   0.6495201  -0.6064556  )
       104           S   tau( 104) = (   0.2500024   0.7216175  -0.1242713  )
       105           S   tau( 105) = (   0.1249462   0.7938814   0.3574010  )
       106           S   tau( 106) = (   0.1249996   0.6495200  -0.3584711  )
       107           S   tau( 107) = (   0.2499834   0.7216984   0.1240155  )
       108           S   tau( 108) = (   0.1249388   0.7950164   0.6064605  )
       109           Mo  tau( 109) = (  -0.1260124   0.2158329   0.4824313  )
       110           Mo  tau( 110) = (   0.8750004   0.0721694  -0.4825273  )
       111           Mo  tau( 111) = (   0.7499938   0.1443115  -0.0002182  )
       112           S   tau( 112) = (   0.7500004   0.0000006  -0.6064556  )
       113           S   tau( 113) = (   0.8750385   0.0721751  -0.1242742  )
       114           S   tau( 114) = (   0.7499201   0.1441460   0.3574097  )
       115           S   tau( 115) = (   0.7500004   0.0000005  -0.3584711  )
       116           S   tau( 116) = (   0.8749809   0.0721405   0.1240190  )
       117           S   tau( 117) = (   0.7490172   0.1436580   0.6063018  )
       118           Mo  tau( 118) = (  -0.2510493   0.4327100   0.4817906  )
       119           Mo  tau( 119) = (   0.7500001   0.2886759  -0.4825273  )
       120           Mo  tau( 120) = (   0.6249900   0.3608155  -0.0002076  )
       121           S   tau( 121) = (   0.6250001   0.2165071  -0.6064556  )
       122           S   tau( 122) = (   0.7500299   0.2886693  -0.1242694  )
       123           S   tau( 123) = (   0.6249512   0.3605494   0.3571227  )
       124           S   tau( 124) = (   0.6250002   0.2165070  -0.3584711  )
       125           S   tau( 125) = (   0.7499776   0.2886326   0.1240225  )
       126           S   tau( 126) = (   0.6249490   0.3602425   0.6065616  )
       127           Mo  tau( 127) = (  -0.3750604   0.6493704   0.4817387  )
       128           Mo  tau( 128) = (   0.6249998   0.5051824  -0.4825273  )
       129           Mo  tau( 129) = (   0.4999814   0.5773223  -0.0001904  )
       130           S   tau( 130) = (   0.4999998   0.4330136  -0.6064556  )
       131           S   tau( 131) = (   0.6249908   0.5051599  -0.1242877  )
       132           S   tau( 132) = (   0.5001636   0.5773150   0.3574635  )
       133           S   tau( 133) = (   0.4999999   0.4330135  -0.3584711  )
       134           S   tau( 134) = (   0.6249901   0.5051550   0.1240047  )
       135           S   tau( 135) = (   0.5001043   0.5772926   0.6059306  )
       136           Mo  tau( 136) = (  -0.0006525  -0.0008050   0.4817630  )
       137           Mo  tau( 137) = (   0.4999996   0.7216889  -0.4825273  )
       138           Mo  tau( 138) = (   0.3749967   0.7938386  -0.0002128  )
       139           S   tau( 139) = (   0.3749996   0.6495201  -0.6064556  )
       140           S   tau( 140) = (   0.4999943   0.7216620  -0.1242941  )
       141           S   tau( 141) = (   0.3748966   0.7937974   0.3571229  )
       142           S   tau( 142) = (   0.3749996   0.6495200  -0.3584711  )
       143           S   tau( 143) = (   0.4999943   0.7216644   0.1240023  )
       144           S   tau( 144) = (   0.3747530   0.7939575   0.6065211  )
       145           Pd  tau( 145) = (   0.2402863   0.4278218   0.7224594  )
       146           Pd  tau( 146) = (   0.0095608   0.4278243   0.7224518  )
       147           Pd  tau( 147) = (   0.1249502   0.2282625   0.7234614  )
       148           Pd  tau( 148) = (   0.3758921   0.2158486   0.7269467  )

     --------------------------------------------
     DFT-D3 Dispersion Correction (3-body terms):
     --------------------------------------------
       Reference C6 values for interpolation: 

         atom   Coordination number   C6
         S          0.000           268.01
         S          0.995           261.99
         S          1.990           251.62
         Mo         0.000          1691.79
         Mo         1.942          1004.01
         Mo        11.056           674.22
         Pd         0.000          1217.01
         Pd         1.863           573.90
         Pd         5.710           531.75

       Values used:

         atom   Coordination number  R0_AB[au]  C6      C8
         Mo        10.617            3.547    674.22  77634.20
         Mo        10.189            3.547    674.22  77634.20
         Mo        10.202            3.547    674.22  77634.20
         S          3.753            3.128    251.62  12327.25
         S          3.859            3.128    251.62  12327.25
         S          3.843            3.128    251.62  12327.25
         S          3.859            3.128    251.62  12327.25
         S          3.858            3.128    251.62  12327.25
         S          4.638            3.128    251.62  12327.25
         Mo        10.621            3.547    674.22  77634.20
         Mo        10.189            3.547    674.22  77634.20
         Mo        10.201            3.547    674.22  77634.20
         S          3.753            3.128    251.62  12327.25
         S          3.860            3.128    251.62  12327.25
         S          3.843            3.128    251.62  12327.25
         S          3.859            3.128    251.62  12327.25
         S          3.853            3.128    251.62  12327.25
         S          4.642            3.128    251.62  12327.25
         Mo        10.232            3.547    674.22  77634.20
         Mo        10.189            3.547    674.22  77634.20
         Mo        10.201            3.547    674.22  77634.20
         S          3.753            3.128    251.62  12327.25
         S          3.859            3.128    251.62  12327.25
         S          3.866            3.128    251.62  12327.25
         S          3.859            3.128    251.62  12327.25
         S          3.858            3.128    251.62  12327.25
         S          3.765            3.128    251.62  12327.25
         Mo        10.243            3.547    674.22  77634.20
         Mo        10.189            3.547    674.22  77634.20
         Mo        10.201            3.547    674.22  77634.20
         S          3.753            3.128    251.62  12327.25
         S          3.859            3.128    251.62  12327.25
         S          3.866            3.128    251.62  12327.25
         S          3.859            3.128    251.62  12327.25
         S          3.862            3.128    251.62  12327.25
         S          3.767            3.128    251.62  12327.25
         Mo        10.705            3.547    674.22  77634.20
         Mo        10.189            3.547    674.22  77634.20
         Mo        10.202            3.547    674.22  77634.20
         S          3.753            3.128    251.62  12327.25
         S          3.859            3.128    251.62  12327.25
         S          3.844            3.128    251.62  12327.25
         S          3.859            3.128    251.62  12327.25
         S          3.861            3.128    251.62  12327.25
         S          5.596            3.128    251.62  12327.25
         Mo        10.629            3.547    674.22  77634.20
         Mo        10.189            3.547    674.22  77634.20
         Mo        10.202            3.547    674.22  77634.20
         S          3.753            3.128    251.62  12327.25
         S          3.860            3.128    251.62  12327.25
         S          3.878            3.128    251.62  12327.25
         S          3.859            3.128    251.62  12327.25
         S          3.853            3.128    251.62  12327.25
         S          6.620            3.128    251.62  12327.25
         Mo        10.192            3.547    674.22  77634.20
         Mo        10.189            3.547    674.22  77634.20
         Mo        10.201            3.547    674.22  77634.20
         S          3.753            3.128    251.62  12327.25
         S          3.860            3.128    251.62  12327.25
         S          3.843            3.128    251.62  12327.25
         S          3.859            3.128    251.62  12327.25
         S          3.853            3.128    251.62  12327.25
         S          4.643            3.128    251.62  12327.25
         Mo        10.253            3.547    674.22  77634.20
         Mo        10.189            3.547    674.22  77634.20
         Mo        10.201            3.547    674.22  77634.20
         S          3.753            3.128    251.62  12327.25
         S          3.859            3.128    251.62  12327.25
         S          3.865            3.128    251.62  12327.25
         S          3.859            3.128    251.62  12327.25
         S          3.861            3.128    251.62  12327.25
         S          3.809            3.128    251.62  12327.25
         Mo        10.251            3.547    674.22  77634.20
         Mo        10.189            3.547    674.22  77634.20
         Mo        10.201            3.547    674.22  77634.20
         S          3.753            3.128    251.62  12327.25
         S          3.858            3.128    251.62  12327.25
         S          3.865            3.128    251.62  12327.25
         S          3.859            3.128    251.62  12327.25
         S          3.862            3.128    251.62  12327.25
         S          4.751            3.128    251.62  12327.25
         Mo        10.241            3.547    674.22  77634.20
         Mo        10.189            3.547    674.22  77634.20
         Mo        10.201            3.547    674.22  77634.20
         S          3.753            3.128    251.62  12327.25
         S          3.859            3.128    251.62  12327.25
         S          3.844            3.128    251.62  12327.25
         S          3.859            3.128    251.62  12327.25
         S          3.861            3.128    251.62  12327.25
         S          5.600            3.128    251.62  12327.25
         Mo        10.232            3.547    674.22  77634.20
         Mo        10.189            3.547    674.22  77634.20
         Mo        10.201            3.547    674.22  77634.20
         S          3.753            3.128    251.62  12327.25
         S          3.859            3.128    251.62  12327.25
         S          3.843            3.128    251.62  12327.25
         S          3.859            3.128    251.62  12327.25
         S          3.858            3.128    251.62  12327.25
         S          4.643            3.128    251.62  12327.25
         Mo        10.245            3.547    674.22  77634.20
         Mo        10.189            3.547    674.22  77634.20
         Mo        10.201            3.547    674.22  77634.20
         S          3.753            3.128    251.62  12327.25
         S          3.859            3.128    251.62  12327.25
         S          3.864            3.128    251.62  12327.25
         S          3.859            3.128    251.62  12327.25
         S          3.861            3.128    251.62  12327.25
         S          3.804            3.128    251.62  12327.25
         Mo        10.195            3.547    674.22  77634.20
         Mo        10.189            3.547    674.22  77634.20
         Mo        10.201            3.547    674.22  77634.20
         S          3.753            3.128    251.62  12327.25
         S          3.859            3.128    251.62  12327.25
         S          3.864            3.128    251.62  12327.25
         S          3.859            3.128    251.62  12327.25
         S          3.861            3.128    251.62  12327.25
         S          3.805            3.128    251.62  12327.25
         Mo        10.233            3.547    674.22  77634.20
         Mo        10.189            3.547    674.22  77634.20
         Mo        10.201            3.547    674.22  77634.20
         S          3.753            3.128    251.62  12327.25
         S          3.859            3.128    251.62  12327.25
         S          3.865            3.128    251.62  12327.25
         S          3.859            3.128    251.62  12327.25
         S          3.861            3.128    251.62  12327.25
         S          3.809            3.128    251.62  12327.25
         Mo        10.219            3.547    674.22  77634.20
         Mo        10.189            3.547    674.22  77634.20
         Mo        10.201            3.547    674.22  77634.20
         S          3.753            3.128    251.62  12327.25
         S          3.859            3.128    251.62  12327.25
         S          3.866            3.128    251.62  12327.25
         S          3.859            3.128    251.62  12327.25
         S          3.861            3.128    251.62  12327.25
         S          3.766            3.128    251.62  12327.25
         Mo        10.235            3.547    674.22  77634.20
         Mo        10.189            3.547    674.22  77634.20
         Mo        10.201            3.547    674.22  77634.20
         S          3.753            3.128    251.62  12327.25
         S          3.859            3.128    251.62  12327.25
         S          3.865            3.128    251.62  12327.25
         S          3.859            3.128    251.62  12327.25
         S          3.861            3.128    251.62  12327.25
         S          3.799            3.128    251.62  12327.25
         Pd         4.596            3.168    531.75  48720.73
         Pd         4.412            3.168    531.75  48720.73
         Pd         4.572            3.168    531.75  48720.73
         Pd         3.841            3.168    538.08  49300.54

         Molecular C6 ( Ry / a.u.^6 ) =   8176374.55


     number of k points=     4  Gaussian smearing, width (Ry)=  0.0100
                       cart. coord. in units 2pi/alat
        k(    1) = (   0.0000000   0.0000000   0.0000000), wk =   0.5000000
        k(    2) = (   0.0000000  -0.5773499   0.0000000), wk =   0.5000000
        k(    3) = (  -0.5000000  -0.2886755   0.0000000), wk =   0.5000000
        k(    4) = (  -0.5000000  -0.8660254   0.0000000), wk =   0.5000000

     Dense  grid:  5955087 G-vectors     FFT dimensions: ( 180, 180, 432)

     Smooth grid:  2572543 G-vectors     FFT dimensions: ( 135, 135, 320)

     Estimated max dynamical RAM per process >       2.15 GB

     Estimated total dynamical RAM >      77.56 GB

     Initial potential from superposition of free atoms

     starting charge    1319.9531, renormalised to    1320.0000

     negative rho (up, down):  1.263E-03 0.000E+00
     Starting wfcs are  904 randomized atomic wfcs
     Checking if some PAW data can be deallocated... 

     total cpu time spent up to now is      108.2 secs

     Self-consistent Calculation

     iteration #  1     ecut=    77.00 Ry     beta= 0.20
     Davidson diagonalization with overlap
     ethr =  1.00E-02,  avg # of iterations =  2.0

     Threshold (ethr) on eigenvalues was too large:
     Diagonalizing with lowered threshold

     Davidson diagonalization with overlap
     ethr =  3.15E-04,  avg # of iterations = 15.2

     negative rho (up, down):  4.196E-04 0.000E+00

     total cpu time spent up to now is     1047.6 secs

     total energy              =  -25892.43069819 Ry
     estimated scf accuracy    <       4.98779845 Ry

     iteration #  2     ecut=    77.00 Ry     beta= 0.20
     Davidson diagonalization with overlap
     ethr =  3.78E-04,  avg # of iterations =  9.0

     negative rho (up, down):  1.844E-04 0.000E+00

     total cpu time spent up to now is     1307.1 secs

     total energy              =  -25892.37542054 Ry
     estimated scf accuracy    <       2.32814772 Ry

     iteration #  3     ecut=    77.00 Ry     beta= 0.20
     Davidson diagonalization with overlap
     ethr =  1.76E-04,  avg # of iterations =  6.5

     negative rho (up, down):  4.596E-05 0.000E+00

     total cpu time spent up to now is     1560.0 secs

     total energy              =  -25892.08503662 Ry
     estimated scf accuracy    <       1.48992967 Ry

     iteration #  4     ecut=    77.00 Ry     beta= 0.20
     Davidson diagonalization with overlap
     ethr =  1.13E-04,  avg # of iterations = 16.5

     negative rho (up, down):  3.986E-05 0.000E+00

     total cpu time spent up to now is     1985.7 secs

     total energy              =  -25892.63945681 Ry
     estimated scf accuracy    <       0.42423391 Ry

     iteration #  5     ecut=    77.00 Ry     beta= 0.20
     Davidson diagonalization with overlap
     c_bands:  1 eigenvalues not converged
     c_bands:  2 eigenvalues not converged
     ethr =  3.21E-05,  avg # of iterations = 18.5

     negative rho (up, down):  5.857E-05 0.000E+00

     total cpu time spent up to now is     2513.8 secs

     total energy              =  -25892.92808944 Ry
     estimated scf accuracy    <       0.17608535 Ry

     iteration #  6     ecut=    77.00 Ry     beta= 0.20
     Davidson diagonalization with overlap
     c_bands:  4 eigenvalues not converged
     c_bands:  5 eigenvalues not converged
     c_bands:  3 eigenvalues not converged
     ethr =  1.33E-05,  avg # of iterations = 39.2

     negative rho (up, down):  1.115E-04 0.000E+00

     total cpu time spent up to now is     3256.2 secs

     total energy              =  -25893.01985284 Ry
     estimated scf accuracy    <       0.08848641 Ry

     iteration #  7     ecut=    77.00 Ry     beta= 0.20
     Davidson diagonalization with overlap
     c_bands:  4 eigenvalues not converged
     c_bands:  4 eigenvalues not converged
     c_bands:  1 eigenvalues not converged
     ethr =  6.70E-06,  avg # of iterations = 37.0

     negative rho (up, down):  3.576E-04 0.000E+00

     total cpu time spent up to now is     3892.5 secs

     total energy              =  -25893.03717166 Ry
     estimated scf accuracy    <       0.04634089 Ry

     iteration #  8     ecut=    77.00 Ry     beta= 0.20
     Davidson diagonalization with overlap
     c_bands:  4 eigenvalues not converged
     c_bands:  2 eigenvalues not converged
     c_bands:  2 eigenvalues not converged
     ethr =  3.51E-06,  avg # of iterations = 33.5

     negative rho (up, down):  8.181E-04 0.000E+00

     total cpu time spent up to now is     4442.8 secs

     total energy              =  -25893.05017691 Ry
     estimated scf accuracy    <       0.01270402 Ry

     iteration #  9     ecut=    77.00 Ry     beta= 0.20
     Davidson diagonalization with overlap
     c_bands:  3 eigenvalues not converged
     c_bands:  3 eigenvalues not converged
     ethr =  9.62E-07,  avg # of iterations = 25.0

     negative rho (up, down):  7.765E-04 0.000E+00

     total cpu time spent up to now is     5233.4 secs

     total energy              =  -25893.06428062 Ry
     estimated scf accuracy    <       0.01011369 Ry

     iteration # 10     ecut=    77.00 Ry     beta= 0.20
     Davidson diagonalization with overlap
     c_bands:  2 eigenvalues not converged
     c_bands:  2 eigenvalues not converged
     ethr =  7.66E-07,  avg # of iterations = 11.0

     negative rho (up, down):  7.360E-04 0.000E+00

     total cpu time spent up to now is     5499.0 secs

     total energy              =  -25893.06405704 Ry
     estimated scf accuracy    <       0.00305381 Ry

     iteration # 11     ecut=    77.00 Ry     beta= 0.20
     Davidson diagonalization with overlap
     c_bands:  4 eigenvalues not converged
     c_bands:  1 eigenvalues not converged
     ethr =  2.31E-07,  avg # of iterations = 24.2

     negative rho (up, down):  8.064E-04 0.000E+00

     total cpu time spent up to now is     6241.9 secs

     total energy              =  -25893.06800119 Ry
     estimated scf accuracy    <       0.00251217 Ry

     iteration # 12     ecut=    77.00 Ry     beta= 0.20
     Davidson diagonalization with overlap
     ethr =  1.90E-07,  avg # of iterations =  3.0

     negative rho (up, down):  1.058E-03 0.000E+00

     total cpu time spent up to now is     6479.7 secs

     total energy              =  -25893.06722425 Ry
     estimated scf accuracy    <       0.00130915 Ry

     iteration # 13     ecut=    77.00 Ry     beta= 0.20
     Davidson diagonalization with overlap
     ethr =  9.92E-08,  avg # of iterations = 13.0

     negative rho (up, down):  9.726E-04 0.000E+00

     total cpu time spent up to now is     7021.2 secs

     total energy              =  -25893.06829234 Ry
     estimated scf accuracy    <       0.00101107 Ry

     iteration # 14     ecut=    77.00 Ry     beta= 0.20
     Davidson diagonalization with overlap
     ethr =  7.66E-08,  avg # of iterations =  2.0

     negative rho (up, down):  9.327E-04 0.000E+00

     total cpu time spent up to now is     7256.7 secs

     total energy              =  -25893.06822939 Ry
     estimated scf accuracy    <       0.00029318 Ry

     iteration # 15     ecut=    77.00 Ry     beta= 0.20
     Davidson diagonalization with overlap
     c_bands:  1 eigenvalues not converged
     ethr =  2.22E-08,  avg # of iterations = 15.2

     negative rho (up, down):  1.037E-03 0.000E+00

     total cpu time spent up to now is     7877.7 secs

     total energy              =  -25893.06846685 Ry
     estimated scf accuracy    <       0.00013491 Ry

     iteration # 16     ecut=    77.00 Ry     beta= 0.20
     Davidson diagonalization with overlap
     ethr =  1.02E-08,  avg # of iterations = 11.8

     negative rho (up, down):  1.064E-03 0.000E+00

     total cpu time spent up to now is     8261.0 secs

     total energy              =  -25893.06851092 Ry
     estimated scf accuracy    <       0.00001578 Ry

     iteration # 17     ecut=    77.00 Ry     beta= 0.20
     Davidson diagonalization with overlap
     c_bands:  2 eigenvalues not converged
     c_bands:  2 eigenvalues not converged
     ethr =  1.20E-09,  avg # of iterations = 18.0

     negative rho (up, down):  1.060E-03 0.000E+00

     total cpu time spent up to now is     9355.3 secs

     total energy              =  -25893.06856398 Ry
     estimated scf accuracy    <       0.00001904 Ry

     iteration # 18     ecut=    77.00 Ry     beta= 0.20
     Davidson diagonalization with overlap
     ethr =  1.20E-09,  avg # of iterations =  1.8

     negative rho (up, down):  1.056E-03 0.000E+00

     total cpu time spent up to now is     9584.9 secs

     total energy              =  -25893.06856136 Ry
     estimated scf accuracy    <       0.00001201 Ry

     iteration # 19     ecut=    77.00 Ry     beta= 0.20
     Davidson diagonalization with overlap
     ethr =  9.10E-10,  avg # of iterations =  8.2

     negative rho (up, down):  1.059E-03 0.000E+00

     total cpu time spent up to now is     9840.8 secs

     total energy              =  -25893.06855882 Ry
     estimated scf accuracy    <       0.00000494 Ry

     iteration # 20     ecut=    77.00 Ry     beta= 0.20
     Davidson diagonalization with overlap
     ethr =  3.74E-10,  avg # of iterations =  8.5

     negative rho (up, down):  1.060E-03 0.000E+00

     total cpu time spent up to now is    10308.9 secs

     End of self-consistent calculation

          k = 0.0000 0.0000 0.0000 (321495 PWs)   bands (ev):

   -88.5759 -88.5547 -88.5447 -88.4571 -66.6690 -66.6479 -66.6479 -66.6479
   -66.6478 -66.6478 -66.6478 -66.6268 -66.6267 -66.6267 -66.6267 -66.6267
   -66.6267 -66.6266 -66.6266 -66.6265 -66.6026 -66.5819 -66.5818 -66.5817
   -66.5814 -66.5813 -66.5812 -66.5609 -66.5609 -66.5606 -66.5604 -66.5603
   -66.5602 -66.5601 -66.5600 -66.5598 -66.5161 -66.5056 -66.4973 -66.4935
   -66.4920 -66.4815 -66.4811 -66.4742 -66.4717 -66.4713 -66.4677 -66.4661
   -66.4563 -66.4531 -66.4502 -66.4493 -54.5017 -54.4480 -54.4392 -54.3331
   -54.3091 -54.2982 -54.2844 -54.2743 -54.2672 -54.2647 -54.2485 -54.2292
   -40.9953 -40.9953 -40.9953 -40.9279 -40.9278 -40.9278 -40.9205 -40.9205
   -40.9205 -40.9205 -40.9205 -40.9205 -40.8532 -40.8532 -40.8531 -40.8531
   -40.8530 -40.8530 -40.8344 -40.8328 -40.8320 -40.8291 -40.7950 -40.7950
   -40.7949 -40.7949 -40.7949 -40.7949 -40.7878 -40.7877 -40.7877 -40.7877
   -40.7876 -40.7876 -40.7646 -40.7637 -40.7633 -40.7601 -40.7601 -40.7601
   -40.7601 -40.7601 -40.7601 -40.7538 -40.7526 -40.7509 -40.7496 -40.7461
   -40.7461 -40.7460 -40.7460 -40.7460 -40.7460 -40.7459 -40.7459 -40.7459
   -40.7279 -40.7278 -40.7277 -40.7276 -40.7275 -40.7274 -40.7223 -40.7221
   -40.7221 -40.7218 -40.7216 -40.7216 -40.6938 -40.6931 -40.6930 -40.6930
   -40.6929 -40.6927 -40.6926 -40.6823 -40.6823 -40.6823 -40.6809 -40.6808
   -40.6805 -40.6803 -40.6802 -40.6801 -40.6800 -40.6799 -40.6797 -40.6670
   -40.6570 -40.6510 -40.6484 -40.6479 -40.6415 -40.6381 -40.6371 -40.6355
   -40.6355 -40.6355 -40.6355 -40.6355 -40.6354 -40.6323 -40.6299 -40.6253
   -40.6219 -40.6177 -40.6152 -40.6152 -40.6151 -40.6119 -40.6110 -40.6077
   -40.6061 -40.6046 -40.6025 -40.6020 -40.6001 -40.5980 -40.5930 -40.5917
   -40.5882 -40.5882 -40.5863 -40.5856 -40.5842 -40.5685 -40.5684 -40.5684
   -40.5683 -40.5683 -40.5683 -40.5211 -40.5211 -40.5191 -40.5177 -40.5166
   -40.4741 -40.4726 -40.4709 -40.4687 -40.4662 -40.4566 -40.4204 -40.4180
   -20.2672 -20.0892 -19.9314 -19.7183 -19.3955 -19.2682 -19.2375 -19.2365
   -19.2343 -19.2282 -19.2250 -19.2120 -19.1543 -19.1478 -19.1272 -19.0850
   -19.0775 -19.0681 -19.0423 -19.0378 -19.0124 -18.8694 -18.7695 -18.7124
   -18.5801 -18.5482 -18.4901 -18.4784 -18.4726 -18.4566 -18.4282 -18.4103
   -18.3780 -18.3557 -18.3429 -18.3295 -18.2910 -18.2798 -18.2172 -18.1927
   -18.1913 -18.1855 -18.1838 -18.1547 -18.1287 -18.1284 -18.1283 -18.1283
   -18.1281 -18.1281 -18.1157 -18.0884 -18.0881 -18.0880 -18.0789 -18.0574
   -18.0476 -18.0442 -18.0440 -18.0440 -18.0403 -18.0202 -18.0144 -18.0132
   -18.0109 -17.9722 -17.9587 -17.9482 -17.9454 -17.9336 -17.9331 -17.9321
   -17.9295 -17.9201 -17.9071 -17.9065 -17.9013 -17.9006 -17.8747 -17.8723
   -17.8722 -17.8634 -17.8504 -17.8416 -17.8349 -17.8345 -17.8326 -17.8064
   -17.8029 -17.8016 -17.7858 -17.7708 -17.7613 -17.7537 -17.7455 -17.7405
   -12.1329 -12.0978 -12.0708 -11.8923 -11.8139 -11.7428 -11.7426 -11.7412
   -11.6594 -11.6590 -11.6565 -11.5649 -11.4222 -11.3561 -11.3236 -11.2360
   -11.2253 -11.2027 -11.1986 -11.1898 -11.1866 -11.1651 -11.1306 -11.1190
   -11.1155 -11.1127 -11.1125 -11.1061 -11.0984 -11.0862 -11.0277 -11.0130
   -10.9833 -10.9824 -10.9742 -10.9724 -10.9624 -10.9590 -10.9512 -10.9234
   -10.9116 -10.9095 -10.8872 -10.8633 -10.8572 -10.8565 -10.8299 -10.8269
   -10.8257 -10.8193 -10.8191 -10.8184 -10.8153 -10.8083 -10.8063 -10.7938
   -10.7913 -10.7901 -10.7866 -10.7762 -10.7713 -10.7684 -10.7657 -10.7630
   -10.7583 -10.7371 -10.7199 -10.6949 -10.6930 -10.6842 -10.6453 -10.6392
   -10.6168 -10.6066 -10.6015 -10.5144 -10.3746 -10.3385 -10.1917 -10.0602
   -10.0404 -10.0345 -10.0293 -10.0222  -9.9579  -9.8886  -9.8677  -9.8593
    -9.8325  -9.7891  -9.7727  -9.7674  -9.7664  -9.7530  -9.7389  -9.7296
    -9.7168  -9.6980  -9.6925  -9.6851  -9.6789  -9.6665  -9.6309  -9.6243
    -9.6130  -9.6087  -9.6045  -9.6043  -9.6010  -9.5816  -9.5771  -9.5766
    -9.5717  -9.5634  -9.5608  -9.5600  -9.5594  -9.5562  -9.5434  -9.5139
    -9.4746  -9.4576  -9.4385  -9.4330  -9.4273  -9.4246  -9.4014  -9.3868
    -9.3621  -9.3524  -9.3427  -9.3392  -9.3322  -9.3300  -9.3171  -9.2989
    -9.2677  -9.2649  -9.2311  -9.2207  -9.2147  -9.2092  -9.1960  -9.1849
    -9.1768  -9.1398  -9.0943  -9.0743  -9.0325  -9.0244  -9.0136  -9.0089
    -9.0080  -9.0072  -9.0068  -8.9966  -8.9952  -8.9504  -8.9323  -8.9292
    -8.9230  -8.9115  -8.9065  -8.8890  -8.8519  -8.8252  -8.8027  -8.7957
    -8.7937  -8.7920  -8.7881  -8.7811  -8.7750  -8.7648  -8.7605  -8.7468
    -8.7444  -8.7394  -8.7370  -8.7266  -8.7147  -8.7144  -8.7021  -8.6652
    -8.5716  -8.5381  -8.4454  -8.4180  -8.4179  -8.3944  -8.3601  -8.3453
    -8.3453  -8.3094  -8.3060  -8.3059  -8.3059  -8.3058  -8.3057  -8.3027
    -8.2919  -8.2734  -8.2547  -8.2381  -8.2321  -8.2289  -8.2279  -8.2277
    -8.2261  -8.1998  -8.1869  -8.1539  -7.9702  -7.9587  -7.9216  -7.9175
    -7.9158  -7.8886  -7.8218  -7.7205  -7.6831  -7.6803  -7.6501  -7.6346
    -7.6084  -7.5862  -7.5721  -7.5704  -7.5703  -7.5700  -7.5697  -7.5696
    -7.5652  -7.5253  -7.5247  -7.5240  -7.5236  -7.5233  -7.5224  -7.5223
    -7.5125  -7.4993  -7.4960  -7.4929  -7.4898  -7.4896  -7.4860  -7.4744
    -7.4585  -7.4511  -7.4482  -7.4472  -7.4469  -7.4421  -7.4412  -7.4330
    -7.4268  -7.4126  -7.4115  -7.4008  -7.3975  -7.3973  -7.3277  -7.3098
    -7.3069  -7.2891  -7.2891  -7.2839  -7.2545  -7.2475  -7.2202  -7.2196
    -7.2091  -7.1846  -7.1720  -7.1210  -7.1102  -7.0295  -7.0129  -6.9948
    -6.9561  -6.9197  -6.9184  -6.9147  -6.8935  -6.8460  -6.7993  -6.7849
    -6.7831  -6.7811  -6.6899  -6.6581  -6.6566  -6.6517  -6.6514  -6.6464
    -6.6318  -6.6255  -6.6129  -6.5951  -6.5650  -6.5581  -6.5569  -6.5302
    -6.5286  -6.5090  -6.5047  -6.5037  -6.4890  -6.4772  -6.4762  -6.4679
    -6.4543  -6.4495  -6.4423  -6.4229  -6.4213  -6.4152  -6.4063  -6.3947
    -6.3849  -6.3715  -6.3633  -6.3371  -6.3371  -6.3371  -6.3371  -6.3371
    -6.3370  -6.2999  -6.2945  -6.2868  -6.2633  -6.2619  -6.2593  -6.2583
    -6.2566  -6.2562  -6.2433  -6.2329  -6.1949  -6.1617  -6.1434  -6.1024
    -6.0356  -5.8989  -5.7463  -5.7350  -5.6478  -5.5025  -5.4653  -5.4265
    -5.3766  -5.1868  -5.1045  -5.0668  -3.9616  -3.9144  -3.8609  -3.8417
    -3.8236  -3.8186  -3.8050  -3.7952  -3.7921  -3.7919  -3.7887  -3.7869
    -3.7443  -3.7223  -3.6743  -3.6627  -3.6063  -3.5824  -3.5812  -3.5689
    -3.5666  -3.5660  -3.5526  -3.5444  -3.4777  -3.4777  -3.4777  -3.4623
    -3.4595  -3.4582  -3.4582  -3.4580  -3.4579  -3.4106  -3.4103  -3.4101
    -3.4097  -3.3990  -3.3933  -3.3908  -3.3863  -3.3680  -3.3592  -3.3553
    -3.3461  -3.3454  -3.3444  -3.3419  -3.3304  -3.3175  -3.3150  -3.3120
    -3.2989  -3.2875  -3.2675  -3.2613  -3.2489  -3.2295  -3.2119  -3.1932
    -3.1900  -3.1673  -3.1604  -3.0265  -3.0118  -3.0115  -3.0113  -3.0065
    -3.0060  -2.9605  -2.9451  -2.9411  -2.9387  -2.9385  -2.9384  -2.9381
    -2.9379  -2.9378  -2.9312  -2.9275  -2.9225  -2.9178  -2.9086  -2.9018
    -2.8870  -2.8839  -2.8758  -2.8709  -2.8691  -2.8688  -2.8659  -2.8646
    -2.8617  -2.8578  -2.8490  -2.8436  -2.8236  -2.8155  -2.8141  -2.7921
    -2.7863  -2.7579  -2.7530  -2.7524  -2.7319  -2.7243  -2.7230  -2.7218
    -2.7205  -2.7170  -2.7122  -2.6821  -2.6788  -2.6637  -2.6477  -2.6230
    -2.6210  -2.6112  -2.5819  -2.5782  -2.5500  -2.5126  -2.5109  -2.5046
    -2.5029  -2.4956  -2.4946  -2.4662  -2.4583  -2.4352  -2.4313  -2.4252

          k = 0.0000-0.5773 0.0000 (321564 PWs)   bands (ev):

   -88.5759 -88.5547 -88.5447 -88.4571 -66.6628 -66.6627 -66.6522 -66.6522
   -66.6373 -66.6373 -66.6373 -66.6373 -66.6329 -66.6328 -66.6267 -66.6267
   -66.6266 -66.6266 -66.6223 -66.6223 -66.5967 -66.5962 -66.5859 -66.5859
   -66.5710 -66.5710 -66.5710 -66.5709 -66.5668 -66.5663 -66.5607 -66.5606
   -66.5602 -66.5599 -66.5560 -66.5559 -66.5138 -66.5086 -66.4995 -66.4951
   -66.4869 -66.4819 -66.4799 -66.4752 -66.4723 -66.4717 -66.4678 -66.4645
   -66.4582 -66.4534 -66.4498 -66.4489 -54.5017 -54.4480 -54.4392 -54.3331
   -54.3091 -54.2982 -54.2844 -54.2743 -54.2672 -54.2647 -54.2485 -54.2292
   -40.9640 -40.9639 -40.9639 -40.9638 -40.9373 -40.9372 -40.9253 -40.9253
   -40.8968 -40.8967 -40.8963 -40.8961 -40.8749 -40.8749 -40.8749 -40.8749
   -40.8700 -40.8697 -40.8579 -40.8579 -40.8171 -40.8170 -40.8094 -40.8089
   -40.8076 -40.8076 -40.8075 -40.8075 -40.8070 -40.8070 -40.7963 -40.7963
   -40.7953 -40.7899 -40.7839 -40.7755 -40.7669 -40.7669 -40.7669 -40.7669
   -40.7617 -40.7582 -40.7582 -40.7514 -40.7510 -40.7493 -40.7461 -40.7460
   -40.7460 -40.7460 -40.7460 -40.7459 -40.7397 -40.7397 -40.7374 -40.7374
   -40.7305 -40.7305 -40.7153 -40.7152 -40.7152 -40.7151 -40.7118 -40.7101
   -40.7070 -40.7063 -40.7012 -40.7011 -40.7011 -40.7011 -40.6927 -40.6922
   -40.6860 -40.6807 -40.6807 -40.6807 -40.6807 -40.6806 -40.6805 -40.6801
   -40.6799 -40.6787 -40.6787 -40.6782 -40.6717 -40.6716 -40.6687 -40.6686
   -40.6640 -40.6582 -40.6495 -40.6494 -40.6482 -40.6482 -40.6479 -40.6478
   -40.6448 -40.6392 -40.6371 -40.6326 -40.6326 -40.6325 -40.6317 -40.6275
   -40.6166 -40.6137 -40.6136 -40.6136 -40.6135 -40.6135 -40.6115 -40.6066
   -40.6037 -40.6021 -40.6021 -40.6017 -40.6012 -40.6011 -40.5920 -40.5896
   -40.5855 -40.5824 -40.5822 -40.5772 -40.5655 -40.5654 -40.5554 -40.5518
   -40.5494 -40.5475 -40.5352 -40.5348 -40.5194 -40.5167 -40.5144 -40.5112
   -40.5059 -40.4920 -40.4859 -40.4800 -40.4678 -40.4600 -40.4376 -40.4280
   -20.2101 -19.8691 -19.8560 -19.7828 -19.7046 -19.6615 -19.5594 -19.4460
   -19.4216 -19.3924 -19.2784 -19.2534 -19.1113 -18.8694 -18.8458 -18.7538
   -18.7310 -18.7272 -18.7186 -18.7160 -18.7092 -18.6989 -18.6213 -18.6060
   -18.5992 -18.5857 -18.5787 -18.5766 -18.5526 -18.5356 -18.4963 -18.4731
   -18.4695 -18.4343 -18.4291 -18.4138 -18.4013 -18.3779 -18.3638 -18.3476
   -18.2994 -18.2940 -18.2564 -18.2444 -18.2316 -18.2091 -18.1853 -18.1723
   -18.1456 -18.1341 -18.1126 -18.1089 -18.1087 -18.1086 -18.1084 -18.1034
   -18.0786 -18.0707 -18.0443 -18.0380 -18.0318 -18.0286 -18.0276 -18.0195
   -18.0060 -17.9981 -17.9829 -17.9711 -17.9674 -17.9459 -17.9312 -17.9301
   -17.9247 -17.9227 -17.9036 -17.8990 -17.8697 -17.8674 -17.8573 -17.8452
   -17.8452 -17.8401 -17.8136 -17.8030 -17.7942 -17.7856 -17.7853 -17.7711
   -17.7696 -17.7654 -17.7592 -17.7567 -17.7257 -17.7246 -17.6671 -17.6593
   -12.0641 -12.0312 -11.9516 -11.7372 -11.6606 -11.6266 -11.4817 -11.4612
   -11.4575 -11.4535 -11.4515 -11.4412 -11.4313 -11.4188 -11.3891 -11.3685
   -11.3588 -11.3559 -11.3514 -11.3328 -11.3124 -11.2987 -11.2860 -11.2656
   -11.2451 -11.2381 -11.2381 -11.2303 -11.2173 -11.1928 -11.1923 -11.1489
   -11.1421 -11.1389 -11.1355 -11.0929 -11.0620 -11.0523 -10.9995 -10.9743
   -10.9565 -10.9438 -10.9318 -10.9131 -10.9007 -10.8934 -10.8911 -10.8690
   -10.8586 -10.8433 -10.8311 -10.8281 -10.8144 -10.8114 -10.8113 -10.8108
   -10.8053 -10.7945 -10.7894 -10.7560 -10.7499 -10.7449 -10.7367 -10.7190
   -10.7083 -10.6024 -10.5882 -10.5333 -10.4781 -10.4740 -10.4593 -10.3923
   -10.3600 -10.3151 -10.2697 -10.2604 -10.1527 -10.1355 -10.1092 -10.0949
   -10.0809 -10.0635 -10.0613 -10.0289 -10.0022  -9.9837  -9.9687  -9.9425
    -9.9354  -9.9189  -9.9149  -9.9100  -9.9068  -9.8799  -9.8773  -9.8677
    -9.8623  -9.8485  -9.8322  -9.7965  -9.7760  -9.7557  -9.7418  -9.7294
    -9.7086  -9.6996  -9.6946  -9.6916  -9.6858  -9.6777  -9.6748  -9.6516
    -9.6459  -9.6331  -9.6141  -9.5882  -9.5762  -9.5630  -9.5357  -9.5293
    -9.5166  -9.5107  -9.4877  -9.4640  -9.4546  -9.4521  -9.3792  -9.3693
    -9.3473  -9.3219  -9.2761  -9.2441  -9.1990  -9.1884  -9.1810  -9.1729
    -9.1539  -9.1364  -9.1279  -9.1166  -9.1030  -9.0948  -9.0836  -9.0570
    -9.0501  -9.0447  -9.0284  -9.0268  -9.0244  -9.0124  -8.9865  -8.9815
    -8.9687  -8.9524  -8.9422  -8.9323  -8.9296  -8.9235  -8.9206  -8.9155
    -8.9108  -8.9003  -8.8786  -8.8624  -8.8447  -8.8432  -8.8392  -8.8357
    -8.8297  -8.8216  -8.8206  -8.8201  -8.8134  -8.8045  -8.7977  -8.7899
    -8.7704  -8.7536  -8.7444  -8.7408  -8.7216  -8.7058  -8.6327  -8.6024
    -8.5365  -8.5212  -8.4931  -8.4930  -8.4427  -8.4205  -8.4123  -8.4020
    -8.3539  -8.3079  -8.2739  -8.2050  -8.1992  -8.1744  -8.1743  -8.1309
    -8.1114  -8.1030  -8.1020  -8.0821  -8.0606  -7.9765  -7.9336  -7.9118
    -7.9105  -7.8995  -7.8728  -7.8529  -7.8435  -7.8379  -7.8316  -7.8296
    -7.8277  -7.8276  -7.8264  -7.8247  -7.8151  -7.8083  -7.7820  -7.7817
    -7.7800  -7.7787  -7.7637  -7.7569  -7.7543  -7.7418  -7.7309  -7.7273
    -7.7229  -7.7141  -7.7074  -7.7038  -7.7027  -7.6945  -7.6845  -7.6790
    -7.6690  -7.6544  -7.6425  -7.6424  -7.6412  -7.6377  -7.6217  -7.6086
    -7.6019  -7.5837  -7.5696  -7.5649  -7.5607  -7.5337  -7.5265  -7.5177
    -7.5027  -7.4749  -7.4563  -7.4197  -7.3768  -7.3561  -7.3174  -7.2746
    -7.2408  -7.2273  -7.2143  -7.2115  -7.1848  -7.1663  -7.1172  -7.1118
    -7.0983  -7.0621  -7.0491  -7.0185  -7.0004  -6.9957  -6.9900  -6.9799
    -6.9596  -6.9590  -6.9458  -6.9178  -6.8873  -6.8828  -6.8790  -6.8550
    -6.8398  -6.8226  -6.8088  -6.7625  -6.7329  -6.7171  -6.6942  -6.6687
    -6.6577  -6.6483  -6.6395  -6.6394  -6.6394  -6.6393  -6.6200  -6.6052
    -6.5869  -6.5714  -6.5704  -6.5687  -6.5674  -6.5556  -6.5363  -6.5087
    -6.4752  -6.4470  -6.4226  -6.3806  -6.3767  -6.3336  -6.3134  -6.3083
    -6.3075  -6.3073  -6.3071  -6.2831  -6.2439  -6.2424  -6.2328  -6.2261
    -6.2236  -6.2217  -6.2165  -6.2113  -6.1934  -6.1794  -6.1636  -6.1265
    -6.0668  -6.0076  -5.9595  -5.9592  -5.9564  -5.8816  -5.8811  -5.8630
    -5.7853  -5.6880  -5.6633  -5.6322  -5.5883  -5.5827  -5.5155  -5.4335
    -5.3771  -5.3316  -5.2064  -5.0909  -4.0387  -4.0170  -4.0126  -4.0109
    -3.9157  -3.8987  -3.8746  -3.8746  -3.8276  -3.8169  -3.8112  -3.8110
    -3.8022  -3.7999  -3.7527  -3.7397  -3.6959  -3.6839  -3.5960  -3.5893
    -3.5826  -3.5779  -3.5742  -3.5657  -3.5609  -3.5602  -3.5581  -3.5473
    -3.5081  -3.4820  -3.4789  -3.4728  -3.4694  -3.4606  -3.4563  -3.4489
    -3.4479  -3.4393  -3.3987  -3.3935  -3.3719  -3.3603  -3.3380  -3.3367
    -3.3291  -3.3275  -3.3234  -3.3108  -3.2969  -3.2944  -3.2887  -3.2858
    -3.2588  -3.2516  -3.2512  -3.2507  -3.2504  -3.2381  -3.2214  -3.2139
    -3.2046  -3.1977  -3.1876  -3.1837  -3.1765  -3.1669  -3.1616  -3.1559
    -3.1382  -3.1232  -3.1149  -3.1131  -3.0866  -3.0731  -3.0473  -3.0455
    -3.0261  -3.0138  -3.0075  -3.0060  -2.9885  -2.9879  -2.9875  -2.9874
    -2.9521  -2.9485  -2.9385  -2.9376  -2.9251  -2.9235  -2.9153  -2.9067
    -2.8992  -2.8884  -2.8870  -2.8749  -2.8700  -2.8664  -2.8643  -2.8532
    -2.8374  -2.8336  -2.8116  -2.8062  -2.7877  -2.7790  -2.7754  -2.7511
    -2.7245  -2.7032  -2.6860  -2.6724  -2.6544  -2.6307  -2.6268  -2.6256
    -2.6186  -2.6150  -2.5729  -2.5483  -2.5430  -2.4881  -2.4856  -2.4744
    -2.4707  -2.4583  -2.4481  -2.3545  -2.3327  -2.2679  -2.2479  -2.2335

          k =-0.5000-0.2887 0.0000 (321564 PWs)   bands (ev):

   -88.5759 -88.5547 -88.5447 -88.4571 -66.6628 -66.6627 -66.6522 -66.6522
   -66.6373 -66.6373 -66.6373 -66.6373 -66.6329 -66.6328 -66.6268 -66.6267
   -66.6267 -66.6266 -66.6223 -66.6223 -66.5967 -66.5963 -66.5859 -66.5859
   -66.5710 -66.5710 -66.5709 -66.5709 -66.5667 -66.5664 -66.5607 -66.5606
   -66.5602 -66.5600 -66.5559 -66.5559 -66.5138 -66.5085 -66.4995 -66.4951
   -66.4868 -66.4820 -66.4798 -66.4752 -66.4723 -66.4715 -66.4681 -66.4644
   -66.4581 -66.4535 -66.4498 -66.4488 -54.5017 -54.4480 -54.4392 -54.3331
   -54.3091 -54.2982 -54.2844 -54.2743 -54.2672 -54.2647 -54.2485 -54.2292
   -40.9640 -40.9639 -40.9639 -40.9638 -40.9373 -40.9372 -40.9253 -40.9253
   -40.8968 -40.8967 -40.8963 -40.8961 -40.8749 -40.8749 -40.8749 -40.8749
   -40.8700 -40.8697 -40.8579 -40.8579 -40.8171 -40.8170 -40.8094 -40.8091
   -40.8076 -40.8076 -40.8075 -40.8075 -40.8070 -40.8070 -40.7963 -40.7963
   -40.7949 -40.7900 -40.7840 -40.7755 -40.7669 -40.7669 -40.7669 -40.7669
   -40.7617 -40.7583 -40.7582 -40.7514 -40.7510 -40.7495 -40.7461 -40.7460
   -40.7460 -40.7460 -40.7460 -40.7459 -40.7397 -40.7397 -40.7374 -40.7374
   -40.7305 -40.7305 -40.7153 -40.7152 -40.7152 -40.7151 -40.7118 -40.7101
   -40.7070 -40.7065 -40.7012 -40.7012 -40.7011 -40.7011 -40.6927 -40.6923
   -40.6859 -40.6807 -40.6807 -40.6807 -40.6807 -40.6806 -40.6805 -40.6801
   -40.6799 -40.6787 -40.6787 -40.6784 -40.6716 -40.6716 -40.6687 -40.6686
   -40.6638 -40.6582 -40.6495 -40.6494 -40.6482 -40.6482 -40.6479 -40.6478
   -40.6448 -40.6396 -40.6369 -40.6326 -40.6326 -40.6323 -40.6317 -40.6272
   -40.6166 -40.6137 -40.6136 -40.6136 -40.6135 -40.6135 -40.6117 -40.6063
   -40.6037 -40.6021 -40.6021 -40.6017 -40.6013 -40.6012 -40.5921 -40.5896
   -40.5855 -40.5824 -40.5822 -40.5770 -40.5655 -40.5654 -40.5558 -40.5519
   -40.5494 -40.5472 -40.5352 -40.5348 -40.5192 -40.5167 -40.5141 -40.5114
   -40.5060 -40.4919 -40.4859 -40.4800 -40.4681 -40.4600 -40.4376 -40.4278
   -20.2101 -19.8692 -19.8560 -19.7834 -19.7045 -19.6618 -19.5574 -19.4463
   -19.4216 -19.3927 -19.2785 -19.2535 -19.1129 -18.8707 -18.8430 -18.7536
   -18.7312 -18.7273 -18.7186 -18.7159 -18.7091 -18.6994 -18.6212 -18.6061
   -18.5990 -18.5853 -18.5787 -18.5770 -18.5513 -18.5361 -18.4962 -18.4731
   -18.4694 -18.4341 -18.4289 -18.4142 -18.4013 -18.3778 -18.3639 -18.3478
   -18.2996 -18.2952 -18.2564 -18.2450 -18.2307 -18.2092 -18.1854 -18.1725
   -18.1454 -18.1336 -18.1127 -18.1090 -18.1087 -18.1087 -18.1084 -18.1033
   -18.0786 -18.0708 -18.0440 -18.0382 -18.0319 -18.0285 -18.0277 -18.0193
   -18.0060 -17.9981 -17.9830 -17.9710 -17.9675 -17.9461 -17.9313 -17.9300
   -17.9247 -17.9227 -17.9037 -17.8993 -17.8694 -17.8674 -17.8573 -17.8452
   -17.8452 -17.8401 -17.8139 -17.8026 -17.7940 -17.7855 -17.7853 -17.7712
   -17.7695 -17.7653 -17.7591 -17.7568 -17.7256 -17.7245 -17.6673 -17.6595
   -12.0639 -12.0309 -11.9515 -11.7388 -11.6611 -11.6266 -11.4807 -11.4612
   -11.4574 -11.4536 -11.4515 -11.4409 -11.4315 -11.4186 -11.3892 -11.3687
   -11.3588 -11.3558 -11.3516 -11.3327 -11.3123 -11.2983 -11.2859 -11.2655
   -11.2448 -11.2381 -11.2381 -11.2304 -11.2175 -11.1928 -11.1923 -11.1484
   -11.1424 -11.1387 -11.1355 -11.0920 -11.0621 -11.0520 -11.0002 -10.9749
   -10.9566 -10.9440 -10.9326 -10.9133 -10.9007 -10.8935 -10.8911 -10.8683
   -10.8591 -10.8427 -10.8307 -10.8280 -10.8145 -10.8115 -10.8113 -10.8108
   -10.8052 -10.7951 -10.7891 -10.7558 -10.7499 -10.7451 -10.7367 -10.7176
   -10.7078 -10.6025 -10.5883 -10.5325 -10.4782 -10.4743 -10.4598 -10.3934
   -10.3597 -10.3152 -10.2691 -10.2637 -10.1533 -10.1353 -10.1091 -10.0948
   -10.0817 -10.0624 -10.0598 -10.0293  -9.9976  -9.9839  -9.9688  -9.9426
    -9.9357  -9.9191  -9.9149  -9.9101  -9.9069  -9.8800  -9.8770  -9.8679
    -9.8620  -9.8491  -9.8341  -9.7965  -9.7769  -9.7557  -9.7422  -9.7293
    -9.7085  -9.6999  -9.6947  -9.6917  -9.6857  -9.6777  -9.6749  -9.6519
    -9.6457  -9.6330  -9.6146  -9.5885  -9.5772  -9.5631  -9.5355  -9.5296
    -9.5167  -9.5106  -9.4879  -9.4640  -9.4547  -9.4520  -9.3784  -9.3687
    -9.3470  -9.3224  -9.2751  -9.2459  -9.1980  -9.1883  -9.1805  -9.1720
    -9.1538  -9.1363  -9.1281  -9.1168  -9.1026  -9.0947  -9.0838  -9.0567
    -9.0494  -9.0445  -9.0282  -9.0264  -9.0243  -9.0123  -8.9861  -8.9821
    -8.9681  -8.9526  -8.9422  -8.9324  -8.9296  -8.9232  -8.9203  -8.9156
    -8.9108  -8.9003  -8.8787  -8.8624  -8.8450  -8.8435  -8.8391  -8.8357
    -8.8297  -8.8214  -8.8206  -8.8201  -8.8129  -8.8048  -8.7973  -8.7897
    -8.7710  -8.7534  -8.7446  -8.7408  -8.7211  -8.7067  -8.6327  -8.6014
    -8.5363  -8.5212  -8.4931  -8.4930  -8.4433  -8.4215  -8.4124  -8.4025
    -8.3555  -8.3093  -8.2720  -8.2056  -8.1970  -8.1744  -8.1743  -8.1305
    -8.1108  -8.1030  -8.1020  -8.0820  -8.0605  -7.9784  -7.9338  -7.9119
    -7.9105  -7.9001  -7.8722  -7.8527  -7.8438  -7.8379  -7.8318  -7.8297
    -7.8277  -7.8276  -7.8261  -7.8245  -7.8145  -7.8083  -7.7820  -7.7817
    -7.7800  -7.7786  -7.7638  -7.7569  -7.7544  -7.7421  -7.7310  -7.7274
    -7.7228  -7.7142  -7.7072  -7.7037  -7.7027  -7.6954  -7.6836  -7.6790
    -7.6691  -7.6542  -7.6425  -7.6424  -7.6411  -7.6373  -7.6218  -7.6091
    -7.6018  -7.5842  -7.5695  -7.5653  -7.5612  -7.5337  -7.5263  -7.5175
    -7.5024  -7.4749  -7.4553  -7.4200  -7.3772  -7.3561  -7.3190  -7.2765
    -7.2410  -7.2271  -7.2143  -7.2118  -7.1851  -7.1655  -7.1171  -7.1097
    -7.0982  -7.0621  -7.0497  -7.0181  -7.0001  -6.9956  -6.9900  -6.9799
    -6.9598  -6.9590  -6.9449  -6.9181  -6.8872  -6.8828  -6.8786  -6.8558
    -6.8408  -6.8227  -6.8089  -6.7627  -6.7321  -6.7170  -6.6945  -6.6688
    -6.6572  -6.6500  -6.6395  -6.6394  -6.6394  -6.6394  -6.6201  -6.6056
    -6.5864  -6.5714  -6.5704  -6.5688  -6.5673  -6.5548  -6.5324  -6.5079
    -6.4762  -6.4464  -6.4229  -6.3799  -6.3778  -6.3342  -6.3139  -6.3083
    -6.3075  -6.3073  -6.3071  -6.2841  -6.2438  -6.2423  -6.2326  -6.2260
    -6.2235  -6.2218  -6.2162  -6.2115  -6.1940  -6.1789  -6.1611  -6.1270
    -6.0697  -6.0067  -5.9595  -5.9592  -5.9563  -5.8816  -5.8811  -5.8627
    -5.7864  -5.6886  -5.6631  -5.6321  -5.5884  -5.5830  -5.5149  -5.4322
    -5.3782  -5.3312  -5.2065  -5.0913  -4.0391  -4.0169  -4.0127  -4.0101
    -3.9150  -3.8990  -3.8748  -3.8746  -3.8281  -3.8166  -3.8116  -3.8108
    -3.8033  -3.7980  -3.7532  -3.7395  -3.6953  -3.6840  -3.5961  -3.5892
    -3.5828  -3.5778  -3.5742  -3.5660  -3.5608  -3.5601  -3.5581  -3.5465
    -3.5076  -3.4822  -3.4789  -3.4733  -3.4697  -3.4606  -3.4559  -3.4491
    -3.4479  -3.4393  -3.3987  -3.3944  -3.3717  -3.3604  -3.3381  -3.3366
    -3.3294  -3.3274  -3.3234  -3.3115  -3.2966  -3.2937  -3.2886  -3.2863
    -3.2596  -3.2516  -3.2512  -3.2506  -3.2503  -3.2381  -3.2217  -3.2138
    -3.2048  -3.1979  -3.1869  -3.1842  -3.1764  -3.1669  -3.1614  -3.1556
    -3.1385  -3.1224  -3.1159  -3.1138  -3.0867  -3.0735  -3.0474  -3.0460
    -3.0261  -3.0136  -3.0075  -3.0058  -2.9886  -2.9879  -2.9875  -2.9871
    -2.9527  -2.9488  -2.9384  -2.9376  -2.9247  -2.9234  -2.9151  -2.9064
    -2.8987  -2.8880  -2.8873  -2.8752  -2.8702  -2.8663  -2.8643  -2.8533
    -2.8372  -2.8343  -2.8109  -2.8056  -2.7887  -2.7801  -2.7749  -2.7504
    -2.7255  -2.7028  -2.6929  -2.6717  -2.6536  -2.6306  -2.6256  -2.6253
    -2.6185  -2.6144  -2.5703  -2.5479  -2.5430  -2.4877  -2.4863  -2.4738
    -2.4705  -2.4587  -2.4474  -2.3577  -2.3310  -2.2659  -2.2592  -2.2537

          k =-0.5000-0.8660 0.0000 (321564 PWs)   bands (ev):

   -88.5759 -88.5547 -88.5447 -88.4571 -66.6628 -66.6628 -66.6522 -66.6522
   -66.6373 -66.6373 -66.6373 -66.6373 -66.6329 -66.6329 -66.6267 -66.6267
   -66.6267 -66.6266 -66.6223 -66.6223 -66.5966 -66.5963 -66.5859 -66.5859
   -66.5710 -66.5710 -66.5710 -66.5709 -66.5667 -66.5664 -66.5605 -66.5605
   -66.5602 -66.5601 -66.5560 -66.5559 -66.5137 -66.5092 -66.4969 -66.4938
   -66.4930 -66.4794 -66.4791 -66.4744 -66.4717 -66.4702 -66.4692 -66.4677
   -66.4564 -66.4535 -66.4501 -66.4488 -54.5017 -54.4480 -54.4392 -54.3331
   -54.3091 -54.2982 -54.2844 -54.2743 -54.2672 -54.2647 -54.2485 -54.2292
   -40.9639 -40.9639 -40.9639 -40.9639 -40.9373 -40.9372 -40.9253 -40.9253
   -40.8966 -40.8966 -40.8964 -40.8963 -40.8749 -40.8749 -40.8749 -40.8749
   -40.8700 -40.8697 -40.8579 -40.8578 -40.8170 -40.8170 -40.8116 -40.8076
   -40.8076 -40.8075 -40.8075 -40.8070 -40.8070 -40.8058 -40.7976 -40.7963
   -40.7963 -40.7917 -40.7829 -40.7756 -40.7669 -40.7669 -40.7669 -40.7669
   -40.7582 -40.7582 -40.7582 -40.7513 -40.7511 -40.7496 -40.7460 -40.7460
   -40.7460 -40.7460 -40.7460 -40.7459 -40.7398 -40.7397 -40.7374 -40.7374
   -40.7305 -40.7305 -40.7152 -40.7152 -40.7152 -40.7152 -40.7119 -40.7101
   -40.7089 -40.7038 -40.7012 -40.7012 -40.7012 -40.7011 -40.6926 -40.6923
   -40.6858 -40.6807 -40.6807 -40.6807 -40.6807 -40.6804 -40.6804 -40.6802
   -40.6800 -40.6788 -40.6787 -40.6786 -40.6717 -40.6716 -40.6686 -40.6686
   -40.6651 -40.6535 -40.6495 -40.6494 -40.6481 -40.6481 -40.6479 -40.6479
   -40.6474 -40.6468 -40.6354 -40.6326 -40.6326 -40.6312 -40.6293 -40.6229
   -40.6205 -40.6172 -40.6136 -40.6136 -40.6135 -40.6135 -40.6097 -40.6048
   -40.6034 -40.6021 -40.6021 -40.6016 -40.6014 -40.6014 -40.5940 -40.5882
   -40.5880 -40.5824 -40.5822 -40.5758 -40.5655 -40.5654 -40.5614 -40.5532
   -40.5451 -40.5446 -40.5351 -40.5349 -40.5173 -40.5149 -40.5131 -40.5105
   -40.5098 -40.4963 -40.4898 -40.4762 -40.4621 -40.4583 -40.4403 -40.4295
   -20.2050 -19.8778 -19.8560 -19.8100 -19.7028 -19.6705 -19.4923 -19.4399
   -19.4197 -19.3766 -19.2851 -19.2458 -19.1922 -18.8856 -18.8253 -18.7524
   -18.7267 -18.7235 -18.7191 -18.7162 -18.7089 -18.6590 -18.6322 -18.6065
   -18.5963 -18.5915 -18.5817 -18.5734 -18.5464 -18.5439 -18.5016 -18.4736
   -18.4704 -18.4494 -18.4355 -18.4124 -18.4006 -18.3810 -18.3635 -18.3319
   -18.3095 -18.2981 -18.2500 -18.2317 -18.2230 -18.2101 -18.1801 -18.1679
   -18.1429 -18.1282 -18.1158 -18.1088 -18.1088 -18.1087 -18.1084 -18.0992
   -18.0803 -18.0764 -18.0445 -18.0388 -18.0335 -18.0275 -18.0264 -18.0199
   -18.0181 -17.9950 -17.9849 -17.9740 -17.9618 -17.9595 -17.9344 -17.9281
   -17.9275 -17.9171 -17.9157 -17.8989 -17.8675 -17.8669 -17.8535 -17.8506
   -17.8452 -17.8452 -17.8044 -17.8041 -17.7857 -17.7856 -17.7836 -17.7830
   -17.7696 -17.7691 -17.7602 -17.7441 -17.7251 -17.7243 -17.6639 -17.6620
   -12.0512 -12.0041 -11.9781 -11.7293 -11.6540 -11.6139 -11.5211 -11.5177
   -11.4551 -11.4538 -11.4526 -11.4501 -11.4348 -11.4257 -11.3981 -11.3633
   -11.3605 -11.3586 -11.3496 -11.3442 -11.2977 -11.2931 -11.2722 -11.2692
   -11.2537 -11.2381 -11.2381 -11.2235 -11.1930 -11.1926 -11.1816 -11.1407
   -11.1403 -11.1377 -11.1213 -11.0860 -11.0490 -11.0342 -10.9982 -10.9747
   -10.9611 -10.9463 -10.9404 -10.9065 -10.8971 -10.8925 -10.8918 -10.8820
   -10.8672 -10.8410 -10.8301 -10.8257 -10.8178 -10.8115 -10.8111 -10.8094
   -10.8092 -10.8076 -10.7962 -10.7716 -10.7498 -10.7421 -10.7408 -10.7379
   -10.6872 -10.6213 -10.5797 -10.5356 -10.4824 -10.4641 -10.4396 -10.4040
   -10.3432 -10.2955 -10.2934 -10.2464 -10.1571 -10.1366 -10.1134 -10.0940
   -10.0870 -10.0835 -10.0454 -10.0033  -9.9917  -9.9821  -9.9665  -9.9439
    -9.9282  -9.9138  -9.9127  -9.8955  -9.8911  -9.8903  -9.8790  -9.8692
    -9.8619  -9.8589  -9.8415  -9.7943  -9.7883  -9.7380  -9.7319  -9.7199
    -9.7191  -9.7038  -9.6933  -9.6914  -9.6895  -9.6785  -9.6687  -9.6525
    -9.6483  -9.6040  -9.5986  -9.5871  -9.5693  -9.5334  -9.5329  -9.5224
    -9.5174  -9.5133  -9.4840  -9.4766  -9.4574  -9.4516  -9.4322  -9.3980
    -9.3953  -9.3264  -9.2856  -9.2505  -9.1912  -9.1899  -9.1766  -9.1686
    -9.1523  -9.1394  -9.1255  -9.1202  -9.1033  -9.0964  -9.0860  -9.0721
    -9.0589  -9.0382  -9.0318  -9.0181  -9.0049  -9.0018  -8.9947  -8.9835
    -8.9794  -8.9544  -8.9489  -8.9329  -8.9254  -8.9232  -8.9197  -8.9161
    -8.9136  -8.8914  -8.8701  -8.8620  -8.8607  -8.8398  -8.8372  -8.8292
    -8.8275  -8.8214  -8.8203  -8.8196  -8.8114  -8.8073  -8.7931  -8.7870
    -8.7774  -8.7603  -8.7439  -8.7397  -8.7286  -8.6949  -8.6442  -8.5635
    -8.5272  -8.5073  -8.4929  -8.4928  -8.4494  -8.4224  -8.4206  -8.4038
    -8.4007  -8.3415  -8.2880  -8.2072  -8.1981  -8.1744  -8.1743  -8.1124
    -8.1042  -8.1037  -8.1019  -8.0904  -8.0061  -8.0020  -7.9554  -7.9136
    -7.9105  -7.8832  -7.8800  -7.8503  -7.8392  -7.8390  -7.8359  -7.8322
    -7.8282  -7.8277  -7.8277  -7.8236  -7.8158  -7.7962  -7.7816  -7.7814
    -7.7799  -7.7726  -7.7582  -7.7564  -7.7464  -7.7302  -7.7299  -7.7257
    -7.7173  -7.7142  -7.7078  -7.7026  -7.6998  -7.6875  -7.6817  -7.6782
    -7.6662  -7.6598  -7.6586  -7.6436  -7.6425  -7.6423  -7.6202  -7.6136
    -7.6026  -7.5872  -7.5756  -7.5686  -7.5483  -7.5454  -7.5186  -7.5146
    -7.4971  -7.4808  -7.4272  -7.3940  -7.3632  -7.3268  -7.2985  -7.2800
    -7.2546  -7.2216  -7.2151  -7.2070  -7.1913  -7.1754  -7.1573  -7.1379
    -7.0967  -7.0766  -7.0489  -7.0262  -7.0239  -6.9920  -6.9907  -6.9815
    -6.9773  -6.9634  -6.9236  -6.9086  -6.8965  -6.8836  -6.8630  -6.8407
    -6.8223  -6.8184  -6.8148  -6.7785  -6.7618  -6.7069  -6.6931  -6.6768
    -6.6445  -6.6397  -6.6394  -6.6394  -6.6394  -6.6354  -6.6247  -6.6084
    -6.5912  -6.5816  -6.5707  -6.5691  -6.5670  -6.5666  -6.5307  -6.5109
    -6.4573  -6.4229  -6.4156  -6.4025  -6.3781  -6.3628  -6.3097  -6.3088
    -6.3074  -6.3071  -6.3052  -6.2808  -6.2435  -6.2429  -6.2347  -6.2284
    -6.2233  -6.2228  -6.2205  -6.2181  -6.1919  -6.1912  -6.1709  -6.0381
    -6.0341  -5.9780  -5.9593  -5.9593  -5.9349  -5.9081  -5.8801  -5.8784
    -5.7826  -5.7179  -5.6854  -5.6086  -5.5974  -5.5943  -5.5543  -5.3962
    -5.3913  -5.3318  -5.2215  -5.0981  -4.0327  -4.0183  -4.0067  -4.0047
    -3.9337  -3.8747  -3.8747  -3.8686  -3.8327  -3.8261  -3.8097  -3.8095
    -3.7861  -3.7768  -3.7749  -3.7463  -3.7383  -3.6717  -3.5976  -3.5894
    -3.5848  -3.5767  -3.5732  -3.5693  -3.5606  -3.5602  -3.5464  -3.5408
    -3.5357  -3.4960  -3.4832  -3.4764  -3.4654  -3.4553  -3.4523  -3.4512
    -3.4446  -3.4404  -3.4037  -3.3676  -3.3672  -3.3553  -3.3371  -3.3338
    -3.3276  -3.3265  -3.3207  -3.3000  -3.2956  -3.2919  -3.2903  -3.2794
    -3.2731  -3.2516  -3.2511  -3.2508  -3.2507  -3.2300  -3.2271  -3.2106
    -3.2033  -3.1945  -3.1837  -3.1766  -3.1749  -3.1662  -3.1655  -3.1546
    -3.1453  -3.1189  -3.1096  -3.1067  -3.1029  -3.0751  -3.0475  -3.0452
    -3.0255  -3.0214  -3.0078  -3.0074  -2.9882  -2.9879  -2.9875  -2.9874
    -2.9543  -2.9460  -2.9389  -2.9381  -2.9276  -2.9198  -2.9121  -2.9074
    -2.9032  -2.8894  -2.8876  -2.8852  -2.8676  -2.8659  -2.8570  -2.8560
    -2.8442  -2.8203  -2.8140  -2.8026  -2.7862  -2.7810  -2.7795  -2.7617
    -2.7202  -2.7032  -2.6887  -2.6653  -2.6624  -2.6328  -2.6314  -2.6257
    -2.6165  -2.6136  -2.5846  -2.5503  -2.5429  -2.4994  -2.4876  -2.4725
    -2.4671  -2.4661  -2.4534  -2.3649  -2.3372  -2.2661  -2.2538  -2.2476

     the Fermi energy is    -4.5612 ev

!    total energy              =  -25893.06856188 Ry
     total all-electron energy =   -505733.025419 Ry
     estimated scf accuracy    <       0.00000079 Ry
     smearing contrib. (-TS)   =      -0.00000001 Ry
     internal energy E=F+TS    =  -25893.06856188 Ry

     The total energy is F=E-TS. E is the sum of the following terms:
     one-electron contribution =  516919.55196150 Ry
     hartree contribution      = -258570.61923639 Ry
     xc contribution           =   -1552.08425559 Ry
     ewald contribution        = -266322.38507177 Ry
     DFT-D3 Dispersion         =      -4.09747706 Ry
     one-center paw contrib.   =  -16363.43448256 Ry

     convergence has been achieved in  20 iterations

     negative rho (up, down):  1.060E-03 0.000E+00

     Forces acting on atoms (cartesian axes, Ry/au):

     atom    1 type  1   force =    -0.00361003   -0.00091008   -0.00143382
     atom    2 type  1   force =    -0.00000677   -0.00002086    0.00188262
     atom    3 type  1   force =    -0.00005948    0.00001268   -0.00001459
     atom    4 type  2   force =    -0.00000480   -0.00000439   -0.00318943
     atom    5 type  2   force =    -0.00000136   -0.00001878    0.00006946
     atom    6 type  2   force =    -0.00024303    0.00039952   -0.00027919
     atom    7 type  2   force =     0.00000169   -0.00000665    0.00139094
     atom    8 type  2   force =     0.00000166    0.00002800   -0.00003243
     atom    9 type  2   force =    -0.00057282    0.00079865    0.00076519
     atom   10 type  1   force =     0.00028940    0.00006530   -0.00005150
     atom   11 type  1   force =    -0.00001441   -0.00000686    0.00188292
     atom   12 type  1   force =    -0.00001219   -0.00005167   -0.00003626
     atom   13 type  2   force =    -0.00000527   -0.00000676   -0.00319350
     atom   14 type  2   force =    -0.00002061   -0.00000214    0.00008228
     atom   15 type  2   force =     0.00032904   -0.00033258    0.00023921
     atom   16 type  2   force =     0.00000041   -0.00000215    0.00140242
     atom   17 type  2   force =    -0.00000276   -0.00001106   -0.00003578
     atom   18 type  2   force =     0.00001419   -0.00071060   -0.00031511
     atom   19 type  1   force =     0.00000571   -0.00035730    0.00069088
     atom   20 type  1   force =    -0.00001982    0.00000751    0.00188105
     atom   21 type  1   force =    -0.00004094    0.00001428   -0.00003964
     atom   22 type  2   force =    -0.00000348   -0.00000001   -0.00318945
     atom   23 type  2   force =    -0.00003327    0.00000217    0.00004471
     atom   24 type  2   force =     0.00003629   -0.00004608   -0.00033803
     atom   25 type  2   force =    -0.00000209    0.00000072    0.00139692
     atom   26 type  2   force =    -0.00000673   -0.00000342   -0.00011092
     atom   27 type  2   force =    -0.00010965    0.00008297   -0.00053429
     atom   28 type  1   force =    -0.00112869   -0.00204609   -0.00169958
     atom   29 type  1   force =    -0.00001622   -0.00000509    0.00188116
     atom   30 type  1   force =    -0.00001273   -0.00003390   -0.00000005
     atom   31 type  2   force =    -0.00000072    0.00000113   -0.00318673
     atom   32 type  2   force =    -0.00001272   -0.00000901    0.00006172
     atom   33 type  2   force =     0.00006935    0.00036346   -0.00004929
     atom   34 type  2   force =     0.00000099   -0.00000232    0.00138108
     atom   35 type  2   force =     0.00000147   -0.00002924   -0.00008729
     atom   36 type  2   force =    -0.00004844    0.00025747    0.00063978
     atom   37 type  1   force =    -0.00187357    0.00094903   -0.02715355
     atom   38 type  1   force =    -0.00000152   -0.00001614    0.00188404
     atom   39 type  1   force =     0.00002513    0.00000816   -0.00002104
     atom   40 type  2   force =     0.00000065   -0.00000499   -0.00319044
     atom   41 type  2   force =     0.00004429   -0.00003719    0.00007588
     atom   42 type  2   force =     0.00034836    0.00018975    0.00258560
     atom   43 type  2   force =    -0.00000520   -0.00000787    0.00139423
     atom   44 type  2   force =     0.00002508   -0.00004271   -0.00005395
     atom   45 type  2   force =    -0.02504282   -0.01977601    0.00034730
     atom   46 type  1   force =    -0.00038870    0.00416396   -0.00210818
     atom   47 type  1   force =     0.00000023   -0.00000411    0.00188150
     atom   48 type  1   force =    -0.00004142    0.00002034    0.00003260
     atom   49 type  2   force =    -0.00000089   -0.00000330   -0.00320028
     atom   50 type  2   force =     0.00001797   -0.00000656    0.00009291
     atom   51 type  2   force =    -0.00099047    0.00076726    0.00008809
     atom   52 type  2   force =    -0.00000116   -0.00000029    0.00140677
     atom   53 type  2   force =    -0.00003577   -0.00001224   -0.00002513
     atom   54 type  2   force =    -0.00375947    0.00299677   -0.00599980
     atom   55 type  1   force =    -0.00014428    0.00022511    0.00009261
     atom   56 type  1   force =     0.00000054    0.00001576    0.00188804
     atom   57 type  1   force =     0.00002556    0.00004686   -0.00005946
     atom   58 type  2   force =    -0.00000397   -0.00000004   -0.00320057
     atom   59 type  2   force =    -0.00000391    0.00002397    0.00005387
     atom   60 type  2   force =     0.00018468   -0.00022557    0.00014463
     atom   61 type  2   force =     0.00000074   -0.00000069    0.00141258
     atom   62 type  2   force =    -0.00002031    0.00002441   -0.00008993
     atom   63 type  2   force =     0.00088460    0.00019698   -0.00048274
     atom   64 type  1   force =     0.00078610   -0.00276623   -0.00205336
     atom   65 type  1   force =    -0.00000608    0.00000501    0.00188756
     atom   66 type  1   force =     0.00003218   -0.00005192   -0.00000695
     atom   67 type  2   force =    -0.00000327    0.00000397   -0.00319259
     atom   68 type  2   force =     0.00004071    0.00003739    0.00004636
     atom   69 type  2   force =     0.00008822   -0.00069907   -0.00106045
     atom   70 type  2   force =    -0.00000688   -0.00000378    0.00139326
     atom   71 type  2   force =    -0.00001851   -0.00002776   -0.00009201
     atom   72 type  2   force =     0.00006220    0.00071948   -0.00106378
     atom   73 type  1   force =     0.00292715    0.00079031   -0.00198241
     atom   74 type  1   force =     0.00000807    0.00000239    0.00189457
     atom   75 type  1   force =     0.00000136    0.00001586   -0.00003715
     atom   76 type  2   force =     0.00000109   -0.00000009   -0.00319505
     atom   77 type  2   force =     0.00000159   -0.00004482    0.00012746
     atom   78 type  2   force =    -0.00034682    0.00028495    0.00291615
     atom   79 type  2   force =    -0.00000226   -0.00000586    0.00141085
     atom   80 type  2   force =    -0.00001103    0.00002838   -0.00003753
     atom   81 type  2   force =     0.02434810   -0.01400413    0.01196987
     atom   82 type  1   force =     0.00115143    0.00205158   -0.00165989
     atom   83 type  1   force =     0.00001676    0.00000548    0.00189166
     atom   84 type  1   force =    -0.00000860   -0.00001764   -0.00000131
     atom   85 type  2   force =     0.00000387   -0.00000459   -0.00320101
     atom   86 type  2   force =     0.00002296    0.00002096    0.00006677
     atom   87 type  2   force =    -0.00064021   -0.00035178    0.00303796
     atom   88 type  2   force =    -0.00000211    0.00000301    0.00140765
     atom   89 type  2   force =     0.00005178    0.00001664   -0.00006158
     atom   90 type  2   force =     0.00455267    0.03150694    0.00088668
     atom   91 type  1   force =     0.00015819   -0.00124936    0.00094320
     atom   92 type  1   force =     0.00001554    0.00002062    0.00188234
     atom   93 type  1   force =    -0.00003050    0.00003887   -0.00002064
     atom   94 type  2   force =     0.00000327    0.00000039   -0.00319979
     atom   95 type  2   force =     0.00002987    0.00000229    0.00005039
     atom   96 type  2   force =    -0.00047823   -0.00066357    0.00008258
     atom   97 type  2   force =    -0.00000115    0.00000138    0.00141174
     atom   98 type  2   force =     0.00000904   -0.00000107   -0.00006362
     atom   99 type  2   force =    -0.00136090   -0.00001664    0.00126735
     atom  100 type  1   force =    -0.00041734    0.00038281   -0.00017405
     atom  101 type  1   force =     0.00000800    0.00000646    0.00188434
     atom  102 type  1   force =    -0.00001209   -0.00005168    0.00003809
     atom  103 type  2   force =     0.00000189    0.00000648   -0.00319279
     atom  104 type  2   force =    -0.00004754    0.00003793    0.00005160
     atom  105 type  2   force =    -0.00016821   -0.00004917   -0.00003383
     atom  106 type  2   force =     0.00000228   -0.00000247    0.00140603
     atom  107 type  2   force =     0.00001580   -0.00001139   -0.00008469
     atom  108 type  2   force =     0.00008701   -0.00030429    0.00008757
     atom  109 type  1   force =    -0.00041632   -0.00020247    0.00015964
     atom  110 type  1   force =     0.00000416   -0.00000666    0.00188595
     atom  111 type  1   force =     0.00002763    0.00004438   -0.00001283
     atom  112 type  2   force =     0.00000008   -0.00000083   -0.00319392
     atom  113 type  2   force =    -0.00005144   -0.00003048    0.00006698
     atom  114 type  2   force =    -0.00003350    0.00025461   -0.00015699
     atom  115 type  2   force =     0.00000193   -0.00000422    0.00140787
     atom  116 type  2   force =    -0.00002446   -0.00001898   -0.00008833
     atom  117 type  2   force =    -0.00000018   -0.00003354    0.00070083
     atom  118 type  1   force =     0.00035751    0.00032340    0.00061901
     atom  119 type  1   force =    -0.00000433    0.00000247    0.00188743
     atom  120 type  1   force =     0.00004482    0.00000097    0.00000217
     atom  121 type  2   force =     0.00000100   -0.00000190   -0.00319190
     atom  122 type  2   force =    -0.00002511    0.00001680    0.00005724
     atom  123 type  2   force =     0.00072396    0.00052143   -0.00108917
     atom  124 type  2   force =     0.00000193    0.00000439    0.00140492
     atom  125 type  2   force =    -0.00001339    0.00001826   -0.00009740
     atom  126 type  2   force =    -0.00077666    0.00007181   -0.00122773
     atom  127 type  1   force =    -0.00003690    0.00014101    0.00032065
     atom  128 type  1   force =     0.00000387    0.00001553    0.00188331
     atom  129 type  1   force =     0.00003791    0.00002138   -0.00000484
     atom  130 type  2   force =     0.00000598    0.00000145   -0.00319423
     atom  131 type  2   force =    -0.00000084   -0.00000656    0.00006285
     atom  132 type  2   force =    -0.00005968   -0.00015586   -0.00027959
     atom  133 type  2   force =     0.00000117    0.00000160    0.00140080
     atom  134 type  2   force =     0.00001202    0.00000941   -0.00008702
     atom  135 type  2   force =    -0.00027978   -0.00008633    0.00029182
     atom  136 type  1   force =     0.00125798    0.00040714    0.00085970
     atom  137 type  1   force =     0.00000720   -0.00000107    0.00187972
     atom  138 type  1   force =    -0.00002554   -0.00000884   -0.00005548
     atom  139 type  2   force =     0.00000054    0.00000456   -0.00319097
     atom  140 type  2   force =     0.00000729   -0.00001278    0.00005986
     atom  141 type  2   force =     0.00004903    0.00006257   -0.00010253
     atom  142 type  2   force =     0.00000306   -0.00000315    0.00139206
     atom  143 type  2   force =    -0.00000147   -0.00001753   -0.00009829
     atom  144 type  2   force =    -0.00007353   -0.00016786   -0.00008026
     atom  145 type  3   force =     0.00714124   -0.00205084    0.00465083
     atom  146 type  3   force =     0.00100614   -0.00081673   -0.00013158
     atom  147 type  3   force =     0.00511407   -0.00598738    0.00423656
     atom  148 type  3   force =    -0.00885833    0.00512109    0.01011387
     The non-local contrib.  to forces
     atom    1 type  1   force =     0.00837375   -0.00257987   -0.00267934
     atom    2 type  1   force =    -0.00001229   -0.00001841   -0.00195464
     atom    3 type  1   force =    -0.00012417   -0.00012015   -0.00080183
     atom    4 type  2   force =    -0.00000281   -0.00000352    0.26311805
     atom    5 type  2   force =    -0.00000029   -0.00011903    0.26631042
     atom    6 type  2   force =    -0.00036209    0.00036896    0.26489601
     atom    7 type  2   force =    -0.00000306   -0.00000645   -0.26453663
     atom    8 type  2   force =     0.00004628    0.00010999   -0.26428157
     atom    9 type  2   force =     0.09385272    0.05280271   -0.18240841
     atom   10 type  1   force =     0.00149741   -0.00079490   -0.01073728
     atom   11 type  1   force =    -0.00001391   -0.00000659   -0.00195812
     atom   12 type  1   force =    -0.00016847    0.00004814   -0.00076159
     atom   13 type  2   force =    -0.00000067   -0.00000228    0.26311127
     atom   14 type  2   force =    -0.00009426   -0.00004787    0.26630355
     atom   15 type  2   force =     0.00088126   -0.00001351    0.26605001
[...]
     atom   68 type  2   force =    -0.00000089   -0.00000099   -0.00005023
     atom   69 type  2   force =    -0.00003473    0.00002881   -0.00004617
     atom   70 type  2   force =    -0.00000009   -0.00000015    0.00024005
     atom   71 type  2   force =    -0.00000337   -0.00001172    0.00010977
     atom   72 type  2   force =    -0.00005496    0.00050936   -0.00400468
     atom   73 type  1   force =    -0.00034465    0.00009299   -0.00205016
     atom   74 type  1   force =     0.00000010   -0.00000004    0.00260847
     atom   75 type  1   force =     0.00000867   -0.00000498   -0.00003928
     atom   76 type  2   force =     0.00000003   -0.00000004    0.00441002
     atom   77 type  2   force =     0.00000052   -0.00000029   -0.00005133
     atom   78 type  2   force =    -0.00006561    0.00003780    0.00018918
     atom   79 type  2   force =     0.00000008   -0.00000025    0.00024022
     atom   80 type  2   force =     0.00000533   -0.00000329    0.00012694
     atom   81 type  2   force =    -0.00058031    0.00033497   -0.00422899
     atom   82 type  1   force =    -0.00061998   -0.00033689   -0.00170988
     atom   83 type  1   force =     0.00000023   -0.00000010    0.00260801
     atom   84 type  1   force =     0.00001149    0.00001062   -0.00004843
     atom   85 type  2   force =     0.00000003   -0.00000002    0.00440967
     atom   86 type  2   force =     0.00000114    0.00000123   -0.00005411
     atom   87 type  2   force =    -0.00017051   -0.00003277    0.00056367
     atom   88 type  2   force =     0.00000027   -0.00000018    0.00024017
     atom   89 type  2   force =     0.00002157    0.00001190    0.00010416
     atom   90 type  2   force =    -0.00090022   -0.00035724   -0.00394511
     atom   91 type  1   force =    -0.00028780   -0.00046134   -0.00200581
     atom   92 type  1   force =     0.00000001    0.00000011    0.00260792
     atom   93 type  1   force =     0.00000630    0.00001601   -0.00002750
     atom   94 type  2   force =     0.00000001    0.00000003    0.00440956
     atom   95 type  2   force =     0.00000104    0.00000133   -0.00005162
     atom   96 type  2   force =    -0.00003137   -0.00015152    0.00027204
     atom   97 type  2   force =    -0.00000007    0.00000014    0.00024019
     atom   98 type  2   force =     0.00002082    0.00002240    0.00011084
     atom   99 type  2   force =    -0.00045720   -0.00096650   -0.00393398
     atom  100 type  1   force =    -0.00000347    0.00000284   -0.00234298
     atom  101 type  1   force =    -0.00000018    0.00000016    0.00260826
     atom  102 type  1   force =     0.00000534   -0.00000393   -0.00001889
     atom  103 type  2   force =     0.00000000    0.00000007    0.00440993
     atom  104 type  2   force =     0.00000058   -0.00000036   -0.00004899
     atom  105 type  2   force =     0.00001242   -0.00000420   -0.00009483
     atom  106 type  2   force =    -0.00000034    0.00000004    0.00024014
     atom  107 type  2   force =     0.00001277    0.00000694    0.00011773
     atom  108 type  2   force =    -0.00017121   -0.00032266   -0.00415428
     atom  109 type  1   force =     0.00064560    0.00034716   -0.00170680
     atom  110 type  1   force =    -0.00000023    0.00000009    0.00260826
     atom  111 type  1   force =     0.00000594   -0.00000272   -0.00001904
     atom  112 type  2   force =    -0.00000002    0.00000001    0.00441014
     atom  113 type  2   force =     0.00000062   -0.00000032   -0.00004904
     atom  114 type  2   force =     0.00001035   -0.00000839   -0.00009397
     atom  115 type  2   force =    -0.00000017    0.00000007    0.00024030
     atom  116 type  2   force =     0.00000035   -0.00001475    0.00011783
     atom  117 type  2   force =     0.00019556    0.00031048   -0.00415352
     atom  118 type  1   force =     0.00036118   -0.00010158   -0.00202376
     atom  119 type  1   force =     0.00000007   -0.00000004    0.00260848
     atom  120 type  1   force =     0.00000676    0.00000820   -0.00001722
     atom  121 type  2   force =     0.00000005    0.00000000    0.00441003
     atom  122 type  2   force =     0.00000041    0.00000144   -0.00005027
     atom  123 type  2   force =    -0.00004179    0.00001545   -0.00004640
     atom  124 type  2   force =     0.00000024    0.00000002    0.00024020
     atom  125 type  2   force =     0.00000808    0.00000884    0.00010972
     atom  126 type  2   force =    -0.00046743   -0.00020724   -0.00400506
     atom  127 type  1   force =    -0.00001505    0.00000960   -0.00233710
     atom  128 type  1   force =     0.00000018   -0.00000007    0.00260827
     atom  129 type  1   force =     0.00000566    0.00001058    0.00000033
     atom  130 type  2   force =     0.00000005    0.00000003    0.00440989
     atom  131 type  2   force =     0.00000102    0.00000057   -0.00004751
     atom  132 type  2   force =    -0.00001264   -0.00001716   -0.00007466
     atom  133 type  2   force =     0.00000040    0.00000011    0.00023997
     atom  134 type  2   force =     0.00000658    0.00001776    0.00012164
     atom  135 type  2   force =    -0.00058502   -0.00053915   -0.00404501
     atom  136 type  1   force =     0.00025578    0.00048087   -0.00200579
     atom  137 type  1   force =    -0.00000008    0.00000004    0.00260804
     atom  138 type  1   force =     0.00000453   -0.00000276    0.00000114
     atom  139 type  2   force =     0.00000004    0.00000000    0.00440997
     atom  140 type  2   force =     0.00000052   -0.00000030   -0.00004630
     atom  141 type  2   force =     0.00001749   -0.00000960   -0.00012584
     atom  142 type  2   force =     0.00000005   -0.00000001    0.00024010
     atom  143 type  2   force =     0.00000058   -0.00000064    0.00012259
     atom  144 type  2   force =     0.00005609   -0.00003046   -0.00422738
     atom  145 type  3   force =    -0.00015168   -0.00028457   -0.00628875
     atom  146 type  3   force =     0.00055988   -0.00032351   -0.00628647
     atom  147 type  3   force =     0.00017132    0.00027347   -0.00628873
     atom  148 type  3   force =    -0.00057126    0.00032924   -0.00628431

     Total force =     0.002857     Total SCF correction =     0.000391
     SCF correction compared to forces is large: reduce conv_thr to get better values
     Energy error            =      1.6E-05 Ry
     Gradient error          =      7.3E-04 Ry/Bohr

     bfgs converged in  24 scf cycles and  23 bfgs steps
     (criteria: energy <  1.0E-04 Ry, force <  1.0E-03 Ry/Bohr)

     End of BFGS Geometry Optimization

     Final energy             =  -25893.0802689228 Ry

     File ./outdir/pwscf.bfgs deleted, as requested
Begin final coordinates

ATOMIC_POSITIONS (angstrom)
Mo            1.5606138376        2.6875600259        6.0697839842
Mo            1.5769197498        0.9104407117       -6.0872367793    0   0   0
Mo           -0.0001880429        1.8207905773       -0.0025194841
S             0.0000044503        0.0000077495       -7.6506323570    0   0   0
S             1.5770344174        0.9105515041       -1.5676508692
S            -0.0163000764        1.8126559681        4.5073651936
S             0.0000053241        0.0000068460       -4.5222282367    0   0   0
S             1.5768022825        0.9104616741        1.5651252881
S            -0.0493627836        1.7843239172        7.6786477710
Mo           -0.0207507577        5.4735299211        6.0830386321
Mo            0.0000011799        3.6417399547       -6.0872367793    0   0   0
Mo           -1.5767354115        4.5517103719       -0.0032990431
S            -1.5769141197        2.7313069925       -7.6506323570    0   0   0
S             0.0004551226        3.6413639381       -1.5680976342
S            -1.5770916396        4.5468197059        4.5198341109
S            -1.5769132459        2.7313060890       -4.5222282367    0   0   0
S            -0.0001684412        3.6416518913        1.5649303308
S            -1.6298312519        4.5275657569        7.6769293383
Mo           -1.5766517666        8.1986208593        6.0699565984
Mo           -1.5769173901        6.3730391977       -6.0872367793    0   0   0
Mo           -3.1539124120        7.2830975680       -0.0033305052
S            -3.1538326896        5.4626062355       -7.6506323570    0   0   0
S            -1.5769305483        6.3726434566       -1.5686393923
S            -3.1468163001        7.2785534196        4.4947993488
S            -3.1538318159        5.4626053320       -4.5222282367    0   0   0
S            -1.5767427173        6.3724958100        1.5638401863
S            -3.1579083924        7.2851629581        7.6276582228
Mo            3.1555743707       -0.0362054123        6.0604930865
Mo           -3.1538359601        9.1043384407       -6.0872367793    0   0   0
Mo           -4.7309312173       10.0146425492       -0.0028264907
S            -4.7307512596        8.1939054785       -7.6506323570    0   0   0
S            -3.1540643751        9.1042460044       -1.5684947316
S            -4.7367069605       10.0110114998        4.4852723484
S            -4.7307503859        8.1939045750       -4.5222282367    0   0   0
S            -3.1538340141        9.1038075274        1.5637220352
S            -4.7390973000        9.9948053953        7.6275460197
Mo            4.7372685616        2.7267254841        6.1273587933
Mo            4.7307503218        0.9104407117       -6.0872367793    0   0   0
Mo            3.1538749219        1.8207178181       -0.0019168903
S             3.1538350223        0.0000077495       -7.6506323570    0   0   0
S             4.7302418334        0.9102681158       -1.5680454498
S             3.1750559387        1.8157464951        4.5415454832
S             3.1538358961        0.0000068460       -4.5222282367    0   0   0
S             4.7311560084        0.9097946542        1.5645689852
S             3.1071443535        1.7107446314        7.6800424983
Mo            3.1826461209        5.4969794535        6.0684019294
Mo            3.1538317519        3.6417399547       -6.0872367793    0   0   0
Mo            1.5769623977        4.5517068632       -0.0021595249
S             1.5769164523        2.7313069925       -7.6506323570    0   0   0
S             3.1538122845        3.6413233596       -1.5673399724
S             1.5780437430        4.5497737835        4.5432581616
S             1.5769173261        2.7313060890       -4.5222282367    0   0   0
S             3.1535956458        3.6414716704        1.5660040993
S             1.6011387202        4.5378847657        7.5865944724
Mo            1.5794589681        8.2086245504        6.0840459991
Mo            1.5769131819        6.3730391977       -6.0872367793    0   0   0
Mo            0.0001259979        7.2828816848       -0.0032646325
S            -0.0000021176        5.4626062355       -7.6506323570    0   0   0
S             1.5770888651        6.3721885543       -1.5680714678
S             0.0041232546        7.2846583702        4.5197465713
S            -0.0000012439        5.4626053320       -4.5222282367    0   0   0
S             1.5765583421        6.3725221782        1.5649742388
S            -0.0059629047        7.3397621067        7.6770151164
Mo            6.3089386562       -0.0055027946        6.0917934450
Mo           -0.0000053881        9.1043384407       -6.0872367793    0   0   0
Mo           -1.5769014463       10.0143203241       -0.0030960539
S            -1.5769206876        8.1939054785       -7.6506323570    0   0   0
S            -0.0002263131        9.1038174718       -1.5687551273
S            -1.5618329929       10.0092229270        4.4982465124
S            -1.5769198139        8.1939045750       -4.5222282367    0   0   0
S             0.0000557102        9.1033297081        1.5635290280
S            -1.5816319850       10.0048009260        7.6468816996
Mo            7.8891381513        2.7316853088        6.0917689765
Mo            7.8845808939        0.9104407117       -6.0872367793    0   0   0
Mo            6.3074306144        1.8205755929       -0.0029977000
S             6.3076655943        0.0000077495       -7.6506323570    0   0   0
S             7.8841468804        0.9102619975       -1.5685389095
S             6.2923243877        1.8288463946        4.5522940077
S             6.3076664681        0.0000068460       -4.5222282367    0   0   0
S             7.8839576585        0.9103085910        1.5645012219
S             6.3643142089        1.7873669710        7.7153437643
Mo            6.3388475270        5.4779239426        6.0608945031
Mo            6.3076623239        3.6417399547       -6.0872367793    0   0   0
Mo            4.7305492787        4.5515687227       -0.0019504945
S             4.7307470244        2.7313069925       -7.6506323570    0   0   0
S             6.3071883094        3.6416055187       -1.5681010516
S             4.7456093661        4.5347643955        4.5409957213
S             4.7307478981        2.7313060890       -4.5222282367    0   0   0
S             6.3080948386        3.6410703985        1.5645099923
S             4.8003215179        4.6467983144        7.6796460819
Mo            4.7327698492        8.2040029425        6.0674419119
Mo            4.7307437539        6.3730391977       -6.0872367793    0   0   0
Mo            3.1534350263        7.2830141795       -0.0025194563
S             3.1538284544        5.4626062355       -7.6506323570    0   0   0
S             4.7303263629        6.3722433495       -1.5676805557
S             3.1519581752        7.3006489937        4.5066263405
S             3.1538293281        5.4626053320       -4.5222282367    0   0   0
S             4.7303027183        6.3724597636        1.5651125606
S             3.1601258934        7.3409382664        7.6780117840
Mo            9.4582957144        0.0009419566        6.0764490844
Mo            3.1538251839        9.1043384407       -6.0872367793    0   0   0
Mo            1.5764982273       10.0144976260       -0.0033159470
S             1.5769098844        8.1939054785       -7.6506323570    0   0   0
S             3.1533847799        9.1036691088       -1.5685908838
S             1.5697748018       10.0204069084        4.5127516393
S             1.5769107581        8.1939045750       -4.5222282367    0   0   0
S             3.1533315538        9.1044775599        1.5635394904
S             1.5833382817       10.0201697298        7.6564480163
Mo           -1.5896225360        2.7203833980        6.0839212914
Mo           11.0384114659        0.9104407117       -6.0872367793    0   0   0
Mo            9.4611255146        1.8206944922       -0.0032753842
S             9.4614961663        0.0000077495       -7.6506323570    0   0   0
S            11.0383638167        0.9105203547       -1.5685575515
S             9.4520912707        1.8228669005        4.5124843827
S             9.4614970401        0.0000068460       -4.5222282367    0   0   0
S            11.0376756337        0.9101167804        1.5635749490
S             9.4590108437        1.8112816129        7.6564187105
Mo           -3.1588286605        5.4588560371        6.0702144663
Mo            9.4614928959        3.6417399547       -6.0872367793    0   0   0
Mo            7.8846067438        4.5517410428       -0.0031705334
S             7.8845775964        2.7313069925       -7.6506323570    0   0   0
S             9.4614650530        3.6414894863       -1.5687717237
S             7.8958360004        4.5408611412        4.4986162786
S             7.8845784701        2.7313060890       -4.5222282367    0   0   0
S             9.4619707910        3.6415646285        1.5635130362
S             7.8897649320        4.5598777276        7.6471862501
Mo           -4.7306013411        8.1931116713        6.0517400872
Mo            7.8845743259        6.3730391977       -6.0872367793    0   0   0
Mo            6.3073002075        7.2830389034       -0.0028637540
S             6.3076590264        5.4626062355       -7.6506323570    0   0   0
S             7.8841918360        6.3726914908       -1.5685425025
S             6.3074031022        7.2891342284        4.4855261243
S             6.3076599001        5.4626053320       -4.5222282367    0   0   0
S             7.8846401473        6.3726372885        1.5636655722
S             6.3202161377        7.2997132438        7.6277316957
Mo           -0.0087325135       -0.0084205064        6.0675250310
Mo            6.3076557559        9.1043384407       -6.0872367793    0   0   0
Mo            4.7303451456       10.0145556018       -0.0036900140
S             4.7307404564        8.1939054785       -7.6506323570    0   0   0
S             6.3076266307        9.1039412683       -1.5685502571
S             4.7226723604       10.0183993536        4.4999271592
S             4.7307413301        8.1939045750       -4.5222282367    0   0   0
S             6.3070287985        9.1042287223        1.5632581715
S             4.7304487117       10.0136777814        7.6419317978
Pd            3.0496479536        5.3667339658        9.1800097798
Pd            0.1461803260        5.3755062967        9.1092154984
Pd            1.6036734069        2.8630185924        9.1749168367
Pd            4.6086749344        2.8014232114        9.0596738391
End final coordinates



     Writing all to output data dir ./outdir/pwscf.save/
 
     init_run     :    105.34s CPU    107.86s WALL (       1 calls)
     electrons    : 106111.68s CPU 107476.50s WALL (      24 calls)
     update_pot   :     98.24s CPU     98.58s WALL (      23 calls)
     forces       :   1656.90s CPU   1706.78s WALL (      24 calls)
     force_dftd3  :     11.20s CPU     11.22s WALL (      24 calls)

     Called by init_run:
     wfcinit      :     86.45s CPU     87.75s WALL (       1 calls)
     potinit      :      1.80s CPU      1.90s WALL (       1 calls)
     hinit0       :     11.66s CPU     11.67s WALL (       1 calls)

     Called by electrons:
     c_bands      :  94780.94s CPU  95475.78s WALL (     284 calls)
     sum_band     :  10402.58s CPU  10788.33s WALL (     284 calls)
     v_of_rho     :    118.17s CPU    120.32s WALL (     284 calls)
     newd         :    607.50s CPU    905.97s WALL (     284 calls)
     PAW_pot      :    168.20s CPU    168.19s WALL (     307 calls)
     mix_rho      :     27.24s CPU     27.30s WALL (     284 calls)
     energy_dftd3 :      5.08s CPU      5.07s WALL (      24 calls)

     Called by c_bands:
     init_us_2    :    479.54s CPU    479.90s WALL (    2464 calls)
     init_us_2:cp :    479.52s CPU    479.90s WALL (    2464 calls)
     cegterg      :  93241.65s CPU  93924.74s WALL (    1153 calls)

     Called by *egterg:
     cdiaghg      :   5944.40s CPU   5963.84s WALL (   13863 calls)
     h_psi        :  49512.10s CPU  49724.38s WALL (   14055 calls)
     s_psi        :  10092.14s CPU  10132.00s WALL (   14055 calls)
     g_psi        :    118.92s CPU    118.95s WALL (   12898 calls)

     Called by h_psi:
     h_psi:calbec :  10043.35s CPU  10045.64s WALL (   14055 calls)
     vloc_psi     :  29137.90s CPU  29204.28s WALL (   14055 calls)
     add_vuspsi   :  10192.96s CPU  10236.34s WALL (   14055 calls)

     General routines
     calbec       :  14260.01s CPU  14263.18s WALL (   15667 calls)
     fft          :    109.10s CPU    111.80s WALL (    3955 calls)
     ffts         :      5.19s CPU      5.27s WALL (     568 calls)
     fftw         :  22952.31s CPU  23008.39s WALL ( 6524934 calls)
     interpolate  :     11.78s CPU     11.88s WALL (     284 calls)
 
     Parallel routines
 
     PWSCF        :   1d 6h 8m CPU   1d 6h33m WALL

 
   This run was terminated on:  18:48:24  10Dec2023            

=------------------------------------------------------------------------------=
   JOB DONE.
=------------------------------------------------------------------------------=
Application 11448807 resources: utime ~3907258s, stime ~52116s, Rss ~2362492, inblocks ~0, outblocks ~40307160
