
     Program PWSCF v.7.3 starts on  3May2024 at 10:39:46 

     This program is part of the open-source Quantum ESPRESSO suite
     for quantum simulation of materials; please cite
         "P. Giannozzi et al., J. Phys.:Condens. Matter 21 395502 (2009);
         "P. Giannozzi et al., J. Phys.:Condens. Matter 29 465901 (2017);
         "P. Giannozzi et al., J. Chem. Phys. 152 154105 (2020);
          URL http://www.quantum-espresso.org", 
     in publications or presentations arising from this work. More details at
     http://www.quantum-espresso.org/quote

     Parallel version (MPI & OpenMP), running on      36 processor cores
     Number of MPI processes:                36
     Threads/MPI process:                     1

     MPI processes distributed on     1 nodes
     548716 MiB available memory on the printing compute node when the environment starts
 
     Waiting for input...
     Reading input from standard input
Warning: card &CELL ignored
Warning: card / ignored

     Current dimensions of program PWSCF are:
     Max number of different atomic species (ntypx) = 10
     Max number of k-points (npk) =  40000
     Max angular momentum in pseudopotentials (lmaxx) =  4
     file Mo.pbe-spn-kjpaw_psl.1.0.0.UPF: wavefunction(s)  4S 4D renormalized
     file S.pbe-n-kjpaw_psl.1.0.0.UPF: wavefunction(s)  3S 3P renormalized
     file Pt.pbe-spfn-kjpaw_psl.1.0.0.UPF: wavefunction(s)  5P 4F renormalized
     file Pd.pbe-spn-kjpaw_psl.1.0.0.UPF: wavefunction(s)  4S 5S 4D renormalized
 
     R & G space division:  proc/nbgrp/npool/nimage =      36
     Subspace diagonalization in iterative solution of the eigenvalue problem:
     one sub-group per band group will be used
     scalapack distributed-memory algorithm (size of sub-group:  6*  6 procs)

 
     Parallelization info
     --------------------
     sticks:   dense  smooth     PW     G-vecs:    dense   smooth      PW
     Min         585     334     89               198743    85850   11735
     Max         586     335     90               198750    85861   11748
     Sum       21073   12049   3205              7154885  3090769  422587
 
     Using Slab Decomposition
 


     bravais-lattice index     =            0
     lattice parameter (alat)  =      23.8199  a.u.
     unit-cell volume          =   33861.0370 (a.u.)^3
     number of atoms/cell      =          195
     number of atomic types    =            4
     number of electrons       =      1732.00
     number of Kohn-Sham states=         1039
     kinetic-energy cutoff     =      77.0000  Ry
     charge density cutoff     =     539.0000  Ry
     scf convergence threshold =      1.0E-06
     mixing beta               =       0.2000
     number of iterations used =            8  plain     mixing
     energy convergence thresh.=      1.0E-04
     force convergence thresh. =      1.0E-03
     Exchange-correlation= SLA  PW   PBX  PBC
                           (   1   4   3   4   0   0   0)
     nstep                     =         1000


     Effective Screening Medium Method
     =================================
     Boundary Conditions: Vacuum-Slab-Vacuum
     total charge in unit cell        =   0.0000
     grid points for fit at edges     =        4 
 

     celldm(1)=  23.819920  celldm(2)=   0.000000  celldm(3)=   0.000000
     celldm(4)=   0.000000  celldm(5)=   0.000000  celldm(6)=   0.000000

     crystal axes: (cart. coord. in units of alat)
               a(1) = (   1.000000   0.000000   0.000000 )  
               a(2) = (  -0.499999   0.866026   0.000000 )  
               a(3) = (   0.000000   0.000000   2.893000 )  

     reciprocal axes: (cart. coord. in units 2 pi/alat)
               b(1) = (  1.000000  0.577349  0.000000 )  
               b(2) = (  0.000000  1.154700  0.000000 )  
               b(3) = (  0.000000  0.000000  0.345662 )  


     PseudoPot. # 1 for Mo read from file:
     ./pseudo/Mo.pbe-spn-kjpaw_psl.1.0.0.UPF
     MD5 check sum: 317bf72632116215fd98f72de1686f13
     Pseudo is Projector augmented-wave + core cor, Zval = 14.0
     Generated using 'atomic' code by A. Dal Corso  v.7.2
     Shape of augmentation charge: PSQ
     Using radial grid of 1229 points,  6 beta functions with: 
                l(1) =   0
                l(2) =   0
                l(3) =   1
                l(4) =   1
                l(5) =   2
                l(6) =   2
     Q(r) pseudized with 0 coefficients 


     PseudoPot. # 2 for S  read from file:
     ./pseudo/S.pbe-n-kjpaw_psl.1.0.0.UPF
     MD5 check sum: 8b7b5302570d38d5e87fed6a1065abda
     Pseudo is Projector augmented-wave + core cor, Zval =  6.0
     Generated using 'atomic' code by A. Dal Corso  v.7.2
     Shape of augmentation charge: PSQ
     Using radial grid of 1151 points,  6 beta functions with: 
                l(1) =   0
                l(2) =   0
                l(3) =   1
                l(4) =   1
                l(5) =   2
                l(6) =   2
     Q(r) pseudized with 0 coefficients 


     PseudoPot. # 3 for Pt read from file:
     ./pseudo/Pt.pbe-spfn-kjpaw_psl.1.0.0.UPF
     MD5 check sum: 620096ebf4e6ebacc94de60fd67efcb5
     Pseudo is Projector augmented-wave + core cor, Zval = 32.0
     Generated using 'atomic' code by A. Dal Corso  v.7.2
     Shape of augmentation charge: PSQ
     Using radial grid of 1277 points,  8 beta functions with: 
                l(1) =   0
                l(2) =   0
                l(3) =   1
                l(4) =   1
                l(5) =   2
                l(6) =   2
                l(7) =   3
                l(8) =   3
     Q(r) pseudized with 0 coefficients 


     PseudoPot. # 4 for Pd read from file:
     ./pseudo/Pd.pbe-spn-kjpaw_psl.1.0.0.UPF
     MD5 check sum: a60571a671f2502b8a6a4569d20a6edb
     Pseudo is Projector augmented-wave + core cor, Zval = 18.0
     Generated using 'atomic' code by A. Dal Corso  v.7.2
     Shape of augmentation charge: PSQ
     Using radial grid of 1235 points,  6 beta functions with: 
                l(1) =   0
                l(2) =   0
                l(3) =   1
                l(4) =   1
                l(5) =   2
                l(6) =   2
     Q(r) pseudized with 0 coefficients 


     atomic species   valence    mass     pseudopotential
     Mo               14.00    95.95000     Mo( 1.00)
     S                 6.00    32.06000     S ( 1.00)
     Pt               32.00   195.08400     Pt( 1.00)
     Pd               18.00   106.42000     Pd( 1.00)

     No symmetry found



   Cartesian axes

     site n.     atom                  positions (alat units)
         1        Mo     tau(   1) = (   0.0000010   0.1443372  -0.7272732  )
         2        Mo     tau(   2) = (   0.1249995   0.0721706  -0.2424038  )
         3        S      tau(   3) = (   0.0000015   0.1443386  -0.3667807  )
         4        S      tau(   4) = (   0.1250010   0.0721682  -0.6030489  )
         5        S      tau(   5) = (   0.1250010   0.0721683  -0.8514963  )
         6        S      tau(   6) = (   0.0000015   0.1443389  -0.1180260  )
         7        Mo     tau(   7) = (   0.0000005   0.1443381   0.2424561  )
         8        Mo     tau(   8) = (   0.1251981   0.0716023   0.7276027  )
         9        S      tau(   9) = (  -0.0003031   0.1454842   0.6052312  )
        10        S      tau(  10) = (   0.1249558   0.0721599   0.3668208  )
        11        S      tau(  11) = (   0.1250088   0.0721517   0.1180857  )
        12        S      tau(  12) = (  -0.0004157   0.1382876   0.8564685  )
        13        Mo     tau(  13) = (  -0.1249989   0.3608437  -0.7272732  )
        14        Mo     tau(  14) = (   0.0000030   0.2886752  -0.2424042  )
        15        S      tau(  15) = (  -0.1249977   0.3608450  -0.3667802  )
        16        S      tau(  16) = (   0.0000012   0.2886747  -0.6030489  )
        17        S      tau(  17) = (   0.0000012   0.2886748  -0.8514963  )
        18        S      tau(  18) = (  -0.1249977   0.3608454  -0.1180274  )
        19        Mo     tau(  19) = (  -0.1249623   0.3608201   0.2425155  )
        20        Mo     tau(  20) = (  -0.0007801   0.2872696   0.7308518  )
        21        S      tau(  21) = (  -0.1240398   0.3604107   0.6055268  )
        22        S      tau(  22) = (   0.0000411   0.2886546   0.3669163  )
        23        S      tau(  23) = (   0.0000035   0.2886726   0.1180964  )
        24        S      tau(  24) = (  -0.1315418   0.3638985   0.8543850  )
        25        Mo     tau(  25) = (  -0.2499987   0.5773502  -0.7272732  )
        26        Mo     tau(  26) = (  -0.1249977   0.5051839  -0.2424055  )
        27        S      tau(  27) = (  -0.2499981   0.5773518  -0.3667809  )
        28        S      tau(  28) = (  -0.1249986   0.5051812  -0.6030489  )
        29        S      tau(  29) = (  -0.1249986   0.5051813  -0.8514963  )
        30        S      tau(  30) = (  -0.2499979   0.5773512  -0.1180266  )
        31        Mo     tau(  31) = (  -0.2499787   0.5773156   0.2425145  )
        32        Mo     tau(  32) = (  -0.1271807   0.5060660   0.7281741  )
        33        S      tau(  33) = (  -0.2502658   0.5775034   0.6017985  )
        34        S      tau(  34) = (  -0.1249543   0.5051367   0.3669386  )
        35        S      tau(  35) = (  -0.1249864   0.5051552   0.1181399  )
        36        S      tau(  36) = (  -0.2525628   0.5785576   0.8514793  )
        37        Mo     tau(  37) = (  -0.3749985   0.7938567  -0.7272732  )
        38        Mo     tau(  38) = (  -0.2500001   0.7216874  -0.2424031  )
        39        S      tau(  39) = (  -0.3749980   0.7938584  -0.3667800  )
        40        S      tau(  40) = (  -0.2499984   0.7216877  -0.6030489  )
        41        S      tau(  41) = (  -0.2499984   0.7216878  -0.8514963  )
        42        S      tau(  42) = (  -0.3749982   0.7938585  -0.1180264  )
        43        Mo     tau(  43) = (  -0.3750043   0.7938372   0.2424536  )
        44        Mo     tau(  44) = (  -0.2503619   0.7218808   0.7263407  )
        45        S      tau(  45) = (  -0.3755748   0.7941519   0.6023691  )
        46        S      tau(  46) = (  -0.2500067   0.7216811   0.3668312  )
        47        S      tau(  47) = (  -0.2499793   0.7216445   0.1181126  )
        48        S      tau(  48) = (  -0.3746959   0.7932047   0.8515893  )
        49        Mo     tau(  49) = (   0.2500010   0.1443372  -0.7272732  )
        50        Mo     tau(  50) = (   0.3750034   0.0721723  -0.2424032  )
        51        S      tau(  51) = (   0.2500017   0.1443391  -0.3667788  )
        52        S      tau(  52) = (   0.3750010   0.0721682  -0.6030489  )
        53        S      tau(  53) = (   0.3750010   0.0721683  -0.8514963  )
        54        S      tau(  54) = (   0.2500016   0.1443391  -0.1180271  )
        55        Mo     tau(  55) = (   0.2500033   0.1443124   0.2424881  )
        56        Mo     tau(  56) = (   0.3752595   0.0716472   0.7255395  )
        57        S      tau(  57) = (   0.2498544   0.1431280   0.6011361  )
        58        S      tau(  58) = (   0.3750516   0.0721435   0.3668117  )
        59        S      tau(  59) = (   0.3750079   0.0721203   0.1180977  )
        60        S      tau(  60) = (   0.2517312   0.1427646   0.8506906  )
        61        Mo     tau(  61) = (   0.1250012   0.3608437  -0.7272732  )
        62        Mo     tau(  62) = (   0.2500029   0.2886782  -0.2424031  )
        63        S      tau(  63) = (   0.1250024   0.3608455  -0.3667794  )
        64        S      tau(  64) = (   0.2500012   0.2886747  -0.6030489  )
        65        S      tau(  65) = (   0.2500012   0.2886748  -0.8514963  )
        66        S      tau(  66) = (   0.1250021   0.3608455  -0.1180270  )
        67        Mo     tau(  67) = (   0.1249995   0.3608273   0.2424838  )
        68        Mo     tau(  68) = (   0.2535704   0.2866116   0.7259154  )
        69        S      tau(  69) = (   0.1241106   0.3617788   0.6079553  )
        70        S      tau(  70) = (   0.2499752   0.2886689   0.3668869  )
        71        S      tau(  71) = (   0.2500098   0.2886475   0.1181123  )
        72        S      tau(  72) = (   0.1336503   0.3523048   0.8541313  )
        73        Mo     tau(  73) = (   0.0000014   0.5773502  -0.7272732  )
        74        Mo     tau(  74) = (   0.1250045   0.5051840  -0.2424036  )
        75        S      tau(  75) = (   0.0000030   0.5773520  -0.3667799  )
        76        S      tau(  76) = (   0.1250014   0.5051812  -0.6030489  )
        77        S      tau(  77) = (   0.1250014   0.5051813  -0.8514963  )
        78        S      tau(  78) = (   0.0000026   0.5773517  -0.1180274  )
        79        Mo     tau(  79) = (   0.0000276   0.5772927   0.2425177  )
        80        Mo     tau(  80) = (   0.1255270   0.5059369   0.7313762  )
        81        S      tau(  81) = (   0.0011816   0.5764663   0.6064450  )
        82        S      tau(  82) = (   0.1250222   0.5051261   0.3669341  )
        83        S      tau(  83) = (   0.1249880   0.5051467   0.1180950  )
        84        S      tau(  84) = (  -0.0088763   0.5830479   0.8565830  )
        85        Mo     tau(  85) = (  -0.1249984   0.7938567  -0.7272732  )
        86        Mo     tau(  86) = (   0.0000069   0.7216896  -0.2424039  )
        87        S      tau(  87) = (  -0.1249975   0.7938582  -0.3667782  )
        88        S      tau(  88) = (   0.0000016   0.7216877  -0.6030489  )
        89        S      tau(  89) = (   0.0000016   0.7216878  -0.8514963  )
        90        S      tau(  90) = (  -0.1249973   0.7938582  -0.1180279  )
        91        Mo     tau(  91) = (  -0.1249699   0.7938095   0.2424907  )
        92        Mo     tau(  92) = (  -0.0004895   0.7231014   0.7275053  )
        93        S      tau(  93) = (  -0.1248847   0.7932555   0.6014963  )
        94        S      tau(  94) = (   0.0000405   0.7216116   0.3668908  )
        95        S      tau(  95) = (   0.0000242   0.7216332   0.1181249  )
        96        S      tau(  96) = (  -0.1259194   0.7949777   0.8510667  )
        97        Mo     tau(  97) = (   0.5000010   0.1443372  -0.7272732  )
        98        Mo     tau(  98) = (   0.6250001   0.0721662  -0.2424040  )
        99        S      tau(  99) = (   0.5000017   0.1443386  -0.3667801  )
       100        S      tau( 100) = (   0.6250010   0.0721682  -0.6030489  )
       101        S      tau( 101) = (   0.6250010   0.0721683  -0.8514963  )
       102        S      tau( 102) = (   0.5000020   0.1443388  -0.1180261  )
       103        Mo     tau( 103) = (   0.5000355   0.1442968   0.2424343  )
       104        Mo     tau( 104) = (   0.6251054   0.0720760   0.7269638  )
       105        S      tau( 105) = (   0.5007812   0.1439212   0.6015111  )
       106        S      tau( 106) = (   0.6250309   0.0721295   0.3668346  )
       107        S      tau( 107) = (   0.6250410   0.0721183   0.1180973  )
       108        S      tau( 108) = (   0.4998652   0.1442971   0.8504179  )
       109        Mo     tau( 109) = (   0.3750012   0.3608437  -0.7272732  )
       110        Mo     tau( 110) = (   0.4999991   0.2886761  -0.2424038  )
       111        S      tau( 111) = (   0.3750012   0.3608452  -0.3667804  )
       112        S      tau( 112) = (   0.5000012   0.2886747  -0.6030489  )
       113        S      tau( 113) = (   0.5000012   0.2886748  -0.8514963  )
       114        S      tau( 114) = (   0.3750014   0.3608455  -0.1180261  )
       115        Mo     tau( 115) = (   0.3749988   0.3608207   0.2424913  )
       116        Mo     tau( 116) = (   0.5005676   0.2886014   0.7258090  )
       117        S      tau( 117) = (   0.3761076   0.3615161   0.6013079  )
       118        S      tau( 118) = (   0.5000282   0.2886169   0.3668001  )
       119        S      tau( 119) = (   0.5000158   0.2886613   0.1180928  )
       120        S      tau( 120) = (   0.3768791   0.3600665   0.8508100  )
       121        Mo     tau( 121) = (   0.2500014   0.5773502  -0.7272732  )
       122        Mo     tau( 122) = (   0.3749983   0.5051825  -0.2424043  )
       123        S      tau( 123) = (   0.2500017   0.5773519  -0.3667810  )
       124        S      tau( 124) = (   0.3750014   0.5051812  -0.6030489  )
       125        S      tau( 125) = (   0.3750014   0.5051813  -0.8514963  )
       126        S      tau( 126) = (   0.2500018   0.5773519  -0.1180256  )
       127        Mo     tau( 127) = (   0.2499755   0.5773110   0.2424609  )
       128        Mo     tau( 128) = (   0.3758691   0.5051374   0.7277779  )
       129        S      tau( 129) = (   0.2483182   0.5768077   0.6062789  )
       130        S      tau( 130) = (   0.3749464   0.5051844   0.3668408  )
       131        S      tau( 131) = (   0.3749944   0.5051486   0.1180923  )
       132        S      tau( 132) = (   0.2574557   0.5818559   0.8585037  )
       133        Mo     tau( 133) = (   0.1250016   0.7938567  -0.7272732  )
       134        Mo     tau( 134) = (   0.2499995   0.7216883  -0.2424036  )
       135        S      tau( 135) = (   0.1250024   0.7938578  -0.3667813  )
       136        S      tau( 136) = (   0.2500016   0.7216877  -0.6030489  )
       137        S      tau( 137) = (   0.2500016   0.7216878  -0.8514963  )
       138        S      tau( 138) = (   0.1250024   0.7938579  -0.1180253  )
       139        Mo     tau( 139) = (   0.1250229   0.7938069   0.2425006  )
       140        Mo     tau( 140) = (   0.2504358   0.7224862   0.7284223  )
       141        S      tau( 141) = (   0.1254429   0.7935457   0.6029055  )
       142        S      tau( 142) = (   0.2500049   0.7216116   0.3668842  )
       143        S      tau( 143) = (   0.2500022   0.7216616   0.1181021  )
       144        S      tau( 144) = (   0.1246626   0.7944127   0.8519137  )
       145        Mo     tau( 145) = (   0.7500010   0.1443372  -0.7272732  )
       146        Mo     tau( 146) = (   0.8750038   0.0721696  -0.2424038  )
       147        S      tau( 147) = (   0.7500016   0.1443382  -0.3667789  )
       148        S      tau( 148) = (   0.8750010   0.0721682  -0.6030489  )
       149        S      tau( 149) = (   0.8750010   0.0721683  -0.8514963  )
       150        S      tau( 150) = (   0.7500016   0.1443384  -0.1180279  )
       151        Mo     tau( 151) = (   0.7500289   0.1443141   0.2424936  )
       152        Mo     tau( 152) = (   0.8748115   0.0715393   0.7280420  )
       153        S      tau( 153) = (   0.7503587   0.1440662   0.6027403  )
       154        S      tau( 154) = (   0.8750369   0.0721618   0.3668742  )
       155        S      tau( 155) = (   0.8750002   0.0721408   0.1181001  )
       156        S      tau( 156) = (   0.7494385   0.1444101   0.8516821  )
       157        Mo     tau( 157) = (   0.6250012   0.3608437  -0.7272732  )
       158        Mo     tau( 158) = (   0.7500028   0.2886769  -0.2424041  )
       159        S      tau( 159) = (   0.6250015   0.3608451  -0.3667792  )
       160        S      tau( 160) = (   0.7500012   0.2886747  -0.6030489  )
       161        S      tau( 161) = (   0.7500012   0.2886748  -0.8514963  )
       162        S      tau( 162) = (   0.6250016   0.3608454  -0.1180280  )
       163        Mo     tau( 163) = (   0.6250302   0.3608127   0.2424760  )
       164        Mo     tau( 164) = (   0.7487590   0.2885376   0.7272130  )
       165        S      tau( 165) = (   0.6254237   0.3608917   0.6015174  )
       166        S      tau( 166) = (   0.7500486   0.2886525   0.3668797  )
       167        S      tau( 167) = (   0.7500385   0.2886557   0.1181169  )
       168        S      tau( 168) = (   0.6239430   0.3610912   0.8510113  )
       169        Mo     tau( 169) = (   0.5000014   0.5773502  -0.7272732  )
       170        Mo     tau( 170) = (   0.6250029   0.5051841  -0.2424047  )
       171        S      tau( 171) = (   0.5000014   0.5773518  -0.3667794  )
       172        S      tau( 172) = (   0.6250014   0.5051812  -0.6030489  )
       173        S      tau( 173) = (   0.6250014   0.5051813  -0.8514963  )
       174        S      tau( 174) = (   0.5000016   0.5773516  -0.1180277  )
       175        Mo     tau( 175) = (   0.4999859   0.5773250   0.2424709  )
       176        Mo     tau( 176) = (   0.6245890   0.5053660   0.7261562  )
       177        S      tau( 177) = (   0.4993068   0.5776651   0.6022414  )
       178        S      tau( 178) = (   0.6249823   0.5051501   0.3668388  )
       179        S      tau( 179) = (   0.6250205   0.5051637   0.1181147  )
       180        S      tau( 180) = (   0.5009766   0.5773609   0.8515797  )
       181        Mo     tau( 181) = (   0.3750016   0.7938567  -0.7272732  )
       182        Mo     tau( 182) = (   0.5000025   0.7216901  -0.2424039  )
       183        S      tau( 183) = (   0.3750019   0.7938578  -0.3667793  )
       184        S      tau( 184) = (   0.5000016   0.7216877  -0.6030489  )
       185        S      tau( 185) = (   0.5000016   0.7216878  -0.8514963  )
       186        S      tau( 186) = (   0.3750020   0.7938579  -0.1180272  )
       187        Mo     tau( 187) = (   0.3749951   0.7938323   0.2424893  )
       188        Mo     tau( 188) = (   0.4998599   0.7217391   0.7271366  )
       189        S      tau( 189) = (   0.3746033   0.7939741   0.6029663  )
       190        S      tau( 190) = (   0.4999946   0.7216688   0.3668260  )
       191        S      tau( 191) = (   0.4999891   0.7216628   0.1180901  )
       192        S      tau( 192) = (   0.3755955   0.7938624   0.8526444  )
       193        Pt     tau( 193) = (   0.1194898   0.4990527   0.9549993  )
       194        Pd     tau( 194) = (   0.0026419   0.2990244   0.9662205  )
       195        Pd     tau( 195) = (   0.0026180   0.2990093   1.1645417  )

     --------------------------------------------
     DFT-D3 Dispersion Correction (3-body terms):
     --------------------------------------------
       Reference C6 values for interpolation: 

         atom   Coordination number   C6
         S          0.000           268.01
         S          0.995           261.99
         S          1.990           251.62
         Mo         0.000          1691.79
         Mo         1.942          1004.01
         Mo        11.056           674.22
         Pd         0.000          1217.01
         Pd         1.863           573.90
         Pd         5.710           531.75
         Pt         0.000           782.29
         Pt         1.919           692.72
         Pt         6.667           673.75

       Values used:

         atom   Coordination number  R0_AB[au]  C6      C8
         Mo        10.208            3.547    674.22  77634.20
         Mo        10.221            3.547    674.22  77634.20
         S          3.858            3.128    251.62  12327.25
         S          3.859            3.128    251.62  12327.25
         S          3.758            3.128    251.62  12327.25
         S          3.859            3.128    251.62  12327.25
         Mo        10.221            3.547    674.22  77634.20
         Mo        10.228            3.547    674.22  77634.20
         S          3.849            3.128    251.62  12327.25
         S          3.859            3.128    251.62  12327.25
         S          3.859            3.128    251.62  12327.25
         S          4.624            3.128    251.62  12327.25
         Mo        10.208            3.547    674.22  77634.20
         Mo        10.221            3.547    674.22  77634.20
         S          3.858            3.128    251.62  12327.25
         S          3.859            3.128    251.62  12327.25
         S          3.758            3.128    251.62  12327.25
         S          3.859            3.128    251.62  12327.25
         Mo        10.222            3.547    674.22  77634.20
         Mo        10.722            3.547    674.22  77634.20
         S          3.862            3.128    251.62  12327.25
         S          3.850            3.128    251.62  12327.25
         S          3.859            3.128    251.62  12327.25
         S          4.671            3.128    251.62  12327.25
         Mo        10.208            3.547    674.22  77634.20
         Mo        10.221            3.547    674.22  77634.20
         S          3.858            3.128    251.62  12327.25
         S          3.859            3.128    251.62  12327.25
         S          3.758            3.128    251.62  12327.25
         S          3.859            3.128    251.62  12327.25
         Mo        10.220            3.547    674.22  77634.20
         Mo        10.171            3.547    674.22  77634.20
         S          3.842            3.128    251.62  12327.25
         S          3.853            3.128    251.62  12327.25
         S          3.859            3.128    251.62  12327.25
         S          3.843            3.128    251.62  12327.25
         Mo        10.208            3.547    674.21  77634.20
         Mo        10.220            3.547    674.22  77634.20
         S          3.858            3.128    251.62  12327.25
         S          3.859            3.128    251.62  12327.25
         S          3.758            3.128    251.62  12327.25
         S          3.859            3.128    251.62  12327.25
         Mo        10.220            3.547    674.22  77634.20
         Mo        10.260            3.547    674.22  77634.20
         S          3.856            3.128    251.62  12327.25
         S          3.861            3.128    251.62  12327.25
         S          3.859            3.128    251.62  12327.25
         S          3.808            3.128    251.62  12327.25
         Mo        10.208            3.547    674.22  77634.20
         Mo        10.221            3.547    674.22  77634.20
         S          3.858            3.128    251.62  12327.25
         S          3.859            3.128    251.62  12327.25
         S          3.758            3.128    251.62  12327.25
         S          3.859            3.128    251.62  12327.25
         Mo        10.220            3.547    674.22  77634.20
         Mo        10.278            3.547    674.22  77634.20
         S          3.837            3.128    251.62  12327.25
         S          3.863            3.128    251.62  12327.25
         S          3.859            3.128    251.62  12327.25
         S          3.842            3.128    251.62  12327.25
         Mo        10.208            3.547    674.22  77634.20
         Mo        10.221            3.547    674.22  77634.20
         S          3.858            3.128    251.62  12327.25
         S          3.859            3.128    251.62  12327.25
         S          3.758            3.128    251.62  12327.25
         S          3.859            3.128    251.62  12327.25
         Mo        10.222            3.547    674.22  77634.20
         Mo        10.177            3.547    674.22  77634.20
         S          3.873            3.128    251.62  12327.25
         S          3.855            3.128    251.62  12327.25
         S          3.859            3.128    251.62  12327.25
         S          5.646            3.128    251.62  12327.25
         Mo        10.208            3.547    674.22  77634.20
         Mo        10.221            3.547    674.22  77634.20
         S          3.858            3.128    251.62  12327.25
         S          3.859            3.128    251.62  12327.25
         S          3.758            3.128    251.62  12327.25
         S          3.859            3.128    251.62  12327.25
         Mo        10.222            3.547    674.22  77634.20
         Mo        10.867            3.547    674.22  77634.20
         S          3.860            3.128    251.62  12327.25
         S          3.850            3.128    251.62  12327.25
         S          3.859            3.128    251.62  12327.25
         S          4.673            3.128    251.62  12327.25
         Mo        10.208            3.547    674.22  77634.20
         Mo        10.221            3.547    674.22  77634.20
         S          3.858            3.128    251.62  12327.25
         S          3.859            3.128    251.62  12327.25
         S          3.758            3.128    251.62  12327.25
         S          3.859            3.128    251.62  12327.25
         Mo        10.220            3.547    674.22  77634.20
         Mo        10.214            3.547    674.22  77634.20
         S          3.850            3.128    251.62  12327.25
         S          3.856            3.128    251.62  12327.25
         S          3.859            3.128    251.62  12327.25
         S          3.827            3.128    251.62  12327.25
         Mo        10.208            3.547    674.22  77634.20
         Mo        10.221            3.547    674.22  77634.20
         S          3.858            3.128    251.62  12327.25
         S          3.859            3.128    251.62  12327.25
         S          3.758            3.128    251.62  12327.25
         S          3.859            3.128    251.62  12327.25
         Mo        10.220            3.547    674.22  77634.20
         Mo        10.250            3.547    674.22  77634.20
         S          3.856            3.128    251.62  12327.25
         S          3.861            3.128    251.62  12327.25
         S          3.859            3.128    251.62  12327.25
         S          3.790            3.128    251.62  12327.25
         Mo        10.208            3.547    674.22  77634.20
         Mo        10.221            3.547    674.22  77634.20
         S          3.858            3.128    251.62  12327.25
         S          3.859            3.128    251.62  12327.25
         S          3.758            3.128    251.62  12327.25
         S          3.859            3.128    251.62  12327.25
         Mo        10.220            3.547    674.22  77634.20
         Mo        10.277            3.547    674.22  77634.20
         S          3.839            3.128    251.62  12327.25
         S          3.863            3.128    251.62  12327.25
         S          3.859            3.128    251.62  12327.25
         S          3.819            3.128    251.62  12327.25
         Mo        10.208            3.547    674.22  77634.20
         Mo        10.221            3.547    674.22  77634.20
         S          3.858            3.128    251.62  12327.25
         S          3.859            3.128    251.62  12327.25
         S          3.758            3.128    251.62  12327.25
         S          3.859            3.128    251.62  12327.25
         Mo        10.222            3.547    674.22  77634.20
         Mo        10.220            3.547    674.22  77634.20
         S          3.850            3.128    251.62  12327.25
         S          3.858            3.128    251.62  12327.25
         S          3.859            3.128    251.62  12327.25
         S          4.642            3.128    251.62  12327.25
         Mo        10.208            3.547    674.22  77634.20
         Mo        10.221            3.547    674.22  77634.20
         S          3.858            3.128    251.62  12327.25
         S          3.859            3.128    251.62  12327.25
         S          3.758            3.128    251.62  12327.25
         S          3.859            3.128    251.62  12327.25
         Mo        10.221            3.547    674.22  77634.20
         Mo        10.226            3.547    674.22  77634.20
         S          3.863            3.128    251.62  12327.25
         S          3.856            3.128    251.62  12327.25
         S          3.859            3.128    251.62  12327.25
         S          3.764            3.128    251.62  12327.25
         Mo        10.208            3.547    674.22  77634.20
         Mo        10.221            3.547    674.22  77634.20
         S          3.858            3.128    251.62  12327.25
         S          3.859            3.128    251.62  12327.25
         S          3.758            3.128    251.62  12327.25
         S          3.859            3.128    251.62  12327.25
         Mo        10.221            3.547    674.22  77634.20
         Mo        10.241            3.547    674.22  77634.20
         S          3.864            3.128    251.62  12327.25
         S          3.857            3.128    251.62  12327.25
         S          3.859            3.128    251.62  12327.25
         S          3.767            3.128    251.62  12327.25
         Mo        10.208            3.547    674.21  77634.20
         Mo        10.220            3.547    674.22  77634.20
         S          3.858            3.128    251.62  12327.25
         S          3.859            3.128    251.62  12327.25
         S          3.758            3.128    251.62  12327.25
         S          3.859            3.128    251.62  12327.25
         Mo        10.220            3.547    674.22  77634.20
         Mo        10.226            3.547    674.22  77634.20
         S          3.854            3.128    251.62  12327.25
         S          3.857            3.128    251.62  12327.25
         S          3.859            3.128    251.62  12327.25
         S          3.809            3.128    251.62  12327.25
         Mo        10.208            3.547    674.22  77634.20
         Mo        10.221            3.547    674.22  77634.20
         S          3.858            3.128    251.62  12327.25
         S          3.859            3.128    251.62  12327.25
         S          3.758            3.128    251.62  12327.25
         S          3.859            3.128    251.62  12327.25
         Mo        10.220            3.547    674.21  77634.20
         Mo        10.267            3.547    674.22  77634.20
         S          3.853            3.128    251.62  12327.25
         S          3.861            3.128    251.62  12327.25
         S          3.859            3.128    251.62  12327.25
         S          3.820            3.128    251.62  12327.25
         Mo        10.208            3.547    674.22  77634.20
         Mo        10.221            3.547    674.22  77634.20
         S          3.858            3.128    251.62  12327.25
         S          3.859            3.128    251.62  12327.25
         S          3.758            3.128    251.62  12327.25
         S          3.859            3.128    251.62  12327.25
         Mo        10.221            3.547    674.22  77634.20
         Mo        10.250            3.547    674.22  77634.20
         S          3.853            3.128    251.62  12327.25
         S          3.860            3.128    251.62  12327.25
         S          3.859            3.128    251.62  12327.25
         S          3.823            3.128    251.62  12327.25
         Pt         4.477            3.168    673.76  70063.64
         Pd         5.033            3.168    531.75  48720.73
         Pd         0.956            3.168    802.71  73546.80

         Molecular C6 ( Ry / a.u.^6 ) =  14186509.88


     number of k points=     4  Gaussian smearing, width (Ry)=  0.0100
                       cart. coord. in units 2pi/alat
        k(    1) = (   0.0000000   0.0000000   0.0000000), wk =   0.5000000
        k(    2) = (   0.0000000  -0.5773499   0.0000000), wk =   0.5000000
        k(    3) = (  -0.5000000  -0.2886744   0.0000000), wk =   0.5000000
        k(    4) = (  -0.5000000  -0.8660242   0.0000000), wk =   0.5000000

     Dense  grid:  7154885 G-vectors     FFT dimensions: ( 180, 180, 512)

     Smooth grid:  3090769 G-vectors     FFT dimensions: ( 135, 135, 400)

     Estimated max dynamical RAM per process >       4.32 GB

     Estimated total dynamical RAM >     155.52 GB

     Atomic positions and unit cell read from directory:
     ./outdir/pwscf.save/
     Atomic positions from file used, from input discarded
 

     The initial density is read from file :
     ./outdir/pwscf.save/charge-density


     negative rho (up, down):  9.031E-04 0.000E+00
     Cannot read wfcs: file not found
     Starting wfcs are 1189 randomized atomic wfcs
     Checking if some PAW data can be deallocated... 

     total cpu time spent up to now is      179.5 secs

     Self-consistent Calculation

     iteration #  1     ecut=    77.00 Ry     beta= 0.20
     Davidson diagonalization with overlap
     c_bands:  3 eigenvalues not converged
     c_bands: 13 eigenvalues not converged
     c_bands: 10 eigenvalues not converged
     c_bands: 10 eigenvalues not converged
     ethr =  1.00E-05,  avg # of iterations =120.0

     negative rho (up, down):  8.588E-04 0.000E+00

     total cpu time spent up to now is    10939.3 secs

     total energy              =  -34473.46778093 Ry
     estimated scf accuracy    <      56.22911863 Ry

     iteration #  2     ecut=    77.00 Ry     beta= 0.20
     Davidson diagonalization with overlap
     c_bands:  2 eigenvalues not converged
     ethr =  3.25E-03,  avg # of iterations = 22.0

     negative rho (up, down):  8.027E-04 0.000E+00

     total cpu time spent up to now is    11907.7 secs

     total energy              =  -34421.13112160 Ry
     estimated scf accuracy    <    9397.37474223 Ry

     iteration #  3     ecut=    77.00 Ry     beta= 0.20
     Davidson diagonalization with overlap
     ethr =  3.25E-03,  avg # of iterations =  6.0

     negative rho (up, down):  7.226E-04 0.000E+00

     total cpu time spent up to now is    12341.2 secs

     total energy              =  -34475.97304357 Ry
     estimated scf accuracy    <     278.63582318 Ry

     iteration #  4     ecut=    77.00 Ry     beta= 0.20
     Davidson diagonalization with overlap
     ethr =  3.25E-03,  avg # of iterations =  2.5

     negative rho (up, down):  6.160E-04 0.000E+00

     total cpu time spent up to now is    12751.9 secs

     total energy              =  -34481.99933353 Ry
     estimated scf accuracy    <     713.66847150 Ry

     iteration #  5     ecut=    77.00 Ry     beta= 0.20
     Davidson diagonalization with overlap
     ethr =  3.25E-03,  avg # of iterations =  3.8

     negative rho (up, down):  5.691E-04 0.000E+00

     total cpu time spent up to now is    13168.2 secs

     total energy              =  -34492.97047768 Ry
     estimated scf accuracy    <      61.89504549 Ry

     iteration #  6     ecut=    77.00 Ry     beta= 0.20
     Davidson diagonalization with overlap
     ethr =  3.25E-03,  avg # of iterations =  1.8

     negative rho (up, down):  5.588E-04 0.000E+00

     total cpu time spent up to now is    13566.0 secs

     total energy              =  -34492.61006093 Ry
     estimated scf accuracy    <      34.37909314 Ry

     iteration #  7     ecut=    77.00 Ry     beta= 0.20
     Davidson diagonalization with overlap
     ethr =  1.98E-03,  avg # of iterations =  2.0

     negative rho (up, down):  5.747E-04 0.000E+00

     total cpu time spent up to now is    13973.9 secs

     total energy              =  -34492.19405640 Ry
     estimated scf accuracy    <       6.12346948 Ry

     iteration #  8     ecut=    77.00 Ry     beta= 0.20
     Davidson diagonalization with overlap
     ethr =  3.54E-04,  avg # of iterations = 51.0

     negative rho (up, down):  5.517E-04 0.000E+00

     total cpu time spent up to now is    15423.6 secs

     total energy              =  -34492.14675179 Ry
     estimated scf accuracy    <       2.21855968 Ry

     iteration #  9     ecut=    77.00 Ry     beta= 0.20
     Davidson diagonalization with overlap
     c_bands:  3 eigenvalues not converged
     c_bands:  5 eigenvalues not converged
     ethr =  1.28E-04,  avg # of iterations = 24.8

     negative rho (up, down):  7.971E-04 0.000E+00

     total cpu time spent up to now is    16090.8 secs

     total energy              =  -34492.09693225 Ry
     estimated scf accuracy    <       2.44857006 Ry

     iteration # 10     ecut=    77.00 Ry     beta= 0.20
     Davidson diagonalization with overlap
     ethr =  1.28E-04,  avg # of iterations = 11.0

     negative rho (up, down):  5.672E-04 0.000E+00

     total cpu time spent up to now is    16540.1 secs

     total energy              =  -34492.07823393 Ry
     estimated scf accuracy    <       1.55213052 Ry

     iteration # 11     ecut=    77.00 Ry     beta= 0.20
     Davidson diagonalization with overlap
     ethr =  8.96E-05,  avg # of iterations =  5.8

     negative rho (up, down):  5.752E-04 0.000E+00

     total cpu time spent up to now is    16962.5 secs

     total energy              =  -34492.13397095 Ry
     estimated scf accuracy    <       0.29412061 Ry

     iteration # 12     ecut=    77.00 Ry     beta= 0.20
     Davidson diagonalization with overlap
     c_bands: 29 eigenvalues not converged
     c_bands:  3 eigenvalues not converged
     c_bands:  4 eigenvalues not converged
     ethr =  1.70E-05,  avg # of iterations = 90.5

     negative rho (up, down):  6.299E-04 0.000E+00

     total cpu time spent up to now is    19875.7 secs

     total energy              =  -34492.22818398 Ry
     estimated scf accuracy    <       0.17474136 Ry

     iteration # 13     ecut=    77.00 Ry     beta= 0.20
     Davidson diagonalization with overlap
     c_bands:  2 eigenvalues not converged
     c_bands:  2 eigenvalues not converged
     ethr =  1.01E-05,  avg # of iterations = 41.0

     negative rho (up, down):  7.143E-04 0.000E+00

     total cpu time spent up to now is    21074.4 secs

     total energy              =  -34492.22067793 Ry
     estimated scf accuracy    <       0.08138916 Ry

     iteration # 14     ecut=    77.00 Ry     beta= 0.20
     Davidson diagonalization with overlap
     c_bands:  2 eigenvalues not converged
     c_bands:  3 eigenvalues not converged
     ethr =  4.70E-06,  avg # of iterations = 23.5

     negative rho (up, down):  7.304E-04 0.000E+00

     total cpu time spent up to now is    21746.1 secs

     total energy              =  -34492.21703724 Ry
     estimated scf accuracy    <       0.05640813 Ry

     iteration # 15     ecut=    77.00 Ry     beta= 0.20
     Davidson diagonalization with overlap
     c_bands:  1 eigenvalues not converged
     c_bands:  3 eigenvalues not converged
     c_bands:  1 eigenvalues not converged
     ethr =  3.26E-06,  avg # of iterations = 18.0

     negative rho (up, down):  7.503E-04 0.000E+00

     total cpu time spent up to now is    22215.8 secs

     total energy              =  -34492.21707597 Ry
     estimated scf accuracy    <       0.01293960 Ry

     iteration # 16     ecut=    77.00 Ry     beta= 0.20
     Davidson diagonalization with overlap
     c_bands:  3 eigenvalues not converged
     c_bands:  2 eigenvalues not converged
     c_bands:  2 eigenvalues not converged
     ethr =  7.47E-07,  avg # of iterations = 45.5

     negative rho (up, down):  7.602E-04 0.000E+00

     total cpu time spent up to now is    23717.3 secs

     total energy              =  -34492.22791390 Ry
     estimated scf accuracy    <       0.01716104 Ry

     iteration # 17     ecut=    77.00 Ry     beta= 0.20
     Davidson diagonalization with overlap
     c_bands:  1 eigenvalues not converged
     c_bands:  1 eigenvalues not converged
     ethr =  7.47E-07,  avg # of iterations = 10.8

     negative rho (up, down):  7.969E-04 0.000E+00

     total cpu time spent up to now is    24139.2 secs

     total energy              =  -34492.22612863 Ry
     estimated scf accuracy    <       0.00875058 Ry

     iteration # 18     ecut=    77.00 Ry     beta= 0.20
     Davidson diagonalization with overlap
     ethr =  5.05E-07,  avg # of iterations =  6.0

     negative rho (up, down):  8.449E-04 0.000E+00

     total cpu time spent up to now is    24562.6 secs

     total energy              =  -34492.22581863 Ry
     estimated scf accuracy    <       0.00253697 Ry

     iteration # 19     ecut=    77.00 Ry     beta= 0.20
     Davidson diagonalization with overlap
     c_bands:  4 eigenvalues not converged
     c_bands:  1 eigenvalues not converged
     c_bands:  3 eigenvalues not converged
     ethr =  1.46E-07,  avg # of iterations = 70.5

     negative rho (up, down):  8.566E-04 0.000E+00

     total cpu time spent up to now is    26397.5 secs

     total energy              =  -34492.22755897 Ry
     estimated scf accuracy    <       0.00308934 Ry

     iteration # 20     ecut=    77.00 Ry     beta= 0.20
     Davidson diagonalization with overlap
     c_bands:  4 eigenvalues not converged
     c_bands:  2 eigenvalues not converged
     ethr =  1.46E-07,  avg # of iterations = 25.8

     negative rho (up, down):  8.695E-04 0.000E+00

     total cpu time spent up to now is    27135.4 secs

     total energy              =  -34492.22715189 Ry
     estimated scf accuracy    <       0.00164249 Ry

     iteration # 21     ecut=    77.00 Ry     beta= 0.20
     Davidson diagonalization with overlap
     c_bands:  2 eigenvalues not converged
     c_bands:  1 eigenvalues not converged
     ethr =  9.48E-08,  avg # of iterations = 11.0

     negative rho (up, down):  8.813E-04 0.000E+00

     total cpu time spent up to now is    27575.9 secs

     total energy              =  -34492.22734773 Ry
     estimated scf accuracy    <       0.00026343 Ry

     iteration # 22     ecut=    77.00 Ry     beta= 0.20
     Davidson diagonalization with overlap
     ethr =  1.52E-08,  avg # of iterations = 15.2

     negative rho (up, down):  8.812E-04 0.000E+00

     total cpu time spent up to now is    28769.1 secs

     total energy              =  -34492.22775071 Ry
     estimated scf accuracy    <       0.00084677 Ry

     iteration # 23     ecut=    77.00 Ry     beta= 0.20
     Davidson diagonalization with overlap
     ethr =  1.52E-08,  avg # of iterations =  1.0

     negative rho (up, down):  8.822E-04 0.000E+00

     total cpu time spent up to now is    29137.6 secs

     total energy              =  -34492.22771401 Ry
     estimated scf accuracy    <       0.00039773 Ry

     iteration # 24     ecut=    77.00 Ry     beta= 0.20
     Davidson diagonalization with overlap
     ethr =  1.52E-08,  avg # of iterations =  1.0

     negative rho (up, down):  9.030E-04 0.000E+00

     total cpu time spent up to now is    29505.9 secs

     total energy              =  -34492.22759464 Ry
     estimated scf accuracy    <       0.00021055 Ry

     iteration # 25     ecut=    77.00 Ry     beta= 0.20
     Davidson diagonalization with overlap
     ethr =  1.22E-08,  avg # of iterations = 14.2

     negative rho (up, down):  9.029E-04 0.000E+00

     total cpu time spent up to now is    30300.0 secs

     total energy              =  -34492.22774001 Ry
     estimated scf accuracy    <       0.00035372 Ry

     iteration # 26     ecut=    77.00 Ry     beta= 0.20
     Davidson diagonalization with overlap
     ethr =  1.22E-08,  avg # of iterations =  1.0

     negative rho (up, down):  9.011E-04 0.000E+00

     total cpu time spent up to now is    30668.6 secs

     total energy              =  -34492.22771767 Ry
     estimated scf accuracy    <       0.00015306 Ry

     iteration # 27     ecut=    77.00 Ry     beta= 0.20
     Davidson diagonalization with overlap
     ethr =  8.84E-09,  avg # of iterations =  1.0

     negative rho (up, down):  9.024E-04 0.000E+00

     total cpu time spent up to now is    31037.2 secs

     total energy              =  -34492.22770258 Ry
     estimated scf accuracy    <       0.00005588 Ry

     iteration # 28     ecut=    77.00 Ry     beta= 0.20
     Davidson diagonalization with overlap
     ethr =  3.23E-09,  avg # of iterations = 12.2

     negative rho (up, down):  9.026E-04 0.000E+00

     total cpu time spent up to now is    31533.7 secs

     total energy              =  -34492.22771780 Ry
     estimated scf accuracy    <       0.00000201 Ry

     iteration # 29     ecut=    77.00 Ry     beta= 0.20
     Davidson diagonalization with overlap
     ethr =  1.16E-10,  avg # of iterations = 33.8

     negative rho (up, down):  9.029E-04 0.000E+00

     total cpu time spent up to now is    34551.2 secs

     total energy              =  -34492.22773650 Ry
     estimated scf accuracy    <       0.00000348 Ry

     iteration # 30     ecut=    77.00 Ry     beta= 0.20
     Davidson diagonalization with overlap
     ethr =  1.16E-10,  avg # of iterations =  4.8

     negative rho (up, down):  9.038E-04 0.000E+00

     total cpu time spent up to now is    34964.9 secs

     total energy              =  -34492.22773510 Ry
     estimated scf accuracy    <       0.00000256 Ry

     iteration # 31     ecut=    77.00 Ry     beta= 0.20
     Davidson diagonalization with overlap
     ethr =  1.16E-10,  avg # of iterations = 10.8

     negative rho (up, down):  9.050E-04 0.000E+00

     total cpu time spent up to now is    35428.5 secs

     End of self-consistent calculation

          k = 0.0000 0.0000 0.0000 (386245 PWs)   bands (ev):

  -102.9046 -89.1053 -87.2536 -71.3235 -71.3165 -71.2517 -71.1989 -71.1873
   -71.1706 -71.1666 -66.6636 -66.6303 -66.6296 -66.6279 -66.6260 -66.6149
   -66.6130 -66.6092 -66.6091 -66.6091 -66.6089 -66.6087 -66.6087 -66.6083
   -66.6083 -66.6083 -66.6083 -66.6083 -66.6083 -66.6066 -66.6066 -66.6066
   -66.6066 -66.6066 -66.6066 -66.6022 -66.5978 -66.5966 -66.5938 -66.5911
   -66.5880 -66.5878 -66.5878 -66.5877 -66.5876 -66.5875 -66.5874 -66.5873
   -66.5870 -66.5869 -66.5869 -66.5869 -66.5869 -66.5869 -66.5869 -66.5869
   -66.5869 -66.5869 -66.5852 -66.5852 -66.5852 -66.5852 -66.5852 -66.5852
   -66.5852 -66.5852 -66.5852 -66.5849 -66.5801 -66.5738 -66.5622 -66.5541
   -66.5499 -66.5338 -57.3115 -57.1091 -56.8586 -55.0182 -54.8978 -54.7168
   -53.2352 -53.1304 -52.7569 -40.9578 -40.9577 -40.9576 -40.9574 -40.9570
   -40.9570 -40.9570 -40.9560 -40.9559 -40.9559 -40.9559 -40.9475 -40.8894
   -40.8825 -40.8824 -40.8823 -40.8823 -40.8822 -40.8820 -40.8817 -40.8817
   -40.8817 -40.8817 -40.8817 -40.8817 -40.8806 -40.8806 -40.8806 -40.8806
   -40.8806 -40.8806 -40.8803 -40.8718 -40.8668 -40.8598 -40.8565 -40.8266
   -40.7899 -40.7892 -40.7884 -40.7882 -40.7761 -40.7714 -40.7664 -40.7569
   -40.7562 -40.7560 -40.7560 -40.7560 -40.7558 -40.7557 -40.7554 -40.7554
   -40.7554 -40.7554 -40.7553 -40.7553 -40.7541 -40.7541 -40.7541 -40.7541
   -40.7541 -40.7541 -40.7536 -40.7520 -40.7484 -40.7483 -40.7482 -40.7482
   -40.7480 -40.7479 -40.7475 -40.7475 -40.7475 -40.7475 -40.7475 -40.7475
   -40.7464 -40.7464 -40.7464 -40.7464 -40.7464 -40.7464 -40.7460 -40.7438
   -40.7412 -40.7376 -40.7337 -40.7318 -40.7261 -40.7212 -40.7210 -40.7210
   -40.7209 -40.7208 -40.7207 -40.7203 -40.7203 -40.7203 -40.7203 -40.7203
   -40.7203 -40.7197 -40.7190 -40.7190 -40.7190 -40.7190 -40.7190 -40.7190
   -40.7165 -40.7156 -40.7139 -40.7109 -40.7094 -40.7066 -40.7065 -40.7064
   -40.7063 -40.7062 -40.7061 -40.7061 -40.7060 -40.7058 -40.7055 -40.7055
   -40.7055 -40.7055 -40.7055 -40.7055 -40.7055 -40.7055 -40.7055 -40.7044
   -40.7044 -40.7044 -40.7044 -40.7044 -40.7044 -40.7043 -40.7043 -40.7043
   -40.7003 -40.6992 -40.6965 -40.6944 -40.6887 -40.6871 -40.6706 -40.6427
   -40.6426 -40.6425 -40.6420 -40.6420 -40.6420 -40.6406 -40.6406 -40.6406
   -40.6383 -40.6282 -40.6244 -40.5958 -40.5957 -40.5956 -40.5954 -40.5952
   -40.5951 -40.5949 -40.5949 -40.5949 -40.5949 -40.5949 -40.5949 -40.5935
   -40.5934 -40.5934 -40.5934 -40.5934 -40.5934 -40.5923 -40.5880 -40.5805
   -40.5765 -40.5703 -40.5612 -40.5479 -40.5478 -40.5473 -40.5473 -40.5458
   -40.5458 -40.5283 -40.5197 -20.2233 -20.1075 -20.0068 -19.8977 -19.7027
   -19.3270 -19.2775 -19.2595 -19.2549 -19.2522 -19.2436 -19.2362 -19.2260
   -19.2081 -19.1975 -19.1885 -19.1581 -19.1453 -19.1374 -19.1252 -19.1157
   -19.1037 -19.0530 -19.0451 -19.0422 -19.0383 -19.0349 -19.0295 -18.9184
   -18.8347 -18.7599 -18.6306 -18.5677 -18.5218 -18.5187 -18.4943 -18.4838
   -18.4749 -18.4544 -18.4267 -18.4182 -18.4109 -18.3908 -18.3672 -18.3422
   -18.3144 -18.2920 -18.2850 -18.2790 -18.2560 -18.2502 -18.2409 -18.1924
   -18.1892 -18.1885 -18.1812 -18.1792 -18.1791 -18.1336 -18.1308 -18.1287
   -18.1275 -18.1248 -18.1243 -18.1177 -18.1076 -18.0999 -18.0969 -18.0892
   -18.0874 -18.0856 -18.0825 -18.0813 -18.0792 -18.0688 -18.0581 -18.0565
   -18.0553 -18.0520 -18.0484 -18.0384 -18.0344 -18.0315 -18.0214 -18.0160
   -18.0092 -18.0091 -18.0052 -18.0027 -17.9933 -17.9914 -17.9890 -17.9667
   -17.9560 -17.9515 -17.9405 -17.9281 -17.9254 -17.9226 -17.9197 -17.9193
   -17.9037 -17.9015 -17.8961 -17.8883 -17.8812 -17.8772 -17.8744 -17.8711
   -17.8705 -17.8635 -17.8626 -17.8594 -17.8469 -17.8465 -17.8457 -17.8369
   -17.8335 -17.8312 -17.8282 -17.8271 -17.8229 -17.8031 -17.8026 -17.8016
   -17.8008 -17.8003 -17.7989 -12.2816 -12.0607 -11.9695 -11.8862 -11.8291
   -11.8051 -11.7916 -11.7848 -11.6919 -11.6839 -11.6704 -11.6118 -11.5665
   -11.5586 -11.5541 -11.4020 -11.3732 -11.3261 -11.2765 -11.2515 -11.2444
   -11.2413 -11.2393 -11.2314 -11.2063 -11.1821 -11.1421 -11.1400 -11.1355
   -11.1345 -11.1305 -11.1281 -11.0989 -11.0953 -11.0868 -11.0739 -11.0720
   -11.0662 -11.0624 -11.0577 -11.0516 -11.0506 -11.0438 -11.0316 -11.0213
   -11.0024 -10.9907 -10.9714 -10.9672 -10.9566 -10.9461 -10.9391 -10.9252
   -10.9099 -10.9053 -10.8985 -10.8949 -10.8796 -10.8725 -10.8648 -10.8552
   -10.8551 -10.8490 -10.8451 -10.8415 -10.8369 -10.8348 -10.8324 -10.8309
   -10.8288 -10.8180 -10.8137 -10.8105 -10.8084 -10.8070 -10.8045 -10.7853
   -10.7846 -10.7834 -10.7803 -10.7793 -10.7751 -10.7707 -10.7613 -10.7581
   -10.7436 -10.7432 -10.7422 -10.7417 -10.7386 -10.7376 -10.6861 -10.6672
   -10.6627 -10.6369 -10.6033 -10.6009 -10.5910 -10.5865 -10.5806 -10.5591
   -10.4124 -10.2959 -10.1976 -10.1719 -10.1325 -10.1063  -9.9704  -9.9618
    -9.9439  -9.9096  -9.8503  -9.8266  -9.8149  -9.8057  -9.8008  -9.7975
    -9.7857  -9.7793  -9.7782  -9.7742  -9.7714  -9.7693  -9.7662  -9.7641
    -9.7567  -9.7564  -9.7494  -9.7439  -9.7392  -9.7296  -9.7182  -9.7109
    -9.6667  -9.6411  -9.6367  -9.6349  -9.6336  -9.6309  -9.6256  -9.6242
    -9.6237  -9.6225  -9.6209  -9.6184  -9.6154  -9.6099  -9.5983  -9.5840
    -9.5583  -9.5470  -9.5465  -9.5464  -9.5462  -9.5458  -9.5453  -9.5441
    -9.5365  -9.5250  -9.5215  -9.5083  -9.5032  -9.4815  -9.4775  -9.4587
    -9.4511  -9.4182  -9.3724  -9.3699  -9.3645  -9.3588  -9.3554  -9.3533
    -9.3378  -9.3345  -9.3275  -9.3170  -9.3105  -9.3043  -9.2655  -9.2567
    -9.2483  -9.2420  -9.2242  -9.2200  -9.2185  -9.1935  -9.1901  -9.1877
    -9.1856  -9.1825  -9.1818  -9.1634  -9.1394  -9.1340  -9.1157  -9.1111
    -9.1068  -9.0755  -9.0460  -9.0219  -8.9881  -8.9875  -8.9847  -8.9685
    -8.9611  -8.9560  -8.9539  -8.9506  -8.9442  -8.9371  -8.9225  -8.9224
    -8.9213  -8.9142  -8.9041  -8.9019  -8.8951  -8.8841  -8.8715  -8.8266
    -8.8265  -8.8263  -8.8260  -8.8257  -8.8255  -8.7886  -8.7644  -8.7603
    -8.7500  -8.7418  -8.7389  -8.7333  -8.6823  -8.6751  -8.6687  -8.6652
    -8.6621  -8.6578  -8.6052  -8.5994  -8.5988  -8.5975  -8.5958  -8.5942
    -8.5655  -8.5318  -8.4618  -8.4362  -8.3958  -8.3715  -8.3715  -8.3669
    -8.3667  -8.3606  -8.3603  -8.3519  -8.3434  -8.3071  -8.2883  -8.2841
    -8.2811  -8.2809  -8.2807  -8.2787  -8.2737  -8.2654  -8.2547  -8.2540
    -8.2537  -8.2513  -8.2491  -8.2427  -8.2265  -8.2260  -8.2259  -8.2250
    -8.2244  -8.2226  -8.1671  -8.1148  -8.0023  -7.9737  -7.9134  -7.8678
    -7.8650  -7.8597  -7.8274  -7.7865  -7.7819  -7.7715  -7.7135  -7.7099
    -7.7034  -7.6629  -7.6491  -7.6478  -7.6428  -7.6362  -7.6259  -7.6167
    -7.6121  -7.6111  -7.5920  -7.5847  -7.5707  -7.5588  -7.5467  -7.5447
    -7.5403  -7.5399  -7.5398  -7.5386  -7.5353  -7.5277  -7.5236  -7.5143
    -7.5132  -7.5118  -7.5109  -7.5091  -7.5056  -7.4994  -7.4889  -7.4879
    -7.4876  -7.4875  -7.4868  -7.4852  -7.4735  -7.4640  -7.4513  -7.4396
    -7.4354  -7.4227  -7.4200  -7.4128  -7.4093  -7.4076  -7.3992  -7.3824
    -7.3667  -7.3614  -7.3550  -7.3374  -7.3256  -7.3171  -7.3054  -7.3008
    -7.2967  -7.2949  -7.2917  -7.2875  -7.2853  -7.2645  -7.2562  -7.2545
    -7.2394  -7.2364  -7.2312  -7.2188  -7.2187  -7.1723  -7.1658  -7.1527
    -7.1252  -7.0997  -7.0901  -7.0760  -7.0071  -6.9623  -6.9592  -6.8783
    -6.8689  -6.8657  -6.8546  -6.8356  -6.8184  -6.7922  -6.7870  -6.7835
    -6.7585  -6.7414  -6.7215  -6.7170  -6.7026  -6.6869  -6.6737  -6.6602
    -6.6490  -6.6295  -6.6249  -6.6218  -6.6162  -6.6106  -6.6028  -6.5838
    -6.5723  -6.5698  -6.5534  -6.5491  -6.5385  -6.5258  -6.5208  -6.5194
    -6.5189  -6.5169  -6.5136  -6.5116  -6.5105  -6.5087  -6.5026  -6.5026
    -6.5024  -6.5023  -6.5020  -6.5015  -6.4876  -6.4710  -6.4689  -6.4468
    -6.4405  -6.4295  -6.4146  -6.4141  -6.4101  -6.3668  -6.3542  -6.3506
    -6.3419  -6.3406  -6.3392  -6.3357  -6.3320  -6.3263  -6.3123  -6.3092
    -6.3082  -6.2968  -6.2921  -6.2889  -6.2822  -6.2764  -6.2756  -6.2594
    -6.2571  -6.2565  -6.2550  -6.2527  -6.2522  -6.2242  -6.1457  -5.9494
    -5.8976  -5.7296  -5.6556  -5.4133  -5.3807  -5.2509  -5.1619  -5.1286
    -5.0238  -5.0044  -4.5660  -3.8965  -3.8617  -3.8575  -3.8538  -3.8510
    -3.8383  -3.8359  -3.8325  -3.8320  -3.8280  -3.8260  -3.8168  -3.7614
    -3.7139  -3.7044  -3.6989  -3.6956  -3.6894  -3.6852  -3.6829  -3.6814
    -3.6782  -3.6740  -3.6214  -3.5520  -3.5276  -3.5186  -3.5118  -3.5041
    -3.4986  -3.4937  -3.4876  -3.4797  -3.4771  -3.4755  -3.4730  -3.4712
    -3.4642  -3.4602  -3.4551  -3.4515  -3.4498  -3.4474  -3.4472  -3.4455
    -3.4347  -3.4324  -3.4316  -3.4230  -3.4227  -3.4179  -3.4151  -3.4137
    -3.4088  -3.4081  -3.4058  -3.4013  -3.3966  -3.3922  -3.3880  -3.3653
    -3.3564  -3.3524  -3.3510  -3.3508  -3.3466  -3.3437  -3.3405  -3.3306
    -3.3291  -3.3166  -3.3142  -3.2935  -3.2893  -3.2853  -3.2832  -3.2799
    -3.2661  -3.2315  -3.2260  -3.2124  -3.2079  -3.1994  -3.1829  -3.0849
    -3.0705  -3.0692  -3.0676  -3.0653  -3.0630  -3.0533  -3.0511  -3.0481
    -3.0348  -3.0057  -2.9905  -2.9858  -2.9822  -2.9808  -2.9790  -2.9773
    -2.9762  -2.9744  -2.9718  -2.9683  -2.9677  -2.9647  -2.9604  -2.9572
    -2.9560  -2.9525  -2.9459  -2.9412  -2.9390  -2.9375  -2.9371  -2.9370
    -2.9365  -2.9359  -2.9349  -2.9310  -2.9261  -2.8952  -2.8942  -2.8818
    -2.8806  -2.8763  -2.8671  -2.8546  -2.8362  -2.8272  -2.8112  -2.8112
    -2.8111  -2.8111  -2.8109  -2.8108  -2.8103  -2.8097  -2.8066  -2.7953
    -2.7895  -2.7721  -2.7623  -2.7560  -2.7421  -2.7398  -2.7360  -2.7212
    -2.7167  -2.6828  -2.6702  -2.6421  -2.6387  -2.6358  -2.6319  -2.6267
    -2.6253  -2.6221  -2.6192  -2.5836  -2.5657  -2.5613  -2.5452  -2.5403
    -2.5297  -2.4597  -2.4576  -2.4400  -2.4354  -2.4289  -2.4151

          k = 0.0000-0.5773 0.0000 (386352 PWs)   bands (ev):

  -102.9046 -89.1053 -87.2536 -71.3235 -71.3165 -71.2517 -71.1989 -71.1873
   -71.1706 -71.1666 -66.6635 -66.6241 -66.6241 -66.6239 -66.6234 -66.6234
   -66.6217 -66.6217 -66.6209 -66.6134 -66.6134 -66.6127 -66.6127 -66.6110
   -66.6110 -66.6078 -66.6032 -66.5993 -66.5984 -66.5984 -66.5982 -66.5982
   -66.5976 -66.5976 -66.5976 -66.5976 -66.5960 -66.5959 -66.5959 -66.5959
   -66.5959 -66.5940 -66.5937 -66.5932 -66.5932 -66.5925 -66.5915 -66.5915
   -66.5913 -66.5878 -66.5876 -66.5875 -66.5873 -66.5869 -66.5869 -66.5869
   -66.5869 -66.5852 -66.5852 -66.5852 -66.5852 -66.5852 -66.5831 -66.5831
   -66.5825 -66.5825 -66.5807 -66.5807 -66.5801 -66.5742 -66.5619 -66.5542
   -66.5499 -66.5338 -57.3115 -57.1091 -56.8586 -55.0182 -54.8978 -54.7168
   -53.2352 -53.1304 -52.7569 -40.9385 -40.9315 -40.9262 -40.9261 -40.9259
   -40.9258 -40.9254 -40.9254 -40.9254 -40.9254 -40.9243 -40.9243 -40.9243
   -40.9243 -40.9146 -40.9079 -40.9054 -40.8992 -40.8991 -40.8986 -40.8986
   -40.8975 -40.8975 -40.8913 -40.8871 -40.8871 -40.8865 -40.8865 -40.8854
   -40.8854 -40.8738 -40.8500 -40.8364 -40.8364 -40.8364 -40.8364 -40.8358
   -40.8358 -40.8358 -40.8358 -40.8357 -40.8347 -40.8347 -40.8346 -40.8346
   -40.8290 -40.8185 -40.8161 -40.8117 -40.7854 -40.7798 -40.7778 -40.7776
   -40.7770 -40.7770 -40.7760 -40.7760 -40.7724 -40.7682 -40.7681 -40.7676
   -40.7675 -40.7663 -40.7663 -40.7617 -40.7590 -40.7569 -40.7568 -40.7562
   -40.7562 -40.7551 -40.7551 -40.7537 -40.7432 -40.7368 -40.7329 -40.7273
   -40.7273 -40.7272 -40.7271 -40.7265 -40.7265 -40.7265 -40.7265 -40.7262
   -40.7254 -40.7254 -40.7254 -40.7254 -40.7198 -40.7186 -40.7184 -40.7178
   -40.7178 -40.7167 -40.7167 -40.7162 -40.7126 -40.7067 -40.7066 -40.7064
   -40.7062 -40.7061 -40.7061 -40.7061 -40.7060 -40.7055 -40.7055 -40.7055
   -40.7055 -40.7048 -40.7048 -40.7044 -40.7044 -40.7044 -40.7044 -40.7037
   -40.7009 -40.6975 -40.6975 -40.6968 -40.6968 -40.6957 -40.6957 -40.6946
   -40.6940 -40.6891 -40.6811 -40.6759 -40.6759 -40.6757 -40.6754 -40.6751
   -40.6751 -40.6751 -40.6751 -40.6738 -40.6738 -40.6738 -40.6738 -40.6736
   -40.6665 -40.6611 -40.6546 -40.6410 -40.6410 -40.6410 -40.6409 -40.6404
   -40.6404 -40.6404 -40.6404 -40.6390 -40.6390 -40.6390 -40.6390 -40.6384
   -40.6320 -40.6290 -40.6287 -40.6282 -40.6282 -40.6268 -40.6268 -40.6239
   -40.6229 -40.6148 -40.6097 -40.6093 -40.6089 -40.6089 -40.6075 -40.6075
   -40.6009 -40.5978 -40.5925 -40.5925 -40.5919 -40.5919 -40.5905 -40.5905
   -40.5838 -40.5689 -40.5620 -40.5617 -40.5613 -40.5612 -40.5598 -40.5598
   -40.5574 -40.5513 -40.5332 -20.1264 -19.8936 -19.8749 -19.8353 -19.7790
   -19.7444 -19.6686 -19.6527 -19.5526 -19.4607 -19.4378 -19.4098 -19.3495
   -19.3219 -19.2455 -19.2289 -19.1516 -18.8677 -18.8055 -18.7658 -18.7481
   -18.7394 -18.7297 -18.7241 -18.7125 -18.7065 -18.6950 -18.6664 -18.6610
   -18.6458 -18.6349 -18.6256 -18.6014 -18.5862 -18.5747 -18.5594 -18.5539
   -18.5499 -18.5375 -18.5258 -18.5185 -18.4849 -18.4823 -18.4798 -18.4725
   -18.4405 -18.4180 -18.4136 -18.4095 -18.3808 -18.3781 -18.3555 -18.3381
   -18.3230 -18.3110 -18.2874 -18.2565 -18.2536 -18.2531 -18.2367 -18.2053
   -18.1911 -18.1869 -18.1639 -18.1358 -18.1260 -18.1162 -18.1127 -18.1081
   -18.1053 -18.1025 -18.0991 -18.0931 -18.0796 -18.0760 -18.0736 -18.0708
   -18.0687 -18.0586 -18.0559 -18.0527 -18.0454 -18.0435 -18.0317 -18.0144
   -18.0127 -18.0102 -18.0063 -18.0037 -18.0024 -17.9988 -17.9921 -17.9911
   -17.9804 -17.9556 -17.9523 -17.9414 -17.9382 -17.9373 -17.9222 -17.8990
   -17.8966 -17.8901 -17.8764 -17.8558 -17.8531 -17.8500 -17.8414 -17.8388
   -17.8259 -17.8243 -17.8239 -17.8234 -17.8222 -17.8208 -17.8173 -17.8080
   -17.8066 -17.7887 -17.7881 -17.7653 -17.7646 -17.7460 -17.7450 -17.7314
   -17.7308 -17.7236 -17.7236 -12.2202 -11.9381 -11.7364 -11.7226 -11.6695
   -11.6298 -11.5528 -11.5237 -11.5047 -11.5024 -11.4988 -11.4873 -11.4749
   -11.4725 -11.4589 -11.4233 -11.4014 -11.3897 -11.3846 -11.3774 -11.3659
   -11.3428 -11.3235 -11.3202 -11.3091 -11.2856 -11.2814 -11.2757 -11.2719
   -11.2658 -11.2632 -11.2564 -11.2528 -11.2155 -11.2079 -11.2003 -11.1945
   -11.1849 -11.1760 -11.1729 -11.1708 -11.1605 -11.1512 -11.1498 -11.1344
   -11.1208 -11.1036 -11.0859 -11.0746 -11.0606 -11.0582 -11.0074 -10.9968
   -10.9681 -10.9557 -10.9360 -10.9271 -10.9246 -10.9116 -10.9002 -10.8965
   -10.8771 -10.8618 -10.8403 -10.8375 -10.8347 -10.8260 -10.8182 -10.8166
   -10.8157 -10.8147 -10.8138 -10.8068 -10.8010 -10.7996 -10.7967 -10.7964
   -10.7949 -10.7896 -10.7874 -10.7849 -10.7840 -10.7489 -10.7473 -10.7470
   -10.7467 -10.7086 -10.6065 -10.5471 -10.5369 -10.5301 -10.5198 -10.4886
   -10.4564 -10.4081 -10.3948 -10.3426 -10.3073 -10.2624 -10.2477 -10.1651
   -10.1613 -10.1381 -10.1335 -10.1160 -10.1117 -10.0925 -10.0860 -10.0583
   -10.0551 -10.0403 -10.0378 -10.0330 -10.0312 -10.0228 -10.0132  -9.9874
    -9.9786  -9.9391  -9.9335  -9.9297  -9.9213  -9.9129  -9.9035  -9.8958
    -9.8891  -9.8698  -9.8611  -9.8509  -9.8360  -9.8199  -9.8030  -9.7907
    -9.7813  -9.7692  -9.7671  -9.7435  -9.7387  -9.7137  -9.7043  -9.6928
    -9.6837  -9.6629  -9.6560  -9.6245  -9.6215  -9.6168  -9.6083  -9.5929
    -9.5771  -9.5671  -9.5550  -9.5457  -9.5389  -9.5375  -9.5251  -9.5011
    -9.4957  -9.4914  -9.4788  -9.4754  -9.4718  -9.4644  -9.4584  -9.4580
    -9.4429  -9.4364  -9.4300  -9.4147  -9.3898  -9.3601  -9.3460  -9.2969
    -9.2922  -9.2733  -9.2287  -9.2203  -9.2149  -9.2061  -9.2041  -9.1900
    -9.1730  -9.1633  -9.1507  -9.1429  -9.1339  -9.1260  -9.1174  -9.0900
    -9.0793  -9.0548  -9.0498  -9.0451  -9.0401  -9.0343  -9.0279  -9.0020
    -8.9901  -8.9844  -8.9771  -8.9603  -8.9556  -8.9511  -8.9457  -8.9310
    -8.9188  -8.9064  -8.8958  -8.8944  -8.8931  -8.8901  -8.8847  -8.8795
    -8.8747  -8.8732  -8.8710  -8.8666  -8.8644  -8.8579  -8.8547  -8.8488
    -8.8441  -8.8438  -8.8341  -8.8198  -8.8102  -8.7970  -8.7952  -8.7939
    -8.7930  -8.7883  -8.7863  -8.7672  -8.7640  -8.7496  -8.7381  -8.7371
    -8.7347  -8.7314  -8.7221  -8.6975  -8.6644  -8.6571  -8.6472  -8.6103
    -8.5980  -8.5239  -8.5115  -8.5077  -8.4768  -8.4497  -8.4273  -8.4196
    -8.3699  -8.3587  -8.3511  -8.2869  -8.2773  -8.2077  -8.1736  -8.1318
    -8.1317  -8.1235  -8.1227  -8.1171  -8.1115  -8.1108  -8.0816  -8.0713
    -8.0507  -8.0470  -7.9882  -7.9736  -7.9625  -7.9163  -7.8808  -7.8524
    -7.8476  -7.8453  -7.8394  -7.8339  -7.8238  -7.8184  -7.8140  -7.8105
    -7.8064  -7.8034  -7.8001  -7.7997  -7.7963  -7.7919  -7.7875  -7.7855
    -7.7816  -7.7748  -7.7736  -7.7723  -7.7701  -7.7697  -7.7683  -7.7626
    -7.7623  -7.7604  -7.7523  -7.7419  -7.7403  -7.7344  -7.7318  -7.7265
    -7.7239  -7.7083  -7.7010  -7.7007  -7.6996  -7.6976  -7.6710  -7.6706
    -7.6702  -7.6684  -7.6623  -7.6590  -7.6506  -7.6443  -7.6255  -7.6178
    -7.6122  -7.6116  -7.6088  -7.6039  -7.6014  -7.5966  -7.5892  -7.5868
    -7.5694  -7.5684  -7.5659  -7.5612  -7.5593  -7.5487  -7.5264  -7.4881
    -7.4703  -7.4643  -7.4595  -7.4565  -7.4356  -7.4118  -7.3836  -7.3433
    -7.2954  -7.2059  -7.1924  -7.1773  -7.1731  -7.1705  -7.1634  -7.1374
    -7.1335  -7.1193  -7.1096  -7.1031  -7.0924  -7.0657  -7.0621  -7.0431
    -7.0293  -7.0239  -7.0190  -7.0026  -6.9986  -6.9818  -6.9766  -6.9666
    -6.9386  -6.9201  -6.9185  -6.8997  -6.8915  -6.8821  -6.8725  -6.8640
    -6.8592  -6.8430  -6.8371  -6.8103  -6.7837  -6.7729  -6.7483  -6.7423
    -6.7127  -6.6975  -6.6894  -6.6766  -6.6497  -6.6268  -6.6262  -6.6167
    -6.6108  -6.6099  -6.6088  -6.6047  -6.5939  -6.5923  -6.5914  -6.5897
    -6.5843  -6.5831  -6.5829  -6.5827  -6.5815  -6.5629  -6.5279  -6.4870
    -6.4859  -6.4390  -6.4179  -6.3830  -6.3682  -6.3325  -6.3315  -6.3278
    -6.3180  -6.3102  -6.2976  -6.2835  -6.2824  -6.2811  -6.2795  -6.2767
    -6.2759  -6.2667  -6.2560  -6.2493  -6.2344  -6.2328  -6.2207  -6.2087
    -6.2060  -6.2022  -6.2011  -6.1705  -6.0706  -6.0023  -5.9930  -5.9632
    -5.9373  -5.9327  -5.8936  -5.8755  -5.8655  -5.8586  -5.8473  -5.8281
    -5.7138  -5.6910  -5.6362  -5.5988  -5.5872  -5.3462  -5.2495  -5.1300
    -5.0257  -5.0025  -4.5647  -4.0986  -4.0958  -4.0924  -4.0753  -3.9507
    -3.9314  -3.9275  -3.9219  -3.9197  -3.8762  -3.8511  -3.8458  -3.8371
    -3.8309  -3.8179  -3.8149  -3.8037  -3.8026  -3.8005  -3.7570  -3.7087
    -3.6944  -3.6902  -3.6481  -3.6211  -3.6054  -3.6050  -3.6020  -3.6013
    -3.5674  -3.5591  -3.5538  -3.5432  -3.5325  -3.5241  -3.5200  -3.5184
    -3.5135  -3.4980  -3.4897  -3.4848  -3.4799  -3.4761  -3.4753  -3.4720
    -3.4591  -3.4524  -3.4485  -3.4380  -3.4318  -3.4215  -3.4181  -3.4128
    -3.3966  -3.3724  -3.3601  -3.3535  -3.3524  -3.3485  -3.3464  -3.3460
    -3.3394  -3.3153  -3.3122  -3.2980  -3.2950  -3.2906  -3.2876  -3.2830
    -3.2823  -3.2790  -3.2747  -3.2592  -3.2534  -3.2477  -3.2442  -3.2363
    -3.2327  -3.2289  -3.2173  -3.2141  -3.2132  -3.2052  -3.2010  -3.1993
    -3.1893  -3.1821  -3.1743  -3.1707  -3.1659  -3.1635  -3.1633  -3.1578
    -3.1354  -3.1050  -3.1000  -3.0906  -3.0759  -3.0720  -3.0694  -3.0645
    -3.0588  -3.0308  -3.0297  -3.0262  -3.0247  -3.0242  -3.0236  -3.0169
    -3.0160  -3.0128  -3.0105  -3.0076  -3.0053  -2.9956  -2.9902  -2.9861
    -2.9826  -2.9779  -2.9746  -2.9710  -2.9667  -2.9641  -2.9612  -2.9530
    -2.9497  -2.9484  -2.9467  -2.9361  -2.9357  -2.9317  -2.9256  -2.8997
    -2.8982  -2.8916  -2.8880  -2.8791  -2.8775  -2.8709  -2.8666  -2.8006
    -2.7945  -2.7922  -2.7905  -2.7437  -2.7253  -2.7194  -2.7073  -2.6230
    -2.6108  -2.5933  -2.5897  -2.5772  -2.5679  -2.5647  -2.5470  -2.5421
    -2.5313  -2.5277  -2.5186  -2.5116  -2.5076  -2.4847  -2.4493  -2.4371
    -2.4227  -2.4093  -2.3993  -2.3925  -2.3835  -2.3771  -2.3702

          k =-0.5000-0.2887 0.0000 (386352 PWs)   bands (ev):

  -102.9046 -89.1053 -87.2536 -71.3235 -71.3165 -71.2517 -71.1989 -71.1873
   -71.1706 -71.1666 -66.6635 -66.6248 -66.6241 -66.6240 -66.6234 -66.6234
   -66.6217 -66.6217 -66.6200 -66.6134 -66.6134 -66.6127 -66.6127 -66.6110
   -66.6110 -66.6080 -66.6028 -66.6002 -66.5983 -66.5983 -66.5983 -66.5983
   -66.5976 -66.5976 -66.5976 -66.5976 -66.5959 -66.5959 -66.5959 -66.5959
   -66.5956 -66.5939 -66.5938 -66.5932 -66.5932 -66.5927 -66.5915 -66.5915
   -66.5908 -66.5877 -66.5876 -66.5875 -66.5875 -66.5869 -66.5869 -66.5869
   -66.5869 -66.5855 -66.5852 -66.5852 -66.5852 -66.5852 -66.5831 -66.5831
   -66.5825 -66.5825 -66.5807 -66.5807 -66.5805 -66.5738 -66.5617 -66.5543
   -66.5500 -66.5338 -57.3115 -57.1091 -56.8586 -55.0182 -54.8979 -54.7168
   -53.2352 -53.1304 -52.7569 -40.9320 -40.9297 -40.9260 -40.9260 -40.9260
   -40.9259 -40.9254 -40.9254 -40.9254 -40.9254 -40.9243 -40.9243 -40.9243
   -40.9243 -40.9201 -40.9128 -40.9042 -40.8992 -40.8992 -40.8986 -40.8986
   -40.8975 -40.8975 -40.8930 -40.8871 -40.8871 -40.8865 -40.8865 -40.8854
   -40.8854 -40.8706 -40.8563 -40.8364 -40.8364 -40.8364 -40.8364 -40.8358
   -40.8358 -40.8358 -40.8358 -40.8347 -40.8347 -40.8346 -40.8346 -40.8338
   -40.8222 -40.8206 -40.8164 -40.8152 -40.7877 -40.7799 -40.7777 -40.7777
   -40.7770 -40.7770 -40.7760 -40.7760 -40.7682 -40.7681 -40.7678 -40.7676
   -40.7675 -40.7663 -40.7663 -40.7640 -40.7569 -40.7568 -40.7562 -40.7562
   -40.7561 -40.7551 -40.7551 -40.7503 -40.7441 -40.7377 -40.7335 -40.7279
   -40.7273 -40.7273 -40.7272 -40.7272 -40.7265 -40.7265 -40.7265 -40.7265
   -40.7254 -40.7254 -40.7254 -40.7254 -40.7189 -40.7185 -40.7185 -40.7178
   -40.7178 -40.7167 -40.7167 -40.7152 -40.7114 -40.7067 -40.7067 -40.7062
   -40.7062 -40.7062 -40.7062 -40.7061 -40.7061 -40.7055 -40.7055 -40.7055
   -40.7055 -40.7048 -40.7048 -40.7044 -40.7044 -40.7044 -40.7044 -40.7003
   -40.6991 -40.6975 -40.6975 -40.6968 -40.6968 -40.6957 -40.6957 -40.6954
   -40.6941 -40.6884 -40.6800 -40.6759 -40.6758 -40.6756 -40.6756 -40.6751
   -40.6751 -40.6751 -40.6751 -40.6738 -40.6738 -40.6738 -40.6738 -40.6721
   -40.6707 -40.6634 -40.6614 -40.6410 -40.6410 -40.6410 -40.6410 -40.6404
   -40.6404 -40.6404 -40.6404 -40.6390 -40.6390 -40.6390 -40.6390 -40.6360
   -40.6333 -40.6289 -40.6288 -40.6282 -40.6282 -40.6268 -40.6268 -40.6232
   -40.6210 -40.6104 -40.6097 -40.6094 -40.6089 -40.6089 -40.6075 -40.6075
   -40.6039 -40.5970 -40.5925 -40.5925 -40.5919 -40.5919 -40.5905 -40.5905
   -40.5873 -40.5728 -40.5619 -40.5618 -40.5613 -40.5612 -40.5598 -40.5598
   -40.5558 -40.5463 -40.5345 -20.1271 -19.8933 -19.8749 -19.8345 -19.7787
   -19.7436 -19.6680 -19.6524 -19.5398 -19.4711 -19.4375 -19.4186 -19.3495
   -19.3271 -19.2454 -19.2305 -19.1473 -18.8455 -18.8027 -18.7804 -18.7506
   -18.7436 -18.7296 -18.7228 -18.7174 -18.7166 -18.6855 -18.6675 -18.6568
   -18.6489 -18.6361 -18.6250 -18.5915 -18.5861 -18.5716 -18.5580 -18.5545
   -18.5509 -18.5362 -18.5226 -18.5097 -18.4901 -18.4827 -18.4780 -18.4728
   -18.4414 -18.4177 -18.4133 -18.4086 -18.3832 -18.3811 -18.3596 -18.3373
   -18.3257 -18.3208 -18.2881 -18.2577 -18.2535 -18.2483 -18.2356 -18.2045
   -18.1942 -18.1809 -18.1653 -18.1378 -18.1231 -18.1193 -18.1163 -18.1072
   -18.1058 -18.1028 -18.1012 -18.0871 -18.0786 -18.0772 -18.0739 -18.0722
   -18.0698 -18.0606 -18.0556 -18.0526 -18.0450 -18.0437 -18.0336 -18.0160
   -18.0121 -18.0083 -18.0060 -18.0038 -18.0019 -17.9979 -17.9932 -17.9917
   -17.9821 -17.9563 -17.9492 -17.9420 -17.9390 -17.9303 -17.9247 -17.8988
   -17.8950 -17.8860 -17.8800 -17.8546 -17.8539 -17.8479 -17.8439 -17.8358
   -17.8261 -17.8241 -17.8237 -17.8230 -17.8224 -17.8208 -17.8175 -17.8086
   -17.8061 -17.7899 -17.7861 -17.7666 -17.7636 -17.7479 -17.7446 -17.7325
   -17.7310 -17.7237 -17.7236 -12.2322 -11.9226 -11.7267 -11.7231 -11.6848
   -11.6300 -11.5383 -11.5211 -11.5064 -11.5020 -11.5000 -11.4864 -11.4801
   -11.4724 -11.4520 -11.4182 -11.4101 -11.3909 -11.3851 -11.3738 -11.3630
   -11.3408 -11.3312 -11.3233 -11.3027 -11.2917 -11.2845 -11.2755 -11.2713
   -11.2646 -11.2630 -11.2571 -11.2553 -11.2168 -11.2088 -11.2014 -11.1945
   -11.1842 -11.1778 -11.1720 -11.1698 -11.1588 -11.1511 -11.1506 -11.1371
   -11.1224 -11.0976 -11.0811 -11.0725 -11.0671 -11.0537 -11.0207 -10.9941
   -10.9658 -10.9514 -10.9400 -10.9333 -10.9155 -10.9138 -10.9026 -10.8854
   -10.8619 -10.8532 -10.8406 -10.8386 -10.8327 -10.8221 -10.8191 -10.8155
   -10.8152 -10.8130 -10.8123 -10.8072 -10.8030 -10.8002 -10.7985 -10.7968
   -10.7959 -10.7876 -10.7868 -10.7854 -10.7819 -10.7488 -10.7475 -10.7469
   -10.7463 -10.7177 -10.6095 -10.5499 -10.5396 -10.5333 -10.5177 -10.5014
   -10.4752 -10.4359 -10.3942 -10.3591 -10.2887 -10.2571 -10.2327 -10.1690
   -10.1443 -10.1364 -10.1313 -10.1154 -10.1055 -10.0945 -10.0810 -10.0601
   -10.0534 -10.0381 -10.0359 -10.0335 -10.0325 -10.0226 -10.0178  -9.9903
    -9.9765  -9.9369  -9.9364  -9.9331  -9.9128  -9.9122  -9.9024  -9.8966
    -9.8921  -9.8702  -9.8643  -9.8595  -9.8474  -9.8205  -9.8007  -9.7926
    -9.7760  -9.7730  -9.7665  -9.7422  -9.7351  -9.7265  -9.7009  -9.6894
    -9.6868  -9.6628  -9.6566  -9.6308  -9.6250  -9.6197  -9.6115  -9.6018
    -9.5734  -9.5626  -9.5529  -9.5430  -9.5406  -9.5383  -9.5257  -9.4985
    -9.4947  -9.4910  -9.4792  -9.4770  -9.4741  -9.4713  -9.4631  -9.4593
    -9.4471  -9.4358  -9.4265  -9.3969  -9.3910  -9.3645  -9.3483  -9.3055
    -9.2746  -9.2632  -9.2386  -9.2214  -9.2149  -9.2058  -9.2009  -9.1965
    -9.1733  -9.1615  -9.1471  -9.1410  -9.1255  -9.1174  -9.1116  -9.0873
    -9.0770  -9.0606  -9.0519  -9.0472  -9.0402  -9.0355  -9.0322  -8.9996
    -8.9944  -8.9817  -8.9770  -8.9587  -8.9557  -8.9471  -8.9429  -8.9251
    -8.9126  -8.9033  -8.8972  -8.8957  -8.8918  -8.8909  -8.8865  -8.8833
    -8.8746  -8.8731  -8.8694  -8.8638  -8.8618  -8.8606  -8.8561  -8.8463
    -8.8442  -8.8437  -8.8403  -8.8152  -8.8115  -8.7971  -8.7945  -8.7938
    -8.7934  -8.7885  -8.7876  -8.7675  -8.7646  -8.7605  -8.7388  -8.7376
    -8.7333  -8.7298  -8.7223  -8.7033  -8.6633  -8.6531  -8.6371  -8.6271
    -8.5920  -8.5151  -8.5092  -8.4995  -8.4864  -8.4557  -8.4340  -8.3963
    -8.3600  -8.3538  -8.3228  -8.2922  -8.2705  -8.2240  -8.1711  -8.1331
    -8.1317  -8.1289  -8.1228  -8.1207  -8.1115  -8.1108  -8.0996  -8.0725
    -8.0587  -8.0522  -7.9836  -7.9736  -7.9606  -7.9144  -7.8886  -7.8602
    -7.8517  -7.8453  -7.8394  -7.8318  -7.8277  -7.8194  -7.8155  -7.8083
    -7.8068  -7.8027  -7.8011  -7.7977  -7.7965  -7.7909  -7.7865  -7.7850
    -7.7815  -7.7784  -7.7736  -7.7725  -7.7698  -7.7693  -7.7664  -7.7652
    -7.7626  -7.7622  -7.7551  -7.7466  -7.7400  -7.7336  -7.7323  -7.7311
    -7.7241  -7.7030  -7.7010  -7.7002  -7.7000  -7.6921  -7.6753  -7.6704
    -7.6702  -7.6693  -7.6675  -7.6611  -7.6533  -7.6396  -7.6278  -7.6183
    -7.6149  -7.6124  -7.6102  -7.6041  -7.6011  -7.5976  -7.5893  -7.5870
    -7.5705  -7.5683  -7.5673  -7.5603  -7.5549  -7.5503  -7.5359  -7.4922
    -7.4683  -7.4637  -7.4593  -7.4571  -7.4212  -7.4038  -7.3615  -7.3227
    -7.3191  -7.2075  -7.1834  -7.1770  -7.1726  -7.1685  -7.1633  -7.1378
    -7.1282  -7.1210  -7.1101  -7.1035  -7.0848  -7.0706  -7.0571  -7.0502
    -7.0312  -7.0238  -7.0173  -7.0136  -6.9999  -6.9826  -6.9813  -6.9548
    -6.9430  -6.9195  -6.9154  -6.9004  -6.8896  -6.8857  -6.8687  -6.8642
    -6.8595  -6.8412  -6.8251  -6.8127  -6.7955  -6.7686  -6.7623  -6.7357
    -6.7332  -6.6996  -6.6859  -6.6588  -6.6461  -6.6360  -6.6249  -6.6163
    -6.6106  -6.6087  -6.6079  -6.6074  -6.5932  -6.5916  -6.5911  -6.5908
    -6.5832  -6.5830  -6.5829  -6.5829  -6.5719  -6.5519  -6.5229  -6.5078
    -6.4851  -6.4711  -6.4191  -6.4030  -6.3474  -6.3303  -6.3289  -6.3278
    -6.3156  -6.3099  -6.2926  -6.2828  -6.2817  -6.2809  -6.2771  -6.2767
    -6.2758  -6.2607  -6.2553  -6.2440  -6.2347  -6.2336  -6.2200  -6.2080
    -6.2058  -6.2014  -6.2000  -6.1601  -6.0803  -6.0026  -5.9933  -5.9625
    -5.9335  -5.9255  -5.8952  -5.8720  -5.8710  -5.8598  -5.8437  -5.8329
    -5.7216  -5.6923  -5.6323  -5.5989  -5.5837  -5.3477  -5.2538  -5.1333
    -5.0228  -5.0014  -4.5609  -4.0976  -4.0944  -4.0888  -4.0754  -3.9503
    -3.9336  -3.9307  -3.9210  -3.9101  -3.8770  -3.8532  -3.8452  -3.8378
    -3.8295  -3.8181  -3.8134  -3.8029  -3.8020  -3.8002  -3.7645  -3.7255
    -3.6912  -3.6840  -3.6491  -3.6205  -3.6084  -3.6054  -3.6025  -3.6000
    -3.5739  -3.5585  -3.5533  -3.5470  -3.5369  -3.5272  -3.5231  -3.5190
    -3.5125  -3.5042  -3.4865  -3.4839  -3.4783  -3.4766  -3.4739  -3.4668
    -3.4611  -3.4513  -3.4445  -3.4420  -3.4304  -3.4229  -3.4201  -3.4102
    -3.3997  -3.3812  -3.3593  -3.3532  -3.3510  -3.3493  -3.3479  -3.3452
    -3.3416  -3.3174  -3.3140  -3.3047  -3.2947  -3.2881  -3.2879  -3.2859
    -3.2811  -3.2807  -3.2753  -3.2662  -3.2539  -3.2511  -3.2411  -3.2399
    -3.2324  -3.2275  -3.2220  -3.2148  -3.2125  -3.2086  -3.2027  -3.1949
    -3.1873  -3.1823  -3.1778  -3.1696  -3.1640  -3.1639  -3.1637  -3.1600
    -3.1426  -3.1120  -3.1009  -3.0953  -3.0751  -3.0690  -3.0676  -3.0627
    -3.0543  -3.0336  -3.0275  -3.0263  -3.0254  -3.0247  -3.0238  -3.0181
    -3.0164  -3.0117  -3.0104  -3.0071  -2.9992  -2.9956  -2.9927  -2.9842
    -2.9813  -2.9791  -2.9747  -2.9710  -2.9638  -2.9620  -2.9551  -2.9527
    -2.9493  -2.9478  -2.9422  -2.9350  -2.9328  -2.9277  -2.9146  -2.8998
    -2.8969  -2.8914  -2.8902  -2.8820  -2.8748  -2.8677  -2.8528  -2.8013
    -2.7955  -2.7934  -2.7907  -2.7537  -2.7250  -2.7225  -2.7119  -2.6267
    -2.6145  -2.5961  -2.5858  -2.5777  -2.5733  -2.5606  -2.5477  -2.5425
    -2.5335  -2.5287  -2.5196  -2.5132  -2.5070  -2.4735  -2.4442  -2.4411
    -2.4374  -2.4216  -2.4050  -2.3893  -2.3823  -2.3783  -2.3635

          k =-0.5000-0.8660 0.0000 (386352 PWs)   bands (ev):

  -102.9046 -89.1053 -87.2536 -71.3235 -71.3165 -71.2517 -71.1989 -71.1873
   -71.1706 -71.1666 -66.6635 -66.6255 -66.6242 -66.6239 -66.6234 -66.6234
   -66.6217 -66.6217 -66.6160 -66.6134 -66.6133 -66.6133 -66.6127 -66.6127
   -66.6110 -66.6110 -66.6034 -66.5986 -66.5985 -66.5981 -66.5980 -66.5976
   -66.5976 -66.5976 -66.5976 -66.5969 -66.5962 -66.5959 -66.5959 -66.5959
   -66.5959 -66.5940 -66.5937 -66.5932 -66.5932 -66.5921 -66.5915 -66.5915
   -66.5911 -66.5880 -66.5876 -66.5876 -66.5871 -66.5869 -66.5869 -66.5869
   -66.5869 -66.5852 -66.5852 -66.5852 -66.5852 -66.5847 -66.5832 -66.5831
   -66.5825 -66.5825 -66.5817 -66.5807 -66.5807 -66.5734 -66.5624 -66.5541
   -66.5498 -66.5338 -57.3115 -57.1091 -56.8586 -55.0182 -54.8978 -54.7168
   -53.2352 -53.1304 -52.7569 -40.9428 -40.9376 -40.9262 -40.9261 -40.9260
   -40.9256 -40.9254 -40.9254 -40.9254 -40.9254 -40.9243 -40.9243 -40.9243
   -40.9243 -40.9136 -40.8993 -40.8991 -40.8986 -40.8986 -40.8981 -40.8975
   -40.8975 -40.8891 -40.8871 -40.8871 -40.8865 -40.8865 -40.8854 -40.8854
   -40.8835 -40.8780 -40.8688 -40.8365 -40.8364 -40.8364 -40.8363 -40.8358
   -40.8358 -40.8358 -40.8358 -40.8347 -40.8347 -40.8347 -40.8347 -40.8346
   -40.8328 -40.8220 -40.8199 -40.8133 -40.7887 -40.7778 -40.7776 -40.7770
   -40.7770 -40.7760 -40.7760 -40.7749 -40.7732 -40.7682 -40.7681 -40.7676
   -40.7675 -40.7663 -40.7663 -40.7604 -40.7577 -40.7569 -40.7568 -40.7562
   -40.7562 -40.7551 -40.7551 -40.7512 -40.7438 -40.7376 -40.7287 -40.7275
   -40.7274 -40.7271 -40.7269 -40.7265 -40.7265 -40.7265 -40.7265 -40.7261
   -40.7254 -40.7254 -40.7254 -40.7254 -40.7186 -40.7184 -40.7178 -40.7178
   -40.7178 -40.7167 -40.7167 -40.7165 -40.7127 -40.7067 -40.7066 -40.7065
   -40.7063 -40.7061 -40.7061 -40.7061 -40.7059 -40.7055 -40.7055 -40.7055
[...]
     atom  143 type  2   force =    -0.00001848   -0.00005871   -0.00000365
     atom  144 type  2   force =     0.00012681    0.00005014    0.00012564
     atom  145 type  1   force =     0.00000134   -0.00000198    0.00068549
     atom  146 type  1   force =    -0.00002962   -0.00000758    0.00000601
     atom  147 type  2   force =     0.00000163   -0.00000362    0.00000306
     atom  148 type  2   force =    -0.00000022   -0.00000135    0.00161442
     atom  149 type  2   force =    -0.00000048   -0.00000181   -0.00236237
     atom  150 type  2   force =    -0.00000829   -0.00001490    0.00004789
     atom  151 type  1   force =    -0.00001526   -0.00003113    0.00001204
     atom  152 type  1   force =    -0.00019328   -0.00024826   -0.00040342
     atom  153 type  2   force =     0.00019157    0.00003579    0.00003456
     atom  154 type  2   force =    -0.00001745   -0.00005328    0.00000860
     atom  155 type  2   force =    -0.00005453   -0.00007933    0.00000999
     atom  156 type  2   force =     0.00023145   -0.00014497   -0.00006498
     atom  157 type  1   force =     0.00000138   -0.00000272    0.00068534
     atom  158 type  1   force =    -0.00001766   -0.00001843    0.00000469
     atom  159 type  2   force =    -0.00000046   -0.00000085    0.00000058
     atom  160 type  2   force =    -0.00000001   -0.00000146    0.00161456
     atom  161 type  2   force =    -0.00000014   -0.00000191   -0.00236249
     atom  162 type  2   force =    -0.00000675   -0.00001620    0.00005145
     atom  163 type  1   force =    -0.00001486    0.00000344    0.00000112
     atom  164 type  1   force =    -0.00008529    0.00002136   -0.00025990
     atom  165 type  2   force =     0.00027222    0.00035151    0.00010532
     atom  166 type  2   force =    -0.00001059   -0.00001874   -0.00001353
     atom  167 type  2   force =    -0.00003540   -0.00003333   -0.00000889
     atom  168 type  2   force =     0.00032161    0.00018759    0.00025828
     atom  169 type  1   force =     0.00000139   -0.00000190    0.00068498
     atom  170 type  1   force =    -0.00001632   -0.00002488    0.00001426
     atom  171 type  2   force =    -0.00000243    0.00000007    0.00000122
     atom  172 type  2   force =     0.00000004   -0.00000133    0.00161444
     atom  173 type  2   force =    -0.00000012   -0.00000190   -0.00236230
     atom  174 type  2   force =    -0.00001081   -0.00001585    0.00004648
     atom  175 type  1   force =    -0.00001267   -0.00003027   -0.00000590
     atom  176 type  1   force =     0.00010525    0.00007985    0.00011892
     atom  177 type  2   force =    -0.00020930   -0.00019083    0.00027727
     atom  178 type  2   force =    -0.00002507   -0.00000526    0.00004030
     atom  179 type  2   force =    -0.00001680   -0.00000838    0.00002207
     atom  180 type  2   force =    -0.00020822   -0.00017262    0.00009079
     atom  181 type  1   force =     0.00000189   -0.00000176    0.00068577
     atom  182 type  1   force =    -0.00001462   -0.00001777    0.00000816
     atom  183 type  2   force =    -0.00000089   -0.00000131    0.00000163
     atom  184 type  2   force =    -0.00000003   -0.00000121    0.00161446
     atom  185 type  2   force =    -0.00000029   -0.00000181   -0.00236223
     atom  186 type  2   force =    -0.00001062   -0.00001387    0.00004676
     atom  187 type  1   force =    -0.00001930   -0.00004958    0.00000373
     atom  188 type  1   force =    -0.00007830   -0.00006875    0.00004247
     atom  189 type  2   force =    -0.00003301    0.00008406    0.00007554
     atom  190 type  2   force =    -0.00001264   -0.00006700   -0.00001031
     atom  191 type  2   force =    -0.00001282   -0.00003756    0.00000285
     atom  192 type  2   force =    -0.00005446    0.00019054   -0.00010894
     atom  193 type  3   force =     0.00009049    0.00074944    0.00060837
     atom  194 type  4   force =    -0.00018268    0.00017907    0.00041555
     atom  195 type  4   force =    -0.00123890    0.00011462   -0.00123575

     Total force =     0.004207     Total SCF correction =     0.000585
     SCF correction compared to forces is large: reduce conv_thr to get better values
     Energy error            =      2.9E-05 Ry
     Gradient error          =      1.2E-03 Ry/Bohr

     number of scf cycles    =  51
     number of bfgs steps    =  50

     energy             old  =  -34492.2426293665 Ry
     energy             new  =  -34492.2426579751 Ry

     CASE: energy            _new < energy            _old

     new trust radius        =       0.0267632184 bohr
     new conv_thr            =       0.0000000100 Ry


ATOMIC_POSITIONS (angstrom)
Mo               0.0000119917        1.8193638619       -9.1672481230    0   0   0
Mo               1.5756136568        0.9097075315       -3.0554901653    0   0   0
S                0.0000188998        1.8193822938       -4.6232556019    0   0   0
S                1.5756321638        0.9096773839       -7.6014065489    0   0   0
S                1.5756326175        0.9096785128      -10.7330757790    0   0   0
S                0.0000189190        1.8193860094       -1.4877129945    0   0   0
Mo              -0.0022440582        1.8165182921        3.0597372467
Mo               1.5671819463        0.8817623392        9.1791827025
S               -0.0158652434        1.8090637466        7.6332998837
S                1.5726134760        0.9063099900        4.6275833802
S                1.5733896296        0.9066644574        1.4920303795
S               -0.0231375394        1.6798151377       10.8040670162
Mo              -1.5756053507        4.5484193819       -9.1672481230    0   0   0
Mo               0.0000378379        3.6387394919       -3.0554952701    0   0   0
S               -1.5755913433        4.5484363582       -4.6232494962    0   0   0
S                0.0000148214        3.6387329039       -7.6014065489    0   0   0
S                0.0000152751        3.6387340328      -10.7330757790    0   0   0
S               -1.5755906502        4.5484413613       -1.4877305502    0   0   0
Mo              -1.5774234030        4.5450726750        3.0601994944
Mo              -0.0313072296        3.5902959867        9.2261553967
S               -1.5760989177        4.5222884365        7.6425594189
S               -0.0018240622        3.6356199212        4.6283103340
S               -0.0020337834        3.6359085692        1.4918536694
S               -1.6641540986        4.5524743842       10.7816429314
Mo              -3.1512226931        7.2774749019       -9.1672481230    0   0   0
Mo              -1.5755910988        6.3678216792       -3.0555115988    0   0   0
S               -3.1512162438        7.2774954350       -4.6232578178    0   0   0
S               -1.5756025210        6.3677884239       -7.6014065489    0   0   0
S               -1.5756020673        6.3677895528      -10.7330757790    0   0   0
S               -3.1512127704        7.2774877076       -1.4877200710    0   0   0
Mo              -3.1532727746        7.2736889937        3.0600308312
Mo              -1.6088886791        6.3569856855        9.1929122265
S               -3.1577385887        7.2523108349        7.5963992326
S               -1.5773289219        6.3640085008        4.6285656083
S               -1.5774601088        6.3644517157        1.4922925025
S               -3.1914417562        7.2690937670       10.7437756278
Mo              -4.7268400355       10.0065304219       -9.1672481230    0   0   0
Mo              -3.1512405618        9.0968403586       -3.0554816746    0   0   0
S               -4.7268341792       10.0065523623       -4.6232463762    0   0   0
S               -3.1512198634        9.0968439439       -7.6014065489    0   0   0
S               -3.1512194097        9.0968450728      -10.7330757790    0   0   0
S               -4.7268370797       10.0065537885       -1.4877176751    0   0   0
Mo              -4.7293236269       10.0031551256        3.0596180405
Mo              -3.1659092682        9.0749433716        9.1632207889
S               -4.7408375864        9.9904469700        7.5978597898
S               -3.1540440828        9.0929517414        4.6274453039
S               -3.1535488112        9.0932461036        1.4920638337
S               -4.7350056688        9.9720334403       10.7383220845
Mo               3.1512517547        1.8193638619       -9.1672481230    0   0   0
Mo               4.7269020221        0.9097289540       -3.0554823951    0   0   0
S                3.1512612351        1.8193882564       -4.6232320683    0   0   0
S                4.7268719268        0.9096773839       -7.6014065489    0   0   0
S                4.7268723805        0.9096785128      -10.7330757790    0   0   0
S                3.1512592485        1.8193890201       -1.4877261251    0   0   0
Mo               3.1486551156        1.8160943060        3.0602163920
Mo               4.7134707868        0.8837833083        9.1600656490
S                3.1359669343        1.7918235613        7.5927327508
S                4.7244613047        0.9060128577        4.6273827429
S                4.7242354829        0.9060939699        1.4922443182
S                3.1547719621        1.7797962545       10.7406038462
Mo               1.5756344123        4.5484193819       -9.1672481230    0   0   0
Mo               3.1512756394        3.6387769522       -3.0554814834    0   0   0
S                1.5756504879        4.5484423799       -4.6232390542    0   0   0
S                3.1512545844        3.6387329039       -7.6014065489    0   0   0
S                3.1512550381        3.6387340328      -10.7330757790    0   0   0
S                1.5756466253        4.5484431864       -1.4877251801    0   0   0
Mo               1.5733109437        4.5454174536        3.0598566732
Mo               3.1761154538        3.5961359512        9.1733071770
S                1.5458221322        4.5348540038        7.6756376897
S                3.1482452547        3.6355853434        4.6284280853
S                3.1490887964        3.6354937450        1.4923122222
S                1.6347124982        4.4521879009       10.7656478538
Mo               0.0000170699        7.2774749019       -9.1672481230    0   0   0
Mo               1.5756764447        6.3678236689       -3.0554877708    0   0   0
S                0.0000381981        7.2774979204       -4.6232454413    0   0   0
S                1.5756372420        6.3677884239       -7.6014065489    0   0   0
S                1.5756376957        6.3677895528      -10.7330757790    0   0   0
S                0.0000328088        7.2774946042       -1.4877307940    0   0   0
Mo              -0.0019221774        7.2737241017        3.0602247852
Mo               1.5716035207        6.3652852870        9.2273632094
S                0.0000216447        7.2465821414        7.6483635790
S                1.5734018991        6.3640843414        4.6285181296
S                1.5733947115        6.3646465363        1.4918039584
S               -0.0961316473        7.3286200150       10.7989996810
Mo              -1.5756002725       10.0065304219       -9.1672481230    0   0   0
Mo               0.0000873425        9.0968676911       -3.0554912329    0   0   0
S               -1.5755883952       10.0065504530       -4.6232240150    0   0   0
S                0.0000198996        9.0968439439       -7.6014065489    0   0   0
S                0.0000203533        9.0968450728      -10.7330757790    0   0   0
S               -1.5755859047       10.0065492576       -1.4877362381    0   0   0
Mo              -1.5780812944       10.0027255435        3.0601043084
Mo              -0.0181906611        9.0957668669        9.1720550606
S               -1.5893689703        9.9830773909        7.5919015765
S               -0.0023204100        9.0927463304        4.6281707291
S               -0.0022184853        9.0933643476        1.4924294918
S               -1.5993125838        9.9941811942       10.7367700753
Mo               6.3024915177        1.8193638619       -9.1672481230    0   0   0
Mo               7.8781001445        0.9096521684       -3.0554919963    0   0   0
S                6.3025008696        1.8193826232       -4.6232480596    0   0   0
S                7.8781116898        0.9096773839       -7.6014065489    0   0   0
S                7.8781121435        0.9096785128      -10.7330757790    0   0   0
S                6.3025042007        1.8193849068       -1.4877147524    0   0   0
Mo               6.3002326664        1.8155437555        3.0596220377
Mo               7.8648079307        0.8888739875        9.1654962597
S                6.2909903571        1.7950424351        7.5913610064
S                7.8758473566        0.9060711438        4.6275563835
S                7.8761995477        0.9061277996        1.4921513947
S                6.2891091216        1.7965660014       10.7288226723
Mo               4.7268741753        4.5484193819       -9.1672481230    0   0   0
Mo               6.3024679138        3.6387501714       -3.0554895197    0   0   0
S                4.7268748770        4.5484386753       -4.6232519432    0   0   0
S                6.3024943474        3.6387329039       -7.6014065489    0   0   0
S                6.3024948011        3.6387340328      -10.7330757790    0   0   0
S                4.7268770533        4.5484432419       -1.4877137856    0   0   0
Mo               4.7244383630        4.5448306473        3.0602639589
Mo               6.2930572935        3.6164894509        9.1590734168
S                4.7192372639        4.5315717701        7.5916608103
S                6.3002309940        3.6345513467        4.6273089085
S                6.3002574703        3.6352151706        1.4921935265
S                4.7379031362        4.5260657187       10.7361132585
Mo               3.1512568329        7.2774749019       -9.1672481230    0   0   0
Mo               4.7268384135        6.3678043337       -3.0554959052    0   0   0
S                3.1512606125        7.2774972547       -4.6232589675    0   0   0
S                4.7268770050        6.3677884239       -7.6014065489    0   0   0
S                4.7268774587        6.3677895528      -10.7330757790    0   0   0
S                3.1512629079        7.2774963749       -1.4877081835    0   0   0
Mo               3.1486073337        7.2738766794        3.0597598248
Mo               4.7263638929        6.3466314241        9.1733720665
S                3.1190997805        7.2464303999        7.6397598988
S                4.7239548367        6.3644055096        4.6276946850
S                4.7246024717        6.3641838280        1.4921950432
S                3.2515206971        7.3238016012       10.8254543444
Mo               1.5756394905       10.0065304219       -9.1672481230    0   0   0
Mo               3.1512330605        9.0968514907       -3.0554878870    0   0   0
S                1.5756499830       10.0065443759       -4.6232632674    0   0   0
S                3.1512596626        9.0968439439       -7.6014065489    0   0   0
S                3.1512601163        9.0968450728      -10.7330757790    0   0   0
S                1.5756503041       10.0065459699       -1.4877044377    0   0   0
Mo               1.5733500095       10.0029069174        3.0602594914
Mo               3.1431908609        9.0847401318        9.1748179442
S                1.5649090930        9.9846268960        7.5987249712
S                3.1488018520        9.0927831194        4.6279606633
S                3.1489960568        9.0937270382        1.4922338503
S                1.5620669454        9.9938562457       10.7390467141
Mo               9.4537312807        1.8193638619       -9.1672481230    0   0   0
Mo              11.0293863460        0.9096952246       -3.0554894007    0   0   0
S                9.4537395970        1.8193770750       -4.6232328036    0   0   0
S               11.0293514528        0.9096773839       -7.6014065489    0   0   0
S               11.0293519066        0.9096785128      -10.7330757790    0   0   0
S                9.4537393632        1.8193794783       -1.4877366147    0   0   0
Mo               9.4516649097        1.8160649770        3.0601893257
Mo              11.0098194940        0.8766599223        9.1746381447
S                9.4420914101        1.7979102367        7.5988851059
S               11.0273990795        0.9066174904        4.6280126356
S               11.0272050772        0.9066798114        1.4921978060
S                9.4326465380        1.7940109220       10.7399910892
Mo               7.8781139383        4.5484193819       -9.1672481230    0   0   0
Mo               9.4537539161        3.6387607911       -3.0554933032    0   0   0
S                7.8781175448        4.5484378232       -4.6232366318    0   0   0
S                9.4537341104        3.6387329039       -7.6014065489    0   0   0
S                9.4537345641        3.6387340328      -10.7330757790    0   0   0
S                7.8781194018        4.5484411585       -1.4877377057    0   0   0
Mo               7.8760779491        4.5445951506        3.0599870826
Mo               9.4261932800        3.6132805871        9.1747144252
S                7.8686315097        4.5243011371        7.5918213590
S                9.4520589805        3.6353407588        4.6282146425
S                9.4519315969        3.6354431951        1.4923045909
S                7.8515859267        4.5298452721       10.7341266454
Mo               6.3024965959        7.2774749019       -9.1672481230    0   0   0
Mo               7.8781361655        6.3678242352       -3.0555014130    0   0   0
S                6.3024973331        7.2774953556       -4.6232392528    0   0   0
S                7.8781167680        6.3677884239       -7.6014065489    0   0   0
S                7.8781172217        6.3677895528      -10.7330757790    0   0   0
S                6.3024989866        7.2774929744       -1.4877349119    0   0   0
Mo               6.3001163860        7.2739297297        3.0598955533
Mo               7.8644991207        6.3473002797        9.1599824956
S                6.2879588312        7.2585436278        7.5924765263
S                7.8758373248        6.3638096879        4.6274385975
S                7.8759890067        6.3641210802        1.4921970870
S                6.3051313329        7.2591082247       10.7353885171
Mo               4.7268792535       10.0065304219       -9.1672481230    0   0   0
Mo               6.3025111524        9.0968738021       -3.0554915260    0   0   0
S                4.7268840634       10.0065452125       -4.6232380477    0   0   0
S                6.3024994256        9.0968439439       -7.6014065489    0   0   0
S                6.3024998793        9.0968450728      -10.7330757790    0   0   0
S                4.7268847312       10.0065459141       -1.4877283294    0   0   0
Mo               4.7245026410       10.0032858081        3.0601071114
Mo               6.2893708073        9.0761695960        9.1650818237
S                4.7110038013        9.9844609338        7.5950967200
S                6.3001184747        9.0934228221        4.6273061222
S                6.3000038642        9.0935497513        1.4920456267
S                4.7178645968        9.9800655807       10.7443425515
Pt               1.5661491156        6.2755422521       12.0715927725
Pd               0.0625661778        3.6128913613       12.1745719550
Pd               0.6835487035        5.1415489495       14.1773465273



     Writing config-only to output data dir ./outdir/pwscf.save/ :
     XML data file
     NEW-OLD atomic charge density approx. for the potential

     negative rho (up, down):  9.221E-04 0.000E+00

     total cpu time spent up to now is   259233.5 secs

     Self-consistent Calculation

     iteration #  1     ecut=    77.00 Ry     beta= 0.20
     Davidson diagonalization with overlap
