
     Program PWSCF v.7.3 starts on 29Apr2024 at 15:22:14 

     This program is part of the open-source Quantum ESPRESSO suite
     for quantum simulation of materials; please cite
         "P. Giannozzi et al., J. Phys.:Condens. Matter 21 395502 (2009);
         "P. Giannozzi et al., J. Phys.:Condens. Matter 29 465901 (2017);
         "P. Giannozzi et al., J. Chem. Phys. 152 154105 (2020);
          URL http://www.quantum-espresso.org", 
     in publications or presentations arising from this work. More details at
     http://www.quantum-espresso.org/quote

     Parallel version (MPI & OpenMP), running on      36 processor cores
     Number of MPI processes:                36
     Threads/MPI process:                     1

     MPI processes distributed on     1 nodes
     560277 MiB available memory on the printing compute node when the environment starts
 
     Waiting for input...
     Reading input from standard input
Warning: card &CELL ignored
Warning: card / ignored

     Current dimensions of program PWSCF are:
     Max number of different atomic species (ntypx) = 10
     Max number of k-points (npk) =  40000
     Max angular momentum in pseudopotentials (lmaxx) =  4
     file Mo.pbe-spn-kjpaw_psl.1.0.0.UPF: wavefunction(s)  4S 4D renormalized
     file S.pbe-n-kjpaw_psl.1.0.0.UPF: wavefunction(s)  3S 3P renormalized
     file Pt.pbe-spfn-kjpaw_psl.1.0.0.UPF: wavefunction(s)  5P 4F renormalized
     file Pd.pbe-spn-kjpaw_psl.1.0.0.UPF: wavefunction(s)  4S 5S 4D renormalized
 
     R & G space division:  proc/nbgrp/npool/nimage =      36
     Subspace diagonalization in iterative solution of the eigenvalue problem:
     one sub-group per band group will be used
     scalapack distributed-memory algorithm (size of sub-group:  6*  6 procs)

 
     Parallelization info
     --------------------
     sticks:   dense  smooth     PW     G-vecs:    dense   smooth      PW
     Min         585     334     89               198743    85850   11735
     Max         586     335     90               198750    85861   11748
     Sum       21073   12049   3205              7154885  3090769  422587
 
     Using Slab Decomposition
 


     bravais-lattice index     =            0
     lattice parameter (alat)  =      23.8199  a.u.
     unit-cell volume          =   33861.0370 (a.u.)^3
     number of atoms/cell      =          195
     number of atomic types    =            4
     number of electrons       =      1732.00
     number of Kohn-Sham states=         1039
     kinetic-energy cutoff     =      77.0000  Ry
     charge density cutoff     =     539.0000  Ry
     scf convergence threshold =      1.0E-06
     mixing beta               =       0.2000
     number of iterations used =            8  plain     mixing
     energy convergence thresh.=      1.0E-04
     force convergence thresh. =      1.0E-03
     Exchange-correlation= SLA  PW   PBX  PBC
                           (   1   4   3   4   0   0   0)
     nstep                     =         1000


     Effective Screening Medium Method
     =================================
     Boundary Conditions: Vacuum-Slab-Vacuum
     total charge in unit cell        =   0.0000
     grid points for fit at edges     =        4 
 

     celldm(1)=  23.819920  celldm(2)=   0.000000  celldm(3)=   0.000000
     celldm(4)=   0.000000  celldm(5)=   0.000000  celldm(6)=   0.000000

     crystal axes: (cart. coord. in units of alat)
               a(1) = (   1.000000   0.000000   0.000000 )  
               a(2) = (  -0.499999   0.866026   0.000000 )  
               a(3) = (   0.000000   0.000000   2.893000 )  

     reciprocal axes: (cart. coord. in units 2 pi/alat)
               b(1) = (  1.000000  0.577349  0.000000 )  
               b(2) = (  0.000000  1.154700  0.000000 )  
               b(3) = (  0.000000  0.000000  0.345662 )  


     PseudoPot. # 1 for Mo read from file:
     ./pseudo/Mo.pbe-spn-kjpaw_psl.1.0.0.UPF
     MD5 check sum: 317bf72632116215fd98f72de1686f13
     Pseudo is Projector augmented-wave + core cor, Zval = 14.0
     Generated using 'atomic' code by A. Dal Corso  v.7.2
     Shape of augmentation charge: PSQ
     Using radial grid of 1229 points,  6 beta functions with: 
                l(1) =   0
                l(2) =   0
                l(3) =   1
                l(4) =   1
                l(5) =   2
                l(6) =   2
     Q(r) pseudized with 0 coefficients 


     PseudoPot. # 2 for S  read from file:
     ./pseudo/S.pbe-n-kjpaw_psl.1.0.0.UPF
     MD5 check sum: 8b7b5302570d38d5e87fed6a1065abda
     Pseudo is Projector augmented-wave + core cor, Zval =  6.0
     Generated using 'atomic' code by A. Dal Corso  v.7.2
     Shape of augmentation charge: PSQ
     Using radial grid of 1151 points,  6 beta functions with: 
                l(1) =   0
                l(2) =   0
                l(3) =   1
                l(4) =   1
                l(5) =   2
                l(6) =   2
     Q(r) pseudized with 0 coefficients 


     PseudoPot. # 3 for Pt read from file:
     ./pseudo/Pt.pbe-spfn-kjpaw_psl.1.0.0.UPF
     MD5 check sum: 620096ebf4e6ebacc94de60fd67efcb5
     Pseudo is Projector augmented-wave + core cor, Zval = 32.0
     Generated using 'atomic' code by A. Dal Corso  v.7.2
     Shape of augmentation charge: PSQ
     Using radial grid of 1277 points,  8 beta functions with: 
                l(1) =   0
                l(2) =   0
                l(3) =   1
                l(4) =   1
                l(5) =   2
                l(6) =   2
                l(7) =   3
                l(8) =   3
     Q(r) pseudized with 0 coefficients 


     PseudoPot. # 4 for Pd read from file:
     ./pseudo/Pd.pbe-spn-kjpaw_psl.1.0.0.UPF
     MD5 check sum: a60571a671f2502b8a6a4569d20a6edb
     Pseudo is Projector augmented-wave + core cor, Zval = 18.0
     Generated using 'atomic' code by A. Dal Corso  v.7.2
     Shape of augmentation charge: PSQ
     Using radial grid of 1235 points,  6 beta functions with: 
                l(1) =   0
                l(2) =   0
                l(3) =   1
                l(4) =   1
                l(5) =   2
                l(6) =   2
     Q(r) pseudized with 0 coefficients 


     atomic species   valence    mass     pseudopotential
     Mo               14.00    95.95000     Mo( 1.00)
     S                 6.00    32.06000     S ( 1.00)
     Pt               32.00   195.08400     Pt( 1.00)
     Pd               18.00   106.42000     Pd( 1.00)

     No symmetry found



   Cartesian axes

     site n.     atom                  positions (alat units)
         1        Mo     tau(   1) = (   0.0000010   0.1443372  -0.7272732  )
         2        Mo     tau(   2) = (   0.1249995   0.0721706  -0.2424038  )
         3        S      tau(   3) = (   0.0000015   0.1443386  -0.3667807  )
         4        S      tau(   4) = (   0.1250010   0.0721682  -0.6030489  )
         5        S      tau(   5) = (   0.1250010   0.0721683  -0.8514963  )
         6        S      tau(   6) = (   0.0000015   0.1443389  -0.1180260  )
         7        Mo     tau(   7) = (   0.0000005   0.1443381   0.2424561  )
         8        Mo     tau(   8) = (   0.1251981   0.0716023   0.7276027  )
         9        S      tau(   9) = (  -0.0003031   0.1454842   0.6052312  )
        10        S      tau(  10) = (   0.1249558   0.0721599   0.3668208  )
        11        S      tau(  11) = (   0.1250088   0.0721517   0.1180857  )
        12        S      tau(  12) = (  -0.0004157   0.1382876   0.8564685  )
        13        Mo     tau(  13) = (  -0.1249989   0.3608437  -0.7272732  )
        14        Mo     tau(  14) = (   0.0000030   0.2886752  -0.2424042  )
        15        S      tau(  15) = (  -0.1249977   0.3608450  -0.3667802  )
        16        S      tau(  16) = (   0.0000012   0.2886747  -0.6030489  )
        17        S      tau(  17) = (   0.0000012   0.2886748  -0.8514963  )
        18        S      tau(  18) = (  -0.1249977   0.3608454  -0.1180274  )
        19        Mo     tau(  19) = (  -0.1249623   0.3608201   0.2425155  )
        20        Mo     tau(  20) = (  -0.0007801   0.2872696   0.7308518  )
        21        S      tau(  21) = (  -0.1240398   0.3604107   0.6055268  )
        22        S      tau(  22) = (   0.0000411   0.2886546   0.3669163  )
        23        S      tau(  23) = (   0.0000035   0.2886726   0.1180964  )
        24        S      tau(  24) = (  -0.1315418   0.3638985   0.8543850  )
        25        Mo     tau(  25) = (  -0.2499987   0.5773502  -0.7272732  )
        26        Mo     tau(  26) = (  -0.1249977   0.5051839  -0.2424055  )
        27        S      tau(  27) = (  -0.2499981   0.5773518  -0.3667809  )
        28        S      tau(  28) = (  -0.1249986   0.5051812  -0.6030489  )
        29        S      tau(  29) = (  -0.1249986   0.5051813  -0.8514963  )
        30        S      tau(  30) = (  -0.2499979   0.5773512  -0.1180266  )
        31        Mo     tau(  31) = (  -0.2499787   0.5773156   0.2425145  )
        32        Mo     tau(  32) = (  -0.1271807   0.5060660   0.7281741  )
        33        S      tau(  33) = (  -0.2502658   0.5775034   0.6017985  )
        34        S      tau(  34) = (  -0.1249543   0.5051367   0.3669386  )
        35        S      tau(  35) = (  -0.1249864   0.5051552   0.1181399  )
        36        S      tau(  36) = (  -0.2525628   0.5785576   0.8514793  )
        37        Mo     tau(  37) = (  -0.3749985   0.7938567  -0.7272732  )
        38        Mo     tau(  38) = (  -0.2500001   0.7216874  -0.2424031  )
        39        S      tau(  39) = (  -0.3749980   0.7938584  -0.3667800  )
        40        S      tau(  40) = (  -0.2499984   0.7216877  -0.6030489  )
        41        S      tau(  41) = (  -0.2499984   0.7216878  -0.8514963  )
        42        S      tau(  42) = (  -0.3749982   0.7938585  -0.1180264  )
        43        Mo     tau(  43) = (  -0.3750043   0.7938372   0.2424536  )
        44        Mo     tau(  44) = (  -0.2503619   0.7218808   0.7263407  )
        45        S      tau(  45) = (  -0.3755748   0.7941519   0.6023691  )
        46        S      tau(  46) = (  -0.2500067   0.7216811   0.3668312  )
        47        S      tau(  47) = (  -0.2499793   0.7216445   0.1181126  )
        48        S      tau(  48) = (  -0.3746959   0.7932047   0.8515893  )
        49        Mo     tau(  49) = (   0.2500010   0.1443372  -0.7272732  )
        50        Mo     tau(  50) = (   0.3750034   0.0721723  -0.2424032  )
        51        S      tau(  51) = (   0.2500017   0.1443391  -0.3667788  )
        52        S      tau(  52) = (   0.3750010   0.0721682  -0.6030489  )
        53        S      tau(  53) = (   0.3750010   0.0721683  -0.8514963  )
        54        S      tau(  54) = (   0.2500016   0.1443391  -0.1180271  )
        55        Mo     tau(  55) = (   0.2500033   0.1443124   0.2424881  )
        56        Mo     tau(  56) = (   0.3752595   0.0716472   0.7255395  )
        57        S      tau(  57) = (   0.2498544   0.1431280   0.6011361  )
        58        S      tau(  58) = (   0.3750516   0.0721435   0.3668117  )
        59        S      tau(  59) = (   0.3750079   0.0721203   0.1180977  )
        60        S      tau(  60) = (   0.2517312   0.1427646   0.8506906  )
        61        Mo     tau(  61) = (   0.1250012   0.3608437  -0.7272732  )
        62        Mo     tau(  62) = (   0.2500029   0.2886782  -0.2424031  )
        63        S      tau(  63) = (   0.1250024   0.3608455  -0.3667794  )
        64        S      tau(  64) = (   0.2500012   0.2886747  -0.6030489  )
        65        S      tau(  65) = (   0.2500012   0.2886748  -0.8514963  )
        66        S      tau(  66) = (   0.1250021   0.3608455  -0.1180270  )
        67        Mo     tau(  67) = (   0.1249995   0.3608273   0.2424838  )
        68        Mo     tau(  68) = (   0.2535704   0.2866116   0.7259154  )
        69        S      tau(  69) = (   0.1241106   0.3617788   0.6079553  )
        70        S      tau(  70) = (   0.2499752   0.2886689   0.3668869  )
        71        S      tau(  71) = (   0.2500098   0.2886475   0.1181123  )
        72        S      tau(  72) = (   0.1336503   0.3523048   0.8541313  )
        73        Mo     tau(  73) = (   0.0000014   0.5773502  -0.7272732  )
        74        Mo     tau(  74) = (   0.1250045   0.5051840  -0.2424036  )
        75        S      tau(  75) = (   0.0000030   0.5773520  -0.3667799  )
        76        S      tau(  76) = (   0.1250014   0.5051812  -0.6030489  )
        77        S      tau(  77) = (   0.1250014   0.5051813  -0.8514963  )
        78        S      tau(  78) = (   0.0000026   0.5773517  -0.1180274  )
        79        Mo     tau(  79) = (   0.0000276   0.5772927   0.2425177  )
        80        Mo     tau(  80) = (   0.1255270   0.5059369   0.7313762  )
        81        S      tau(  81) = (   0.0011816   0.5764663   0.6064450  )
        82        S      tau(  82) = (   0.1250222   0.5051261   0.3669341  )
        83        S      tau(  83) = (   0.1249880   0.5051467   0.1180950  )
        84        S      tau(  84) = (  -0.0088763   0.5830479   0.8565830  )
        85        Mo     tau(  85) = (  -0.1249984   0.7938567  -0.7272732  )
        86        Mo     tau(  86) = (   0.0000069   0.7216896  -0.2424039  )
        87        S      tau(  87) = (  -0.1249975   0.7938582  -0.3667782  )
        88        S      tau(  88) = (   0.0000016   0.7216877  -0.6030489  )
        89        S      tau(  89) = (   0.0000016   0.7216878  -0.8514963  )
        90        S      tau(  90) = (  -0.1249973   0.7938582  -0.1180279  )
        91        Mo     tau(  91) = (  -0.1249699   0.7938095   0.2424907  )
        92        Mo     tau(  92) = (  -0.0004895   0.7231014   0.7275053  )
        93        S      tau(  93) = (  -0.1248847   0.7932555   0.6014963  )
        94        S      tau(  94) = (   0.0000405   0.7216116   0.3668908  )
        95        S      tau(  95) = (   0.0000242   0.7216332   0.1181249  )
        96        S      tau(  96) = (  -0.1259194   0.7949777   0.8510667  )
        97        Mo     tau(  97) = (   0.5000010   0.1443372  -0.7272732  )
        98        Mo     tau(  98) = (   0.6250001   0.0721662  -0.2424040  )
        99        S      tau(  99) = (   0.5000017   0.1443386  -0.3667801  )
       100        S      tau( 100) = (   0.6250010   0.0721682  -0.6030489  )
       101        S      tau( 101) = (   0.6250010   0.0721683  -0.8514963  )
       102        S      tau( 102) = (   0.5000020   0.1443388  -0.1180261  )
       103        Mo     tau( 103) = (   0.5000355   0.1442968   0.2424343  )
       104        Mo     tau( 104) = (   0.6251054   0.0720760   0.7269638  )
       105        S      tau( 105) = (   0.5007812   0.1439212   0.6015111  )
       106        S      tau( 106) = (   0.6250309   0.0721295   0.3668346  )
       107        S      tau( 107) = (   0.6250410   0.0721183   0.1180973  )
       108        S      tau( 108) = (   0.4998652   0.1442971   0.8504179  )
       109        Mo     tau( 109) = (   0.3750012   0.3608437  -0.7272732  )
       110        Mo     tau( 110) = (   0.4999991   0.2886761  -0.2424038  )
       111        S      tau( 111) = (   0.3750012   0.3608452  -0.3667804  )
       112        S      tau( 112) = (   0.5000012   0.2886747  -0.6030489  )
       113        S      tau( 113) = (   0.5000012   0.2886748  -0.8514963  )
       114        S      tau( 114) = (   0.3750014   0.3608455  -0.1180261  )
       115        Mo     tau( 115) = (   0.3749988   0.3608207   0.2424913  )
       116        Mo     tau( 116) = (   0.5005676   0.2886014   0.7258090  )
       117        S      tau( 117) = (   0.3761076   0.3615161   0.6013079  )
       118        S      tau( 118) = (   0.5000282   0.2886169   0.3668001  )
       119        S      tau( 119) = (   0.5000158   0.2886613   0.1180928  )
       120        S      tau( 120) = (   0.3768791   0.3600665   0.8508100  )
       121        Mo     tau( 121) = (   0.2500014   0.5773502  -0.7272732  )
       122        Mo     tau( 122) = (   0.3749983   0.5051825  -0.2424043  )
       123        S      tau( 123) = (   0.2500017   0.5773519  -0.3667810  )
       124        S      tau( 124) = (   0.3750014   0.5051812  -0.6030489  )
       125        S      tau( 125) = (   0.3750014   0.5051813  -0.8514963  )
       126        S      tau( 126) = (   0.2500018   0.5773519  -0.1180256  )
       127        Mo     tau( 127) = (   0.2499755   0.5773110   0.2424609  )
       128        Mo     tau( 128) = (   0.3758691   0.5051374   0.7277779  )
       129        S      tau( 129) = (   0.2483182   0.5768077   0.6062789  )
       130        S      tau( 130) = (   0.3749464   0.5051844   0.3668408  )
       131        S      tau( 131) = (   0.3749944   0.5051486   0.1180923  )
       132        S      tau( 132) = (   0.2574557   0.5818559   0.8585037  )
       133        Mo     tau( 133) = (   0.1250016   0.7938567  -0.7272732  )
       134        Mo     tau( 134) = (   0.2499995   0.7216883  -0.2424036  )
       135        S      tau( 135) = (   0.1250024   0.7938578  -0.3667813  )
       136        S      tau( 136) = (   0.2500016   0.7216877  -0.6030489  )
       137        S      tau( 137) = (   0.2500016   0.7216878  -0.8514963  )
       138        S      tau( 138) = (   0.1250024   0.7938579  -0.1180253  )
       139        Mo     tau( 139) = (   0.1250229   0.7938069   0.2425006  )
       140        Mo     tau( 140) = (   0.2504358   0.7224862   0.7284223  )
       141        S      tau( 141) = (   0.1254429   0.7935457   0.6029055  )
       142        S      tau( 142) = (   0.2500049   0.7216116   0.3668842  )
       143        S      tau( 143) = (   0.2500022   0.7216616   0.1181021  )
       144        S      tau( 144) = (   0.1246626   0.7944127   0.8519137  )
       145        Mo     tau( 145) = (   0.7500010   0.1443372  -0.7272732  )
       146        Mo     tau( 146) = (   0.8750038   0.0721696  -0.2424038  )
       147        S      tau( 147) = (   0.7500016   0.1443382  -0.3667789  )
       148        S      tau( 148) = (   0.8750010   0.0721682  -0.6030489  )
       149        S      tau( 149) = (   0.8750010   0.0721683  -0.8514963  )
       150        S      tau( 150) = (   0.7500016   0.1443384  -0.1180279  )
       151        Mo     tau( 151) = (   0.7500289   0.1443141   0.2424936  )
       152        Mo     tau( 152) = (   0.8748115   0.0715393   0.7280420  )
       153        S      tau( 153) = (   0.7503587   0.1440662   0.6027403  )
       154        S      tau( 154) = (   0.8750369   0.0721618   0.3668742  )
       155        S      tau( 155) = (   0.8750002   0.0721408   0.1181001  )
       156        S      tau( 156) = (   0.7494385   0.1444101   0.8516821  )
       157        Mo     tau( 157) = (   0.6250012   0.3608437  -0.7272732  )
       158        Mo     tau( 158) = (   0.7500028   0.2886769  -0.2424041  )
       159        S      tau( 159) = (   0.6250015   0.3608451  -0.3667792  )
       160        S      tau( 160) = (   0.7500012   0.2886747  -0.6030489  )
       161        S      tau( 161) = (   0.7500012   0.2886748  -0.8514963  )
       162        S      tau( 162) = (   0.6250016   0.3608454  -0.1180280  )
       163        Mo     tau( 163) = (   0.6250302   0.3608127   0.2424760  )
       164        Mo     tau( 164) = (   0.7487590   0.2885376   0.7272130  )
       165        S      tau( 165) = (   0.6254237   0.3608917   0.6015174  )
       166        S      tau( 166) = (   0.7500486   0.2886525   0.3668797  )
       167        S      tau( 167) = (   0.7500385   0.2886557   0.1181169  )
       168        S      tau( 168) = (   0.6239430   0.3610912   0.8510113  )
       169        Mo     tau( 169) = (   0.5000014   0.5773502  -0.7272732  )
       170        Mo     tau( 170) = (   0.6250029   0.5051841  -0.2424047  )
       171        S      tau( 171) = (   0.5000014   0.5773518  -0.3667794  )
       172        S      tau( 172) = (   0.6250014   0.5051812  -0.6030489  )
       173        S      tau( 173) = (   0.6250014   0.5051813  -0.8514963  )
       174        S      tau( 174) = (   0.5000016   0.5773516  -0.1180277  )
       175        Mo     tau( 175) = (   0.4999859   0.5773250   0.2424709  )
       176        Mo     tau( 176) = (   0.6245890   0.5053660   0.7261562  )
       177        S      tau( 177) = (   0.4993068   0.5776651   0.6022414  )
       178        S      tau( 178) = (   0.6249823   0.5051501   0.3668388  )
       179        S      tau( 179) = (   0.6250205   0.5051637   0.1181147  )
       180        S      tau( 180) = (   0.5009766   0.5773609   0.8515797  )
       181        Mo     tau( 181) = (   0.3750016   0.7938567  -0.7272732  )
       182        Mo     tau( 182) = (   0.5000025   0.7216901  -0.2424039  )
       183        S      tau( 183) = (   0.3750019   0.7938578  -0.3667793  )
       184        S      tau( 184) = (   0.5000016   0.7216877  -0.6030489  )
       185        S      tau( 185) = (   0.5000016   0.7216878  -0.8514963  )
       186        S      tau( 186) = (   0.3750020   0.7938579  -0.1180272  )
       187        Mo     tau( 187) = (   0.3749951   0.7938323   0.2424893  )
       188        Mo     tau( 188) = (   0.4998599   0.7217391   0.7271366  )
       189        S      tau( 189) = (   0.3746033   0.7939741   0.6029663  )
       190        S      tau( 190) = (   0.4999946   0.7216688   0.3668260  )
       191        S      tau( 191) = (   0.4999891   0.7216628   0.1180901  )
       192        S      tau( 192) = (   0.3755955   0.7938624   0.8526444  )
       193        Pt     tau( 193) = (   0.1194898   0.4990527   0.9549993  )
       194        Pd     tau( 194) = (   0.0026419   0.2990244   0.9662205  )
       195        Pd     tau( 195) = (   0.2504570   0.7224934   0.9774725  )

     --------------------------------------------
     DFT-D3 Dispersion Correction (3-body terms):
     --------------------------------------------
       Reference C6 values for interpolation: 

         atom   Coordination number   C6
         S          0.000           268.01
         S          0.995           261.99
         S          1.990           251.62
         Mo         0.000          1691.79
         Mo         1.942          1004.01
         Mo        11.056           674.22
         Pd         0.000          1217.01
         Pd         1.863           573.90
         Pd         5.710           531.75
         Pt         0.000           782.29
         Pt         1.919           692.72
         Pt         6.667           673.75

       Values used:

         atom   Coordination number  R0_AB[au]  C6      C8
         Mo        10.208            3.547    674.22  77634.20
         Mo        10.221            3.547    674.22  77634.20
         S          3.858            3.128    251.62  12327.25
         S          3.859            3.128    251.62  12327.25
         S          3.758            3.128    251.62  12327.25
         S          3.859            3.128    251.62  12327.25
         Mo        10.221            3.547    674.22  77634.20
         Mo        10.229            3.547    674.22  77634.20
         S          3.849            3.128    251.62  12327.25
         S          3.859            3.128    251.62  12327.25
         S          3.859            3.128    251.62  12327.25
         S          4.622            3.128    251.62  12327.25
         Mo        10.208            3.547    674.22  77634.20
         Mo        10.221            3.547    674.22  77634.20
         S          3.858            3.128    251.62  12327.25
         S          3.859            3.128    251.62  12327.25
         S          3.758            3.128    251.62  12327.25
         S          3.859            3.128    251.62  12327.25
         Mo        10.222            3.547    674.22  77634.20
         Mo        10.721            3.547    674.22  77634.20
         S          3.862            3.128    251.62  12327.25
         S          3.850            3.128    251.62  12327.25
         S          3.859            3.128    251.62  12327.25
         S          4.668            3.128    251.62  12327.25
         Mo        10.208            3.547    674.22  77634.20
         Mo        10.221            3.547    674.22  77634.20
         S          3.858            3.128    251.62  12327.25
         S          3.859            3.128    251.62  12327.25
         S          3.758            3.128    251.62  12327.25
         S          3.859            3.128    251.62  12327.25
         Mo        10.220            3.547    674.22  77634.20
         Mo        10.171            3.547    674.22  77634.20
         S          3.842            3.128    251.62  12327.25
         S          3.853            3.128    251.62  12327.25
         S          3.859            3.128    251.62  12327.25
         S          3.843            3.128    251.62  12327.25
         Mo        10.208            3.547    674.22  77634.20
         Mo        10.220            3.547    674.22  77634.20
         S          3.858            3.128    251.62  12327.25
         S          3.859            3.128    251.62  12327.25
         S          3.758            3.128    251.62  12327.25
         S          3.859            3.128    251.62  12327.25
         Mo        10.220            3.547    674.22  77634.20
         Mo        10.260            3.547    674.22  77634.20
         S          3.856            3.128    251.62  12327.25
         S          3.861            3.128    251.62  12327.25
         S          3.859            3.128    251.62  12327.25
         S          3.809            3.128    251.62  12327.25
         Mo        10.208            3.547    674.22  77634.20
         Mo        10.221            3.547    674.22  77634.20
         S          3.858            3.128    251.62  12327.25
         S          3.859            3.128    251.62  12327.25
         S          3.758            3.128    251.62  12327.25
         S          3.859            3.128    251.62  12327.25
         Mo        10.220            3.547    674.21  77634.20
         Mo        10.278            3.547    674.22  77634.20
         S          3.837            3.128    251.62  12327.25
         S          3.863            3.128    251.62  12327.25
         S          3.859            3.128    251.62  12327.25
         S          3.842            3.128    251.62  12327.25
         Mo        10.208            3.547    674.22  77634.20
         Mo        10.221            3.547    674.22  77634.20
         S          3.858            3.128    251.62  12327.25
         S          3.859            3.128    251.62  12327.25
         S          3.758            3.128    251.62  12327.25
         S          3.859            3.128    251.62  12327.25
         Mo        10.222            3.547    674.22  77634.20
         Mo        10.177            3.547    674.22  77634.20
         S          3.873            3.128    251.62  12327.25
         S          3.855            3.128    251.62  12327.25
         S          3.859            3.128    251.62  12327.25
         S          5.643            3.128    251.62  12327.25
         Mo        10.208            3.547    674.22  77634.20
         Mo        10.221            3.547    674.22  77634.20
         S          3.858            3.128    251.62  12327.25
         S          3.859            3.128    251.62  12327.25
         S          3.758            3.128    251.62  12327.25
         S          3.859            3.128    251.62  12327.25
         Mo        10.222            3.547    674.22  77634.20
         Mo        10.875            3.547    674.22  77634.20
         S          3.860            3.128    251.62  12327.25
         S          3.850            3.128    251.62  12327.25
         S          3.859            3.128    251.62  12327.25
         S          4.680            3.128    251.62  12327.25
         Mo        10.208            3.547    674.22  77634.20
         Mo        10.221            3.547    674.22  77634.20
         S          3.858            3.128    251.62  12327.25
         S          3.859            3.128    251.62  12327.25
         S          3.758            3.128    251.62  12327.25
         S          3.859            3.128    251.62  12327.25
         Mo        10.220            3.547    674.22  77634.20
         Mo        10.221            3.547    674.22  77634.20
         S          3.850            3.128    251.62  12327.25
         S          3.856            3.128    251.62  12327.25
         S          3.859            3.128    251.62  12327.25
         S          3.828            3.128    251.62  12327.25
         Mo        10.208            3.547    674.22  77634.20
         Mo        10.221            3.547    674.22  77634.20
         S          3.858            3.128    251.62  12327.25
         S          3.859            3.128    251.62  12327.25
         S          3.758            3.128    251.62  12327.25
         S          3.859            3.128    251.62  12327.25
         Mo        10.220            3.547    674.22  77634.20
         Mo        10.257            3.547    674.22  77634.20
         S          3.856            3.128    251.62  12327.25
         S          3.861            3.128    251.62  12327.25
         S          3.859            3.128    251.62  12327.25
         S          3.790            3.128    251.62  12327.25
         Mo        10.208            3.547    674.22  77634.20
         Mo        10.221            3.547    674.22  77634.20
         S          3.858            3.128    251.62  12327.25
         S          3.859            3.128    251.62  12327.25
         S          3.758            3.128    251.62  12327.25
         S          3.859            3.128    251.62  12327.25
         Mo        10.220            3.547    674.22  77634.20
         Mo        10.278            3.547    674.22  77634.20
         S          3.840            3.128    251.62  12327.25
         S          3.863            3.128    251.62  12327.25
         S          3.859            3.128    251.62  12327.25
         S          3.819            3.128    251.62  12327.25
         Mo        10.208            3.547    674.22  77634.20
         Mo        10.221            3.547    674.22  77634.20
         S          3.858            3.128    251.62  12327.25
         S          3.859            3.128    251.62  12327.25
         S          3.758            3.128    251.62  12327.25
         S          3.859            3.128    251.62  12327.25
         Mo        10.222            3.547    674.22  77634.20
         Mo        10.227            3.547    674.22  77634.20
         S          3.851            3.128    251.62  12327.25
         S          3.858            3.128    251.62  12327.25
         S          3.859            3.128    251.62  12327.25
         S          5.606            3.128    251.62  12327.25
         Mo        10.208            3.547    674.22  77634.20
         Mo        10.221            3.547    674.22  77634.20
         S          3.858            3.128    251.62  12327.25
         S          3.859            3.128    251.62  12327.25
         S          3.758            3.128    251.62  12327.25
         S          3.859            3.128    251.62  12327.25
         Mo        10.221            3.547    674.22  77634.20
         Mo        10.668            3.547    674.22  77634.20
         S          3.864            3.128    251.62  12327.25
         S          3.856            3.128    251.62  12327.25
         S          3.859            3.128    251.62  12327.25
         S          4.691            3.128    251.62  12327.25
         Mo        10.208            3.547    674.22  77634.20
         Mo        10.221            3.547    674.22  77634.20
         S          3.858            3.128    251.62  12327.25
         S          3.859            3.128    251.62  12327.25
         S          3.758            3.128    251.62  12327.25
         S          3.859            3.128    251.62  12327.25
         Mo        10.221            3.547    674.22  77634.20
         Mo        10.248            3.547    674.22  77634.20
         S          3.864            3.128    251.62  12327.25
         S          3.857            3.128    251.62  12327.25
         S          3.859            3.128    251.62  12327.25
         S          3.776            3.128    251.62  12327.25
         Mo        10.208            3.547    674.22  77634.20
         Mo        10.220            3.547    674.22  77634.20
         S          3.858            3.128    251.62  12327.25
         S          3.859            3.128    251.62  12327.25
         S          3.758            3.128    251.62  12327.25
         S          3.859            3.128    251.62  12327.25
         Mo        10.220            3.547    674.22  77634.20
         Mo        10.226            3.547    674.22  77634.20
         S          3.854            3.128    251.62  12327.25
         S          3.857            3.128    251.62  12327.25
         S          3.859            3.128    251.62  12327.25
         S          3.809            3.128    251.62  12327.25
         Mo        10.208            3.547    674.22  77634.20
         Mo        10.221            3.547    674.22  77634.20
         S          3.858            3.128    251.62  12327.25
         S          3.859            3.128    251.62  12327.25
         S          3.758            3.128    251.62  12327.25
         S          3.859            3.128    251.62  12327.25
         Mo        10.220            3.547    674.22  77634.20
         Mo        10.267            3.547    674.21  77634.20
         S          3.853            3.128    251.62  12327.25
         S          3.861            3.128    251.62  12327.25
         S          3.859            3.128    251.62  12327.25
         S          3.829            3.128    251.62  12327.25
         Mo        10.208            3.547    674.22  77634.20
         Mo        10.221            3.547    674.22  77634.20
         S          3.858            3.128    251.62  12327.25
         S          3.859            3.128    251.62  12327.25
         S          3.758            3.128    251.62  12327.25
         S          3.859            3.128    251.62  12327.25
         Mo        10.221            3.547    674.22  77634.20
         Mo        10.258            3.547    674.22  77634.20
         S          3.853            3.128    251.62  12327.25
         S          3.860            3.128    251.62  12327.25
         S          3.859            3.128    251.62  12327.25
         S          4.756            3.128    251.62  12327.25
         Pt         4.618            3.168    673.75  70061.91
         Pd         4.114            3.168    531.75  48720.88
         Pd         3.511            3.168    573.89  52582.25

         Molecular C6 ( Ry / a.u.^6 ) =  14156052.58


     number of k points=     4  Gaussian smearing, width (Ry)=  0.0100
                       cart. coord. in units 2pi/alat
        k(    1) = (   0.0000000   0.0000000   0.0000000), wk =   0.5000000
        k(    2) = (   0.0000000  -0.5773499   0.0000000), wk =   0.5000000
        k(    3) = (  -0.5000000  -0.2886744   0.0000000), wk =   0.5000000
        k(    4) = (  -0.5000000  -0.8660242   0.0000000), wk =   0.5000000

     Dense  grid:  7154885 G-vectors     FFT dimensions: ( 180, 180, 512)

     Smooth grid:  3090769 G-vectors     FFT dimensions: ( 135, 135, 400)

     Estimated max dynamical RAM per process >       4.32 GB

     Estimated total dynamical RAM >     155.52 GB

     Initial potential from superposition of free atoms

     starting charge    1731.9386, renormalised to    1732.0000

     negative rho (up, down):  1.020E-03 0.000E+00
     Starting wfcs are 1189 randomized atomic wfcs
     Checking if some PAW data can be deallocated... 

     total cpu time spent up to now is      179.9 secs

     Self-consistent Calculation

     iteration #  1     ecut=    77.00 Ry     beta= 0.20
     Davidson diagonalization with overlap
     ethr =  1.00E-02,  avg # of iterations =  2.0

     Threshold (ethr) on eigenvalues was too large:
     Diagonalizing with lowered threshold

     Davidson diagonalization with overlap
     ethr =  2.00E-04,  avg # of iterations = 16.2

     negative rho (up, down):  2.844E-04 0.000E+00

     total cpu time spent up to now is     2093.6 secs

     total energy              =  -34492.08719324 Ry
     estimated scf accuracy    <       6.51194357 Ry

     iteration #  2     ecut=    77.00 Ry     beta= 0.20
     Davidson diagonalization with overlap
     ethr =  3.76E-04,  avg # of iterations =  3.0

     negative rho (up, down):  3.527E-05 0.000E+00

     total cpu time spent up to now is     2508.8 secs

     total energy              =  -34490.91181992 Ry
     estimated scf accuracy    <       3.29156939 Ry

     iteration #  3     ecut=    77.00 Ry     beta= 0.20
     Davidson diagonalization with overlap
     ethr =  1.90E-04,  avg # of iterations = 16.2

     negative rho (up, down):  2.668E-05 0.000E+00

     total cpu time spent up to now is     3038.8 secs

     total energy              =  -34491.34565945 Ry
     estimated scf accuracy    <       1.48144179 Ry

     iteration #  4     ecut=    77.00 Ry     beta= 0.20
     Davidson diagonalization with overlap
     ethr =  8.55E-05,  avg # of iterations =  9.2

     negative rho (up, down):  1.885E-05 0.000E+00

     total cpu time spent up to now is     3716.9 secs

     total energy              =  -34491.76232351 Ry
     estimated scf accuracy    <       0.42289040 Ry

     iteration #  5     ecut=    77.00 Ry     beta= 0.20
     Davidson diagonalization with overlap
     c_bands:  1 eigenvalues not converged
     c_bands:  1 eigenvalues not converged
     ethr =  2.44E-05,  avg # of iterations = 17.5

     negative rho (up, down):  3.698E-05 0.000E+00

     total cpu time spent up to now is     4881.6 secs

     total energy              =  -34492.17894438 Ry
     estimated scf accuracy    <       0.19309266 Ry

     iteration #  6     ecut=    77.00 Ry     beta= 0.20
     Davidson diagonalization with overlap
     ethr =  1.11E-05,  avg # of iterations = 14.2

     negative rho (up, down):  9.284E-05 0.000E+00

     total cpu time spent up to now is     5541.5 secs

     total energy              =  -34492.19312266 Ry
     estimated scf accuracy    <       0.13046614 Ry

     iteration #  7     ecut=    77.00 Ry     beta= 0.20
     Davidson diagonalization with overlap
     c_bands:  2 eigenvalues not converged
     ethr =  7.53E-06,  avg # of iterations = 20.2

     negative rho (up, down):  7.444E-04 0.000E+00

     total cpu time spent up to now is     6129.0 secs

     total energy              =  -34492.19861041 Ry
     estimated scf accuracy    <       0.07300191 Ry

     iteration #  8     ecut=    77.00 Ry     beta= 0.20
     Davidson diagonalization with overlap
     c_bands:  2 eigenvalues not converged
     c_bands:  4 eigenvalues not converged
     c_bands:  2 eigenvalues not converged
     ethr =  4.21E-06,  avg # of iterations = 29.2

     negative rho (up, down):  5.713E-04 0.000E+00

     total cpu time spent up to now is     7334.2 secs

     total energy              =  -34492.22865031 Ry
     estimated scf accuracy    <       0.09293074 Ry

     iteration #  9     ecut=    77.00 Ry     beta= 0.20
     Davidson diagonalization with overlap
     c_bands:  4 eigenvalues not converged
     c_bands:  2 eigenvalues not converged
     ethr =  4.21E-06,  avg # of iterations = 11.0

     negative rho (up, down):  4.541E-04 0.000E+00

     total cpu time spent up to now is     7789.9 secs

     total energy              =  -34492.22216387 Ry
     estimated scf accuracy    <       0.02342579 Ry

     iteration # 10     ecut=    77.00 Ry     beta= 0.20
     Davidson diagonalization with overlap
     c_bands:  5 eigenvalues not converged
     ethr =  1.35E-06,  avg # of iterations = 54.2

     negative rho (up, down):  5.152E-04 0.000E+00

     total cpu time spent up to now is     9745.7 secs

     total energy              =  -34492.24614193 Ry
     estimated scf accuracy    <       0.00795596 Ry

     iteration # 11     ecut=    77.00 Ry     beta= 0.20
     Davidson diagonalization with overlap
     c_bands:  5 eigenvalues not converged
     ethr =  4.59E-07,  avg # of iterations =  9.2

     negative rho (up, down):  6.703E-04 0.000E+00

     total cpu time spent up to now is    10292.2 secs

     total energy              =  -34492.24498861 Ry
     estimated scf accuracy    <       0.00615944 Ry

     iteration # 12     ecut=    77.00 Ry     beta= 0.20
     Davidson diagonalization with overlap
     c_bands:  5 eigenvalues not converged
     ethr =  3.56E-07,  avg # of iterations =  9.2

     negative rho (up, down):  9.079E-04 0.000E+00

     total cpu time spent up to now is    10777.0 secs

     total energy              =  -34492.24509552 Ry
     estimated scf accuracy    <       0.00122652 Ry

     iteration # 13     ecut=    77.00 Ry     beta= 0.20
     Davidson diagonalization with overlap
     c_bands:  1 eigenvalues not converged
     c_bands:  2 eigenvalues not converged
     ethr =  7.08E-08,  avg # of iterations = 33.0

     negative rho (up, down):  8.676E-04 0.000E+00

     total cpu time spent up to now is    12923.8 secs

     total energy              =  -34492.24886330 Ry
     estimated scf accuracy    <       0.00423540 Ry

     iteration # 14     ecut=    77.00 Ry     beta= 0.20
     Davidson diagonalization with overlap
     ethr =  7.08E-08,  avg # of iterations =  1.2

     negative rho (up, down):  8.714E-04 0.000E+00

     total cpu time spent up to now is    13305.0 secs

     total energy              =  -34492.24923128 Ry
     estimated scf accuracy    <       0.00331032 Ry

     iteration # 15     ecut=    77.00 Ry     beta= 0.20
     Davidson diagonalization with overlap
     ethr =  7.08E-08,  avg # of iterations =  1.0

     negative rho (up, down):  8.398E-04 0.000E+00

     total cpu time spent up to now is    13675.9 secs

     total energy              =  -34492.24821024 Ry
     estimated scf accuracy    <       0.00380871 Ry

     iteration # 16     ecut=    77.00 Ry     beta= 0.20
     Davidson diagonalization with overlap
     ethr =  7.08E-08,  avg # of iterations =  2.0

     negative rho (up, down):  8.639E-04 0.000E+00

     total cpu time spent up to now is    14086.1 secs

     total energy              =  -34492.24840889 Ry
     estimated scf accuracy    <       0.00213642 Ry

     iteration # 17     ecut=    77.00 Ry     beta= 0.20
     Davidson diagonalization with overlap
     ethr =  7.08E-08,  avg # of iterations =  1.0

     negative rho (up, down):  8.723E-04 0.000E+00

     total cpu time spent up to now is    14456.2 secs

     total energy              =  -34492.24776093 Ry
     estimated scf accuracy    <       0.00223198 Ry

     iteration # 18     ecut=    77.00 Ry     beta= 0.20
     Davidson diagonalization with overlap
     ethr =  7.08E-08,  avg # of iterations =  5.8

     negative rho (up, down):  8.568E-04 0.000E+00

     total cpu time spent up to now is    14948.4 secs

     total energy              =  -34492.24754269 Ry
     estimated scf accuracy    <       0.00086268 Ry

     iteration # 19     ecut=    77.00 Ry     beta= 0.20
     Davidson diagonalization with overlap
     ethr =  4.98E-08,  avg # of iterations =  7.0

     negative rho (up, down):  8.886E-04 0.000E+00

     total cpu time spent up to now is    15617.8 secs

     total energy              =  -34492.24795709 Ry
     estimated scf accuracy    <       0.00005893 Ry

     iteration # 20     ecut=    77.00 Ry     beta= 0.20
     Davidson diagonalization with overlap
     c_bands:  3 eigenvalues not converged
     c_bands:  3 eigenvalues not converged
     ethr =  3.40E-09,  avg # of iterations = 20.5

     negative rho (up, down):  9.156E-04 0.000E+00

     total cpu time spent up to now is    18020.0 secs

     total energy              =  -34492.24811561 Ry
     estimated scf accuracy    <       0.00020626 Ry

     iteration # 21     ecut=    77.00 Ry     beta= 0.20
     Davidson diagonalization with overlap
     ethr =  3.40E-09,  avg # of iterations =  5.0

     negative rho (up, down):  9.283E-04 0.000E+00

     total cpu time spent up to now is    18648.7 secs

     total energy              =  -34492.24812766 Ry
     estimated scf accuracy    <       0.00002119 Ry

     iteration # 22     ecut=    77.00 Ry     beta= 0.20
     Davidson diagonalization with overlap
     ethr =  1.22E-09,  avg # of iterations = 12.2

     negative rho (up, down):  9.379E-04 0.000E+00

     total cpu time spent up to now is    19608.5 secs

     total energy              =  -34492.24814365 Ry
     estimated scf accuracy    <       0.00002002 Ry

     iteration # 23     ecut=    77.00 Ry     beta= 0.20
     Davidson diagonalization with overlap
     ethr =  1.16E-09,  avg # of iterations =  1.0

     negative rho (up, down):  9.378E-04 0.000E+00

     total cpu time spent up to now is    19978.3 secs

     total energy              =  -34492.24814048 Ry
     estimated scf accuracy    <       0.00000586 Ry

     iteration # 24     ecut=    77.00 Ry     beta= 0.20
     Davidson diagonalization with overlap
     ethr =  3.38E-10,  avg # of iterations = 12.8

     negative rho (up, down):  9.385E-04 0.000E+00

     total cpu time spent up to now is    21011.5 secs

     total energy              =  -34492.24814440 Ry
     estimated scf accuracy    <       0.00000830 Ry

     iteration # 25     ecut=    77.00 Ry     beta= 0.20
     Davidson diagonalization with overlap
     ethr =  3.38E-10,  avg # of iterations =  4.2

     negative rho (up, down):  9.383E-04 0.000E+00

     total cpu time spent up to now is    21439.2 secs

     total energy              =  -34492.24814448 Ry
     estimated scf accuracy    <       0.00000118 Ry

     iteration # 26     ecut=    77.00 Ry     beta= 0.20
     Davidson diagonalization with overlap
     c_bands:  4 eigenvalues not converged
     c_bands:  1 eigenvalues not converged
     c_bands:  3 eigenvalues not converged
     ethr =  6.81E-11,  avg # of iterations = 20.2

     negative rho (up, down):  9.374E-04 0.000E+00

     total cpu time spent up to now is    23120.5 secs

     total energy              =  -34492.24814704 Ry
     estimated scf accuracy    <       0.00000124 Ry

     iteration # 27     ecut=    77.00 Ry     beta= 0.20
     Davidson diagonalization with overlap
     ethr =  6.81E-11,  avg # of iterations =  2.0

     negative rho (up, down):  9.343E-04 0.000E+00

     total cpu time spent up to now is    23525.9 secs

     End of self-consistent calculation

          k = 0.0000 0.0000 0.0000 (386245 PWs)   bands (ev):

  -102.9218 -88.7049 -88.3803 -71.2555 -71.2479 -71.2312 -71.2185 -71.2081
   -71.1962 -71.1870 -66.6028 -66.6028 -66.6015 -66.5995 -66.5873 -66.5823
   -66.5817 -66.5817 -66.5815 -66.5815 -66.5815 -66.5815 -66.5815 -66.5815
   -66.5815 -66.5814 -66.5814 -66.5812 -66.5802 -66.5802 -66.5802 -66.5802
   -66.5802 -66.5802 -66.5718 -66.5688 -66.5652 -66.5626 -66.5604 -66.5603
   -66.5602 -66.5601 -66.5601 -66.5601 -66.5601 -66.5601 -66.5601 -66.5601
   -66.5601 -66.5601 -66.5601 -66.5601 -66.5600 -66.5600 -66.5599 -66.5596
   -66.5588 -66.5588 -66.5588 -66.5588 -66.5588 -66.5588 -66.5588 -66.5588
   -66.5588 -66.5576 -66.5516 -66.5437 -66.5417 -66.5299 -66.5259 -66.5163
   -66.5095 -66.5038 -57.2180 -57.1078 -57.0861 -54.5863 -54.4766 -54.4355
   -54.2362 -54.1950 -54.1183 -40.9303 -40.9302 -40.9302 -40.9302 -40.9301
   -40.9300 -40.9296 -40.9296 -40.9296 -40.9202 -40.9147 -40.9083 -40.8551
   -40.8549 -40.8549 -40.8549 -40.8549 -40.8549 -40.8549 -40.8549 -40.8549
   -40.8548 -40.8547 -40.8546 -40.8542 -40.8542 -40.8542 -40.8542 -40.8542
   -40.8542 -40.8479 -40.8440 -40.8328 -40.8306 -40.8201 -40.8135 -40.7703
   -40.7624 -40.7624 -40.7618 -40.7430 -40.7340 -40.7318 -40.7287 -40.7286
   -40.7286 -40.7286 -40.7286 -40.7286 -40.7286 -40.7285 -40.7285 -40.7285
   -40.7284 -40.7283 -40.7282 -40.7277 -40.7277 -40.7277 -40.7277 -40.7277
   -40.7277 -40.7219 -40.7210 -40.7208 -40.7208 -40.7207 -40.7207 -40.7207
   -40.7207 -40.7207 -40.7207 -40.7206 -40.7205 -40.7204 -40.7201 -40.7201
   -40.7201 -40.7201 -40.7201 -40.7200 -40.7199 -40.7179 -40.7165 -40.7115
   -40.7031 -40.6995 -40.6948 -40.6937 -40.6936 -40.6935 -40.6935 -40.6935
   -40.6935 -40.6935 -40.6935 -40.6935 -40.6934 -40.6934 -40.6932 -40.6926
   -40.6926 -40.6926 -40.6926 -40.6926 -40.6926 -40.6926 -40.6912 -40.6849
   -40.6827 -40.6824 -40.6790 -40.6790 -40.6789 -40.6789 -40.6788 -40.6788
   -40.6788 -40.6788 -40.6788 -40.6788 -40.6788 -40.6787 -40.6787 -40.6787
   -40.6787 -40.6787 -40.6786 -40.6785 -40.6782 -40.6781 -40.6780 -40.6780
   -40.6780 -40.6780 -40.6780 -40.6780 -40.6780 -40.6780 -40.6763 -40.6749
   -40.6711 -40.6679 -40.6644 -40.6592 -40.6522 -40.6511 -40.6461 -40.6153
   -40.6152 -40.6152 -40.6152 -40.6151 -40.6150 -40.6142 -40.6142 -40.6142
   -40.6032 -40.5916 -40.5882 -40.5683 -40.5682 -40.5681 -40.5681 -40.5681
   -40.5681 -40.5681 -40.5681 -40.5681 -40.5679 -40.5678 -40.5677 -40.5671
   -40.5671 -40.5671 -40.5671 -40.5671 -40.5671 -40.5484 -40.5478 -40.5431
   -40.5356 -40.5324 -40.5268 -40.5205 -40.5205 -40.5204 -40.5204 -40.5194
   -40.5194 -40.4890 -40.4752 -20.2094 -20.0806 -19.9786 -19.8693 -19.6309
   -19.4877 -19.3184 -19.2464 -19.2385 -19.2303 -19.2162 -19.2154 -19.2110
   -19.1963 -19.1893 -19.1751 -19.1297 -19.1279 -19.1204 -19.1089 -19.1043
   -19.0922 -19.0249 -19.0236 -19.0192 -19.0153 -19.0137 -19.0093 -18.9030
   -18.7972 -18.7791 -18.6599 -18.6016 -18.5483 -18.5075 -18.4878 -18.4766
   -18.4603 -18.4502 -18.4229 -18.4030 -18.3924 -18.3861 -18.3716 -18.3634
   -18.3215 -18.2793 -18.2735 -18.2620 -18.2601 -18.2505 -18.2267 -18.2181
   -18.1794 -18.1633 -18.1626 -18.1601 -18.1533 -18.1529 -18.1412 -18.1023
   -18.1012 -18.0992 -18.0983 -18.0975 -18.0971 -18.0757 -18.0747 -18.0666
   -18.0650 -18.0637 -18.0565 -18.0557 -18.0548 -18.0538 -18.0455 -18.0342
   -18.0314 -18.0299 -18.0270 -18.0172 -18.0154 -18.0127 -17.9985 -17.9959
   -17.9886 -17.9869 -17.9845 -17.9809 -17.9719 -17.9698 -17.9684 -17.9400
   -17.9278 -17.9263 -17.9203 -17.9123 -17.9055 -17.9025 -17.9013 -17.8970
   -17.8776 -17.8735 -17.8695 -17.8620 -17.8589 -17.8535 -17.8513 -17.8498
   -17.8456 -17.8385 -17.8380 -17.8357 -17.8201 -17.8195 -17.8188 -17.8099
   -17.8085 -17.8054 -17.8043 -17.8024 -17.7996 -17.7761 -17.7759 -17.7750
   -17.7746 -17.7738 -17.7728 -12.2447 -12.0988 -11.9506 -11.9185 -11.8161
   -11.7801 -11.7719 -11.7674 -11.6669 -11.6588 -11.6513 -11.5972 -11.5413
   -11.5361 -11.5297 -11.4689 -11.4024 -11.3695 -11.3503 -11.2805 -11.2498
   -11.2291 -11.2202 -11.2175 -11.2155 -11.2053 -11.1667 -11.1415 -11.1228
   -11.1116 -11.1090 -11.1073 -11.1042 -11.1028 -11.0798 -11.0744 -11.0659
   -11.0551 -11.0457 -11.0441 -11.0411 -11.0373 -11.0262 -11.0179 -11.0127
   -11.0021 -10.9898 -10.9669 -10.9449 -10.9356 -10.9295 -10.9256 -10.9205
   -10.9038 -10.8910 -10.8760 -10.8747 -10.8728 -10.8693 -10.8616 -10.8517
   -10.8428 -10.8293 -10.8251 -10.8241 -10.8189 -10.8164 -10.8101 -10.8083
   -10.8079 -10.8061 -10.7975 -10.7926 -10.7906 -10.7888 -10.7862 -10.7647
   -10.7619 -10.7582 -10.7568 -10.7554 -10.7525 -10.7500 -10.7444 -10.7423
   -10.7169 -10.7166 -10.7163 -10.7159 -10.7142 -10.7133 -10.6604 -10.6513
   -10.6397 -10.6079 -10.5957 -10.5832 -10.5718 -10.5683 -10.5614 -10.5583
   -10.5251 -10.2881 -10.2479 -10.2092 -10.1414 -10.1259 -10.0787 -10.0729
    -9.9540  -9.9097  -9.8929  -9.8666  -9.8379  -9.8148  -9.7943  -9.7873
    -9.7783  -9.7684  -9.7602  -9.7562  -9.7516  -9.7485  -9.7466  -9.7440
    -9.7399  -9.7317  -9.7299  -9.7289  -9.7252  -9.7239  -9.7134  -9.7064
    -9.6872  -9.6752  -9.6504  -9.6290  -9.6180  -9.6104  -9.6089  -9.6052
    -9.5998  -9.5979  -9.5975  -9.5971  -9.5963  -9.5937  -9.5906  -9.5683
    -9.5572  -9.5451  -9.5240  -9.5208  -9.5201  -9.5200  -9.5199  -9.5196
    -9.5193  -9.5167  -9.5044  -9.4918  -9.4887  -9.4868  -9.4772  -9.4469
    -9.4378  -9.4114  -9.3685  -9.3647  -9.3511  -9.3478  -9.3421  -9.3380
    -9.3272  -9.3217  -9.3111  -9.3045  -9.2938  -9.2891  -9.2725  -9.2494
    -9.2304  -9.2265  -9.2117  -9.2104  -9.2025  -9.1862  -9.1714  -9.1634
    -9.1622  -9.1597  -9.1583  -9.1539  -9.1514  -9.1421  -9.1222  -9.0982
    -9.0937  -9.0856  -9.0492  -9.0142  -8.9868  -8.9832  -8.9608  -8.9583
    -8.9580  -8.9551  -8.9348  -8.9272  -8.9267  -8.9139  -8.8963  -8.8960
    -8.8952  -8.8917  -8.8909  -8.8824  -8.8734  -8.8681  -8.8643  -8.8016
    -8.8003  -8.7999  -8.7999  -8.7993  -8.7990  -8.7846  -8.7411  -8.7403
    -8.7353  -8.7286  -8.7208  -8.7125  -8.6619  -8.6532  -8.6474  -8.6446
    -8.6434  -8.6339  -8.6134  -8.5934  -8.5720  -8.5711  -8.5705  -8.5693
    -8.5666  -8.5613  -8.4639  -8.4364  -8.4218  -8.3539  -8.3450  -8.3449
    -8.3408  -8.3404  -8.3388  -8.3354  -8.3331  -8.3321  -8.2913  -8.2581
    -8.2544  -8.2543  -8.2542  -8.2540  -8.2528  -8.2413  -8.2299  -8.2275
    -8.2274  -8.2272  -8.2252  -8.2195  -8.2181  -8.1996  -8.1994  -8.1993
    -8.1987  -8.1983  -8.1967  -8.1600  -8.0659  -8.0197  -7.9725  -7.8718
    -7.8440  -7.8359  -7.8344  -7.8071  -7.7790  -7.7492  -7.7470  -7.7324
    -7.6879  -7.6812  -7.6471  -7.6342  -7.6281  -7.6195  -7.6157  -7.6006
    -7.5969  -7.5929  -7.5781  -7.5728  -7.5684  -7.5615  -7.5496  -7.5268
    -7.5232  -7.5132  -7.5128  -7.5126  -7.5124  -7.5121  -7.5071  -7.5015
    -7.4915  -7.4866  -7.4863  -7.4857  -7.4850  -7.4838  -7.4787  -7.4662
    -7.4613  -7.4609  -7.4606  -7.4603  -7.4587  -7.4579  -7.4373  -7.4340
    -7.4311  -7.4097  -7.4039  -7.3999  -7.3980  -7.3951  -7.3736  -7.3490
    -7.3453  -7.3394  -7.3360  -7.3244  -7.3137  -7.2937  -7.2853  -7.2827
    -7.2799  -7.2752  -7.2750  -7.2694  -7.2525  -7.2292  -7.2287  -7.2110
    -7.2103  -7.2011  -7.1923  -7.1920  -7.1795  -7.1610  -7.1547  -7.1224
    -7.0877  -7.0829  -7.0760  -7.0179  -6.9897  -6.9355  -6.9094  -6.8717
    -6.8639  -6.8585  -6.8447  -6.8388  -6.8241  -6.7642  -6.7586  -6.7570
    -6.7552  -6.7506  -6.7128  -6.6852  -6.6779  -6.6768  -6.6728  -6.6612
    -6.6330  -6.6144  -6.6050  -6.6015  -6.6001  -6.5967  -6.5910  -6.5552
    -6.5498  -6.5468  -6.5407  -6.5390  -6.5228  -6.5160  -6.5014  -6.4946
    -6.4922  -6.4916  -6.4896  -6.4881  -6.4853  -6.4841  -6.4791  -6.4761
    -6.4758  -6.4756  -6.4755  -6.4754  -6.4754  -6.4649  -6.4383  -6.4312
    -6.4245  -6.4087  -6.4004  -6.3927  -6.3878  -6.3856  -6.3755  -6.3348
    -6.3244  -6.3108  -6.3096  -6.3093  -6.3090  -6.3035  -6.2999  -6.2740
    -6.2719  -6.2692  -6.2684  -6.2641  -6.2625  -6.2464  -6.2335  -6.2330
    -6.2313  -6.2304  -6.2298  -6.2282  -6.2260  -6.1671  -6.0601  -5.9870
    -5.9096  -5.8556  -5.7431  -5.6950  -5.5735  -5.4323  -5.4279  -5.2849
    -5.2516  -5.1253  -4.2296  -3.9761  -3.8593  -3.8312  -3.8294  -3.8261
    -3.8104  -3.8094  -3.8080  -3.8070  -3.8020  -3.7996  -3.7815  -3.7610
    -3.7199  -3.6873  -3.6788  -3.6722  -3.6706  -3.6612  -3.6569  -3.6533
    -3.6517  -3.6506  -3.5601  -3.5355  -3.5118  -3.5005  -3.4974  -3.4844
    -3.4747  -3.4625  -3.4606  -3.4543  -3.4503  -3.4488  -3.4475  -3.4444
    -3.4420  -3.4362  -3.4336  -3.4244  -3.4208  -3.4203  -3.4198  -3.4131
    -3.4077  -3.4042  -3.4036  -3.3959  -3.3920  -3.3874  -3.3859  -3.3829
    -3.3796  -3.3782  -3.3736  -3.3695  -3.3636  -3.3614  -3.3360  -3.3346
    -3.3278  -3.3271  -3.3243  -3.3231  -3.3195  -3.3177  -3.3080  -3.2964
    -3.2916  -3.2805  -3.2738  -3.2655  -3.2618  -3.2542  -3.2508  -3.2446
    -3.2353  -3.2136  -3.1879  -3.1871  -3.1823  -3.1765  -3.0819  -3.0613
    -3.0510  -3.0417  -3.0397  -3.0383  -3.0301  -3.0295  -3.0228  -3.0206
    -3.0054  -2.9825  -2.9765  -2.9692  -2.9569  -2.9535  -2.9527  -2.9510
    -2.9484  -2.9463  -2.9452  -2.9406  -2.9406  -2.9346  -2.9324  -2.9310
    -2.9287  -2.9196  -2.9172  -2.9129  -2.9118  -2.9097  -2.9074  -2.9059
    -2.9053  -2.9051  -2.9009  -2.8992  -2.8944  -2.8715  -2.8672  -2.8610
    -2.8559  -2.8485  -2.8436  -2.8322  -2.8282  -2.7845  -2.7840  -2.7831
    -2.7813  -2.7806  -2.7802  -2.7801  -2.7797  -2.7794  -2.7646  -2.7631
    -2.7620  -2.7461  -2.7309  -2.7249  -2.7094  -2.7039  -2.6975  -2.6928
    -2.6475  -2.6384  -2.6179  -2.6139  -2.6105  -2.6032  -2.6014  -2.5995
    -2.5942  -2.5906  -2.5734  -2.5516  -2.5367  -2.5318  -2.5149  -2.5125
    -2.4365  -2.4096  -2.3969  -2.3920  -2.3901  -2.3828  -2.3819

          k = 0.0000-0.5773 0.0000 (386352 PWs)   bands (ev):

  -102.9218 -88.7049 -88.3803 -71.2555 -71.2479 -71.2312 -71.2185 -71.2081
   -71.1962 -71.1870 -66.5966 -66.5966 -66.5966 -66.5965 -66.5957 -66.5953
   -66.5953 -66.5947 -66.5859 -66.5859 -66.5859 -66.5859 -66.5846 -66.5846
   -66.5750 -66.5735 -66.5712 -66.5709 -66.5708 -66.5708 -66.5708 -66.5708
   -66.5708 -66.5708 -66.5707 -66.5695 -66.5695 -66.5695 -66.5695 -66.5671
   -66.5664 -66.5664 -66.5664 -66.5663 -66.5651 -66.5651 -66.5611 -66.5601
   -66.5601 -66.5601 -66.5601 -66.5601 -66.5601 -66.5601 -66.5599 -66.5588
   -66.5588 -66.5588 -66.5588 -66.5559 -66.5557 -66.5557 -66.5557 -66.5556
   -66.5543 -66.5543 -66.5523 -66.5431 -66.5423 -66.5309 -66.5247 -66.5168
   -66.5096 -66.5037 -57.2180 -57.1078 -57.0861 -54.5863 -54.4766 -54.4355
   -54.2362 -54.1950 -54.1183 -40.8986 -40.8986 -40.8986 -40.8986 -40.8986
   -40.8986 -40.8985 -40.8985 -40.8979 -40.8979 -40.8979 -40.8979 -40.8914
   -40.8901 -40.8823 -40.8721 -40.8718 -40.8718 -40.8718 -40.8716 -40.8711
   -40.8711 -40.8657 -40.8597 -40.8597 -40.8597 -40.8596 -40.8590 -40.8590
   -40.8587 -40.8328 -40.8124 -40.8090 -40.8090 -40.8090 -40.8090 -40.8090
   -40.8090 -40.8089 -40.8089 -40.8083 -40.8083 -40.8083 -40.8083 -40.7900
   -40.7842 -40.7746 -40.7709 -40.7620 -40.7537 -40.7503 -40.7502 -40.7502
   -40.7501 -40.7496 -40.7496 -40.7433 -40.7408 -40.7408 -40.7407 -40.7406
   -40.7399 -40.7399 -40.7330 -40.7294 -40.7294 -40.7294 -40.7293 -40.7287
   -40.7287 -40.7208 -40.7146 -40.7131 -40.7088 -40.7065 -40.7045 -40.6998
   -40.6998 -40.6998 -40.6998 -40.6998 -40.6997 -40.6997 -40.6997 -40.6991
   -40.6991 -40.6991 -40.6991 -40.6950 -40.6911 -40.6910 -40.6910 -40.6909
   -40.6903 -40.6903 -40.6902 -40.6889 -40.6797 -40.6793 -40.6793 -40.6793
   -40.6792 -40.6788 -40.6787 -40.6787 -40.6787 -40.6787 -40.6787 -40.6787
   -40.6785 -40.6784 -40.6784 -40.6780 -40.6780 -40.6780 -40.6780 -40.6748
   -40.6701 -40.6701 -40.6700 -40.6700 -40.6700 -40.6693 -40.6693 -40.6650
   -40.6615 -40.6562 -40.6515 -40.6484 -40.6483 -40.6483 -40.6483 -40.6483
   -40.6483 -40.6482 -40.6482 -40.6474 -40.6474 -40.6474 -40.6474 -40.6344
   -40.6300 -40.6275 -40.6234 -40.6136 -40.6136 -40.6136 -40.6136 -40.6136
   -40.6135 -40.6135 -40.6135 -40.6126 -40.6126 -40.6126 -40.6126 -40.6014
   -40.6014 -40.6014 -40.6013 -40.6005 -40.6005 -40.5956 -40.5895 -40.5859
   -40.5821 -40.5821 -40.5821 -40.5820 -40.5812 -40.5812 -40.5804 -40.5769
   -40.5651 -40.5651 -40.5651 -40.5650 -40.5641 -40.5641 -40.5631 -40.5614
   -40.5483 -40.5345 -40.5345 -40.5344 -40.5344 -40.5334 -40.5334 -40.5310
   -40.5145 -40.5114 -40.4904 -20.0706 -19.9154 -19.8472 -19.8377 -19.7500
   -19.7380 -19.6400 -19.6332 -19.5272 -19.4763 -19.4092 -19.4037 -19.3184
   -19.3111 -19.2202 -19.2091 -19.1788 -18.9663 -18.8485 -18.8024 -18.7626
   -18.7337 -18.7035 -18.7021 -18.6984 -18.6960 -18.6762 -18.6571 -18.6414
   -18.6302 -18.6243 -18.6164 -18.5898 -18.5739 -18.5622 -18.5369 -18.5334
   -18.5313 -18.5178 -18.5107 -18.5025 -18.4782 -18.4673 -18.4578 -18.4487
   -18.4384 -18.3926 -18.3893 -18.3852 -18.3786 -18.3624 -18.3476 -18.3250
   -18.3093 -18.3064 -18.2817 -18.2657 -18.2393 -18.2274 -18.2235 -18.2020
   -18.1866 -18.1654 -18.1595 -18.1551 -18.1191 -18.1069 -18.0967 -18.0910
   -18.0807 -18.0768 -18.0761 -18.0747 -18.0633 -18.0546 -18.0507 -18.0454
   -18.0433 -18.0425 -18.0358 -18.0321 -18.0273 -18.0245 -18.0206 -17.9897
   -17.9879 -17.9857 -17.9819 -17.9797 -17.9776 -17.9762 -17.9737 -17.9665
   -17.9609 -17.9318 -17.9256 -17.9206 -17.9143 -17.9133 -17.9070 -17.8744
   -17.8714 -17.8665 -17.8598 -17.8429 -17.8381 -17.8239 -17.8210 -17.8200
   -17.8152 -17.7971 -17.7968 -17.7964 -17.7962 -17.7960 -17.7950 -17.7828
   -17.7819 -17.7634 -17.7614 -17.7389 -17.7370 -17.7197 -17.7171 -17.7049
   -17.7031 -17.6971 -17.6969 -12.1211 -11.9601 -11.8163 -11.7459 -11.7073
   -11.6580 -11.5974 -11.5236 -11.5082 -11.4868 -11.4761 -11.4748 -11.4649
   -11.4617 -11.4409 -11.4329 -11.3969 -11.3784 -11.3659 -11.3616 -11.3600
   -11.3434 -11.3235 -11.3116 -11.2950 -11.2770 -11.2640 -11.2527 -11.2500
   -11.2458 -11.2400 -11.2334 -11.2302 -11.2070 -11.1915 -11.1841 -11.1831
   -11.1754 -11.1639 -11.1549 -11.1483 -11.1479 -11.1361 -11.1260 -11.1246
   -11.1114 -11.0963 -11.0770 -11.0732 -11.0627 -11.0570 -11.0415 -10.9931
   -10.9774 -10.9504 -10.9343 -10.9243 -10.9160 -10.9057 -10.8923 -10.8879
   -10.8707 -10.8498 -10.8286 -10.8156 -10.8136 -10.8103 -10.8006 -10.7903
   -10.7900 -10.7882 -10.7880 -10.7859 -10.7835 -10.7807 -10.7772 -10.7705
   -10.7703 -10.7635 -10.7628 -10.7604 -10.7589 -10.7267 -10.7220 -10.7208
   -10.7205 -10.7133 -10.6503 -10.5571 -10.5384 -10.5177 -10.5128 -10.4908
   -10.4849 -10.4340 -10.4034 -10.3577 -10.3229 -10.2828 -10.2403 -10.1955
   -10.1882 -10.1297 -10.1249 -10.1141 -10.1011 -10.0901 -10.0845 -10.0811
   -10.0404 -10.0271 -10.0149 -10.0142 -10.0115 -10.0040 -10.0014  -9.9895
    -9.9675  -9.9572  -9.9397  -9.9223  -9.9145  -9.9071  -9.8937  -9.8729
    -9.8716  -9.8615  -9.8463  -9.8408  -9.8338  -9.8217  -9.8080  -9.7928
    -9.7716  -9.7621  -9.7570  -9.7448  -9.7254  -9.7044  -9.6989  -9.6794
    -9.6710  -9.6649  -9.6346  -9.6306  -9.6074  -9.6045  -9.5905  -9.5897
    -9.5797  -9.5657  -9.5500  -9.5389  -9.5302  -9.5254  -9.5137  -9.4790
    -9.4752  -9.4694  -9.4665  -9.4590  -9.4515  -9.4484  -9.4420  -9.4388
    -9.4352  -9.4284  -9.4141  -9.4063  -9.3759  -9.3725  -9.3523  -9.3287
    -9.3018  -9.2618  -9.2483  -9.2171  -9.2011  -9.1936  -9.1905  -9.1807
    -9.1739  -9.1526  -9.1421  -9.1245  -9.1202  -9.1073  -9.1014  -9.0846
    -9.0777  -9.0495  -9.0435  -9.0357  -9.0268  -9.0213  -9.0168  -8.9906
    -8.9764  -8.9731  -8.9662  -8.9461  -8.9372  -8.9301  -8.9247  -8.9168
    -8.9093  -8.8815  -8.8734  -8.8708  -8.8688  -8.8664  -8.8649  -8.8633
    -8.8574  -8.8509  -8.8493  -8.8465  -8.8451  -8.8374  -8.8353  -8.8306
    -8.8243  -8.8177  -8.8171  -8.8139  -8.8006  -8.7715  -8.7710  -8.7695
    -8.7663  -8.7652  -8.7632  -8.7433  -8.7407  -8.7378  -8.7210  -8.7121
    -8.7108  -8.7078  -8.7054  -8.6921  -8.6475  -8.6415  -8.6363  -8.6290
    -8.5950  -8.5208  -8.4866  -8.4820  -8.4623  -8.4560  -8.4234  -8.4155
    -8.3723  -8.3383  -8.3235  -8.2886  -8.2707  -8.2460  -8.2284  -8.1623
    -8.1052  -8.1051  -8.0969  -8.0963  -8.0898  -8.0852  -8.0841  -8.0736
    -8.0508  -8.0337  -8.0088  -7.9828  -7.9474  -7.9442  -7.9095  -7.8773
    -7.8692  -7.8430  -7.8247  -7.8235  -7.8164  -7.8111  -7.8068  -7.7993
    -7.7918  -7.7896  -7.7826  -7.7806  -7.7764  -7.7746  -7.7712  -7.7670
    -7.7626  -7.7588  -7.7580  -7.7468  -7.7465  -7.7443  -7.7433  -7.7424
    -7.7407  -7.7359  -7.7357  -7.7338  -7.7257  -7.7183  -7.7076  -7.7074
    -7.7070  -7.6963  -7.6753  -7.6742  -7.6739  -7.6727  -7.6624  -7.6464
    -7.6443  -7.6437  -7.6426  -7.6347  -7.6321  -7.6284  -7.6225  -7.6058
    -7.5981  -7.5913  -7.5856  -7.5846  -7.5837  -7.5762  -7.5637  -7.5620
    -7.5585  -7.5444  -7.5429  -7.5415  -7.5408  -7.5359  -7.5251  -7.4785
    -7.4441  -7.4413  -7.4403  -7.4344  -7.4253  -7.3887  -7.3474  -7.3168
    -7.2683  -7.2308  -7.1707  -7.1503  -7.1473  -7.1440  -7.1426  -7.1295
    -7.1077  -7.0999  -7.0903  -7.0895  -7.0693  -7.0567  -7.0529  -7.0365
    -7.0216  -7.0094  -7.0065  -6.9973  -6.9832  -6.9753  -6.9544  -6.9534
    -6.9111  -6.8933  -6.8854  -6.8798  -6.8660  -6.8610  -6.8556  -6.8372
    -6.8360  -6.8225  -6.8080  -6.7859  -6.7607  -6.7471  -6.7340  -6.7169
    -6.6983  -6.6902  -6.6719  -6.6582  -6.6298  -6.6054  -6.6012  -6.5849
    -6.5835  -6.5828  -6.5819  -6.5790  -6.5668  -6.5657  -6.5650  -6.5643
    -6.5575  -6.5567  -6.5563  -6.5561  -6.5544  -6.5469  -6.5349  -6.5190
    -6.4789  -6.4596  -6.4251  -6.3939  -6.3822  -6.3206  -6.3010  -6.2983
    -6.2953  -6.2904  -6.2825  -6.2715  -6.2547  -6.2543  -6.2528  -6.2498
    -6.2495  -6.2364  -6.2348  -6.2323  -6.2268  -6.2221  -6.2092  -6.1838
    -6.1819  -6.1798  -6.1770  -6.1241  -6.0418  -5.9910  -5.9676  -5.9540
    -5.9397  -5.9149  -5.8905  -5.8839  -5.8394  -5.8304  -5.8218  -5.7983
    -5.7161  -5.7109  -5.6503  -5.5974  -5.5835  -5.5663  -5.5330  -5.4992
    -5.3440  -5.2647  -4.2740  -4.0872  -4.0751  -4.0667  -4.0410  -3.9629
    -3.9149  -3.9083  -3.8986  -3.8940  -3.8418  -3.8216  -3.8192  -3.8089
    -3.8056  -3.7956  -3.7896  -3.7854  -3.7755  -3.7746  -3.7235  -3.6995
    -3.6925  -3.6674  -3.6277  -3.6115  -3.5837  -3.5776  -3.5770  -3.5740
    -3.5345  -3.5295  -3.5269  -3.5223  -3.5095  -3.5031  -3.4961  -3.4862
    -3.4820  -3.4736  -3.4712  -3.4588  -3.4532  -3.4498  -3.4484  -3.4406
    -3.4371  -3.4288  -3.4214  -3.4169  -3.3998  -3.3978  -3.3946  -3.3856
    -3.3555  -3.3499  -3.3394  -3.3313  -3.3248  -3.3229  -3.3209  -3.3187
    -3.3124  -3.2996  -3.2854  -3.2720  -3.2683  -3.2624  -3.2567  -3.2553
    -3.2522  -3.2505  -3.2468  -3.2369  -3.2272  -3.2247  -3.2112  -3.2099
    -3.2041  -3.1967  -3.1911  -3.1880  -3.1867  -3.1847  -3.1672  -3.1648
    -3.1603  -3.1493  -3.1472  -3.1376  -3.1374  -3.1365  -3.1271  -3.1185
    -3.0918  -3.0781  -3.0712  -3.0616  -3.0513  -3.0478  -3.0401  -3.0362
    -3.0057  -3.0014  -2.9987  -2.9975  -2.9966  -2.9961  -2.9910  -2.9884
    -2.9835  -2.9827  -2.9803  -2.9751  -2.9659  -2.9615  -2.9598  -2.9549
    -2.9541  -2.9521  -2.9489  -2.9444  -2.9399  -2.9373  -2.9238  -2.9227
    -2.9188  -2.9175  -2.9081  -2.9062  -2.8967  -2.8938  -2.8782  -2.8765
    -2.8645  -2.8613  -2.8564  -2.8490  -2.8465  -2.8238  -2.7772  -2.7735
    -2.7672  -2.7629  -2.7311  -2.7127  -2.7049  -2.6924  -2.6036  -2.5891
    -2.5737  -2.5714  -2.5513  -2.5457  -2.5404  -2.5231  -2.5198  -2.5177
    -2.5111  -2.5060  -2.5016  -2.5004  -2.4705  -2.3993  -2.3888  -2.3778
    -2.3703  -2.3653  -2.3616  -2.3539  -2.3464  -2.3172  -2.3164

          k =-0.5000-0.2887 0.0000 (386352 PWs)   bands (ev):

  -102.9218 -88.7049 -88.3803 -71.2555 -71.2479 -71.2312 -71.2185 -71.2081
   -71.1962 -71.1870 -66.5966 -66.5966 -66.5966 -66.5965 -66.5957 -66.5953
   -66.5953 -66.5947 -66.5859 -66.5859 -66.5859 -66.5859 -66.5846 -66.5846
   -66.5749 -66.5738 -66.5718 -66.5709 -66.5709 -66.5708 -66.5708 -66.5708
   -66.5708 -66.5707 -66.5706 -66.5695 -66.5695 -66.5695 -66.5695 -66.5664
   -66.5664 -66.5664 -66.5664 -66.5663 -66.5651 -66.5651 -66.5602 -66.5602
   -66.5601 -66.5601 -66.5601 -66.5601 -66.5600 -66.5600 -66.5599 -66.5588
   -66.5588 -66.5588 -66.5588 -66.5562 -66.5557 -66.5557 -66.5557 -66.5556
   -66.5543 -66.5543 -66.5532 -66.5437 -66.5418 -66.5304 -66.5247 -66.5170
   -66.5096 -66.5037 -57.2180 -57.1078 -57.0861 -54.5863 -54.4766 -54.4355
   -54.2362 -54.1950 -54.1183 -40.8986 -40.8986 -40.8986 -40.8986 -40.8986
   -40.8986 -40.8985 -40.8984 -40.8979 -40.8979 -40.8979 -40.8979 -40.8903
   -40.8885 -40.8802 -40.8761 -40.8718 -40.8718 -40.8717 -40.8717 -40.8711
   -40.8711 -40.8659 -40.8608 -40.8597 -40.8597 -40.8597 -40.8596 -40.8590
   -40.8590 -40.8323 -40.8129 -40.8091 -40.8090 -40.8090 -40.8090 -40.8090
   -40.8090 -40.8090 -40.8089 -40.8083 -40.8083 -40.8083 -40.8083 -40.7908
   -40.7818 -40.7752 -40.7689 -40.7620 -40.7553 -40.7503 -40.7502 -40.7502
   -40.7502 -40.7496 -40.7496 -40.7425 -40.7408 -40.7407 -40.7407 -40.7406
   -40.7399 -40.7399 -40.7335 -40.7294 -40.7294 -40.7294 -40.7293 -40.7287
   -40.7287 -40.7176 -40.7143 -40.7133 -40.7095 -40.7076 -40.7040 -40.6999
   -40.6998 -40.6998 -40.6998 -40.6998 -40.6998 -40.6996 -40.6996 -40.6991
   -40.6991 -40.6991 -40.6991 -40.6986 -40.6912 -40.6910 -40.6910 -40.6910
   -40.6910 -40.6903 -40.6903 -40.6851 -40.6793 -40.6793 -40.6793 -40.6791
   -40.6789 -40.6788 -40.6787 -40.6787 -40.6787 -40.6787 -40.6786 -40.6786
   -40.6784 -40.6784 -40.6783 -40.6780 -40.6780 -40.6780 -40.6780 -40.6760
   -40.6701 -40.6700 -40.6700 -40.6700 -40.6693 -40.6693 -40.6688 -40.6672
   -40.6603 -40.6566 -40.6513 -40.6484 -40.6483 -40.6483 -40.6483 -40.6483
   -40.6483 -40.6482 -40.6482 -40.6474 -40.6474 -40.6474 -40.6474 -40.6341
   -40.6307 -40.6293 -40.6216 -40.6136 -40.6136 -40.6136 -40.6136 -40.6136
   -40.6135 -40.6135 -40.6135 -40.6126 -40.6126 -40.6126 -40.6126 -40.6014
   -40.6014 -40.6014 -40.6013 -40.6005 -40.6005 -40.5984 -40.5918 -40.5888
   -40.5821 -40.5821 -40.5821 -40.5820 -40.5812 -40.5812 -40.5749 -40.5720
   -40.5651 -40.5651 -40.5651 -40.5650 -40.5649 -40.5641 -40.5641 -40.5629
   -40.5491 -40.5345 -40.5345 -40.5344 -40.5344 -40.5334 -40.5334 -40.5324
   -40.5136 -40.5066 -40.4938 -20.0742 -19.9075 -19.8471 -19.8363 -19.7496
   -19.7372 -19.6395 -19.6335 -19.5483 -19.4760 -19.4101 -19.4037 -19.3196
   -19.3106 -19.2155 -19.2085 -19.1350 -19.0042 -18.8699 -18.7775 -18.7578
   -18.7400 -18.7028 -18.7022 -18.6986 -18.6932 -18.6811 -18.6554 -18.6402
   -18.6304 -18.6240 -18.6185 -18.5859 -18.5760 -18.5615 -18.5363 -18.5344
   -18.5307 -18.5190 -18.5105 -18.5011 -18.4796 -18.4661 -18.4565 -18.4485
   -18.4381 -18.3938 -18.3877 -18.3858 -18.3804 -18.3664 -18.3450 -18.3262
   -18.3088 -18.3069 -18.2858 -18.2571 -18.2422 -18.2272 -18.2253 -18.1993
   -18.1848 -18.1654 -18.1596 -18.1557 -18.1147 -18.1071 -18.0991 -18.0891
   -18.0822 -18.0765 -18.0760 -18.0741 -18.0668 -18.0545 -18.0511 -18.0449
   -18.0434 -18.0425 -18.0348 -18.0316 -18.0299 -18.0246 -18.0199 -17.9891
   -17.9878 -17.9856 -17.9820 -17.9796 -17.9775 -17.9770 -17.9745 -17.9663
   -17.9604 -17.9294 -17.9271 -17.9191 -17.9143 -17.9137 -17.9084 -17.8756
   -17.8712 -17.8658 -17.8609 -17.8460 -17.8345 -17.8235 -17.8215 -17.8189
   -17.8167 -17.7970 -17.7968 -17.7967 -17.7962 -17.7958 -17.7954 -17.7826
   -17.7820 -17.7631 -17.7616 -17.7387 -17.7371 -17.7196 -17.7171 -17.7048
   -17.7032 -17.6971 -17.6969 -12.1332 -11.9538 -11.7941 -11.7387 -11.7035
   -11.6561 -11.6061 -11.5336 -11.5165 -11.4860 -11.4758 -11.4746 -11.4645
   -11.4635 -11.4433 -11.4377 -11.4029 -11.3757 -11.3628 -11.3598 -11.3545
   -11.3443 -11.3265 -11.3127 -11.2933 -11.2731 -11.2689 -11.2529 -11.2481
   -11.2449 -11.2413 -11.2334 -11.2301 -11.2069 -11.1901 -11.1856 -11.1802
   -11.1747 -11.1665 -11.1535 -11.1510 -11.1468 -11.1405 -11.1252 -11.1245
   -11.1098 -11.0929 -11.0870 -11.0781 -11.0677 -11.0503 -11.0331 -10.9903
   -10.9752 -10.9511 -10.9369 -10.9187 -10.9127 -10.9026 -10.8909 -10.8834
   -10.8778 -10.8594 -10.8289 -10.8174 -10.8134 -10.8114 -10.8007 -10.7925
   -10.7892 -10.7888 -10.7880 -10.7874 -10.7834 -10.7782 -10.7771 -10.7706
   -10.7699 -10.7641 -10.7621 -10.7610 -10.7590 -10.7265 -10.7222 -10.7209
   -10.7205 -10.7125 -10.6712 -10.5432 -10.5361 -10.5196 -10.5121 -10.4871
   -10.4697 -10.4379 -10.3968 -10.3693 -10.3448 -10.2882 -10.2396 -10.1953
   -10.1781 -10.1331 -10.1231 -10.1162 -10.0975 -10.0898 -10.0851 -10.0782
   -10.0422 -10.0241 -10.0163 -10.0111 -10.0105 -10.0043 -10.0001  -9.9876
    -9.9747  -9.9577  -9.9403  -9.9129  -9.9109  -9.8990  -9.8942  -9.8759
    -9.8714  -9.8563  -9.8538  -9.8410  -9.8322  -9.8087  -9.7991  -9.7925
    -9.7741  -9.7641  -9.7576  -9.7453  -9.7330  -9.7042  -9.6981  -9.6803
    -9.6658  -9.6617  -9.6370  -9.6328  -9.6100  -9.6041  -9.5947  -9.5882
    -9.5806  -9.5678  -9.5505  -9.5345  -9.5275  -9.5223  -9.5157  -9.4813
    -9.4751  -9.4704  -9.4659  -9.4632  -9.4520  -9.4467  -9.4426  -9.4403
    -9.4355  -9.4265  -9.4228  -9.4035  -9.3817  -9.3727  -9.3556  -9.3269
    -9.2938  -9.2538  -9.2487  -9.2177  -9.2109  -9.1962  -9.1879  -9.1806
    -9.1738  -9.1495  -9.1441  -9.1250  -9.1180  -9.1074  -9.0985  -9.0870
    -9.0772  -9.0505  -9.0461  -9.0357  -9.0256  -9.0221  -9.0162  -8.9883
    -8.9756  -8.9711  -8.9661  -8.9483  -8.9400  -8.9299  -8.9258  -8.9166
    -8.9075  -8.8819  -8.8745  -8.8693  -8.8680  -8.8670  -8.8645  -8.8606
    -8.8584  -8.8515  -8.8485  -8.8463  -8.8446  -8.8378  -8.8339  -8.8334
    -8.8210  -8.8175  -8.8172  -8.8162  -8.7956  -8.7714  -8.7705  -8.7690
    -8.7675  -8.7653  -8.7636  -8.7492  -8.7409  -8.7397  -8.7193  -8.7139
    -8.7106  -8.7085  -8.7056  -8.6889  -8.6448  -8.6376  -8.6354  -8.6303
    -8.5969  -8.5145  -8.4853  -8.4816  -8.4684  -8.4578  -8.4252  -8.4151
    -8.3551  -8.3392  -8.3160  -8.2930  -8.2767  -8.2612  -8.2294  -8.1610
    -8.1070  -8.1051  -8.1038  -8.0961  -8.0951  -8.0848  -8.0844  -8.0649
    -8.0594  -8.0304  -8.0124  -7.9852  -7.9481  -7.9438  -7.9229  -7.8804
    -7.8678  -7.8479  -7.8218  -7.8203  -7.8142  -7.8093  -7.8035  -7.8002
    -7.7894  -7.7869  -7.7810  -7.7796  -7.7779  -7.7732  -7.7711  -7.7644
    -7.7624  -7.7587  -7.7577  -7.7469  -7.7465  -7.7449  -7.7433  -7.7420
    -7.7401  -7.7359  -7.7355  -7.7317  -7.7280  -7.7188  -7.7075  -7.7073
    -7.7068  -7.7001  -7.6757  -7.6746  -7.6741  -7.6730  -7.6618  -7.6507
    -7.6442  -7.6434  -7.6431  -7.6404  -7.6306  -7.6282  -7.6255  -7.6009
    -7.5907  -7.5899  -7.5856  -7.5854  -7.5825  -7.5762  -7.5633  -7.5616
    -7.5564  -7.5465  -7.5423  -7.5414  -7.5406  -7.5349  -7.5244  -7.4642
    -7.4464  -7.4424  -7.4375  -7.4335  -7.4254  -7.3754  -7.3634  -7.3471
    -7.2567  -7.2165  -7.1739  -7.1537  -7.1471  -7.1455  -7.1433  -7.1257
    -7.1102  -7.1004  -7.0910  -7.0886  -7.0834  -7.0711  -7.0512  -7.0312
    -7.0177  -7.0112  -7.0047  -6.9985  -6.9682  -6.9584  -6.9534  -6.9522
    -6.9157  -6.8931  -6.8858  -6.8704  -6.8670  -6.8567  -6.8457  -6.8370
    -6.8359  -6.8283  -6.8047  -6.7883  -6.7670  -6.7573  -6.7343  -6.7284
    -6.7032  -6.6865  -6.6670  -6.6583  -6.6292  -6.6038  -6.5977  -6.5844
    -6.5833  -6.5829  -6.5820  -6.5780  -6.5724  -6.5656  -6.5652  -6.5643
    -6.5616  -6.5564  -6.5564  -6.5562  -6.5557  -6.5444  -6.5353  -6.5067
    -6.4903  -6.4669  -6.4165  -6.3898  -6.3843  -6.3156  -6.3017  -6.2975
    -6.2957  -6.2916  -6.2814  -6.2633  -6.2587  -6.2546  -6.2536  -6.2497
    -6.2496  -6.2395  -6.2327  -6.2317  -6.2280  -6.2175  -6.2109  -6.1833
    -6.1819  -6.1787  -6.1777  -6.1081  -6.0424  -5.9940  -5.9693  -5.9579
    -5.9406  -5.9263  -5.8976  -5.8893  -5.8435  -5.8288  -5.8206  -5.7962
    -5.7137  -5.7094  -5.6332  -5.5969  -5.5759  -5.5730  -5.5477  -5.5028
    -5.3424  -5.2663  -4.2728  -4.0936  -4.0720  -4.0659  -4.0409  -3.9587
    -3.9130  -3.9074  -3.9003  -3.8913  -3.8422  -3.8238  -3.8189  -3.8099
    -3.8052  -3.7919  -3.7903  -3.7813  -3.7755  -3.7735  -3.7216  -3.7035
    -3.6910  -3.6684  -3.6312  -3.5999  -3.5850  -3.5800  -3.5771  -3.5740
    -3.5345  -3.5310  -3.5257  -3.5208  -3.5158  -3.5010  -3.4956  -3.4908
    -3.4849  -3.4764  -3.4708  -3.4591  -3.4542  -3.4507  -3.4489  -3.4399
    -3.4388  -3.4293  -3.4243  -3.4169  -3.4036  -3.3949  -3.3938  -3.3837
    -3.3630  -3.3527  -3.3419  -3.3290  -3.3248  -3.3229  -3.3204  -3.3181
    -3.3126  -3.2993  -3.2789  -3.2759  -3.2664  -3.2636  -3.2570  -3.2547
    -3.2527  -3.2505  -3.2458  -3.2363  -3.2248  -3.2195  -3.2143  -3.2061
    -3.2023  -3.1980  -3.1911  -3.1876  -3.1845  -3.1800  -3.1744  -3.1630
    -3.1618  -3.1514  -3.1451  -3.1378  -3.1374  -3.1374  -3.1282  -3.1218
    -3.0878  -3.0765  -3.0729  -3.0631  -3.0555  -3.0492  -3.0413  -3.0355
    -3.0020  -3.0011  -3.0003  -2.9982  -2.9978  -2.9968  -2.9930  -2.9874
    -2.9853  -2.9839  -2.9814  -2.9729  -2.9656  -2.9641  -2.9617  -2.9571
    -2.9561  -2.9502  -2.9473  -2.9443  -2.9413  -2.9355  -2.9241  -2.9226
    -2.9191  -2.9173  -2.9094  -2.9058  -2.8966  -2.8899  -2.8806  -2.8732
    -2.8667  -2.8613  -2.8580  -2.8508  -2.8486  -2.8225  -2.7776  -2.7721
    -2.7663  -2.7645  -2.7285  -2.7146  -2.7092  -2.6901  -2.6019  -2.5885
    -2.5704  -2.5643  -2.5508  -2.5417  -2.5326  -2.5235  -2.5157  -2.5101
    -2.5066  -2.5026  -2.5009  -2.4907  -2.4242  -2.3882  -2.3793  -2.3768
    -2.3682  -2.3652  -2.3609  -2.3549  -2.3421  -2.3177  -2.3165

          k =-0.5000-0.8660 0.0000 (386352 PWs)   bands (ev):

  -102.9218 -88.7049 -88.3803 -71.2555 -71.2479 -71.2312 -71.2185 -71.2081
   -71.1962 -71.1870 -66.5988 -66.5966 -66.5966 -66.5966 -66.5965 -66.5953
   -66.5953 -66.5876 -66.5859 -66.5859 -66.5859 -66.5859 -66.5846 -66.5846
   -66.5826 -66.5742 -66.5711 -66.5710 -66.5708 -66.5708 -66.5708 -66.5708
   -66.5705 -66.5705 -66.5695 -66.5695 -66.5695 -66.5695 -66.5693 -66.5664
   -66.5664 -66.5664 -66.5663 -66.5651 -66.5651 -66.5634 -66.5604 -66.5603
   -66.5601 -66.5601 -66.5601 -66.5601 -66.5601 -66.5600 -66.5597 -66.5588
   -66.5588 -66.5588 -66.5588 -66.5575 -66.5557 -66.5557 -66.5556 -66.5556
   -66.5543 -66.5543 -66.5531 -66.5432 -66.5423 -66.5301 -66.5257 -66.5165
   -66.5095 -66.5038 -57.2180 -57.1078 -57.0861 -54.5863 -54.4766 -54.4355
   -54.2362 -54.1950 -54.1183 -40.9084 -40.8988 -40.8986 -40.8986 -40.8986
   -40.8986 -40.8986 -40.8985 -40.8983 -40.8979 -40.8979 -40.8979 -40.8979
   -40.8878 -40.8718 -40.8718 -40.8718 -40.8716 -40.8711 -40.8711 -40.8711
   -40.8657 -40.8597 -40.8597 -40.8597 -40.8596 -40.8590 -40.8590 -40.8528
   -40.8435 -40.8430 -40.8281 -40.8090 -40.8090 -40.8090 -40.8090 -40.8090
   -40.8090 -40.8089 -40.8089 -40.8083 -40.8083 -40.8083 -40.8083 -40.7961
   -40.7914 -40.7835 -40.7659 -40.7624 -40.7553 -40.7504 -40.7502 -40.7502
   -40.7501 -40.7496 -40.7496 -40.7408 -40.7408 -40.7407 -40.7407 -40.7399
   -40.7399 -40.7381 -40.7354 -40.7294 -40.7294 -40.7294 -40.7293 -40.7287
   -40.7287 -40.7197 -40.7148 -40.7125 -40.7062 -40.7044 -40.7000 -40.7000
   -40.6998 -40.6998 -40.6998 -40.6998 -40.6995 -40.6995 -40.6993 -40.6991
   -40.6991 -40.6991 -40.6991 -40.6944 -40.6927 -40.6911 -40.6910 -40.6910
   -40.6909 -40.6903 -40.6903 -40.6873 -40.6799 -40.6793 -40.6793 -40.6792
   -40.6792 -40.6790 -40.6789 -40.6788 -40.6787 -40.6787 -40.6787 -40.6787
   -40.6784 -40.6784 -40.6782 -40.6780 -40.6780 -40.6780 -40.6780 -40.6753
   -40.6731 -40.6701 -40.6700 -40.6700 -40.6700 -40.6693 -40.6693 -40.6628
   -40.6590 -40.6533 -40.6518 -40.6486 -40.6483 -40.6483 -40.6483 -40.6483
   -40.6482 -40.6482 -40.6481 -40.6474 -40.6474 -40.6474 -40.6474 -40.6399
   -40.6351 -40.6176 -40.6136 -40.6136 -40.6136 -40.6136 -40.6136 -40.6135
   -40.6135 -40.6135 -40.6126 -40.6126 -40.6126 -40.6126 -40.6084 -40.6017
   -40.6015 -40.6014 -40.6014 -40.6013 -40.6005 -40.6005 -40.5924 -40.5861
   -40.5822 -40.5821 -40.5821 -40.5819 -40.5812 -40.5812 -40.5805 -40.5766
   -40.5651 -40.5651 -40.5651 -40.5650 -40.5641 -40.5641 -40.5632 -40.5570
   -40.5534 -40.5395 -40.5345 -40.5344 -40.5344 -40.5344 -40.5334 -40.5334
   -40.5243 -40.5121 -40.4790 -20.0943 -19.8714 -19.8470 -19.8150 -19.7489
   -19.7219 -19.6446 -19.6299 -19.6227 -19.4817 -19.4115 -19.4044 -19.3210
   -19.3113 -19.2148 -19.2088 -19.1060 -18.9994 -18.8500 -18.7731 -18.7597
   -18.7421 -18.7047 -18.7018 -18.6982 -18.6945 -18.6878 -18.6541 -18.6380
   -18.6268 -18.6207 -18.6187 -18.5781 -18.5703 -18.5648 -18.5390 -18.5301
   -18.5272 -18.5264 -18.5174 -18.4977 -18.4783 -18.4671 -18.4562 -18.4483
   -18.4444 -18.4158 -18.3916 -18.3873 -18.3775 -18.3568 -18.3420 -18.3315
   -18.3299 -18.3071 -18.2927 -18.2584 -18.2449 -18.2383 -18.2163 -18.2152
   -18.1904 -18.1590 -18.1543 -18.1411 -18.1399 -18.1127 -18.0917 -18.0800
   -18.0793 -18.0775 -18.0758 -18.0554 -18.0548 -18.0535 -18.0511 -18.0465
   -18.0463 -18.0425 -18.0406 -18.0326 -18.0231 -18.0153 -18.0110 -17.9936
   -17.9855 -17.9827 -17.9815 -17.9794 -17.9772 -17.9738 -17.9691 -17.9669
   -17.9562 -17.9411 -17.9189 -17.9147 -17.9115 -17.9063 -17.9021 -17.8879
   -17.8751 -17.8670 -17.8584 -17.8553 -17.8463 -17.8279 -17.8207 -17.8175
   -17.8169 -17.7981 -17.7966 -17.7964 -17.7960 -17.7950 -17.7948 -17.7831
[...]
     atom  172 type  2   force =     0.00000235    0.00000120    0.00161534
     atom  173 type  2   force =     0.00000219    0.00000075   -0.00235984
     atom  174 type  2   force =    -0.00000062   -0.00000422    0.00001253
     atom  175 type  1   force =     0.00001879    0.00000465    0.00000184
     atom  176 type  1   force =    -0.00010776   -0.00007158   -0.00015411
     atom  177 type  2   force =    -0.00015704    0.00029019   -0.00031284
     atom  178 type  2   force =    -0.00000222    0.00002317    0.00001078
     atom  179 type  2   force =     0.00002647   -0.00002198   -0.00000094
     atom  180 type  2   force =     0.00047390    0.00004150    0.00017498
     atom  181 type  1   force =     0.00000344    0.00000008    0.00068822
     atom  182 type  1   force =    -0.00000597   -0.00001221    0.00000518
     atom  183 type  2   force =     0.00000037   -0.00000028    0.00000488
     atom  184 type  2   force =     0.00000228    0.00000125    0.00161535
     atom  185 type  2   force =     0.00000212    0.00000067   -0.00235989
     atom  186 type  2   force =     0.00000055   -0.00000212    0.00001966
     atom  187 type  1   force =     0.00001547    0.00000304    0.00002793
     atom  188 type  1   force =     0.00004940    0.00006600   -0.00021793
     atom  189 type  2   force =    -0.00027118   -0.00007338   -0.00060860
     atom  190 type  2   force =     0.00000679   -0.00003057    0.00002683
     atom  191 type  2   force =     0.00000864    0.00001997    0.00001658
     atom  192 type  2   force =     0.00030295    0.00020425   -0.00034362
     atom  193 type  3   force =    -0.00031019   -0.00004657    0.00063285
     atom  194 type  4   force =     0.00003658   -0.00007579   -0.00008341
     atom  195 type  4   force =     0.00010787    0.00007685   -0.00091054

     Total force =     0.002482     Total SCF correction =     0.000859
     SCF correction compared to forces is large: reduce conv_thr to get better values
     Energy error            =      1.1E-05 Ry
     Gradient error          =      9.1E-04 Ry/Bohr

     bfgs converged in  31 scf cycles and  30 bfgs steps
     (criteria: energy <  1.0E-04 Ry, force <  1.0E-03 Ry/Bohr)

     End of BFGS Geometry Optimization

     Final energy             =  -34492.2591862294 Ry

     File ./outdir/pwscf.bfgs deleted, as requested
Begin final coordinates

ATOMIC_POSITIONS (angstrom)
Mo               0.0000119917        1.8193638619       -9.1672481230    0   0   0
Mo               1.5756136568        0.9097075315       -3.0554901653    0   0   0
S                0.0000188998        1.8193822938       -4.6232556019    0   0   0
S                1.5756321638        0.9096773839       -7.6014065489    0   0   0
S                1.5756326175        0.9096785128      -10.7330757790    0   0   0
S                0.0000189190        1.8193860094       -1.4877129945    0   0   0
Mo               0.0000782871        1.8191328403        3.0573710305
Mo               1.5769947053        0.9061477979        9.1811575551
S               -0.0082913400        1.8329410678        7.6413565243
S                1.5750140619        0.9094844182        4.6251311568
S                1.5758683877        0.9095607321        1.4895431120
S                0.0046567305        1.7599160611       10.8114966969
Mo              -1.5756053507        4.5484193819       -9.1672481230    0   0   0
Mo               0.0000378379        3.6387394919       -3.0554952701    0   0   0
S               -1.5755913433        4.5484363582       -4.6232494962    0   0   0
S                0.0000148214        3.6387329039       -7.6014065489    0   0   0
S                0.0000152751        3.6387340328      -10.7330757790    0   0   0
S               -1.5755906502        4.5484413613       -1.4877305502    0   0   0
Mo              -1.5749391207        4.5479319631        3.0579471499
Mo              -0.0039766499        3.6278012521        9.2161879561
S               -1.5613744436        4.5387863615        7.6293440500
S                0.0003845875        3.6380892252        4.6260996720
S                0.0003784867        3.6386401696        1.4898481862
S               -1.6567714909        4.5956996383       10.7696910079
Mo              -3.1512226931        7.2774749019       -9.1672481230    0   0   0
Mo              -1.5755910988        6.3678216792       -3.0555115988    0   0   0
S               -3.1512162438        7.2774954350       -4.6232578178    0   0   0
S               -1.5756025210        6.3677884239       -7.6014065489    0   0   0
S               -1.5756020673        6.3677895528      -10.7330757790    0   0   0
S               -3.1512127704        7.2774877076       -1.4877200710    0   0   0
Mo              -3.1507366548        7.2771020287        3.0579539791
Mo              -1.6004360285        6.3794263904        9.1690821829
S               -3.1511521897        7.2845324840        7.5788843494
S               -1.5751925527        6.3668950143        4.6263761535
S               -1.5747869234        6.3676564666        1.4906278232
S               -3.1749532475        7.2931406163       10.7280631978
Mo              -4.7268400355       10.0065304219       -9.1672481230    0   0   0
Mo              -3.1512405618        9.0968403586       -3.0554816746    0   0   0
S               -4.7268341792       10.0065523623       -4.6232463762    0   0   0
S               -3.1512198634        9.0968439439       -7.6014065489    0   0   0
S               -3.1512194097        9.0968450728      -10.7330757790    0   0   0
S               -4.7268370797       10.0065537885       -1.4877176751    0   0   0
Mo              -4.7268971279       10.0063875921        3.0572055917
Mo              -3.1588847273        9.1021268845        9.1536191647
S               -4.7426831739       10.0152958831        7.5998182778
S               -3.1514516342        9.0968760884        4.6250612365
S               -3.1508057252        9.0963194461        1.4899056541
S               -4.7150610279        9.9993795697       10.7431306791
Mo               3.1512517547        1.8193638619       -9.1672481230    0   0   0
Mo               4.7269020221        0.9097289540       -3.0554823951    0   0   0
S                3.1512612351        1.8193882564       -4.6232320683    0   0   0
S                4.7268719268        0.9096773839       -7.6014065489    0   0   0
S                4.7268723805        0.9096785128      -10.7330757790    0   0   0
S                3.1512592485        1.8193890201       -1.4877261251    0   0   0
Mo               3.1513271940        1.8189806083        3.0577254224
Mo               4.7274899597        0.9074458919        9.1471163242
S                3.1433025964        1.8042763741        7.5813969462
S                4.7275382480        0.9093937349        4.6247296485
S                4.7270950865        0.9090681526        1.4898258528
S                3.1725111133        1.8092869992       10.7277667634
Mo               1.5756344123        4.5484193819       -9.1672481230    0   0   0
Mo               3.1512756394        3.6387769522       -3.0554814834    0   0   0
S                1.5756504879        4.5484423799       -4.6232390542    0   0   0
S                3.1512545844        3.6387329039       -7.6014065489    0   0   0
S                3.1512550381        3.6387340328      -10.7330757790    0   0   0
S                1.5756466253        4.5484431864       -1.4877251801    0   0   0
Mo               1.5757476074        4.5481720502        3.0579701754
Mo               3.1875209776        3.6163127784        9.1490289066
S                1.5618196878        4.5496834012        7.6468583493
S                3.1511119328        3.6384702658        4.6254287962
S                3.1515406597        3.6385012220        1.4901349387
S                1.6836129362        4.4834742402       10.7730914426
Mo               0.0000170699        7.2774749019       -9.1672481230    0   0   0
Mo               1.5756764447        6.3678236689       -3.0554877708    0   0   0
S                0.0000381981        7.2774979204       -4.6232454413    0   0   0
S                1.5756372420        6.3677884239       -7.6014065489    0   0   0
S                1.5756376957        6.3677895528      -10.7330757790    0   0   0
S                0.0000328088        7.2774946042       -1.4877307940    0   0   0
Mo               0.0006720509        7.2768929337        3.0590376601
Mo               1.5795451410        6.3666955286        9.1917702407
S                0.0055869654        7.2735151665        7.6257932774
S                1.5765504151        6.3670612493        4.6271652714
S                1.5756631823        6.3675320022        1.4904977583
S               -0.0881479277        7.3272591511       10.7751839991
Mo              -1.5756002725       10.0065304219       -9.1672481230    0   0   0
Mo               0.0000873425        9.0968676911       -3.0554912329    0   0   0
S               -1.5755883952       10.0065504530       -4.6232240150    0   0   0
S                0.0000198996        9.0968439439       -7.6014065489    0   0   0
S                0.0000203533        9.0968450728      -10.7330757790    0   0   0
S               -1.5755859047       10.0065492576       -1.4877362381    0   0   0
Mo              -1.5751464671       10.0059632924        3.0578133472
Mo              -0.0225414436        9.1120504856        9.1690948608
S               -1.5810988948       10.0053006469        7.5794399676
S                0.0008327228        9.0966198959        4.6263039943
S                0.0004594466        9.0958349217        1.4904639502
S               -1.5988630042       10.0213286767       10.7269747810
Mo               6.3024915177        1.8193638619       -9.1672481230    0   0   0
Mo               7.8781001445        0.9096521684       -3.0554919963    0   0   0
S                6.3025008696        1.8193826232       -4.6232480596    0   0   0
S                7.8781116898        0.9096773839       -7.6014065489    0   0   0
S                7.8781121435        0.9096785128      -10.7330757790    0   0   0
S                6.3025042007        1.8193849068       -1.4877147524    0   0   0
Mo               6.3032799859        1.8186490770        3.0571146754
Mo               7.8735503681        0.9215554803        9.1674057405
S                6.3114186024        1.8090480606        7.5762899185
S                7.8789336190        0.9088142823        4.6254694241
S                7.8789241176        0.9089305024        1.4897927779
S                6.2943191806        1.8309294705       10.7200658394
Mo               4.7268741753        4.5484193819       -9.1672481230    0   0   0
Mo               6.3024679138        3.6387501714       -3.0554895197    0   0   0
S                4.7268748770        4.5484386753       -4.6232519432    0   0   0
S                6.3024943474        3.6387329039       -7.6014065489    0   0   0
S                6.3024948011        3.6387340328      -10.7330757790    0   0   0
S                4.7268770533        4.5484432419       -1.4877137856    0   0   0
Mo               4.7273070768        4.5480341159        3.0578464922
Mo               6.3118828745        3.6345888622        9.1360737309
S                4.7406358121        4.5397445770        7.5611541043
S                6.3038541271        3.6379037826        4.6243543773
S                6.3029104999        3.6383400548        1.4895725698
S                4.7604949413        4.5308559409       10.7104282412
Mo               3.1512568329        7.2774749019       -9.1672481230    0   0   0
Mo               4.7268384135        6.3678043337       -3.0554959052    0   0   0
S                3.1512606125        7.2774972547       -4.6232589675    0   0   0
S                4.7268770050        6.3677884239       -7.6014065489    0   0   0
S                4.7268774587        6.3677895528      -10.7330757790    0   0   0
S                3.1512629079        7.2774963749       -1.4877081835    0   0   0
Mo               3.1513502021        7.2771419058        3.0580035328
Mo               4.7648486731        6.3477641563        9.1466883545
S                3.1443912413        7.2904370749        7.6449954786
S                4.7268678083        6.3676843246        4.6255695997
S                4.7270307956        6.3674593881        1.4900879927
S                3.2628016158        7.2194050701       10.7697058303
Mo               1.5756394905       10.0065304219       -9.1672481230    0   0   0
Mo               3.1512330605        9.0968514907       -3.0554878870    0   0   0
S                1.5756499830       10.0065443759       -4.6232632674    0   0   0
S                3.1512596626        9.0968439439       -7.6014065489    0   0   0
S                3.1512601163        9.0968450728      -10.7330757790    0   0   0
S                1.5756503041       10.0065459699       -1.4877044377    0   0   0
Mo               1.5762102718       10.0058571026        3.0578483792
Mo               3.1585754917        9.1074889875        9.2136075493
S                1.5888191190       10.0006157264        7.6292009002
S                3.1516931155        9.0965205948        4.6261387062
S                3.1512959630        9.0961053856        1.4897521007
S                1.4954616620       10.0528024958       10.7687497095
Mo               9.4537312807        1.8193638619       -9.1672481230    0   0   0
Mo              11.0293863460        0.9096952246       -3.0554894007    0   0   0
S                9.4537395970        1.8193770750       -4.6232328036    0   0   0
S               11.0293514528        0.9096773839       -7.6014065489    0   0   0
S               11.0293519066        0.9096785128      -10.7330757790    0   0   0
S                9.4537393632        1.8193794783       -1.4877366147    0   0   0
Mo               9.4544460373        1.8187604147        3.0579511826
Mo              11.0313259444        0.9087994093        9.2015362297
S                9.4666044191        1.8134186066        7.6053307203
S               11.0300699883        0.9089320705        4.6260031479
S               11.0294870945        0.9093244326        1.4896374272
S                9.4408957934        1.8281562161       10.7432032951
Mo               7.8781139383        4.5484193819       -9.1672481230    0   0   0
Mo               9.4537539161        3.6387607911       -3.0554933032    0   0   0
S                7.8781175448        4.5484378232       -4.6232366318    0   0   0
S                9.4537341104        3.6387329039       -7.6014065489    0   0   0
S                9.4537345641        3.6387340328      -10.7330757790    0   0   0
S                7.8781194018        4.5484411585       -1.4877377057    0   0   0
Mo               7.8790379199        4.5478329409        3.0570376115
Mo               9.4419548501        3.6385158384        9.1671481674
S                7.8921859651        4.5487900847        7.5761392299
S                9.4546495173        3.6381838192        4.6255426027
S                9.4547411648        3.6380774760        1.4897564937
S                7.8647550443        4.5522859619       10.7198993019
Mo               6.3024965959        7.2774749019       -9.1672481230    0   0   0
Mo               7.8781361655        6.3678242352       -3.0555014130    0   0   0
S                6.3024973331        7.2774953556       -4.6232392528    0   0   0
S                7.8781167680        6.3677884239       -7.6014065489    0   0   0
S                7.8781172217        6.3677895528      -10.7330757790    0   0   0
S                6.3024989866        7.2774929744       -1.4877349119    0   0   0
Mo               6.3026294798        7.2772978821        3.0577519193
Mo               7.8817984059        6.3707517224        9.1475397730
S                6.3132121724        7.2924492420        7.5817142644
S                7.8784551495        6.3670079034        4.6247362416
S                7.8785454936        6.3677282784        1.4898653785
S                6.3197536671        7.2642403903       10.7266473507
Mo               4.7268792535       10.0065304219       -9.1672481230    0   0   0
Mo               6.3025111524        9.0968738021       -3.0554915260    0   0   0
S                4.7268840634       10.0065452125       -4.6232380477    0   0   0
S                6.3024994256        9.0968439439       -7.6014065489    0   0   0
S                6.3024998793        9.0968450728      -10.7330757790    0   0   0
S                4.7268847312       10.0065459141       -1.4877283294    0   0   0
Mo               4.7268147162       10.0061945654        3.0573074502
Mo               6.3051410925        9.0981295934        9.1820201842
S                4.7124519096       10.0090635634        7.6414196852
S                6.3021197880        9.0972501913        4.6250039586
S                6.3025287349        9.0963711440        1.4895364247
S                4.7757285637       10.0304861190       10.8122146348
Pt               1.5604099853        6.3778526558       12.0962746340
Pd               0.0420172017        3.8034100194       12.1798967372
Pd               3.0224509697        8.9719444526       12.1882976023
End final coordinates



     Writing all to output data dir ./outdir/pwscf.save/ :
     XML data file, charge density, pseudopotentials, collected wavefunctions
 
     init_run     :    176.09s CPU    179.25s WALL (       1 calls)
     electrons    : 240252.10s CPU 243250.27s WALL (      31 calls)
     update_pot   :     50.75s CPU     52.52s WALL (      30 calls)
     forces       :   4027.14s CPU   4098.40s WALL (      31 calls)
     force_dftd3  :     21.26s CPU     22.31s WALL (      31 calls)

     Called by init_run:
     wfcinit      :    152.45s CPU    154.13s WALL (       1 calls)
     potinit      :      1.30s CPU      1.42s WALL (       1 calls)
     hinit0       :     12.74s CPU     12.85s WALL (       1 calls)

     Called by electrons:
     c_bands      : 212154.93s CPU 214167.97s WALL (     392 calls)
     sum_band     :  25151.42s CPU  25660.86s WALL (     392 calls)
     v_of_rho     :    140.32s CPU    158.04s WALL (     395 calls)
     newd         :   2487.12s CPU   2951.41s WALL (     395 calls)
     PAW_pot      :    377.20s CPU    380.86s WALL (     425 calls)
     mix_rho      :     37.46s CPU     43.28s WALL (     392 calls)
     energy_dftd3 :     12.55s CPU     12.66s WALL (      31 calls)

     Called by c_bands:
     init_us_2    :    850.61s CPU    855.10s WALL (    3384 calls)
     init_us_2:cp :    850.58s CPU    855.07s WALL (    3384 calls)
     cegterg      : 208550.51s CPU 210540.22s WALL (    1588 calls)

     Called by *egterg:
     cdiaghg      :  12355.66s CPU  12798.65s WALL (   19285 calls)
     h_psi        : 105223.91s CPU 105889.04s WALL (   19523 calls)
     s_psi        :  23857.24s CPU  24008.32s WALL (   19523 calls)
     g_psi        :    188.83s CPU    189.74s WALL (   17931 calls)

     Called by h_psi:
     h_psi:calbec :  23619.82s CPU  23694.57s WALL (   19523 calls)
     vloc_psi     :  57230.82s CPU  57522.35s WALL (   19523 calls)
     add_vuspsi   :  23940.95s CPU  24091.67s WALL (   19523 calls)

     General routines
     calbec       :  34137.02s CPU  34245.88s WALL (   21707 calls)
     fft          :    172.99s CPU    189.24s WALL (    5472 calls)
     ffts         :      7.14s CPU      7.70s WALL (     787 calls)
     fftw         :  43580.98s CPU  43801.64s WALL (11232626 calls)
     interpolate  :     12.22s CPU     13.38s WALL (     395 calls)
 
     Parallel routines
 
     PWSCF        :   2d20h15m CPU   2d21h 8m WALL

 
   This run was terminated on:  12:31:12   2May2024            

=------------------------------------------------------------------------------=
   JOB DONE.
=------------------------------------------------------------------------------=
