
     Program PWSCF v.7.2 starts on  2Sep2023 at  7:48:48 

     This program is part of the open-source Quantum ESPRESSO suite
     for quantum simulation of materials; please cite
         "P. Giannozzi et al., J. Phys.:Condens. Matter 21 395502 (2009);
         "P. Giannozzi et al., J. Phys.:Condens. Matter 29 465901 (2017);
         "P. Giannozzi et al., J. Chem. Phys. 152 154105 (2020);
          URL http://www.quantum-espresso.org", 
     in publications or presentations arising from this work. More details at
     http://www.quantum-espresso.org/quote

     Parallel version (MPI), running on    36 processors

     MPI processes distributed on     1 nodes
     769395 MiB available memory on the printing compute node when the environment starts
 
     Waiting for input...
     Reading input from standard input
Warning: card &CELL ignored
Warning: card / ignored

     Current dimensions of program PWSCF are:
     Max number of different atomic species (ntypx) = 10
     Max number of k-points (npk) =  40000
     Max angular momentum in pseudopotentials (lmaxx) =  4
     file Mo.pbe-spn-kjpaw_psl.1.0.0.UPF: wavefunction(s)  4S 4D renormalized
     file S.pbe-n-kjpaw_psl.1.0.0.UPF: wavefunction(s)  3S 3P renormalized
     file Pd.pbe-spn-kjpaw_psl.1.0.0.UPF: wavefunction(s)  4S 5S 4D renormalized
     file H.pbe-kjpaw_psl.1.0.0.UPF: wavefunction(s)  1S renormalized
 
     R & G space division:  proc/nbgrp/npool/nimage =      36
     Subspace diagonalization in iterative solution of the eigenvalue problem:
     one sub-group per band group will be used
     custom distributed-memory algorithm (size of sub-group:  6*  6 procs)

 
     Parallelization info
     --------------------
     sticks:   dense  smooth     PW     G-vecs:    dense   smooth      PW
     Min         585     334     89               198743    85850   11735
     Max         586     335     90               198750    85861   11748
     Sum       21073   12049   3205              7154885  3090769  422587
 
     Using Slab Decomposition
 


     bravais-lattice index     =            0
     lattice parameter (alat)  =      23.8199  a.u.
     unit-cell volume          =   33861.0370 (a.u.)^3
     number of atoms/cell      =          194
     number of atomic types    =            4
     number of electrons       =      1683.00
     number of Kohn-Sham states=         1010
     kinetic-energy cutoff     =      77.0000  Ry
     charge density cutoff     =     539.0000  Ry
     scf convergence threshold =      1.0E-06
     mixing beta               =       0.2000
     number of iterations used =            8  plain     mixing
     energy convergence thresh.=      1.0E-04
     force convergence thresh. =      1.0E-03
     Exchange-correlation= SLA  PW   PBX  PBC
                           (   1   4   3   4   0   0   0)
     nstep                     =         1000


     Effective Screening Medium Method
     =================================
     Boundary Conditions: Vacuum-Slab-Vacuum
     total charge in unit cell        =   0.0000
     grid points for fit at edges     =        4 
 

     celldm(1)=  23.819920  celldm(2)=   0.000000  celldm(3)=   0.000000
     celldm(4)=   0.000000  celldm(5)=   0.000000  celldm(6)=   0.000000

     crystal axes: (cart. coord. in units of alat)
               a(1) = (   1.000000   0.000000   0.000000 )  
               a(2) = (  -0.499999   0.866026   0.000000 )  
               a(3) = (   0.000000   0.000000   2.893000 )  

     reciprocal axes: (cart. coord. in units 2 pi/alat)
               b(1) = (  1.000000  0.577349  0.000000 )  
               b(2) = (  0.000000  1.154700  0.000000 )  
               b(3) = (  0.000000  0.000000  0.345662 )  


     PseudoPot. # 1 for Mo read from file:
     ./pseudo/Mo.pbe-spn-kjpaw_psl.1.0.0.UPF
     MD5 check sum: 317bf72632116215fd98f72de1686f13
     Pseudo is Projector augmented-wave + core cor, Zval = 14.0
     Generated using 'atomic' code by A. Dal Corso  v.7.2
     Shape of augmentation charge: PSQ
     Using radial grid of 1229 points,  6 beta functions with: 
                l(1) =   0
                l(2) =   0
                l(3) =   1
                l(4) =   1
                l(5) =   2
                l(6) =   2
     Q(r) pseudized with 0 coefficients 


     PseudoPot. # 2 for S  read from file:
     ./pseudo/S.pbe-n-kjpaw_psl.1.0.0.UPF
     MD5 check sum: 8b7b5302570d38d5e87fed6a1065abda
     Pseudo is Projector augmented-wave + core cor, Zval =  6.0
     Generated using 'atomic' code by A. Dal Corso  v.7.2
     Shape of augmentation charge: PSQ
     Using radial grid of 1151 points,  6 beta functions with: 
                l(1) =   0
                l(2) =   0
                l(3) =   1
                l(4) =   1
                l(5) =   2
                l(6) =   2
     Q(r) pseudized with 0 coefficients 


     PseudoPot. # 3 for Pd read from file:
     ./pseudo/Pd.pbe-spn-kjpaw_psl.1.0.0.UPF
     MD5 check sum: a60571a671f2502b8a6a4569d20a6edb
     Pseudo is Projector augmented-wave + core cor, Zval = 18.0
     Generated using 'atomic' code by A. Dal Corso  v.7.2
     Shape of augmentation charge: PSQ
     Using radial grid of 1235 points,  6 beta functions with: 
                l(1) =   0
                l(2) =   0
                l(3) =   1
                l(4) =   1
                l(5) =   2
                l(6) =   2
     Q(r) pseudized with 0 coefficients 


     PseudoPot. # 4 for H  read from file:
     ./pseudo/H.pbe-kjpaw_psl.1.0.0.UPF
     MD5 check sum: b3cb3c48ee3b58cc53e4d592112d0ca6
     Pseudo is Projector augmented-wave, Zval =  1.0
     Generated using 'atomic' code by A. Dal Corso  v.7.2
     Shape of augmentation charge: PSQ
     Using radial grid of  929 points,  2 beta functions with: 
                l(1) =   0
                l(2) =   0
     Q(r) pseudized with 0 coefficients 


     atomic species   valence    mass     pseudopotential
        Mo            14.00    95.95000     Mo( 1.00)
        S              6.00    32.06000     S ( 1.00)
        Pd            18.00   106.42000     Pd( 1.00)
        H              1.00     1.00800     H ( 1.00)

     No symmetry found



   Cartesian axes

     site n.     atom                  positions (alat units)
         1           Mo  tau(   1) = (   0.0000010   0.1443372  -0.7272732  )
         2           Mo  tau(   2) = (   0.1249995   0.0721706  -0.2424038  )
         3           S   tau(   3) = (   0.0000015   0.1443386  -0.3667807  )
         4           S   tau(   4) = (   0.1250010   0.0721682  -0.6030489  )
         5           S   tau(   5) = (   0.1250010   0.0721683  -0.8514963  )
         6           S   tau(   6) = (   0.0000015   0.1443389  -0.1180260  )
         7           Mo  tau(   7) = (   0.0000007   0.1443589   0.2424205  )
         8           Mo  tau(   8) = (   0.1250041   0.0720322   0.7266168  )
         9           S   tau(   9) = (   0.0000742   0.1444871   0.6020949  )
        10           S   tau(  10) = (   0.1250024   0.0721701   0.3667478  )
        11           S   tau(  11) = (   0.1250035   0.0721876   0.1180348  )
        12           S   tau(  12) = (  -0.0004118   0.1430864   0.8514340  )
        13           Mo  tau(  13) = (  -0.1249989   0.3608437  -0.7272732  )
        14           Mo  tau(  14) = (   0.0000030   0.2886752  -0.2424042  )
        15           S   tau(  15) = (  -0.1249977   0.3608450  -0.3667802  )
        16           S   tau(  16) = (   0.0000012   0.2886747  -0.6030489  )
        17           S   tau(  17) = (   0.0000012   0.2886748  -0.8514963  )
        18           S   tau(  18) = (  -0.1249977   0.3608454  -0.1180274  )
        19           Mo  tau(  19) = (  -0.1249729   0.3608584   0.2424608  )
        20           Mo  tau(  20) = (  -0.0007193   0.2876626   0.7275440  )
        21           S   tau(  21) = (  -0.1251115   0.3607789   0.6027257  )
        22           S   tau(  22) = (   0.0000621   0.2887099   0.3668377  )
        23           S   tau(  23) = (  -0.0000096   0.2886902   0.1180527  )
        24           S   tau(  24) = (  -0.1254673   0.3605734   0.8517408  )
        25           Mo  tau(  25) = (  -0.2499987   0.5773502  -0.7272732  )
        26           Mo  tau(  26) = (  -0.1249977   0.5051839  -0.2424055  )
        27           S   tau(  27) = (  -0.2499981   0.5773518  -0.3667809  )
        28           S   tau(  28) = (  -0.1249986   0.5051812  -0.6030489  )
        29           S   tau(  29) = (  -0.1249986   0.5051813  -0.8514963  )
        30           S   tau(  30) = (  -0.2499979   0.5773512  -0.1180266  )
        31           Mo  tau(  31) = (  -0.2499795   0.5773389   0.2424205  )
        32           Mo  tau(  32) = (  -0.1262356   0.5050639   0.7275441  )
        33           S   tau(  33) = (  -0.2498323   0.5773390   0.6020948  )
        34           S   tau(  34) = (  -0.1249376   0.5052159   0.3668377  )
        35           S   tau(  35) = (  -0.1249905   0.5051638   0.1180531  )
        36           S   tau(  36) = (  -0.2512883   0.5776183   0.8514340  )
        37           Mo  tau(  37) = (  -0.3749985   0.7938567  -0.7272732  )
        38           Mo  tau(  38) = (  -0.2500001   0.7216874  -0.2424031  )
        39           S   tau(  39) = (  -0.3749980   0.7938584  -0.3667800  )
        40           S   tau(  40) = (  -0.2499984   0.7216877  -0.6030489  )
        41           S   tau(  41) = (  -0.2499984   0.7216878  -0.8514963  )
        42           S   tau(  42) = (  -0.3749982   0.7938585  -0.1180264  )
        43           Mo  tau(  43) = (  -0.3749962   0.7938568   0.2423838  )
        44           Mo  tau(  44) = (  -0.2501148   0.7217588   0.7266170  )
        45           S   tau(  45) = (  -0.3749945   0.7938590   0.6021274  )
        46           S   tau(  46) = (  -0.2499958   0.7216877   0.3667488  )
        47           S   tau(  47) = (  -0.2499810   0.7216794   0.1180323  )
        48           S   tau(  48) = (  -0.3749953   0.7938585   0.8511588  )
        49           Mo  tau(  49) = (   0.2500010   0.1443372  -0.7272732  )
        50           Mo  tau(  50) = (   0.3750034   0.0721723  -0.2424032  )
        51           S   tau(  51) = (   0.2500017   0.1443391  -0.3667788  )
        52           S   tau(  52) = (   0.3750010   0.0721682  -0.6030489  )
        53           S   tau(  53) = (   0.3750010   0.0721683  -0.8514963  )
        54           S   tau(  54) = (   0.2500016   0.1443391  -0.1180271  )
        55           Mo  tau(  55) = (   0.2500054   0.1443594   0.2424211  )
        56           Mo  tau(  56) = (   0.3749279   0.0721263   0.7263991  )
        57           S   tau(  57) = (   0.2499344   0.1444864   0.6020948  )
        58           S   tau(  58) = (   0.3750316   0.0721860   0.3667597  )
        59           S   tau(  59) = (   0.3749924   0.0721644   0.1180346  )
        60           S   tau(  60) = (   0.2504199   0.1430865   0.8514340  )
        61           Mo  tau(  61) = (   0.1250012   0.3608437  -0.7272732  )
        62           Mo  tau(  62) = (   0.2500029   0.2886782  -0.2424031  )
        63           S   tau(  63) = (   0.1250024   0.3608455  -0.3667794  )
        64           S   tau(  64) = (   0.2500012   0.2886747  -0.6030489  )
        65           S   tau(  65) = (   0.2500012   0.2886748  -0.8514963  )
        66           S   tau(  66) = (   0.1250021   0.3608455  -0.1180270  )
        67           Mo  tau(  67) = (   0.1250038   0.3608653   0.2423963  )
        68           Mo  tau(  68) = (   0.2507284   0.2876625   0.7275438  )
        69           S   tau(  69) = (   0.1250046   0.3627170   0.6061948  )
        70           S   tau(  70) = (   0.2499461   0.2887116   0.3668373  )
        71           S   tau(  71) = (   0.2500171   0.2886900   0.1180543  )
        72           S   tau(  72) = (   0.1250046   0.3519103   0.8557806  )
        73           Mo  tau(  73) = (   0.0000014   0.5773502  -0.7272732  )
        74           Mo  tau(  74) = (   0.1250045   0.5051840  -0.2424036  )
        75           S   tau(  75) = (   0.0000030   0.5773520  -0.3667799  )
        76           S   tau(  76) = (   0.1250014   0.5051812  -0.6030489  )
        77           S   tau(  77) = (   0.1250014   0.5051813  -0.8514963  )
        78           S   tau(  78) = (   0.0000026   0.5773517  -0.1180274  )
        79           Mo  tau(  79) = (   0.0000222   0.5773400   0.2423964  )
        80           Mo  tau(  80) = (   0.1250047   0.5051836   0.7321380  )
        81           S   tau(  81) = (   0.0016251   0.5764170   0.6061946  )
        82           S   tau(  82) = (   0.1250047   0.5051815   0.3667777  )
        83           S   tau(  83) = (   0.1250048   0.5051819   0.1179962  )
        84           S   tau(  84) = (  -0.0077335   0.5818202   0.8557807  )
        85           Mo  tau(  85) = (  -0.1249984   0.7938567  -0.7272732  )
        86           Mo  tau(  86) = (   0.0000069   0.7216896  -0.2424039  )
        87           S   tau(  87) = (  -0.1249975   0.7938582  -0.3667782  )
        88           S   tau(  88) = (   0.0000016   0.7216877  -0.6030489  )
        89           S   tau(  89) = (   0.0000016   0.7216878  -0.8514963  )
        90           S   tau(  90) = (  -0.1249973   0.7938582  -0.1180279  )
        91           Mo  tau(  91) = (  -0.1249774   0.7938494   0.2424207  )
        92           Mo  tau(  92) = (  -0.0005116   0.7228241   0.7275438  )
        93           S   tau(  93) = (  -0.1249026   0.7937246   0.6020948  )
        94           S   tau(  94) = (   0.0000043   0.7216209   0.3668361  )
        95           S   tau(  95) = (   0.0000226   0.7216928   0.1180549  )
        96           S   tau(  96) = (  -0.1258721   0.7948451   0.8514341  )
        97           Mo  tau(  97) = (   0.5000010   0.1443372  -0.7272732  )
        98           Mo  tau(  98) = (   0.6250001   0.0721662  -0.2424040  )
        99           S   tau(  99) = (   0.5000017   0.1443386  -0.3667801  )
       100           S   tau( 100) = (   0.6250010   0.0721682  -0.6030489  )
       101           S   tau( 101) = (   0.6250010   0.0721683  -0.8514963  )
       102           S   tau( 102) = (   0.5000020   0.1443388  -0.1180261  )
       103           Mo  tau( 103) = (   0.5000075   0.1443411   0.2423793  )
       104           Mo  tau( 104) = (   0.6250042   0.0723339   0.7270464  )
       105           S   tau( 105) = (   0.5002366   0.1444733   0.6023595  )
       106           S   tau( 106) = (   0.6250029   0.0721787   0.3667562  )
       107           S   tau( 107) = (   0.6250040   0.0721260   0.1180315  )
       108           S   tau( 108) = (   0.4998752   0.1442648   0.8512770  )
       109           Mo  tau( 109) = (   0.3750012   0.3608437  -0.7272732  )
       110           Mo  tau( 110) = (   0.4999991   0.2886761  -0.2424038  )
       111           S   tau( 111) = (   0.3750012   0.3608452  -0.3667804  )
       112           S   tau( 112) = (   0.5000012   0.2886747  -0.6030489  )
       113           S   tau( 113) = (   0.5000012   0.2886748  -0.8514963  )
       114           S   tau( 114) = (   0.3750014   0.3608455  -0.1180261  )
       115           Mo  tau( 115) = (   0.3749795   0.3608597   0.2424601  )
       116           Mo  tau( 116) = (   0.5001461   0.2885951   0.7270464  )
       117           S   tau( 117) = (   0.3751205   0.3607791   0.6027254  )
       118           S   tau( 118) = (   0.5000105   0.2886721   0.3667569  )
       119           S   tau( 119) = (   0.4999655   0.2886989   0.1180297  )
       120           S   tau( 120) = (   0.3754765   0.3605739   0.8517402  )
       121           Mo  tau( 121) = (   0.2500014   0.5773502  -0.7272732  )
       122           Mo  tau( 122) = (   0.3749983   0.5051825  -0.2424043  )
       123           S   tau( 123) = (   0.2500017   0.5773519  -0.3667810  )
       124           S   tau( 124) = (   0.3750014   0.5051812  -0.6030489  )
       125           S   tau( 125) = (   0.3750014   0.5051813  -0.8514963  )
       126           S   tau( 126) = (   0.2500018   0.5773519  -0.1180256  )
       127           Mo  tau( 127) = (   0.2499863   0.5773402   0.2423965  )
       128           Mo  tau( 128) = (   0.3762454   0.5050642   0.7275433  )
       129           S   tau( 129) = (   0.2483844   0.5764169   0.6061944  )
       130           S   tau( 130) = (   0.3749442   0.5052158   0.3668400  )
       131           S   tau( 131) = (   0.3749972   0.5051650   0.1180510  )
       132           S   tau( 132) = (   0.2577438   0.5818204   0.8557797  )
       133           Mo  tau( 133) = (   0.1250016   0.7938567  -0.7272732  )
       134           Mo  tau( 134) = (   0.2499995   0.7216883  -0.2424036  )
       135           S   tau( 135) = (   0.1250024   0.7938578  -0.3667813  )
       136           S   tau( 136) = (   0.2500016   0.7216877  -0.6030489  )
       137           S   tau( 137) = (   0.2500016   0.7216878  -0.8514963  )
       138           S   tau( 138) = (   0.1250024   0.7938579  -0.1180253  )
       139           Mo  tau( 139) = (   0.1250047   0.7938294   0.2424606  )
       140           Mo  tau( 140) = (   0.2505220   0.7228241   0.7275433  )
       141           S   tau( 141) = (   0.1250053   0.7939926   0.6027252  )
       142           S   tau( 142) = (   0.2500048   0.7216200   0.3668387  )
       143           S   tau( 143) = (   0.2499864   0.7216915   0.1180524  )
       144           S   tau( 144) = (   0.1250054   0.7944033   0.8517402  )
       145           Mo  tau( 145) = (   0.7500010   0.1443372  -0.7272732  )
       146           Mo  tau( 146) = (   0.8750038   0.0721696  -0.2424038  )
       147           S   tau( 147) = (   0.7500016   0.1443382  -0.3667789  )
       148           S   tau( 148) = (   0.8750010   0.0721682  -0.6030489  )
       149           S   tau( 149) = (   0.8750010   0.0721683  -0.8514963  )
       150           S   tau( 150) = (   0.7500016   0.1443384  -0.1180279  )
       151           Mo  tau( 151) = (   0.7499986   0.1443409   0.2423802  )
       152           Mo  tau( 152) = (   0.8750804   0.0721266   0.7263988  )
       153           S   tau( 153) = (   0.7497713   0.1444738   0.6023592  )
       154           S   tau( 154) = (   0.8749758   0.0721848   0.3667595  )
       155           S   tau( 155) = (   0.8750127   0.0721632   0.1180342  )
       156           S   tau( 156) = (   0.7501331   0.1442647   0.8512770  )
       157           Mo  tau( 157) = (   0.6250012   0.3608437  -0.7272732  )
       158           Mo  tau( 158) = (   0.7500028   0.2886769  -0.2424041  )
       159           S   tau( 159) = (   0.6250015   0.3608451  -0.3667792  )
       160           S   tau( 160) = (   0.7500012   0.2886747  -0.6030489  )
       161           S   tau( 161) = (   0.7500012   0.2886748  -0.8514963  )
       162           S   tau( 162) = (   0.6250016   0.3608454  -0.1180280  )
       163           Mo  tau( 163) = (   0.6250032   0.3608391   0.2423797  )
       164           Mo  tau( 164) = (   0.7498627   0.2885951   0.7270467  )
       165           S   tau( 165) = (   0.6250046   0.3605769   0.6023590  )
       166           S   tau( 166) = (   0.7499943   0.2886711   0.3667569  )
       167           S   tau( 167) = (   0.7500399   0.2886970   0.1180318  )
       168           S   tau( 168) = (   0.6250043   0.3609947   0.8512770  )
       169           Mo  tau( 169) = (   0.5000014   0.5773502  -0.7272732  )
       170           Mo  tau( 170) = (   0.6250029   0.5051841  -0.2424047  )
       171           S   tau( 171) = (   0.5000014   0.5773518  -0.3667794  )
       172           S   tau( 172) = (   0.6250014   0.5051812  -0.6030489  )
       173           S   tau( 173) = (   0.6250014   0.5051813  -0.8514963  )
       174           S   tau( 174) = (   0.5000016   0.5773516  -0.1180277  )
       175           Mo  tau( 175) = (   0.4999855   0.5773383   0.2424207  )
       176           Mo  tau( 176) = (   0.6250049   0.5052713   0.7263986  )
       177           S   tau( 177) = (   0.4998428   0.5773389   0.6020941  )
       178           S   tau( 178) = (   0.6250030   0.5051500   0.3667588  )
       179           S   tau( 179) = (   0.6250025   0.5051935   0.1180351  )
       180           S   tau( 180) = (   0.5012979   0.5776190   0.8514332  )
       181           Mo  tau( 181) = (   0.3750016   0.7938567  -0.7272732  )
       182           Mo  tau( 182) = (   0.5000025   0.7216901  -0.2424039  )
       183           S   tau( 183) = (   0.3750019   0.7938578  -0.3667793  )
       184           S   tau( 184) = (   0.5000016   0.7216877  -0.6030489  )
       185           S   tau( 185) = (   0.5000016   0.7216878  -0.8514963  )
       186           S   tau( 186) = (   0.3750020   0.7938579  -0.1180272  )
       187           Mo  tau( 187) = (   0.3749848   0.7938487   0.2424206  )
       188           Mo  tau( 188) = (   0.5001249   0.7217591   0.7266160  )
       189           S   tau( 189) = (   0.3749125   0.7937251   0.6020942  )
       190           S   tau( 190) = (   0.5000021   0.7216868   0.3667472  )
       191           S   tau( 191) = (   0.4999874   0.7216780   0.1180346  )
       192           S   tau( 192) = (   0.3758826   0.7948451   0.8514332  )
       193           Pd  tau( 193) = (   0.1250063   0.5051842   0.9601361  )
       194           H   tau( 194) = (   0.2577557   0.5818345   0.9827085  )

     --------------------------------------------
     DFT-D3 Dispersion Correction (3-body terms):
     --------------------------------------------
       Reference C6 values for interpolation: 

         atom   Coordination number   C6
         H          0.912             6.05
         H          0.000            15.18
         S          0.000           268.01
         S          0.995           261.99
         S          1.990           251.62
         Mo         0.000          1691.79
         Mo         1.942          1004.01
         Mo        11.056           674.22
         Pd         0.000          1217.01
         Pd         1.863           573.90
         Pd         5.710           531.75

       Values used:

         atom   Coordination number  R0_AB[au]  C6      C8
         Mo        10.208            3.547    674.22  77634.20
         Mo        10.221            3.547    674.22  77634.20
         S          3.858            3.128    251.62  12327.25
         S          3.859            3.128    251.62  12327.25
         S          3.758            3.128    251.62  12327.25
         S          3.859            3.128    251.62  12327.25
         Mo        10.220            3.547    674.22  77634.20
         Mo        10.233            3.547    674.22  77634.20
         S          3.846            3.128    251.62  12327.25
         S          3.861            3.128    251.62  12327.25
         S          3.859            3.128    251.62  12327.25
         S          3.805            3.128    251.62  12327.25
         Mo        10.208            3.547    674.21  77634.20
         Mo        10.221            3.547    674.22  77634.20
         S          3.858            3.128    251.62  12327.25
         S          3.859            3.128    251.62  12327.25
         S          3.758            3.128    251.62  12327.25
         S          3.859            3.128    251.62  12327.25
         Mo        10.221            3.547    674.22  77634.20
         Mo        10.191            3.547    674.22  77634.20
         S          3.855            3.128    251.62  12327.25
         S          3.856            3.128    251.62  12327.25
         S          3.859            3.128    251.62  12327.25
         S          3.756            3.128    251.62  12327.25
         Mo        10.208            3.547    674.22  77634.20
         Mo        10.221            3.547    674.22  77634.20
         S          3.858            3.128    251.62  12327.25
         S          3.859            3.128    251.62  12327.25
         S          3.758            3.128    251.62  12327.25
         S          3.859            3.128    251.62  12327.25
         Mo        10.220            3.547    674.22  77634.20
         Mo        10.191            3.547    674.22  77634.20
         S          3.846            3.128    251.62  12327.25
         S          3.856            3.128    251.62  12327.25
         S          3.859            3.128    251.62  12327.25
         S          3.805            3.128    251.62  12327.25
         Mo        10.208            3.547    674.22  77634.20
         Mo        10.221            3.547    674.22  77634.20
         S          3.858            3.128    251.62  12327.25
         S          3.859            3.128    251.62  12327.25
         S          3.758            3.128    251.62  12327.25
         S          3.859            3.128    251.62  12327.25
         Mo        10.219            3.547    674.22  77634.20
         Mo        10.233            3.547    674.22  77634.20
         S          3.856            3.128    251.62  12327.25
         S          3.861            3.128    251.62  12327.25
         S          3.859            3.128    251.62  12327.25
         S          3.781            3.128    251.62  12327.25
         Mo        10.208            3.547    674.22  77634.20
         Mo        10.221            3.547    674.22  77634.20
         S          3.858            3.128    251.62  12327.25
         S          3.859            3.128    251.62  12327.25
         S          3.758            3.128    251.62  12327.25
         S          3.859            3.128    251.62  12327.25
         Mo        10.220            3.547    674.22  77634.20
         Mo        10.243            3.547    674.22  77634.20
         S          3.846            3.128    251.62  12327.25
         S          3.860            3.128    251.62  12327.25
         S          3.859            3.128    251.62  12327.25
         S          3.805            3.128    251.62  12327.25
         Mo        10.208            3.547    674.22  77634.20
         Mo        10.221            3.547    674.22  77634.20
         S          3.858            3.128    251.62  12327.25
         S          3.859            3.128    251.62  12327.25
         S          3.758            3.128    251.62  12327.25
         S          3.859            3.128    251.62  12327.25
         Mo        10.222            3.547    674.22  77634.20
         Mo        10.191            3.547    674.22  77634.20
         S          3.865            3.128    251.62  12327.25
         S          3.856            3.128    251.62  12327.25
         S          3.859            3.128    251.62  12327.25
         S          4.653            3.128    251.62  12327.25
         Mo        10.208            3.547    674.22  77634.20
         Mo        10.221            3.547    674.22  77634.20
         S          3.858            3.128    251.62  12327.25
         S          3.859            3.128    251.62  12327.25
         S          3.758            3.128    251.62  12327.25
         S          3.859            3.128    251.62  12327.25
         Mo        10.222            3.547    674.22  77634.20
         Mo        10.822            3.547    674.22  77634.20
         S          3.865            3.128    251.62  12327.25
         S          3.853            3.128    251.62  12327.25
         S          3.859            3.128    251.62  12327.25
         S          4.653            3.128    251.62  12327.25
         Mo        10.208            3.547    674.22  77634.20
         Mo        10.221            3.547    674.22  77634.20
         S          3.858            3.128    251.62  12327.25
         S          3.859            3.128    251.62  12327.25
         S          3.758            3.128    251.62  12327.25
         S          3.859            3.128    251.62  12327.25
         Mo        10.220            3.547    674.22  77634.20
         Mo        10.191            3.547    674.22  77634.20
         S          3.846            3.128    251.62  12327.25
         S          3.856            3.128    251.62  12327.25
         S          3.859            3.128    251.62  12327.25
         S          3.805            3.128    251.62  12327.25
         Mo        10.208            3.547    674.22  77634.20
         Mo        10.221            3.547    674.22  77634.20
         S          3.858            3.128    251.62  12327.25
         S          3.859            3.128    251.62  12327.25
         S          3.758            3.128    251.62  12327.25
         S          3.859            3.128    251.62  12327.25
         Mo        10.220            3.547    674.22  77634.20
         Mo        10.229            3.547    674.22  77634.20
         S          3.862            3.128    251.62  12327.25
         S          3.860            3.128    251.62  12327.25
         S          3.859            3.128    251.62  12327.25
         S          3.765            3.128    251.62  12327.25
         Mo        10.208            3.547    674.22  77634.20
         Mo        10.221            3.547    674.22  77634.20
         S          3.858            3.128    251.62  12327.25
         S          3.859            3.128    251.62  12327.25
         S          3.758            3.128    251.62  12327.25
         S          3.859            3.128    251.62  12327.25
         Mo        10.221            3.547    674.22  77634.20
         Mo        10.229            3.547    674.22  77634.20
         S          3.855            3.128    251.62  12327.25
         S          3.860            3.128    251.62  12327.25
         S          3.859            3.128    251.62  12327.25
         S          3.757            3.128    251.62  12327.25
         Mo        10.208            3.547    674.22  77634.20
         Mo        10.221            3.547    674.22  77634.20
         S          3.858            3.128    251.62  12327.25
         S          3.859            3.128    251.62  12327.25
         S          3.758            3.128    251.62  12327.25
         S          3.859            3.128    251.62  12327.25
         Mo        10.222            3.547    674.22  77634.20
         Mo        10.192            3.547    674.22  77634.20
         S          3.865            3.128    251.62  12327.25
         S          3.856            3.128    251.62  12327.25
         S          3.859            3.128    251.62  12327.25
         S          5.519            3.128    251.62  12327.25
         Mo        10.208            3.547    674.22  77634.20
         Mo        10.221            3.547    674.22  77634.20
         S          3.858            3.128    251.62  12327.25
         S          3.859            3.128    251.62  12327.25
         S          3.758            3.128    251.62  12327.25
         S          3.859            3.128    251.62  12327.25
         Mo        10.221            3.547    674.22  77634.20
         Mo        10.192            3.547    674.22  77634.20
         S          3.855            3.128    251.62  12327.25
         S          3.856            3.128    251.62  12327.25
         S          3.859            3.128    251.62  12327.25
         S          3.757            3.128    251.62  12327.25
         Mo        10.208            3.547    674.22  77634.20
         Mo        10.221            3.547    674.22  77634.20
         S          3.858            3.128    251.62  12327.25
         S          3.859            3.128    251.62  12327.25
         S          3.758            3.128    251.62  12327.25
         S          3.859            3.128    251.62  12327.25
         Mo        10.220            3.547    674.22  77634.20
         Mo        10.243            3.547    674.22  77634.20
         S          3.862            3.128    251.62  12327.25
         S          3.860            3.128    251.62  12327.25
         S          3.859            3.128    251.62  12327.25
         S          3.765            3.128    251.62  12327.25
         Mo        10.208            3.547    674.22  77634.20
         Mo        10.220            3.547    674.22  77634.20
         S          3.858            3.128    251.62  12327.25
         S          3.859            3.128    251.62  12327.25
         S          3.758            3.128    251.62  12327.25
         S          3.859            3.128    251.62  12327.25
         Mo        10.220            3.547    674.22  77634.20
         Mo        10.229            3.547    674.22  77634.20
         S          3.862            3.128    251.62  12327.25
         S          3.860            3.128    251.62  12327.25
         S          3.859            3.128    251.62  12327.25
         S          3.765            3.128    251.62  12327.25
         Mo        10.208            3.547    674.22  77634.20
         Mo        10.221            3.547    674.22  77634.20
         S          3.858            3.128    251.62  12327.25
         S          3.859            3.128    251.62  12327.25
         S          3.758            3.128    251.62  12327.25
         S          3.859            3.128    251.62  12327.25
         Mo        10.220            3.547    674.22  77634.20
         Mo        10.243            3.547    674.22  77634.20
         S          3.846            3.128    251.62  12327.25
         S          3.860            3.128    251.62  12327.25
         S          3.859            3.128    251.62  12327.25
         S          3.805            3.128    251.62  12327.25
         Mo        10.208            3.547    674.22  77634.20
         Mo        10.221            3.547    674.22  77634.20
         S          3.858            3.128    251.62  12327.25
         S          3.859            3.128    251.62  12327.25
         S          3.758            3.128    251.62  12327.25
         S          3.859            3.128    251.62  12327.25
         Mo        10.220            3.547    674.22  77634.20
         Mo        10.233            3.547    674.22  77634.20
         S          3.846            3.128    251.62  12327.25
         S          3.861            3.128    251.62  12327.25
         S          3.859            3.128    251.62  12327.25
         S          3.805            3.128    251.62  12327.25
         Pd         4.096            3.168    531.75  48720.99
         H          1.203            2.062      6.08     73.53

         Molecular C6 ( Ry / a.u.^6 ) =  13802282.67


     number of k points=     4  Gaussian smearing, width (Ry)=  0.0100
                       cart. coord. in units 2pi/alat
        k(    1) = (   0.0000000   0.0000000   0.0000000), wk =   0.5000000
        k(    2) = (   0.0000000  -0.5773499   0.0000000), wk =   0.5000000
        k(    3) = (  -0.5000000  -0.2886744   0.0000000), wk =   0.5000000
        k(    4) = (  -0.5000000  -0.8660242   0.0000000), wk =   0.5000000

     Dense  grid:  7154885 G-vectors     FFT dimensions: ( 180, 180, 512)

     Smooth grid:  3090769 G-vectors     FFT dimensions: ( 135, 135, 400)

     Estimated max dynamical RAM per process >       3.19 GB

     Estimated total dynamical RAM >     114.66 GB

     Atomic positions and unit cell read from directory:
     ./outdir/pwscf.save/
     Atomic positions from file used, from input discarded
 

     The initial density is read from file :
     ./outdir/pwscf.save/charge-density


     negative rho (up, down):  9.220E-04 0.000E+00
     Starting wfcs from file
     Checking if some PAW data can be deallocated... 

     total cpu time spent up to now is       27.2 secs

     Self-consistent Calculation

     iteration #  1     ecut=    77.00 Ry     beta= 0.20
     Calculation restarted from kpoint #     3
     Davidson diagonalization with overlap
     c_bands:  2 eigenvalues not converged
     c_bands:  3 eigenvalues not converged
     ethr =  1.00E-06,  avg # of iterations = 20.0

     Threshold (ethr) on eigenvalues was too large:
     Diagonalizing with lowered threshold

     Davidson diagonalization with overlap
     c_bands:  1 eigenvalues not converged
     ethr =  7.71E-08,  avg # of iterations = 19.2

     negative rho (up, down):  9.153E-04 0.000E+00

     total cpu time spent up to now is     1676.2 secs

     total energy              =  -32306.77921024 Ry
     estimated scf accuracy    <       0.00127286 Ry

     iteration #  2     ecut=    77.00 Ry     beta= 0.20
     Davidson diagonalization with overlap
     ethr =  7.56E-08,  avg # of iterations = 11.8

     negative rho (up, down):  9.106E-04 0.000E+00

     total cpu time spent up to now is     2147.0 secs

     total energy              =  -32306.77907615 Ry
     estimated scf accuracy    <       0.00062949 Ry

     iteration #  3     ecut=    77.00 Ry     beta= 0.20
     Davidson diagonalization with overlap
     ethr =  3.74E-08,  avg # of iterations = 11.5

     negative rho (up, down):  9.095E-04 0.000E+00

     total cpu time spent up to now is     2644.1 secs

     total energy              =  -32306.77905207 Ry
     estimated scf accuracy    <       0.00025449 Ry

     iteration #  4     ecut=    77.00 Ry     beta= 0.20
     Davidson diagonalization with overlap
     ethr =  1.51E-08,  avg # of iterations = 16.0

     negative rho (up, down):  9.063E-04 0.000E+00

     total cpu time spent up to now is     3346.9 secs

     total energy              =  -32306.77914472 Ry
     estimated scf accuracy    <       0.00008674 Ry

     iteration #  5     ecut=    77.00 Ry     beta= 0.20
     Davidson diagonalization with overlap
     ethr =  5.15E-09,  avg # of iterations = 11.8

     negative rho (up, down):  9.058E-04 0.000E+00

     total cpu time spent up to now is     3895.8 secs

     total energy              =  -32306.77914451 Ry
     estimated scf accuracy    <       0.00004435 Ry

     iteration #  6     ecut=    77.00 Ry     beta= 0.20
     Davidson diagonalization with overlap
     ethr =  2.64E-09,  avg # of iterations = 10.0

     negative rho (up, down):  9.069E-04 0.000E+00

     total cpu time spent up to now is     4421.2 secs

     total energy              =  -32306.77914360 Ry
     estimated scf accuracy    <       0.00001547 Ry

     iteration #  7     ecut=    77.00 Ry     beta= 0.20
     Davidson diagonalization with overlap
     ethr =  9.19E-10,  avg # of iterations = 12.0

     negative rho (up, down):  9.037E-04 0.000E+00

     total cpu time spent up to now is     5156.8 secs

     total energy              =  -32306.77915106 Ry
     estimated scf accuracy    <       0.00000312 Ry

     iteration #  8     ecut=    77.00 Ry     beta= 0.20
     Davidson diagonalization with overlap
     ethr =  1.86E-10,  avg # of iterations = 15.5

     negative rho (up, down):  9.013E-04 0.000E+00

     total cpu time spent up to now is     5992.1 secs

     total energy              =  -32306.77915277 Ry
     estimated scf accuracy    <       0.00000143 Ry

     iteration #  9     ecut=    77.00 Ry     beta= 0.20
     Davidson diagonalization with overlap
     ethr =  8.49E-11,  avg # of iterations = 11.0

     negative rho (up, down):  8.947E-04 0.000E+00

     total cpu time spent up to now is     6499.5 secs

     End of self-consistent calculation

          k = 0.0000 0.0000 0.0000 (386245 PWs)   bands (ev):

   -89.2034 -66.8790 -66.8657 -66.8653 -66.8641 -66.8608 -66.8466 -66.8459
   -66.8448 -66.8447 -66.8447 -66.8442 -66.8442 -66.8441 -66.8441 -66.8440
   -66.8440 -66.8440 -66.8440 -66.8439 -66.8439 -66.8428 -66.8428 -66.8427
   -66.8427 -66.8427 -66.8427 -66.8410 -66.8370 -66.8319 -66.8245 -66.8242
   -66.8235 -66.8233 -66.8233 -66.8232 -66.8231 -66.8230 -66.8229 -66.8227
   -66.8227 -66.8227 -66.8227 -66.8226 -66.8226 -66.8226 -66.8226 -66.8225
   -66.8224 -66.8223 -66.8223 -66.8213 -66.8213 -66.8213 -66.8213 -66.8213
   -66.8213 -66.8213 -66.8213 -66.8213 -66.8213 -66.8180 -66.8164 -66.8141
   -66.8108 -55.1978 -54.9912 -54.6944 -41.1935 -41.1934 -41.1931 -41.1927
   -41.1927 -41.1927 -41.1923 -41.1921 -41.1921 -41.1921 -41.1912 -41.1878
   -41.1203 -41.1183 -41.1183 -41.1183 -41.1181 -41.1178 -41.1178 -41.1177
   -41.1174 -41.1174 -41.1174 -41.1174 -41.1174 -41.1174 -41.1167 -41.1167
   -41.1167 -41.1167 -41.1167 -41.1167 -41.1149 -41.1147 -41.1140 -41.1090
   -41.0469 -41.0254 -41.0249 -41.0243 -41.0170 -40.9981 -40.9933 -40.9919
   -40.9918 -40.9918 -40.9915 -40.9915 -40.9913 -40.9911 -40.9911 -40.9911
   -40.9911 -40.9911 -40.9910 -40.9907 -40.9904 -40.9903 -40.9903 -40.9903
   -40.9903 -40.9903 -40.9903 -40.9891 -40.9886 -40.9883 -40.9856 -40.9846
   -40.9843 -40.9841 -40.9839 -40.9838 -40.9835 -40.9834 -40.9833 -40.9832
   -40.9832 -40.9832 -40.9832 -40.9832 -40.9831 -40.9826 -40.9826 -40.9826
   -40.9826 -40.9826 -40.9826 -40.9787 -40.9630 -40.9606 -40.9587 -40.9569
   -40.9568 -40.9567 -40.9564 -40.9564 -40.9563 -40.9561 -40.9561 -40.9560
   -40.9560 -40.9560 -40.9560 -40.9552 -40.9552 -40.9552 -40.9552 -40.9552
   -40.9552 -40.9536 -40.9516 -40.9514 -40.9486 -40.9475 -40.9457 -40.9443
   -40.9434 -40.9422 -40.9420 -40.9420 -40.9419 -40.9418 -40.9417 -40.9417
   -40.9416 -40.9415 -40.9413 -40.9413 -40.9413 -40.9413 -40.9412 -40.9412
   -40.9412 -40.9412 -40.9411 -40.9411 -40.9411 -40.9406 -40.9406 -40.9406
   -40.9406 -40.9405 -40.9405 -40.9405 -40.9405 -40.9405 -40.9402 -40.9349
   -40.8783 -40.8783 -40.8781 -40.8777 -40.8777 -40.8777 -40.8774 -40.8768
   -40.8768 -40.8768 -40.8750 -40.8727 -40.8342 -40.8324 -40.8315 -40.8314
   -40.8313 -40.8309 -40.8308 -40.8308 -40.8306 -40.8306 -40.8306 -40.8306
   -40.8306 -40.8306 -40.8296 -40.8296 -40.8296 -40.8296 -40.8296 -40.8296
   -40.8288 -40.8256 -40.8231 -40.8212 -40.7835 -40.7835 -40.7830 -40.7830
   -40.7820 -40.7820 -40.7805 -40.7790 -20.3682 -20.3030 -20.2089 -20.1199
   -19.5541 -19.5000 -19.4935 -19.4919 -19.4913 -19.4906 -19.4707 -19.4472
   -19.4365 -19.4272 -19.4267 -19.4253 -19.3798 -19.3622 -19.3547 -19.3383
   -19.3382 -19.3361 -19.2806 -19.2739 -19.2717 -19.2633 -19.2633 -19.2616
   -19.1356 -19.0089 -18.8644 -18.7886 -18.7458 -18.7305 -18.7200 -18.7120
   -18.7118 -18.7094 -18.6630 -18.6379 -18.6307 -18.6024 -18.6012 -18.5988
   -18.5373 -18.5179 -18.5147 -18.4905 -18.4884 -18.4882 -18.4450 -18.4261
   -18.4235 -18.4143 -18.4135 -18.4129 -18.4019 -18.3813 -18.3685 -18.3652
   -18.3646 -18.3645 -18.3610 -18.3567 -18.3398 -18.3326 -18.3321 -18.3314
   -18.3251 -18.3229 -18.3211 -18.3178 -18.3150 -18.2966 -18.2933 -18.2927
   -18.2901 -18.2838 -18.2834 -18.2819 -18.2685 -18.2644 -18.2565 -18.2501
   -18.2491 -18.2391 -18.2349 -18.2341 -18.2334 -18.2212 -18.2203 -18.2180
   -18.1918 -18.1889 -18.1643 -18.1607 -18.1555 -18.1539 -18.1523 -18.1515
   -18.1514 -18.1354 -18.1343 -18.1247 -18.1149 -18.1123 -18.1057 -18.1040
   -18.1000 -18.0997 -18.0962 -18.0957 -18.0943 -18.0825 -18.0822 -18.0803
   -18.0682 -18.0667 -18.0635 -18.0594 -18.0579 -18.0576 -18.0381 -18.0379
   -18.0364 -18.0347 -18.0341 -18.0338 -12.2288 -12.1073 -12.0661 -12.0659
   -12.0278 -11.9878 -11.9869 -11.9773 -11.9043 -11.8797 -11.8785 -11.7952
   -11.7860 -11.7855 -11.6610 -11.5295 -11.4888 -11.4847 -11.4834 -11.4822
   -11.4817 -11.4522 -11.3879 -11.3836 -11.3802 -11.3789 -11.3775 -11.3689
   -11.3488 -11.3323 -11.3278 -11.3120 -11.3087 -11.3056 -11.3045 -11.3030
   -11.3024 -11.2985 -11.2971 -11.2969 -11.2657 -11.2564 -11.2502 -11.2225
   -11.2212 -11.2175 -11.1973 -11.1823 -11.1779 -11.1543 -11.1520 -11.1517
   -11.1355 -11.1241 -11.1216 -11.0968 -11.0953 -11.0938 -11.0914 -11.0873
   -11.0856 -11.0822 -11.0715 -11.0688 -11.0676 -11.0580 -11.0563 -11.0488
   -11.0471 -11.0441 -11.0428 -11.0421 -11.0416 -11.0387 -11.0366 -11.0365
   -11.0184 -11.0158 -11.0096 -11.0076 -11.0052 -11.0011 -10.9859 -10.9788
   -10.9786 -10.9774 -10.9765 -10.9729 -10.9708 -10.9689 -10.9676 -10.8930
   -10.8879 -10.8845 -10.8380 -10.8228 -10.8201 -10.8130 -10.8124 -10.8109
   -10.5426 -10.4543 -10.4435 -10.3752 -10.2867 -10.2407 -10.1786 -10.1318
   -10.0778 -10.0598 -10.0515 -10.0477 -10.0427 -10.0379 -10.0256 -10.0158
   -10.0134 -10.0133 -10.0105 -10.0089 -10.0077  -9.9961  -9.9942  -9.9934
    -9.9908  -9.9892  -9.9878  -9.9639  -9.9478  -9.9400  -9.9044  -9.8752
    -9.8720  -9.8704  -9.8694  -9.8651  -9.8642  -9.8616  -9.8611  -9.8593
    -9.8591  -9.8577  -9.8565  -9.8433  -9.8419  -9.8235  -9.8008  -9.7952
    -9.7829  -9.7828  -9.7824  -9.7820  -9.7816  -9.7814  -9.7652  -9.7637
    -9.7602  -9.7556  -9.7544  -9.7542  -9.7351  -9.7337  -9.6927  -9.6849
    -9.6829  -9.6817  -9.6019  -9.5931  -9.5905  -9.5717  -9.5690  -9.5624
    -9.5621  -9.5566  -9.5496  -9.5411  -9.5388  -9.5379  -9.4919  -9.4773
    -9.4693  -9.4560  -9.4554  -9.4483  -9.4269  -9.4233  -9.4215  -9.4167
    -9.4162  -9.4130  -9.3819  -9.3595  -9.3570  -9.3551  -9.3382  -9.3343
    -9.3200  -9.2534  -9.2474  -9.2396  -9.2226  -9.2199  -9.2191  -9.1951
    -9.1927  -9.1901  -9.1730  -9.1715  -9.1644  -9.1600  -9.1595  -9.1565
    -9.1563  -9.1488  -9.1458  -9.1244  -9.1241  -9.1038  -9.0833  -9.0668
    -9.0621  -9.0619  -9.0618  -9.0612  -9.0609  -9.0606  -8.9866  -8.9801
    -8.9793  -8.9725  -8.9703  -8.9591  -8.9152  -8.8998  -8.8959  -8.8914
    -8.8859  -8.8706  -8.8422  -8.8315  -8.8296  -8.8285  -8.8266  -8.8189
    -8.7963  -8.7589  -8.6285  -8.6113  -8.6076  -8.6074  -8.6034  -8.6028
    -8.5965  -8.5963  -8.5653  -8.5522  -8.5261  -8.5224  -8.5222  -8.5210
    -8.5165  -8.5162  -8.5093  -8.5040  -8.5032  -8.5000  -8.4898  -8.4895
    -8.4840  -8.4799  -8.4791  -8.4740  -8.4618  -8.4617  -8.4600  -8.4587
    -8.4586  -8.4557  -8.3126  -8.2825  -8.2789  -8.1241  -8.0994  -8.0989
    -8.0855  -8.0171  -8.0160  -8.0085  -7.9353  -7.9345  -7.9220  -7.8820
    -7.8787  -7.8747  -7.8705  -7.8672  -7.8666  -7.8507  -7.8455  -7.8401
    -7.8064  -7.7897  -7.7897  -7.7852  -7.7808  -7.7798  -7.7790  -7.7788
    -7.7780  -7.7705  -7.7683  -7.7656  -7.7642  -7.7574  -7.7557  -7.7506
    -7.7473  -7.7456  -7.7441  -7.7419  -7.7301  -7.7297  -7.7237  -7.7233
    -7.7223  -7.7216  -7.7167  -7.7125  -7.6864  -7.6859  -7.6561  -7.6516
    -7.6471  -7.6457  -7.6439  -7.6426  -7.6415  -7.6398  -7.6396  -7.6338
    -7.5709  -7.5612  -7.5599  -7.5357  -7.5290  -7.5289  -7.5265  -7.5222
    -7.5204  -7.5189  -7.5187  -7.5097  -7.4956  -7.4951  -7.4833  -7.4831
    -7.4690  -7.4679  -7.4541  -7.4536  -7.4190  -7.3377  -7.3377  -7.3290
    -7.3094  -7.3031  -7.2297  -7.1797  -7.1145  -7.1084  -7.0806  -7.0801
    -7.0764  -7.0616  -7.0396  -7.0237  -7.0223  -6.9876  -6.9863  -6.9503
    -6.9503  -6.9266  -6.9158  -6.9000  -6.8871  -6.8696  -6.8561  -6.8551
    -6.8486  -6.8464  -6.8433  -6.8364  -6.8232  -6.8072  -6.7948  -6.7796
    -6.7784  -6.7751  -6.7684  -6.7589  -6.7555  -6.7530  -6.7489  -6.7488
    -6.7475  -6.7458  -6.7439  -6.7390  -6.7382  -6.7380  -6.7379  -6.7379
    -6.7370  -6.7335  -6.7136  -6.7061  -6.6921  -6.6774  -6.6679  -6.6550
    -6.6493  -6.6469  -6.6379  -6.5854  -6.5826  -6.5818  -6.5776  -6.5744
    -6.5731  -6.5606  -6.5586  -6.5539  -6.5453  -6.5366  -6.5347  -6.5248
    -6.5232  -6.5185  -6.5113  -6.4977  -6.4964  -6.4922  -6.4915  -6.4902
    -6.4880  -6.4570  -6.4563  -6.4213  -6.1184  -6.1036  -5.9074  -5.5899
    -5.4001  -5.0192  -4.0975  -4.0919  -4.0892  -4.0870  -4.0852  -4.0759
    -4.0668  -4.0657  -4.0646  -4.0643  -4.0632  -4.0550  -3.9450  -3.9373
    -3.9279  -3.9255  -3.9203  -3.9196  -3.9180  -3.9160  -3.9139  -3.9138
    -3.9113  -3.8663  -3.7487  -3.7445  -3.7417  -3.7372  -3.7324  -3.7301
    -3.7218  -3.7175  -3.7164  -3.7141  -3.7129  -3.7122  -3.6969  -3.6903
    -3.6896  -3.6855  -3.6849  -3.6841  -3.6837  -3.6828  -3.6738  -3.6735
    -3.6724  -3.6683  -3.6633  -3.6607  -3.6575  -3.6566  -3.6531  -3.6523
    -3.6489  -3.6478  -3.6439  -3.6433  -3.6414  -3.6236  -3.5960  -3.5861
    -3.5847  -3.5817  -3.5815  -3.5785  -3.5771  -3.5764  -3.5748  -3.5710
    -3.5707  -3.5498  -3.5267  -3.5235  -3.5230  -3.5198  -3.5181  -3.5063
    -3.4530  -3.4468  -3.4443  -3.4397  -3.4372  -3.4073  -3.3083  -3.3072
    -3.3066  -3.3035  -3.3025  -3.3015  -3.2858  -3.2828  -3.2825  -3.2256
    -3.2238  -3.2199  -3.2168  -3.2165  -3.2155  -3.2122  -3.2071  -3.2065
    -3.2050  -3.2040  -3.2000  -3.1997  -3.1953  -3.1948  -3.1904  -3.1848
    -3.1829  -3.1817  -3.1804  -3.1745  -3.1737  -3.1734  -3.1728  -3.1725
    -3.1723  -3.1694  -3.1694  -3.1660  -3.1173  -3.1148  -3.1143  -3.0895
    -3.0867  -3.0844  -3.0714  -3.0581  -3.0475  -3.0475  -3.0475  -3.0475
    -3.0475  -3.0475  -3.0451  -3.0427  -3.0426  -3.0352  -3.0312  -3.0140
    -2.9918  -2.9854  -2.9837  -2.9764  -2.9723  -2.9711  -2.9671  -2.9444
    -2.9171  -2.9088  -2.8788  -2.8767  -2.8662  -2.8659  -2.8587  -2.8579
    -2.8573  -2.8566  -2.7990  -2.7912  -2.7901  -2.7808  -2.7807  -2.7723
    -2.6503  -2.6479

          k = 0.0000-0.5773 0.0000 (386352 PWs)   bands (ev):

   -89.2034 -66.8785 -66.8599 -66.8596 -66.8593 -66.8591 -66.8591 -66.8578
   -66.8578 -66.8531 -66.8489 -66.8488 -66.8484 -66.8484 -66.8472 -66.8472
   -66.8467 -66.8434 -66.8340 -66.8339 -66.8336 -66.8335 -66.8335 -66.8333
   -66.8333 -66.8333 -66.8333 -66.8331 -66.8320 -66.8320 -66.8320 -66.8320
   -66.8310 -66.8294 -66.8291 -66.8289 -66.8289 -66.8289 -66.8276 -66.8276
   -66.8271 -66.8233 -66.8231 -66.8231 -66.8227 -66.8226 -66.8226 -66.8226
   -66.8225 -66.8225 -66.8213 -66.8213 -66.8213 -66.8213 -66.8212 -66.8186
   -66.8186 -66.8185 -66.8182 -66.8182 -66.8169 -66.8169 -66.8164 -66.8133
   -66.8103 -55.1978 -54.9912 -54.6944 -41.1619 -41.1618 -41.1618 -41.1614
   -41.1613 -41.1611 -41.1611 -41.1611 -41.1611 -41.1605 -41.1605 -41.1605
   -41.1605 -41.1602 -41.1588 -41.1562 -41.1350 -41.1348 -41.1343 -41.1343
   -41.1337 -41.1336 -41.1336 -41.1305 -41.1229 -41.1228 -41.1222 -41.1222
   -41.1216 -41.1216 -41.1211 -41.1178 -41.0733 -41.0722 -41.0721 -41.0721
   -41.0720 -41.0716 -41.0716 -41.0715 -41.0715 -41.0708 -41.0708 -41.0708
   -41.0708 -41.0706 -41.0678 -41.0662 -41.0443 -41.0166 -41.0133 -41.0131
   -41.0127 -41.0127 -41.0121 -41.0121 -41.0063 -41.0050 -41.0039 -41.0037
   -41.0033 -41.0033 -41.0024 -41.0024 -40.9971 -40.9947 -40.9924 -40.9923
   -40.9919 -40.9919 -40.9912 -40.9912 -40.9839 -40.9688 -40.9661 -40.9651
   -40.9630 -40.9629 -40.9625 -40.9625 -40.9623 -40.9622 -40.9622 -40.9622
   -40.9616 -40.9616 -40.9616 -40.9616 -40.9584 -40.9564 -40.9541 -40.9539
   -40.9535 -40.9535 -40.9528 -40.9528 -40.9481 -40.9471 -40.9444 -40.9431
   -40.9424 -40.9422 -40.9419 -40.9418 -40.9418 -40.9418 -40.9417 -40.9416
   -40.9412 -40.9412 -40.9412 -40.9412 -40.9412 -40.9409 -40.9409 -40.9405
   -40.9405 -40.9405 -40.9405 -40.9364 -40.9343 -40.9330 -40.9330 -40.9325
   -40.9325 -40.9325 -40.9318 -40.9318 -40.9116 -40.9115 -40.9115 -40.9113
   -40.9111 -40.9109 -40.9109 -40.9108 -40.9108 -40.9101 -40.9099 -40.9099
   -40.9099 -40.9099 -40.9076 -40.9053 -40.8792 -40.8768 -40.8767 -40.8766
   -40.8765 -40.8761 -40.8761 -40.8761 -40.8761 -40.8752 -40.8752 -40.8752
   -40.8752 -40.8751 -40.8712 -40.8692 -40.8647 -40.8643 -40.8640 -40.8639
   -40.8630 -40.8630 -40.8630 -40.8575 -40.8453 -40.8450 -40.8447 -40.8446
   -40.8437 -40.8437 -40.8422 -40.8404 -40.8282 -40.8281 -40.8276 -40.8276
   -40.8267 -40.8267 -40.8267 -40.8202 -40.7977 -40.7973 -40.7970 -40.7970
   -40.7960 -40.7960 -40.7950 -40.7929 -20.1389 -20.1261 -20.0805 -20.0554
   -19.9858 -19.9605 -19.8900 -19.8798 -19.6948 -19.6905 -19.6379 -19.6285
   -19.5506 -19.5408 -19.4622 -19.4581 -19.0774 -19.0210 -19.0040 -18.9777
   -18.9768 -18.9715 -18.9602 -18.9357 -18.9325 -18.9166 -18.9162 -18.8894
   -18.8786 -18.8600 -18.8547 -18.8401 -18.8160 -18.8109 -18.7941 -18.7857
   -18.7816 -18.7740 -18.7651 -18.7418 -18.7237 -18.7202 -18.7009 -18.7001
   -18.6896 -18.6751 -18.6472 -18.6409 -18.6310 -18.6093 -18.5877 -18.5779
   -18.5641 -18.5491 -18.5088 -18.4888 -18.4792 -18.4745 -18.4652 -18.4609
   -18.4224 -18.4059 -18.3868 -18.3737 -18.3592 -18.3512 -18.3461 -18.3444
   -18.3439 -18.3436 -18.3351 -18.3214 -18.3150 -18.3139 -18.3096 -18.3071
   -18.3021 -18.2902 -18.2850 -18.2824 -18.2760 -18.2744 -18.2694 -18.2687
   -18.2483 -18.2428 -18.2402 -18.2361 -18.2338 -18.2313 -18.2250 -18.2242
   -18.2212 -18.2120 -18.1827 -18.1760 -18.1724 -18.1644 -18.1580 -18.1544
   -18.1310 -18.1201 -18.1136 -18.1096 -18.0882 -18.0829 -18.0788 -18.0752
   -18.0630 -18.0607 -18.0602 -18.0588 -18.0575 -18.0562 -18.0519 -18.0483
   -18.0367 -18.0312 -18.0172 -18.0110 -17.9993 -17.9959 -17.9825 -17.9781
   -17.9686 -17.9660 -17.9598 -17.9596 -11.9856 -11.9600 -11.8984 -11.7702
   -11.7574 -11.7566 -11.7532 -11.7364 -11.7262 -11.7191 -11.7151 -11.7023
   -11.6757 -11.6751 -11.6657 -11.6351 -11.6210 -11.6030 -11.5737 -11.5721
   -11.5664 -11.5619 -11.5524 -11.5275 -11.5175 -11.5118 -11.5065 -11.5008
   -11.4948 -11.4933 -11.4840 -11.4781 -11.4506 -11.4385 -11.4341 -11.4272
   -11.4182 -11.4112 -11.4108 -11.4097 -11.4031 -11.3842 -11.3830 -11.3748
   -11.3509 -11.3485 -11.3100 -11.3000 -11.2953 -11.2941 -11.2175 -11.1904
   -11.1821 -11.1586 -11.1496 -11.1479 -11.1342 -11.1196 -11.1140 -11.0875
   -11.0765 -11.0695 -11.0644 -11.0576 -11.0568 -11.0544 -11.0523 -11.0510
   -11.0458 -11.0437 -11.0392 -11.0344 -11.0335 -11.0324 -11.0299 -11.0295
   -11.0286 -11.0271 -11.0209 -11.0145 -11.0126 -10.9987 -10.9830 -10.9823
   -10.9821 -10.9798 -10.7879 -10.7774 -10.7683 -10.7592 -10.7359 -10.7177
   -10.6553 -10.6185 -10.6020 -10.5128 -10.4794 -10.4123 -10.3868 -10.3833
   -10.3772 -10.3625 -10.3444 -10.3341 -10.3237 -10.3228 -10.2986 -10.2945
   -10.2912 -10.2693 -10.2650 -10.2527 -10.2522 -10.2441 -10.2356 -10.2160
   -10.1748 -10.1658 -10.1604 -10.1545 -10.1481 -10.1415 -10.1400 -10.1356
   -10.1233 -10.0975 -10.0810 -10.0732 -10.0403 -10.0388 -10.0253 -10.0142
   -10.0022 -10.0008  -9.9873  -9.9755  -9.9498  -9.9490  -9.9192  -9.9173
    -9.9083  -9.8947  -9.8850  -9.8746  -9.8477  -9.8452  -9.8345  -9.8062
    -9.7912  -9.7763  -9.7748  -9.7711  -9.7704  -9.7690  -9.7541  -9.7482
    -9.7286  -9.7254  -9.7063  -9.7051  -9.7004  -9.6976  -9.6932  -9.6906
    -9.6652  -9.6615  -9.6609  -9.6524  -9.5971  -9.5845  -9.5350  -9.5087
    -9.4911  -9.4761  -9.4558  -9.4407  -9.4313  -9.4235  -9.4218  -9.4097
    -9.4066  -9.3960  -9.3722  -9.3631  -9.3495  -9.3177  -9.3088  -9.3035
    -9.2945  -9.2806  -9.2765  -9.2688  -9.2597  -9.2567  -9.2536  -9.2518
    -9.2132  -9.2021  -9.1981  -9.1907  -9.1862  -9.1742  -9.1686  -9.1590
    -9.1404  -9.1354  -9.1263  -9.1237  -9.1214  -9.1188  -9.1123  -9.1104
    -9.1075  -9.1034  -9.1011  -9.0984  -9.0920  -9.0895  -9.0804  -9.0800
    -9.0727  -9.0712  -9.0603  -9.0582  -9.0426  -9.0402  -9.0314  -9.0233
    -9.0207  -9.0197  -9.0184  -9.0167  -9.0032  -8.9910  -8.9742  -8.9692
    -8.9604  -8.9585  -8.9526  -8.9282  -8.9081  -8.8778  -8.8577  -8.8474
    -8.8131  -8.7740  -8.7597  -8.7377  -8.7276  -8.6740  -8.6615  -8.5924
    -8.5857  -8.5116  -8.4940  -8.4792  -8.4655  -8.3689  -8.3682  -8.3619
    -8.3599  -8.3511  -8.3479  -8.3443  -8.3141  -8.3086  -8.2998  -8.2402
    -8.2133  -8.2064  -8.1824  -8.1312  -8.0898  -8.0836  -8.0821  -8.0799
    -8.0671  -8.0581  -8.0556  -8.0482  -8.0466  -8.0394  -8.0375  -8.0329
    -8.0314  -8.0301  -8.0286  -8.0242  -8.0230  -8.0194  -8.0140  -8.0132
    -8.0120  -8.0099  -8.0089  -8.0069  -8.0053  -7.9996  -7.9988  -7.9955
    -7.9933  -7.9841  -7.9778  -7.9747  -7.9634  -7.9616  -7.9523  -7.9517
    -7.9382  -7.9375  -7.9355  -7.9344  -7.9314  -7.9287  -7.9152  -7.9061
    -7.9048  -7.9027  -7.8996  -7.8868  -7.8754  -7.8546  -7.8524  -7.8442
    -7.8416  -7.8375  -7.8349  -7.8326  -7.8304  -7.8276  -7.8201  -7.8144
    -7.8035  -7.8026  -7.7962  -7.7866  -7.7857  -7.7758  -7.7710  -7.7059
    -7.6944  -7.6903  -7.6862  -7.6826  -7.6530  -7.6047  -7.5092  -7.4751
    -7.4177  -7.4121  -7.4076  -7.4061  -7.3907  -7.3653  -7.3550  -7.3518
    -7.3447  -7.3395  -7.3307  -7.2940  -7.2764  -7.2736  -7.2614  -7.2574
    -7.2557  -7.2432  -7.2279  -7.2133  -7.1939  -7.1805  -7.1602  -7.1479
    -7.1362  -7.1292  -7.1124  -7.1028  -7.0997  -7.0973  -7.0886  -7.0841
    -7.0564  -7.0436  -7.0067  -6.9909  -6.9768  -6.9623  -6.9268  -6.9116
    -6.8813  -6.8735  -6.8592  -6.8551  -6.8525  -6.8467  -6.8444  -6.8432
    -6.8393  -6.8317  -6.8281  -6.8268  -6.8259  -6.8245  -6.8190  -6.8188
    -6.8187  -6.8185  -6.7857  -6.7534  -6.7152  -6.7090  -6.7001  -6.6468
    -6.6272  -6.5854  -6.5711  -6.5653  -6.5638  -6.5527  -6.5369  -6.5299
    -6.5223  -6.5171  -6.5167  -6.5141  -6.5132  -6.5117  -6.5104  -6.4892
    -6.4760  -6.4730  -6.4643  -6.4543  -6.4450  -6.4380  -6.4362  -6.4341
    -6.4293  -6.2489  -6.2406  -6.2158  -6.1981  -6.1607  -6.1494  -6.1256
    -6.1003  -6.0862  -6.0770  -6.0308  -6.0114  -5.9071  -5.8960  -5.8290
    -5.8248  -4.9967  -4.3318  -4.3292  -4.3238  -4.3167  -4.1777  -4.1689
    -4.1556  -4.1508  -4.1387  -4.1239  -4.0837  -4.0812  -4.0695  -4.0651
    -4.0523  -4.0490  -4.0385  -4.0375  -4.0281  -4.0045  -3.9198  -3.9167
    -3.9047  -3.8935  -3.8475  -3.8432  -3.8403  -3.8388  -3.8354  -3.8141
    -3.7953  -3.7916  -3.7694  -3.7647  -3.7579  -3.7572  -3.7543  -3.7516
    -3.7232  -3.7215  -3.7153  -3.7118  -3.7092  -3.7064  -3.7032  -3.6981
    -3.6869  -3.6845  -3.6667  -3.6625  -3.6592  -3.6565  -3.6453  -3.6318
    -3.5972  -3.5886  -3.5866  -3.5850  -3.5844  -3.5829  -3.5787  -3.5784
    -3.5461  -3.5444  -3.5321  -3.5290  -3.5251  -3.5241  -3.5232  -3.5184
    -3.5169  -3.5158  -3.4940  -3.4846  -3.4825  -3.4793  -3.4717  -3.4691
    -3.4607  -3.4537  -3.4476  -3.4459  -3.4431  -3.4347  -3.4222  -3.4192
    -3.4112  -3.4077  -3.4048  -3.4042  -3.4002  -3.4002  -3.3977  -3.3783
    -3.3426  -3.3389  -3.3083  -3.3053  -3.3011  -3.2979  -3.2932  -3.2851
    -3.2671  -3.2627  -3.2618  -3.2614  -3.2606  -3.2592  -3.2522  -3.2505
    -3.2470  -3.2409  -3.2387  -3.2322  -3.2303  -3.2265  -3.2163  -3.2121
    -3.2087  -3.2059  -3.2027  -3.1993  -3.1940  -3.1875  -3.1840  -3.1832
    -3.1817  -3.1762  -3.1745  -3.1683  -3.1629  -3.1591  -3.1315  -3.1284
    -3.1245  -3.1238  -3.1131  -3.1051  -3.1042  -3.0932  -3.0305  -3.0269
    -3.0246  -3.0193  -2.9592  -2.9515  -2.9477  -2.9386  -2.8510  -2.8496
    -2.8187  -2.8117  -2.8096  -2.8043  -2.7824  -2.7797  -2.7673  -2.7645
    -2.7635  -2.7579  -2.7566  -2.7532  -2.6403  -2.6343  -2.6296  -2.6279
    -2.6155  -2.6034

          k =-0.5000-0.2887 0.0000 (386352 PWs)   bands (ev):

   -89.2034 -66.8786 -66.8596 -66.8594 -66.8591 -66.8591 -66.8578 -66.8578
   -66.8576 -66.8558 -66.8489 -66.8488 -66.8484 -66.8484 -66.8482 -66.8472
   -66.8472 -66.8408 -66.8349 -66.8340 -66.8339 -66.8335 -66.8335 -66.8333
   -66.8333 -66.8333 -66.8333 -66.8320 -66.8320 -66.8320 -66.8320 -66.8313
   -66.8304 -66.8301 -66.8295 -66.8291 -66.8289 -66.8289 -66.8279 -66.8276
   -66.8276 -66.8233 -66.8231 -66.8231 -66.8228 -66.8227 -66.8226 -66.8226
   -66.8226 -66.8225 -66.8213 -66.8213 -66.8213 -66.8213 -66.8200 -66.8199
   -66.8186 -66.8185 -66.8182 -66.8182 -66.8169 -66.8169 -66.8150 -66.8144
   -66.8100 -55.1978 -54.9912 -54.6944 -41.1619 -41.1618 -41.1617 -41.1617
   -41.1614 -41.1612 -41.1611 -41.1611 -41.1611 -41.1611 -41.1605 -41.1605
   -41.1604 -41.1604 -41.1570 -41.1543 -41.1350 -41.1348 -41.1343 -41.1343
   -41.1341 -41.1336 -41.1336 -41.1318 -41.1228 -41.1228 -41.1222 -41.1222
   -41.1216 -41.1216 -41.1211 -41.1199 -41.0722 -41.0721 -41.0721 -41.0721
   -41.0716 -41.0716 -41.0715 -41.0715 -41.0708 -41.0708 -41.0708 -41.0708
   -41.0704 -41.0699 -41.0695 -41.0681 -41.0443 -41.0151 -41.0133 -41.0131
   -41.0127 -41.0127 -41.0121 -41.0121 -41.0065 -41.0039 -41.0038 -41.0038
   -41.0033 -41.0033 -41.0024 -41.0024 -40.9978 -40.9966 -40.9924 -40.9923
   -40.9919 -40.9919 -40.9912 -40.9912 -40.9826 -40.9686 -40.9648 -40.9644
   -40.9630 -40.9629 -40.9625 -40.9625 -40.9622 -40.9622 -40.9622 -40.9622
   -40.9616 -40.9616 -40.9616 -40.9616 -40.9591 -40.9554 -40.9541 -40.9539
   -40.9536 -40.9535 -40.9535 -40.9529 -40.9528 -40.9457 -40.9431 -40.9423
   -40.9423 -40.9420 -40.9418 -40.9418 -40.9418 -40.9417 -40.9416 -40.9413
   -40.9413 -40.9412 -40.9412 -40.9411 -40.9409 -40.9409 -40.9405 -40.9405
   -40.9405 -40.9405 -40.9390 -40.9363 -40.9352 -40.9332 -40.9330 -40.9330
   -40.9325 -40.9325 -40.9318 -40.9318 -40.9192 -40.9117 -40.9116 -40.9113
   -40.9109 -40.9109 -40.9109 -40.9108 -40.9108 -40.9099 -40.9099 -40.9099
   -40.9099 -40.9065 -40.9056 -40.9036 -40.8767 -40.8767 -40.8766 -40.8766
   -40.8765 -40.8761 -40.8761 -40.8761 -40.8761 -40.8752 -40.8752 -40.8752
   -40.8752 -40.8746 -40.8721 -40.8718 -40.8646 -40.8644 -40.8640 -40.8639
   -40.8630 -40.8630 -40.8617 -40.8594 -40.8467 -40.8455 -40.8449 -40.8447
   -40.8446 -40.8437 -40.8437 -40.8364 -40.8282 -40.8282 -40.8277 -40.8276
   -40.8275 -40.8267 -40.8267 -40.8219 -40.7977 -40.7973 -40.7970 -40.7969
   -40.7960 -40.7960 -40.7950 -40.7908 -20.1373 -20.1268 -20.0786 -20.0575
   -19.9845 -19.9635 -19.8897 -19.8814 -19.6960 -19.6890 -19.6396 -19.6251
   -19.5517 -19.5374 -19.4625 -19.4569 -19.0780 -19.0294 -18.9992 -18.9780
   -18.9768 -18.9717 -18.9608 -18.9350 -18.9329 -18.9172 -18.9147 -18.8940
   -18.8701 -18.8654 -18.8533 -18.8412 -18.8163 -18.8088 -18.7956 -18.7847
   -18.7826 -18.7746 -18.7638 -18.7421 -18.7255 -18.7205 -18.7017 -18.6959
   -18.6927 -18.6752 -18.6462 -18.6442 -18.6336 -18.6091 -18.5812 -18.5770
   -18.5671 -18.5486 -18.4953 -18.4943 -18.4846 -18.4733 -18.4658 -18.4612
   -18.4235 -18.4035 -18.3877 -18.3741 -18.3594 -18.3473 -18.3465 -18.3446
   -18.3440 -18.3435 -18.3297 -18.3281 -18.3142 -18.3134 -18.3086 -18.3060
   -18.3037 -18.2907 -18.2839 -18.2800 -18.2793 -18.2744 -18.2691 -18.2690
   -18.2457 -18.2446 -18.2403 -18.2364 -18.2331 -18.2323 -18.2255 -18.2247
   -18.2209 -18.2117 -18.1776 -18.1768 -18.1722 -18.1686 -18.1568 -18.1558
   -18.1307 -18.1226 -18.1126 -18.1105 -18.0887 -18.0836 -18.0777 -18.0772
   -18.0634 -18.0610 -18.0603 -18.0589 -18.0572 -18.0571 -18.0515 -18.0490
   -18.0361 -18.0315 -18.0173 -18.0104 -17.9993 -17.9961 -17.9816 -17.9779
   -17.9679 -17.9653 -17.9597 -17.9595 -11.9826 -11.9611 -11.8849 -11.7709
   -11.7684 -11.7583 -11.7579 -11.7321 -11.7246 -11.7229 -11.7117 -11.7015
   -11.6855 -11.6767 -11.6720 -11.6330 -11.6160 -11.6015 -11.5808 -11.5742
   -11.5712 -11.5605 -11.5564 -11.5203 -11.5170 -11.5092 -11.5053 -11.5014
   -11.4955 -11.4950 -11.4784 -11.4772 -11.4524 -11.4331 -11.4321 -11.4220
   -11.4179 -11.4136 -11.4107 -11.4095 -11.4032 -11.3837 -11.3826 -11.3765
   -11.3508 -11.3451 -11.3109 -11.2988 -11.2973 -11.2918 -11.2273 -11.1859
   -11.1765 -11.1576 -11.1524 -11.1418 -11.1403 -11.1179 -11.1146 -11.0932
   -11.0778 -11.0690 -11.0669 -11.0584 -11.0583 -11.0540 -11.0522 -11.0500
   -11.0485 -11.0444 -11.0441 -11.0344 -11.0329 -11.0317 -11.0300 -11.0298
   -11.0286 -11.0281 -11.0225 -11.0190 -11.0177 -10.9969 -10.9833 -10.9827
   -10.9826 -10.9783 -10.7816 -10.7792 -10.7677 -10.7558 -10.7308 -10.7201
   -10.6519 -10.6207 -10.5848 -10.4879 -10.4817 -10.4341 -10.3922 -10.3897
   -10.3776 -10.3631 -10.3444 -10.3394 -10.3209 -10.3172 -10.2981 -10.2940
   -10.2897 -10.2669 -10.2614 -10.2574 -10.2545 -10.2490 -10.2251 -10.2189
   -10.1748 -10.1642 -10.1554 -10.1529 -10.1510 -10.1430 -10.1421 -10.1363
   -10.1256 -10.0966 -10.0787 -10.0601 -10.0454 -10.0381 -10.0245 -10.0121
   -10.0020  -9.9980  -9.9841  -9.9798  -9.9534  -9.9475  -9.9186  -9.9099
    -9.9091  -9.8948  -9.8877  -9.8730  -9.8472  -9.8385  -9.8343  -9.8093
    -9.7863  -9.7815  -9.7740  -9.7717  -9.7708  -9.7687  -9.7560  -9.7521
    -9.7287  -9.7276  -9.7094  -9.7042  -9.6977  -9.6965  -9.6914  -9.6895
    -9.6674  -9.6642  -9.6569  -9.6560  -9.6017  -9.5815  -9.5449  -9.5119
    -9.4910  -9.4770  -9.4567  -9.4461  -9.4365  -9.4249  -9.4199  -9.4150
    -9.4029  -9.3942  -9.3815  -9.3606  -9.3481  -9.3195  -9.3160  -9.3061
    -9.2948  -9.2771  -9.2765  -9.2677  -9.2600  -9.2557  -9.2552  -9.2455
    -9.2149  -9.2006  -9.1944  -9.1912  -9.1904  -9.1730  -9.1722  -9.1590
    -9.1485  -9.1322  -9.1270  -9.1222  -9.1212  -9.1141  -9.1132  -9.1099
    -9.1046  -9.1032  -9.0994  -9.0987  -9.0923  -9.0841  -9.0803  -9.0789
    -9.0712  -9.0703  -9.0621  -9.0561  -9.0443  -9.0388  -9.0284  -9.0258
    -9.0206  -9.0197  -9.0190  -9.0156  -9.0005  -8.9908  -8.9750  -8.9724
    -8.9694  -8.9591  -8.9437  -8.9352  -8.9264  -8.8812  -8.8769  -8.8384
    -8.8142  -8.7582  -8.7489  -8.7260  -8.7130  -8.6630  -8.6604  -8.5910
    -8.5854  -8.5190  -8.5005  -8.4875  -8.4514  -8.3708  -8.3682  -8.3650
    -8.3599  -8.3560  -8.3479  -8.3466  -8.3055  -8.3020  -8.3003  -8.2306
    -8.2114  -8.2010  -8.1807  -8.1287  -8.1011  -8.0854  -8.0840  -8.0780
    -8.0685  -8.0597  -8.0576  -8.0525  -8.0415  -8.0409  -8.0363  -8.0346
    -8.0317  -8.0303  -8.0286  -8.0257  -8.0236  -8.0206  -8.0154  -8.0139
    -8.0109  -8.0100  -8.0094  -8.0073  -8.0032  -7.9988  -7.9976  -7.9968
    -7.9944  -7.9887  -7.9789  -7.9720  -7.9688  -7.9641  -7.9570  -7.9453
    -7.9409  -7.9407  -7.9347  -7.9340  -7.9322  -7.9264  -7.9208  -7.9064
    -7.9051  -7.9029  -7.9027  -7.8789  -7.8787  -7.8576  -7.8541  -7.8471
    -7.8428  -7.8387  -7.8347  -7.8327  -7.8321  -7.8228  -7.8226  -7.8170
    -7.8081  -7.8035  -7.8024  -7.7894  -7.7833  -7.7741  -7.7716  -7.7000
    -7.6956  -7.6897  -7.6833  -7.6760  -7.6563  -7.5745  -7.5132  -7.4675
    -7.4216  -7.4099  -7.4091  -7.4065  -7.3916  -7.3648  -7.3577  -7.3546
    -7.3390  -7.3384  -7.3312  -7.2928  -7.2912  -7.2726  -7.2643  -7.2560
    -7.2507  -7.2498  -7.2305  -7.2129  -7.1983  -7.1903  -7.1662  -7.1529
    -7.1432  -7.1329  -7.1141  -7.1049  -7.0989  -7.0985  -7.0861  -7.0689
    -7.0604  -7.0167  -6.9997  -6.9943  -6.9838  -6.9321  -6.9249  -6.9142
    -6.9111  -6.8857  -6.8715  -6.8577  -6.8550  -6.8468  -6.8463  -6.8442
    -6.8420  -6.8296  -6.8289  -6.8272  -6.8259  -6.8193  -6.8191  -6.8188
    -6.8185  -6.8120  -6.8015  -6.7495  -6.7143  -6.7023  -6.6583  -6.6463
    -6.6270  -6.5944  -6.5698  -6.5654  -6.5651  -6.5495  -6.5381  -6.5266
    -6.5194  -6.5177  -6.5172  -6.5135  -6.5125  -6.5096  -6.5078  -6.4883
    -6.4714  -6.4651  -6.4623  -6.4577  -6.4441  -6.4389  -6.4369  -6.4340
    -6.4297  -6.2513  -6.2428  -6.2166  -6.2074  -6.1645  -6.1589  -6.1214
    -6.0971  -6.0870  -6.0771  -6.0470  -6.0092  -5.9104  -5.8856  -5.8288
    -5.8214  -4.9993  -4.3322  -4.3302  -4.3262  -4.3108  -4.1770  -4.1719
    -4.1558  -4.1533  -4.1450  -4.1076  -4.0834  -4.0814  -4.0692  -4.0658
    -4.0521  -4.0496  -4.0383  -4.0376  -4.0294  -4.0170  -3.9185  -3.9167
    -3.9131  -3.8727  -3.8474  -3.8430  -3.8401  -3.8394  -3.8350  -3.8277
    -3.7960  -3.7915  -3.7679  -3.7633  -3.7621  -3.7571  -3.7548  -3.7497
    -3.7233  -3.7201  -3.7147  -3.7132  -3.7091  -3.7077  -3.7069  -3.6874
    -3.6859  -3.6845  -3.6664  -3.6607  -3.6598  -3.6574  -3.6471  -3.6457
    -3.5944  -3.5860  -3.5859  -3.5849  -3.5838  -3.5831  -3.5808  -3.5744
    -3.5532  -3.5463  -3.5304  -3.5290  -3.5271  -3.5243  -3.5216  -3.5189
    -3.5187  -3.5118  -3.4910  -3.4848  -3.4819  -3.4784  -3.4744  -3.4693
    -3.4677  -3.4500  -3.4480  -3.4426  -3.4396  -3.4274  -3.4150  -3.4144
    -3.4120  -3.4078  -3.4056  -3.4035  -3.4002  -3.4002  -3.3977  -3.3680
    -3.3449  -3.3365  -3.3100  -3.3068  -3.3002  -3.2996  -3.2932  -3.2805
    -3.2666  -3.2653  -3.2625  -3.2614  -3.2600  -3.2596  -3.2513  -3.2493
    -3.2485  -3.2460  -3.2393  -3.2334  -3.2301  -3.2237  -3.2149  -3.2136
    -3.2102  -3.2090  -3.2021  -3.1971  -3.1935  -3.1904  -3.1842  -3.1832
    -3.1796  -3.1742  -3.1714  -3.1696  -3.1608  -3.1594  -3.1339  -3.1309
    -3.1263  -3.1250  -3.1154  -3.1105  -3.1001  -3.0922  -3.0314  -3.0273
    -3.0259  -3.0240  -2.9532  -2.9496  -2.9430  -2.9361  -2.8556  -2.8489
    -2.8223  -2.8102  -2.8030  -2.8025  -2.7818  -2.7793  -2.7642  -2.7635
    -2.7611  -2.7588  -2.7559  -2.7524  -2.6398  -2.6318  -2.6296  -2.6271
    -2.6150  -2.5973

          k =-0.5000-0.8660 0.0000 (386352 PWs)   bands (ev):

   -89.2034 -66.8785 -66.8599 -66.8596 -66.8593 -66.8591 -66.8591 -66.8578
   -66.8578 -66.8531 -66.8489 -66.8488 -66.8484 -66.8484 -66.8472 -66.8472
   -66.8467 -66.8434 -66.8340 -66.8339 -66.8336 -66.8335 -66.8335 -66.8333
   -66.8333 -66.8333 -66.8333 -66.8331 -66.8320 -66.8320 -66.8320 -66.8320
   -66.8310 -66.8294 -66.8291 -66.8289 -66.8289 -66.8289 -66.8276 -66.8276
   -66.8271 -66.8233 -66.8231 -66.8231 -66.8227 -66.8226 -66.8226 -66.8226
   -66.8225 -66.8225 -66.8213 -66.8213 -66.8213 -66.8213 -66.8212 -66.8186
   -66.8186 -66.8185 -66.8182 -66.8182 -66.8169 -66.8169 -66.8164 -66.8133
   -66.8103 -55.1978 -54.9912 -54.6944 -41.1619 -41.1618 -41.1618 -41.1614
   -41.1613 -41.1611 -41.1611 -41.1611 -41.1611 -41.1605 -41.1605 -41.1605
   -41.1604 -41.1602 -41.1588 -41.1562 -41.1350 -41.1348 -41.1343 -41.1343
   -41.1337 -41.1336 -41.1336 -41.1305 -41.1229 -41.1228 -41.1222 -41.1222
   -41.1216 -41.1216 -41.1211 -41.1178 -41.0733 -41.0722 -41.0721 -41.0721
   -41.0721 -41.0716 -41.0715 -41.0715 -41.0715 -41.0708 -41.0708 -41.0708
   -41.0708 -41.0706 -41.0678 -41.0662 -41.0443 -41.0166 -41.0133 -41.0131
   -41.0127 -41.0127 -41.0121 -41.0121 -41.0063 -41.0050 -41.0039 -41.0037
   -41.0033 -41.0033 -41.0024 -41.0024 -40.9971 -40.9947 -40.9924 -40.9923
   -40.9919 -40.9919 -40.9912 -40.9912 -40.9839 -40.9688 -40.9661 -40.9651
   -40.9630 -40.9629 -40.9625 -40.9625 -40.9623 -40.9623 -40.9622 -40.9622
   -40.9616 -40.9616 -40.9616 -40.9616 -40.9584 -40.9563 -40.9541 -40.9539
   -40.9535 -40.9535 -40.9528 -40.9528 -40.9481 -40.9471 -40.9444 -40.9431
   -40.9424 -40.9422 -40.9419 -40.9418 -40.9418 -40.9418 -40.9417 -40.9416
   -40.9412 -40.9412 -40.9412 -40.9412 -40.9412 -40.9409 -40.9409 -40.9405
   -40.9405 -40.9405 -40.9405 -40.9364 -40.9343 -40.9330 -40.9330 -40.9325
   -40.9325 -40.9325 -40.9318 -40.9318 -40.9116 -40.9115 -40.9115 -40.9113
   -40.9111 -40.9109 -40.9109 -40.9108 -40.9108 -40.9101 -40.9099 -40.9099
   -40.9099 -40.9099 -40.9076 -40.9053 -40.8792 -40.8768 -40.8767 -40.8766
   -40.8765 -40.8761 -40.8761 -40.8761 -40.8761 -40.8752 -40.8752 -40.8752
   -40.8752 -40.8751 -40.8712 -40.8692 -40.8647 -40.8643 -40.8640 -40.8639
   -40.8630 -40.8630 -40.8630 -40.8575 -40.8453 -40.8450 -40.8447 -40.8446
   -40.8437 -40.8437 -40.8422 -40.8404 -40.8282 -40.8281 -40.8276 -40.8276
   -40.8267 -40.8267 -40.8267 -40.8202 -40.7977 -40.7973 -40.7970 -40.7970
   -40.7960 -40.7960 -40.7950 -40.7929 -20.1389 -20.1260 -20.0805 -20.0554
   -19.9858 -19.9605 -19.8901 -19.8798 -19.6948 -19.6905 -19.6379 -19.6285
   -19.5506 -19.5408 -19.4622 -19.4581 -19.0774 -19.0210 -19.0040 -18.9777
   -18.9768 -18.9715 -18.9602 -18.9357 -18.9325 -18.9166 -18.9162 -18.8893
   -18.8786 -18.8600 -18.8547 -18.8401 -18.8160 -18.8109 -18.7941 -18.7857
   -18.7816 -18.7740 -18.7651 -18.7418 -18.7237 -18.7202 -18.7009 -18.7001
   -18.6896 -18.6751 -18.6472 -18.6409 -18.6310 -18.6093 -18.5878 -18.5779
   -18.5641 -18.5491 -18.5088 -18.4888 -18.4792 -18.4745 -18.4652 -18.4609
   -18.4224 -18.4059 -18.3868 -18.3737 -18.3592 -18.3512 -18.3461 -18.3445
   -18.3439 -18.3436 -18.3351 -18.3213 -18.3150 -18.3139 -18.3096 -18.3071
   -18.3021 -18.2902 -18.2850 -18.2825 -18.2760 -18.2744 -18.2694 -18.2687
   -18.2483 -18.2428 -18.2402 -18.2361 -18.2338 -18.2313 -18.2250 -18.2242
   -18.2212 -18.2120 -18.1827 -18.1760 -18.1724 -18.1644 -18.1580 -18.1544
   -18.1310 -18.1201 -18.1136 -18.1096 -18.0882 -18.0829 -18.0788 -18.0752
   -18.0630 -18.0607 -18.0602 -18.0588 -18.0575 -18.0562 -18.0519 -18.0483
   -18.0367 -18.0312 -18.0172 -18.0110 -17.9993 -17.9959 -17.9825 -17.9781
   -17.9686 -17.9660 -17.9598 -17.9596 -11.9856 -11.9600 -11.8984 -11.7702
   -11.7574 -11.7566 -11.7532 -11.7364 -11.7262 -11.7191 -11.7151 -11.7023
   -11.6757 -11.6751 -11.6657 -11.6351 -11.6210 -11.6030 -11.5737 -11.5721
   -11.5664 -11.5619 -11.5524 -11.5275 -11.5175 -11.5118 -11.5065 -11.5008
   -11.4948 -11.4933 -11.4840 -11.4781 -11.4506 -11.4385 -11.4341 -11.4272
   -11.4182 -11.4112 -11.4108 -11.4097 -11.4031 -11.3843 -11.3830 -11.3748
   -11.3509 -11.3485 -11.3100 -11.3000 -11.2953 -11.2941 -11.2175 -11.1904
   -11.1821 -11.1586 -11.1497 -11.1479 -11.1342 -11.1196 -11.1140 -11.0875
   -11.0765 -11.0695 -11.0644 -11.0576 -11.0568 -11.0544 -11.0523 -11.0510
   -11.0458 -11.0437 -11.0392 -11.0344 -11.0335 -11.0324 -11.0298 -11.0295
   -11.0286 -11.0271 -11.0210 -11.0145 -11.0126 -10.9987 -10.9830 -10.9823
   -10.9821 -10.9798 -10.7879 -10.7774 -10.7683 -10.7592 -10.7359 -10.7177
   -10.6553 -10.6185 -10.6020 -10.5128 -10.4794 -10.4123 -10.3868 -10.3833
   -10.3772 -10.3625 -10.3444 -10.3341 -10.3237 -10.3228 -10.2986 -10.2945
   -10.2912 -10.2693 -10.2650 -10.2527 -10.2522 -10.2441 -10.2356 -10.2160
   -10.1748 -10.1658 -10.1604 -10.1545 -10.1481 -10.1415 -10.1400 -10.1356
   -10.1233 -10.0975 -10.0810 -10.0732 -10.0403 -10.0388 -10.0253 -10.0142
   -10.0022 -10.0008  -9.9873  -9.9755  -9.9498  -9.9490  -9.9192  -9.9173
    -9.9083  -9.8947  -9.8850  -9.8746  -9.8477  -9.8452  -9.8345  -9.8062
    -9.7912  -9.7763  -9.7748  -9.7711  -9.7704  -9.7690  -9.7541  -9.7482
    -9.7286  -9.7254  -9.7063  -9.7051  -9.7004  -9.6975  -9.6932  -9.6906
    -9.6652  -9.6615  -9.6609  -9.6524  -9.5971  -9.5845  -9.5350  -9.5087
    -9.4911  -9.4761  -9.4558  -9.4407  -9.4313  -9.4235  -9.4218  -9.4097
    -9.4066  -9.3960  -9.3722  -9.3631  -9.3495  -9.3177  -9.3088  -9.3035
    -9.2945  -9.2806  -9.2765  -9.2688  -9.2597  -9.2567  -9.2536  -9.2518
    -9.2132  -9.2021  -9.1981  -9.1907  -9.1862  -9.1741  -9.1686  -9.1590
    -9.1404  -9.1354  -9.1263  -9.1237  -9.1214  -9.1188  -9.1123  -9.1104
    -9.1075  -9.1034  -9.1011  -9.0984  -9.0920  -9.0895  -9.0804  -9.0800
    -9.0727  -9.0712  -9.0603  -9.0582  -9.0426  -9.0402  -9.0314  -9.0233
    -9.0207  -9.0196  -9.0185  -9.0167  -9.0033  -8.9910  -8.9742  -8.9692
    -8.9604  -8.9585  -8.9526  -8.9283  -8.9081  -8.8778  -8.8577  -8.8475
    -8.8131  -8.7740  -8.7597  -8.7377  -8.7276  -8.6740  -8.6615  -8.5924
    -8.5857  -8.5116  -8.4940  -8.4792  -8.4655  -8.3689  -8.3682  -8.3619
    -8.3599  -8.3511  -8.3479  -8.3443  -8.3141  -8.3086  -8.2998  -8.2402
    -8.2132  -8.2064  -8.1823  -8.1312  -8.0898  -8.0836  -8.0821  -8.0799
    -8.0671  -8.0581  -8.0556  -8.0482  -8.0466  -8.0394  -8.0375  -8.0329
    -8.0314  -8.0301  -8.0286  -8.0242  -8.0230  -8.0194  -8.0140  -8.0132
    -8.0120  -8.0099  -8.0089  -8.0069  -8.0053  -7.9996  -7.9988  -7.9955
    -7.9933  -7.9841  -7.9778  -7.9747  -7.9634  -7.9616  -7.9523  -7.9517
    -7.9382  -7.9374  -7.9355  -7.9344  -7.9314  -7.9287  -7.9152  -7.9061
    -7.9048  -7.9027  -7.8996  -7.8868  -7.8754  -7.8546  -7.8524  -7.8442
    -7.8416  -7.8375  -7.8349  -7.8326  -7.8304  -7.8276  -7.8201  -7.8144
    -7.8035  -7.8026  -7.7962  -7.7866  -7.7857  -7.7758  -7.7710  -7.7059
    -7.6944  -7.6903  -7.6862  -7.6826  -7.6530  -7.6047  -7.5092  -7.4751
    -7.4178  -7.4121  -7.4076  -7.4061  -7.3907  -7.3653  -7.3550  -7.3518
    -7.3447  -7.3394  -7.3307  -7.2940  -7.2763  -7.2736  -7.2614  -7.2574
    -7.2557  -7.2432  -7.2279  -7.2133  -7.1939  -7.1805  -7.1602  -7.1479
    -7.1362  -7.1292  -7.1123  -7.1028  -7.0997  -7.0973  -7.0886  -7.0841
    -7.0564  -7.0436  -7.0067  -6.9909  -6.9768  -6.9623  -6.9268  -6.9116
    -6.8813  -6.8736  -6.8592  -6.8551  -6.8525  -6.8467  -6.8444  -6.8432
    -6.8393  -6.8317  -6.8281  -6.8268  -6.8259  -6.8245  -6.8190  -6.8188
    -6.8187  -6.8185  -6.7857  -6.7534  -6.7152  -6.7090  -6.7001  -6.6468
    -6.6272  -6.5854  -6.5712  -6.5653  -6.5637  -6.5527  -6.5369  -6.5299
    -6.5224  -6.5171  -6.5167  -6.5141  -6.5132  -6.5117  -6.5104  -6.4892
    -6.4759  -6.4730  -6.4643  -6.4543  -6.4450  -6.4380  -6.4362  -6.4341
    -6.4293  -6.2490  -6.2406  -6.2159  -6.1981  -6.1607  -6.1493  -6.1256
    -6.1003  -6.0862  -6.0770  -6.0308  -6.0115  -5.9071  -5.8960  -5.8290
    -5.8248  -4.9967  -4.3319  -4.3292  -4.3238  -4.3167  -4.1777  -4.1689
    -4.1556  -4.1508  -4.1387  -4.1239  -4.0837  -4.0812  -4.0695  -4.0651
    -4.0523  -4.0490  -4.0385  -4.0375  -4.0281  -4.0045  -3.9199  -3.9167
    -3.9047  -3.8935  -3.8475  -3.8432  -3.8403  -3.8388  -3.8354  -3.8141
    -3.7953  -3.7917  -3.7694  -3.7647  -3.7579  -3.7573  -3.7543  -3.7516
    -3.7232  -3.7216  -3.7153  -3.7118  -3.7093  -3.7064  -3.7032  -3.6981
    -3.6869  -3.6845  -3.6668  -3.6626  -3.6593  -3.6565  -3.6453  -3.6318
    -3.5972  -3.5886  -3.5866  -3.5850  -3.5845  -3.5829  -3.5787  -3.5784
    -3.5461  -3.5444  -3.5321  -3.5290  -3.5251  -3.5241  -3.5232  -3.5185
    -3.5169  -3.5158  -3.4940  -3.4846  -3.4825  -3.4793  -3.4717  -3.4691
    -3.4607  -3.4537  -3.4476  -3.4459  -3.4431  -3.4347  -3.4223  -3.4192
    -3.4112  -3.4078  -3.4048  -3.4043  -3.4002  -3.4002  -3.3978  -3.3783
    -3.3426  -3.3389  -3.3083  -3.3053  -3.3011  -3.2979  -3.2932  -3.2851
    -3.2671  -3.2627  -3.2618  -3.2614  -3.2606  -3.2592  -3.2523  -3.2506
    -3.2470  -3.2409  -3.2387  -3.2322  -3.2303  -3.2265  -3.2163  -3.2122
    -3.2087  -3.2060  -3.2027  -3.1993  -3.1940  -3.1875  -3.1841  -3.1832
    -3.1817  -3.1762  -3.1745  -3.1683  -3.1629  -3.1591  -3.1315  -3.1284
    -3.1245  -3.1238  -3.1131  -3.1051  -3.1042  -3.0933  -3.0305  -3.0269
    -3.0246  -3.0193  -2.9592  -2.9516  -2.9477  -2.9386  -2.8510  -2.8496
    -2.8187  -2.8117  -2.8095  -2.8042  -2.7825  -2.7797  -2.7673  -2.7645
    -2.7635  -2.7579  -2.7566  -2.7532  -2.6428  -2.6334  -2.6299  -2.6277
    -2.6175  -2.6062

     the Fermi energy is    -5.0030 ev

!    total energy              =  -32306.77915277 Ry
     total all-electron energy =   -630579.939344 Ry
     estimated scf accuracy    <       0.00000054 Ry
     smearing contrib. (-TS)   =      -0.00561529 Ry
     internal energy E=F+TS    =  -32306.77353749 Ry

     The total energy is F=E-TS. E is the sum of the following terms:
     one-electron contribution = 1102128.19818204 Ry
     hartree contribution      = -551216.04425228 Ry
     xc contribution           =   -1935.61257789 Ry
     ewald contribution        = -560565.90877200 Ry
     DFT-D3 Dispersion         =      -5.39579583 Ry
     one-center paw contrib.   =  -20712.01032153 Ry

     convergence has been achieved in   9 iterations

     negative rho (up, down):  8.947E-04 0.000E+00

     Forces acting on atoms (cartesian axes, Ry/au):

     atom    1 type  1   force =     0.00000168    0.00000048    0.00068820
     atom    2 type  1   force =     0.00002953   -0.00000831   -0.00001765
     atom    3 type  2   force =     0.00000140    0.00000037    0.00000540
     atom    4 type  2   force =    -0.00000077    0.00000013    0.00161530
     atom    5 type  2   force =    -0.00000107   -0.00000032   -0.00235935
     atom    6 type  2   force =     0.00000273    0.00000278   -0.00006552
     atom    7 type  1   force =     0.00003468   -0.00002074   -0.00001193
     atom    8 type  1   force =     0.00030446    0.00047303   -0.00115703
     atom    9 type  2   force =    -0.00095916    0.00144019   -0.00018797
     atom   10 type  2   force =     0.00012305   -0.00001665    0.00006740
     atom   11 type  2   force =    -0.00002204    0.00003739    0.00002699
     atom   12 type  2   force =     0.00240328   -0.00116030    0.00148680
     atom   13 type  1   force =     0.00000130   -0.00000038    0.00068823
     atom   14 type  1   force =    -0.00001114    0.00001367   -0.00002219
     atom   15 type  2   force =     0.00000356    0.00000003    0.00000756
     atom   16 type  2   force =    -0.00000053    0.00000001    0.00161530
     atom   17 type  2   force =    -0.00000096   -0.00000032   -0.00235926
     atom   18 type  2   force =     0.00000449    0.00000339   -0.00007949
     atom   19 type  1   force =    -0.00001522   -0.00000753   -0.00004787
     atom   20 type  1   force =    -0.00074749   -0.00011292    0.00037515
     atom   21 type  2   force =     0.00230327    0.00133380    0.00242955
     atom   22 type  2   force =    -0.00001475   -0.00000381   -0.00020455
     atom   23 type  2   force =    -0.00004366   -0.00007208   -0.00008941
[...]
     atom  163 type  1   force =     0.00000047   -0.00000181   -0.00002639
     atom  164 type  1   force =     0.00009074    0.00005239   -0.00245786
     atom  165 type  2   force =     0.00000231   -0.00000574   -0.00016697
     atom  166 type  2   force =    -0.00000617   -0.00000356    0.00003690
     atom  167 type  2   force =     0.00000060    0.00000034   -0.00010870
     atom  168 type  2   force =    -0.00000342    0.00002500   -0.00439526
     atom  169 type  1   force =    -0.00000004   -0.00000002    0.00255981
     atom  170 type  1   force =    -0.00000007    0.00000005    0.00003673
     atom  171 type  2   force =    -0.00000003   -0.00000000   -0.00003060
     atom  172 type  2   force =    -0.00000001   -0.00000000    0.00017189
     atom  173 type  2   force =    -0.00000001   -0.00000000    0.00441513
     atom  174 type  2   force =    -0.00000021    0.00000013    0.00011041
     atom  175 type  1   force =     0.00001013    0.00000077   -0.00003720
     atom  176 type  1   force =     0.00000010    0.00001516   -0.00246945
     atom  177 type  2   force =     0.00000067    0.00000807   -0.00012228
     atom  178 type  2   force =     0.00000264    0.00000132    0.00003379
     atom  179 type  2   force =     0.00000004    0.00000108   -0.00010855
     atom  180 type  2   force =    -0.00030137   -0.00005715   -0.00430350
     atom  181 type  1   force =    -0.00000004   -0.00000003    0.00255982
     atom  182 type  1   force =    -0.00000019   -0.00000008    0.00003680
     atom  183 type  2   force =    -0.00000001   -0.00000002   -0.00003059
     atom  184 type  2   force =    -0.00000000    0.00000000    0.00017188
     atom  185 type  2   force =     0.00000001    0.00000001    0.00441513
     atom  186 type  2   force =     0.00000000   -0.00000023    0.00011040
     atom  187 type  1   force =     0.00000573    0.00000839   -0.00003722
     atom  188 type  1   force =    -0.00007554   -0.00004361   -0.00245074
     atom  189 type  2   force =     0.00000732   -0.00000346   -0.00012228
     atom  190 type  2   force =     0.00001902    0.00001098    0.00002821
     atom  191 type  2   force =    -0.00000034   -0.00000019   -0.00010920
     atom  192 type  2   force =    -0.00020019   -0.00023243   -0.00430350
     atom  193 type  3   force =    -0.00000932   -0.00000540   -0.00638779
     atom  194 type  4   force =     0.00000238    0.00000139   -0.00079606

     Total force =     0.002900     Total SCF correction =     0.000249
     Energy error            =      2.2E-05 Ry
     Gradient error          =      9.9E-04 Ry/Bohr

     bfgs converged in  45 scf cycles and  44 bfgs steps
     (criteria: energy <  1.0E-04 Ry, force <  1.0E-03 Ry/Bohr)

     End of BFGS Geometry Optimization

     Final energy             =  -32306.7853828951 Ry

     File ./outdir/pwscf.bfgs deleted, as requested
Begin final coordinates

ATOMIC_POSITIONS (angstrom)
Mo            0.0000119917        1.8193638619       -9.1672481230    0   0   0
Mo            1.5756136568        0.9097075315       -3.0554901653    0   0   0
S             0.0000188998        1.8193822938       -4.6232556019    0   0   0
S             1.5756321638        0.9096773839       -7.6014065489    0   0   0
S             1.5756326175        0.9096785128      -10.7330757790    0   0   0
S             0.0000189190        1.8193860094       -1.4877129945    0   0   0
Mo            0.0025146302        1.8208406971        3.0446571102
Mo            1.6019367825        0.9226157986        9.1500115747
S             0.0259360169        1.8347661133        7.5810485295
S             1.5783642219        0.9117022617        4.6123826835
S             1.5781186293        0.9109532372        1.4772888430
S             0.0227524610        1.8166041803       10.7251951028
Mo           -1.5756053507        4.5484193819       -9.1672481230    0   0   0
Mo            0.0000378379        3.6387394919       -3.0554952701    0   0   0
S            -1.5755913433        4.5484363582       -4.6232494962    0   0   0
S             0.0000148214        3.6387329039       -7.6014065489    0   0   0
S             0.0000152751        3.6387340328      -10.7330757790    0   0   0
S            -1.5755906502        4.5484413613       -1.4877305502    0   0   0
Mo           -1.5730027246        4.5499268597        3.0452284837
Mo            0.0181299435        3.6397416610        9.1606944769
S            -1.5489477554        4.5638026847        7.5888070403
S             0.0034809055        3.6406024390        4.6123791794
S             0.0017079930        3.6398976849        1.4767309004
S            -1.5570734884        4.5591084628       10.7255786353
Mo           -3.1512226931        7.2774749019       -9.1672481230    0   0   0
Mo           -1.5755910988        6.3678216792       -3.0555115988    0   0   0
S            -3.1512162438        7.2774954350       -4.6232578178    0   0   0
S            -1.5756025210        6.3677884239       -7.6014065489    0   0   0
S            -1.5756020673        6.3677895528      -10.7330757790    0   0   0
S            -3.1512127704        7.2774877076       -1.4877200710    0   0   0
Mo           -3.1486940663        7.2789146626        3.0446594221
Mo           -1.5656662500        6.3829615586        9.1606945885
S            -3.1249059479        7.2922203149        7.5810502562
S            -1.5722537605        6.3698638747        4.6123810126
S            -1.5737535591        6.3686833202        1.4767320823
S            -3.1422290413        7.2985399738       10.7251980740
Mo           -4.7268400355       10.0065304219       -9.1672481230    0   0   0
Mo           -3.1512405618        9.0968403586       -3.0554816746    0   0   0
S            -4.7268341792       10.0065523623       -4.6232463762    0   0   0
S            -3.1512198634        9.0968439439       -7.6014065489    0   0   0
S            -3.1512194097        9.0968450728      -10.7330757790    0   0   0
S            -4.7268370797       10.0065537885       -1.4877176751    0   0   0
Mo           -4.7241573872       10.0080854180        3.0451375222
Mo           -3.1268535334        9.1131502500        9.1500160098
S            -4.7005670929       10.0216904669        7.5801657886
S            -3.1481056600        9.0982113885        4.6123846050
S            -3.1488766193        9.0983710565        1.4772914862
S            -4.7001967751       10.0219082418       10.7196873873
Mo            3.1512517547        1.8193638619       -9.1672481230    0   0   0
Mo            4.7269020221        0.9097289540       -3.0554823951    0   0   0
S             3.1512612351        1.8193882564       -4.6232320683    0   0   0
S             4.7268719268        0.9096773839       -7.6014065489    0   0   0
S             4.7268723805        0.9096785128      -10.7330757790    0   0   0
S             3.1512592485        1.8193890201       -1.4877261251    0   0   0
Mo            3.1538301110        1.8209659007        3.0448634063
Mo            4.7543027768        0.9255088795        9.1511591373
S             3.1787049814        1.8379511657        7.5846687504
S             4.7295309356        0.9112179160        4.6126522427
S             4.7295448739        0.9112251990        1.4774374409
S             3.1813106623        1.8173949330       10.7261722183
Mo            1.5756344123        4.5484193819       -9.1672481230    0   0   0
Mo            3.1512756394        3.6387769522       -3.0554814834    0   0   0
S             1.5756504879        4.5484423799       -4.6232390542    0   0   0
S             3.1512545844        3.6387329039       -7.6014065489    0   0   0
S             3.1512550381        3.6387340328      -10.7330757790    0   0   0
S             1.5756466253        4.5484431864       -1.4877251801    0   0   0
Mo            1.5779800947        4.5501435485        3.0434756711
Mo            3.1825473079        3.6430005909        9.1652706078
S             1.6009853339        4.5858137566        7.6308502387
S             3.1528628694        3.6408660471        4.6124512924
S             3.1540076908        3.6398837416        1.4768250451
S             1.5972956636        4.4631164920       10.7701932203
Mo            0.0000170699        7.2774749019       -9.1672481230    0   0   0
Mo            1.5756764447        6.3678236689       -3.0554877708    0   0   0
S             0.0000381981        7.2774979204       -4.6232454413    0   0   0
S             1.5756372420        6.3677884239       -7.6014065489    0   0   0
S             1.5756376957        6.3677895528      -10.7330757790    0   0   0
S             0.0000328088        7.2774946042       -1.4877307940    0   0   0
Mo            0.0026795314        7.2786511381        3.0434765012
Mo            1.5968401885        6.3800184133        9.2349782630
S             0.0450880806        7.2807201000        7.6308542223
S             1.5779139301        6.3691086358        4.6109339412
S             1.5779053526        6.3691048535        1.4754283331
S            -0.0630034706        7.3388600036       10.7701848487
Mo           -1.5756002725       10.0065304219       -9.1672481230    0   0   0
Mo            0.0000873425        9.0968676911       -3.0554912329    0   0   0
S            -1.5755883952       10.0065504530       -4.6232240150    0   0   0
S             0.0000198996        9.0968439439       -7.6014065489    0   0   0
S             0.0000203533        9.0968450728      -10.7330757790    0   0   0
S            -1.5755859047       10.0065492576       -1.4877362381    0   0   0
Mo           -1.5729261345       10.0079691857        3.0448646891
Mo            0.0193689188        9.1218013770        9.1652814015
S            -1.5457619246       10.0209984260        7.5846744599
S             0.0026667887        9.0971787881        4.6124517742
S             0.0023853172        9.0986614829        1.4768246407
S            -1.5622669758       10.0335395086       10.7261793883
Mo            6.3024915177        1.8193638619       -9.1672481230    0   0   0
Mo            7.8781001445        0.9096521684       -3.0554919963    0   0   0
S             6.3025008696        1.8193826232       -4.6232480596    0   0   0
S             7.8781116898        0.9096773839       -7.6014065489    0   0   0
S             7.8781121435        0.9096785128      -10.7330757790    0   0   0
S             6.3025042007        1.8193849068       -1.4877147524    0   0   0
Mo            6.3050628040        1.8208536277        3.0453155047
Mo            7.9040837576        0.9266047211        9.1547271802
S             6.3311008223        1.8358729014        7.5839973365
S             7.8806824376        0.9106355072        4.6128046936
S             7.8805497332        0.9110434338        1.4777255160
S             6.3296042797        1.8350134013       10.7244496436
Mo            4.7268741753        4.5484193819       -9.1672481230    0   0   0
Mo            6.3024679138        3.6387501714       -3.0554895197    0   0   0
S             4.7268748770        4.5484386753       -4.6232519432    0   0   0
S             6.3024943474        3.6387329039       -7.6014065489    0   0   0
S             6.3024948011        3.6387340328      -10.7330757790    0   0   0
S             4.7268770533        4.5484432419       -1.4877137856    0   0   0
Mo            4.7290575526        4.5500568650        3.0452037784
Mo            6.3301464314        3.6527558064        9.1547230259
S             4.7508938541        4.5646711674        7.5923521222
S             6.3046049420        3.6404904168        4.6128057685
S             6.3048924009        3.6401736345        1.4777270256
S             4.7605420302        4.5587499739       10.7295076531
Mo            3.1512568329        7.2774749019       -9.1672481230    0   0   0
Mo            4.7268384135        6.3678043337       -3.0554959052    0   0   0
S             3.1512606125        7.2774972547       -4.6232589675    0   0   0
S             4.7268770050        6.3677884239       -7.6014065489    0   0   0
S             4.7268774587        6.3677895528      -10.7330757790    0   0   0
S             3.1512629079        7.2774963749       -1.4877081835    0   0   0
Mo            3.1532567993        7.2786350274        3.0439278825
Mo            4.7672338914        6.3815732968        9.1639394679
S             3.1539597207        7.2790279613        7.6326753758
S             4.7285381787        6.3698237905        4.6128508430
S             4.7293112052        6.3689336640        1.4770844885
S             3.2527297076        7.3360435501       10.7594596199
Mo            1.5756394905       10.0065304219       -9.1672481230    0   0   0
Mo            3.1512330605        9.0968514907       -3.0554878870    0   0   0
S             1.5756499830       10.0065443759       -4.6232632674    0   0   0
S             3.1512596626        9.0968439439       -7.6014065489    0   0   0
S             3.1512601163        9.0968450728      -10.7330757790    0   0   0
S             1.5756503041       10.0065459699       -1.4877044377    0   0   0
Mo            1.5781445139       10.0076088725        3.0452019803
Mo            3.1833811229        9.1248843519        9.1639495878
S             1.6017303263       10.0191924898        7.5923605556
S             3.1538454055        9.0972739597        4.6128507193
S             3.1534599037        9.0983871715        1.4770826359
S             1.6014288192       10.0305118305       10.7295163024
Mo            9.4537312807        1.8193638619       -9.1672481230    0   0   0
Mo           11.0293863460        0.9096952246       -3.0554894007    0   0   0
S             9.4537395970        1.8193770750       -4.6232328036    0   0   0
S            11.0293514528        0.9096773839       -7.6014065489    0   0   0
S            11.0293519066        0.9096785128      -10.7330757790    0   0   0
S             9.4537393632        1.8193794783       -1.4877366147    0   0   0
Mo            9.4561881991        1.8207047164        3.0455278136
Mo           11.0565574637        0.9233165525        9.1491363393
S             9.4782542562        1.8330700107        7.5831468970
S            11.0322832457        0.9109536279        4.6124424055
S            11.0312719046        0.9110387579        1.4773319033
S             9.4818079199        1.8347760603       10.7207043931
Mo            7.8781139383        4.5484193819       -9.1672481230    0   0   0
Mo            9.4537539161        3.6387607911       -3.0554933032    0   0   0
S             7.8781175448        4.5484378232       -4.6232366318    0   0   0
S             9.4537341104        3.6387329039       -7.6014065489    0   0   0
S             9.4537345641        3.6387340328      -10.7330757790    0   0   0
S             7.8781194018        4.5484411585       -1.4877377057    0   0   0
Mo            7.8805007751        4.5498870350        3.0455292464
Mo            9.4777674172        3.6526037355        9.1518166671
S             7.9022556396        4.5627994073        7.5831454769
S             9.4566533458        3.6404238401        4.6130491182
S             9.4558234374        3.6399481114        1.4780864941
S             7.9055061199        4.5650226999       10.7207009857
Mo            6.3024965959        7.2774749019       -9.1672481230    0   0   0
Mo            7.8781361655        6.3678242352       -3.0555014130    0   0   0
S             6.3024973331        7.2774953556       -4.6232392528    0   0   0
S             7.8781167680        6.3677884239       -7.6014065489    0   0   0
S             7.8781172217        6.3677895528      -10.7330757790    0   0   0
S             6.3024989866        7.2774929744       -1.4877349119    0   0   0
Mo            6.3047864834        7.2789136792        3.0448272924
Mo            7.9035427285        6.3845278839        9.1491347716
S             6.3249100723        7.2914347773        7.5832111232
S             7.8806854031        6.3697036005        4.6124436702
S             7.8802535231        6.3687850700        1.4773353823
S             6.3459290129        7.2994378959       10.7264381374
Mo            4.7268792535       10.0065304219       -9.1672481230    0   0   0
Mo            6.3025111524        9.0968738021       -3.0554915260    0   0   0
S             4.7268840634       10.0065452125       -4.6232380477    0   0   0
S             6.3024994256        9.0968439439       -7.6014065489    0   0   0
S             6.3024998793        9.0968450728      -10.7330757790    0   0   0
S             4.7268847312       10.0065459141       -1.4877283294    0   0   0
Mo            4.7292615704       10.0078025626        3.0448258353
Mo            6.3303212298        9.1129018355        9.1504466643
S             4.7501739173       10.0189473551        7.5832153447
S             6.3049768099        9.0982848747        4.6122183701
S             6.3050862494        9.0983462772        1.4773048874
S             4.7676218875       10.0331507745       10.7264427250
Pd            1.6269390965        6.3974276650       12.1568234658
H             1.8189960798        6.5086964598       13.7361701341
End final coordinates



     Writing all to output data dir ./outdir/pwscf.save/
 
     init_run     :     24.83s CPU     26.77s WALL (       1 calls)
     electrons    : 154820.19s CPU 157073.71s WALL (      18 calls)
     update_pot   :     98.95s CPU     99.38s WALL (      17 calls)
     forces       :   2179.61s CPU   2233.33s WALL (      18 calls)
     force_dftd3  :     14.58s CPU     15.57s WALL (      18 calls)

     Called by init_run:
     wfcinit      :      0.26s CPU      0.26s WALL (       1 calls)
     potinit      :      1.40s CPU      1.96s WALL (       1 calls)
     hinit0       :     16.39s CPU     16.40s WALL (       1 calls)

     Called by electrons:
     c_bands      : 139041.54s CPU 140615.34s WALL (     228 calls)
     sum_band     :  14830.44s CPU  15219.72s WALL (     228 calls)
     v_of_rho     :    113.16s CPU    115.40s WALL (     229 calls)
     newd         :    617.94s CPU    921.88s WALL (     229 calls)
     PAW_pot      :    168.24s CPU    168.21s WALL (     246 calls)
     mix_rho      :     27.65s CPU     27.65s WALL (     228 calls)
     energy_dftd3 :      6.34s CPU      6.35s WALL (      18 calls)

     Called by c_bands:
     init_us_2    :    567.28s CPU    567.76s WALL (    1962 calls)
     init_us_2:cp :    567.27s CPU    567.76s WALL (    1962 calls)
     cegterg      : 137111.26s CPU 137966.88s WALL (     910 calls)

     Called by *egterg:
     cdiaghg      :   8955.78s CPU   8983.50s WALL (   12291 calls)
     h_psi        :  72478.90s CPU  72747.78s WALL (   12429 calls)
     s_psi        :  15583.45s CPU  15638.03s WALL (   12429 calls)
     g_psi        :    131.32s CPU    131.52s WALL (   11519 calls)

     Called by h_psi:
     h_psi:calbec :  15365.15s CPU  15368.27s WALL (   12429 calls)
     vloc_psi     :  41288.10s CPU  41378.18s WALL (   12429 calls)
     add_vuspsi   :  15670.68s CPU  15727.22s WALL (   12429 calls)

     General routines
     calbec       :  21898.72s CPU  21903.16s WALL (   13697 calls)
     fft          :    105.04s CPU    107.35s WALL (    3173 calls)
     ffts         :      5.78s CPU      5.89s WALL (     457 calls)
     fftw         :  34072.77s CPU  34153.91s WALL ( 6535872 calls)
     interpolate  :     11.88s CPU     11.96s WALL (     229 calls)
     davcio       :      0.00s CPU      3.60s WALL (       4 calls)
 
     Parallel routines
 
     PWSCF        :   1d19h49m CPU   1d20h29m WALL

 
   This run was terminated on:   4:18:32   4Sep2023            

=------------------------------------------------------------------------------=
   JOB DONE.
=------------------------------------------------------------------------------=
Application 11123270 resources: utime ~5705277s, stime ~59982s, Rss ~3495112, inblocks ~0, outblocks ~56607296
