
     Program PWSCF v.7.3 starts on 28Mar2024 at 16:38:22 

     This program is part of the open-source Quantum ESPRESSO suite
     for quantum simulation of materials; please cite
         "P. Giannozzi et al., J. Phys.:Condens. Matter 21 395502 (2009);
         "P. Giannozzi et al., J. Phys.:Condens. Matter 29 465901 (2017);
         "P. Giannozzi et al., J. Chem. Phys. 152 154105 (2020);
          URL http://www.quantum-espresso.org", 
     in publications or presentations arising from this work. More details at
     http://www.quantum-espresso.org/quote

     Parallel version (MPI & OpenMP), running on      36 processor cores
     Number of MPI processes:                36
     Threads/MPI process:                     1

     MPI processes distributed on     1 nodes
     551732 MiB available memory on the printing compute node when the environment starts
 
     Waiting for input...
     Reading input from standard input
Warning: card &CELL ignored
Warning: card / ignored

     Current dimensions of program PWSCF are:
     Max number of different atomic species (ntypx) = 10
     Max number of k-points (npk) =  40000
     Max angular momentum in pseudopotentials (lmaxx) =  4
     file Mo.pbe-spn-kjpaw_psl.1.0.0.UPF: wavefunction(s)  4S 4D renormalized
     file S.pbe-n-kjpaw_psl.1.0.0.UPF: wavefunction(s)  3S 3P renormalized
     file Pt.pbe-spfn-kjpaw_psl.1.0.0.UPF: wavefunction(s)  5P 4F renormalized
     file Pd.pbe-spn-kjpaw_psl.1.0.0.UPF: wavefunction(s)  4S 5S 4D renormalized
 
     R & G space division:  proc/nbgrp/npool/nimage =      36
     Subspace diagonalization in iterative solution of the eigenvalue problem:
     one sub-group per band group will be used
     scalapack distributed-memory algorithm (size of sub-group:  6*  6 procs)

 
     Parallelization info
     --------------------
     sticks:   dense  smooth     PW     G-vecs:    dense   smooth      PW
     Min         586     335     89               165416    71459    9765
     Max         587     337     90               165425    71461    9778
     Sum       21109   12085   3205              5955087  2572543  351657
 
     Using Slab Decomposition
 


     bravais-lattice index     =            0
     lattice parameter (alat)  =      23.8395  a.u.
     unit-cell volume          =   28182.8498 (a.u.)^3
     number of atoms/cell      =          147
     number of atomic types    =            4
     number of electrons       =      1330.00
     number of Kohn-Sham states=          798
     kinetic-energy cutoff     =      77.0000  Ry
     charge density cutoff     =     539.0000  Ry
     scf convergence threshold =      1.0E-06
     mixing beta               =       0.2000
     number of iterations used =            8  plain     mixing
     energy convergence thresh.=      1.0E-04
     force convergence thresh. =      1.0E-03
     Exchange-correlation= SLA  PW   PBX  PBC
                           (   1   4   3   4   0   0   0)
     nstep                     =         1000


     Effective Screening Medium Method
     =================================
     Boundary Conditions: Vacuum-Slab-Vacuum
     total charge in unit cell        =   0.0000
     grid points for fit at edges     =        4 
 

     celldm(1)=  23.839504  celldm(2)=   0.000000  celldm(3)=   0.000000
     celldm(4)=   0.000000  celldm(5)=   0.000000  celldm(6)=   0.000000

     crystal axes: (cart. coord. in units of alat)
               a(1) = (   1.000000   0.000000   0.000000 )  
               a(2) = (  -0.500001   0.866026   0.000000 )  
               a(3) = (   0.000000   0.000000   2.401941 )  

     reciprocal axes: (cart. coord. in units 2 pi/alat)
               b(1) = (  1.000000  0.577351  0.000000 )  
               b(2) = (  0.000000  1.154700  0.000000 )  
               b(3) = (  0.000000  0.000000  0.416330 )  


     PseudoPot. # 1 for Mo read from file:
     ./pseudo/Mo.pbe-spn-kjpaw_psl.1.0.0.UPF
     MD5 check sum: 317bf72632116215fd98f72de1686f13
     Pseudo is Projector augmented-wave + core cor, Zval = 14.0
     Generated using 'atomic' code by A. Dal Corso  v.7.2
     Shape of augmentation charge: PSQ
     Using radial grid of 1229 points,  6 beta functions with: 
                l(1) =   0
                l(2) =   0
                l(3) =   1
                l(4) =   1
                l(5) =   2
                l(6) =   2
     Q(r) pseudized with 0 coefficients 


     PseudoPot. # 2 for S  read from file:
     ./pseudo/S.pbe-n-kjpaw_psl.1.0.0.UPF
     MD5 check sum: 8b7b5302570d38d5e87fed6a1065abda
     Pseudo is Projector augmented-wave + core cor, Zval =  6.0
     Generated using 'atomic' code by A. Dal Corso  v.7.2
     Shape of augmentation charge: PSQ
     Using radial grid of 1151 points,  6 beta functions with: 
                l(1) =   0
                l(2) =   0
                l(3) =   1
                l(4) =   1
                l(5) =   2
                l(6) =   2
     Q(r) pseudized with 0 coefficients 


     PseudoPot. # 3 for Pt read from file:
     ./pseudo/Pt.pbe-spfn-kjpaw_psl.1.0.0.UPF
     MD5 check sum: 620096ebf4e6ebacc94de60fd67efcb5
     Pseudo is Projector augmented-wave + core cor, Zval = 32.0
     Generated using 'atomic' code by A. Dal Corso  v.7.2
     Shape of augmentation charge: PSQ
     Using radial grid of 1277 points,  8 beta functions with: 
                l(1) =   0
                l(2) =   0
                l(3) =   1
                l(4) =   1
                l(5) =   2
                l(6) =   2
                l(7) =   3
                l(8) =   3
     Q(r) pseudized with 0 coefficients 


     PseudoPot. # 4 for Pd read from file:
     ./pseudo/Pd.pbe-spn-kjpaw_psl.1.0.0.UPF
     MD5 check sum: a60571a671f2502b8a6a4569d20a6edb
     Pseudo is Projector augmented-wave + core cor, Zval = 18.0
     Generated using 'atomic' code by A. Dal Corso  v.7.2
     Shape of augmentation charge: PSQ
     Using radial grid of 1235 points,  6 beta functions with: 
                l(1) =   0
                l(2) =   0
                l(3) =   1
                l(4) =   1
                l(5) =   2
                l(6) =   2
     Q(r) pseudized with 0 coefficients 


     atomic species   valence    mass     pseudopotential
     Mo               14.00    95.95000     Mo( 1.00)
     S                 6.00    32.06000     S ( 1.00)
     Pt               32.00   195.08400     Pt( 1.00)
     Pd               18.00   106.42000     Pd( 1.00)

     No symmetry found



   Cartesian axes

     site n.     atom                  positions (alat units)
         1        Mo     tau(   1) = (   0.1245154   0.2145629   0.4838883  )
         2        Mo     tau(   2) = (   0.1250004   0.0721694  -0.4825273  )
         3        Mo     tau(   3) = (   0.0000425   0.1442456   0.0000619  )
         4        S      tau(   4) = (   0.0000004   0.0000006  -0.6064556  )
         5        S      tau(   5) = (   0.1250289   0.0721378  -0.1240905  )
         6        S      tau(   6) = (   0.0004348   0.1425943   0.3589312  )
         7        S      tau(   7) = (   0.0000004   0.0000005  -0.3584711  )
         8        S      tau(   8) = (   0.1250590   0.0720566   0.1242171  )
         9        S      tau(   9) = (  -0.0003812   0.1430770   0.6082257  )
        10        Mo     tau(  10) = (  -0.0007514   0.4316905   0.4830160  )
        11        Mo     tau(  11) = (   0.0000001   0.2886759  -0.4825273  )
        12        Mo     tau(  12) = (  -0.1249521   0.3607434   0.0000147  )
        13        S      tau(  13) = (  -0.1249999   0.2165071  -0.6064556  )
        14        S      tau(  14) = (   0.0000696   0.2885943  -0.1240368  )
        15        S      tau(  15) = (  -0.1243620   0.3589267   0.3580713  )
        16        S      tau(  16) = (  -0.1249998   0.2165070  -0.3584711  )
        17        S      tau(  17) = (   0.0000810   0.2885804   0.1243185  )
        18        S      tau(  18) = (  -0.1257647   0.3594678   0.6068568  )
        19        Mo     tau(  19) = (  -0.1258132   0.6483948   0.4805624  )
        20        Mo     tau(  20) = (  -0.1250002   0.5051824  -0.4825273  )
        21        Mo     tau(  21) = (  -0.2499883   0.5772682  -0.0000419  )
        22        S      tau(  22) = (  -0.2500002   0.4330136  -0.6064556  )
        23        S      tau(  23) = (  -0.1249379   0.5050979  -0.1240947  )
        24        S      tau(  24) = (  -0.2506625   0.5759186   0.3568926  )
        25        S      tau(  25) = (  -0.2500001   0.4330135  -0.3584711  )
        26        S      tau(  26) = (  -0.1250441   0.5050577   0.1241569  )
        27        S      tau(  27) = (  -0.2487337   0.5760113   0.6060824  )
        28        Mo     tau(  28) = (   0.2499313  -0.0010413   0.4821860  )
        29        Mo     tau(  29) = (  -0.2500004   0.7216889  -0.4825273  )
        30        Mo     tau(  30) = (  -0.3749657   0.7937917  -0.0000260  )
        31        S      tau(  31) = (  -0.3750004   0.6495201  -0.6064556  )
        32        S      tau(  32) = (  -0.2499441   0.7216334  -0.1241298  )
        33        S      tau(  33) = (  -0.3753987   0.7929794   0.3583883  )
        34        S      tau(  34) = (  -0.3750004   0.6495200  -0.3584711  )
        35        S      tau(  35) = (  -0.2499697   0.7216106   0.1241587  )
        36        S      tau(  36) = (  -0.3740548   0.7924718   0.6070428  )
        37        Mo     tau(  37) = (   0.3754903   0.2138312   0.4824355  )
        38        Mo     tau(  38) = (   0.3750004   0.0721694  -0.4825273  )
        39        Mo     tau(  39) = (   0.2500190   0.1443049   0.0000251  )
        40        S      tau(  40) = (   0.2500004   0.0000006  -0.6064556  )
        41        S      tau(  41) = (   0.3750395   0.0721655  -0.1240658  )
        42        S      tau(  42) = (   0.2492498   0.1434297   0.3583124  )
        43        S      tau(  43) = (   0.2500004   0.0000005  -0.3584711  )
        44        S      tau(  44) = (   0.3749990   0.0721134   0.1242290  )
        45        S      tau(  45) = (   0.2505186   0.1425747   0.6070242  )
        46        Mo     tau(  46) = (   0.2489619   0.4303408   0.4857216  )
        47        Mo     tau(  47) = (   0.2500001   0.2886759  -0.4825273  )
        48        Mo     tau(  48) = (   0.1250526   0.3607813   0.0000840  )
        49        S      tau(  49) = (   0.1250001   0.2165071  -0.6064556  )
        50        S      tau(  50) = (   0.2500419   0.2886606  -0.1240379  )
        51        S      tau(  51) = (   0.1261759   0.3597087   0.3613462  )
        52        S      tau(  52) = (   0.1250002   0.2165070  -0.3584711  )
        53        S      tau(  53) = (   0.2500376   0.2886120   0.1243390  )
        54        S      tau(  54) = (   0.1185564   0.3555008   0.6138384  )
        55        Mo     tau(  55) = (   0.1202279   0.6507949   0.4802728  )
        56        Mo     tau(  56) = (   0.1249998   0.5051824  -0.4825273  )
        57        Mo     tau(  57) = (   0.0000374   0.5772595   0.0000671  )
        58        S      tau(  58) = (  -0.0000002   0.4330136  -0.6064556  )
        59        S      tau(  59) = (   0.1250566   0.5051315  -0.1240039  )
        60        S      tau(  60) = (  -0.0017492   0.5751181   0.3561394  )
        61        S      tau(  61) = (  -0.0000001   0.4330135  -0.3584711  )
        62        S      tau(  62) = (   0.1250592   0.5050887   0.1243806  )
        63        S      tau(  63) = (  -0.0025886   0.5770810   0.6054654  )
        64        Mo     tau(  64) = (   0.4997787  -0.0005006   0.4806072  )
        65        Mo     tau(  65) = (  -0.0000004   0.7216889  -0.4825273  )
        66        Mo     tau(  66) = (  -0.1249578   0.7938077  -0.0000124  )
        67        S      tau(  67) = (  -0.1250004   0.6495201  -0.6064556  )
        68        S      tau(  68) = (   0.0000912   0.7216231  -0.1240278  )
        69        S      tau(  69) = (  -0.1257861   0.7933803   0.3568273  )
        70        S      tau(  70) = (  -0.1250004   0.6495200  -0.3584711  )
        71        S      tau(  71) = (  -0.0000101   0.7216131   0.1242707  )
        72        S      tau(  72) = (  -0.1247631   0.7926968   0.6053221  )
        73        Mo     tau(  73) = (   0.6254983   0.2150747   0.4816248  )
        74        Mo     tau(  74) = (   0.6250004   0.0721694  -0.4825273  )
        75        Mo     tau(  75) = (   0.5000176   0.1443256   0.0000522  )
        76        S      tau(  76) = (   0.5000004   0.0000006  -0.6064556  )
        77        S      tau(  77) = (   0.6250309   0.0721123  -0.1240107  )
        78        S      tau(  78) = (   0.5001073   0.1438670   0.3568675  )
        79        S      tau(  79) = (   0.5000004   0.0000005  -0.3584711  )
        80        S      tau(  80) = (   0.6250184   0.0721649   0.1242372  )
        81        S      tau(  81) = (   0.5008579   0.1421657   0.6061011  )
        82        Mo     tau(  82) = (   0.5020927   0.4305259   0.4835992  )
        83        Mo     tau(  83) = (   0.5000001   0.2886759  -0.4825273  )
        84        Mo     tau(  84) = (   0.3750096   0.3608300   0.0000853  )
        85        S      tau(  85) = (   0.3750001   0.2165071  -0.6064556  )
        86        S      tau(  86) = (   0.5000130   0.2886647  -0.1240153  )
        87        S      tau(  87) = (   0.3740918   0.3603366   0.3614179  )
        88        S      tau(  88) = (   0.3750002   0.2165070  -0.3584711  )
        89        S      tau(  89) = (   0.4999600   0.2886676   0.1243287  )
        90        S      tau(  90) = (   0.3826295   0.3540684   0.6107884  )
        91        Mo     tau(  91) = (   0.3754347   0.6495598   0.4856131  )
        92        Mo     tau(  92) = (   0.3749998   0.5051824  -0.4825273  )
        93        Mo     tau(  93) = (   0.2500442   0.5772815   0.0001210  )
        94        S      tau(  94) = (   0.2499998   0.4330136  -0.6064556  )
        95        S      tau(  95) = (   0.3750010   0.5051487  -0.1240235  )
        96        S      tau(  96) = (   0.2505704   0.5754266   0.3628441  )
        97        S      tau(  97) = (   0.2499999   0.4330135  -0.3584711  )
        98        S      tau(  98) = (   0.3750559   0.5051422   0.1243805  )
        99        S      tau(  99) = (   0.2381374   0.5825819   0.6067890  )
       100        Mo     tau( 100) = (   0.7497549  -0.0007739   0.4829754  )
       101        Mo     tau( 101) = (   0.2499996   0.7216889  -0.4825273  )
       102        Mo     tau( 102) = (   0.1250535   0.7937975   0.0001168  )
       103        S      tau( 103) = (   0.1249996   0.6495201  -0.6064556  )
       104        S      tau( 104) = (   0.2500248   0.7216238  -0.1239807  )
       105        S      tau( 105) = (   0.1250865   0.7943282   0.3561776  )
       106        S      tau( 106) = (   0.1249996   0.6495200  -0.3584711  )
       107        S      tau( 107) = (   0.2500804   0.7215701   0.1244010  )
       108        S      tau( 108) = (   0.1230625   0.7940424   0.6054764  )
       109        Mo     tau( 109) = (  -0.1247968   0.2149139   0.4827366  )
       110        Mo     tau( 110) = (   0.8750004   0.0721694  -0.4825273  )
       111        Mo     tau( 111) = (   0.7500535   0.1442576   0.0000659  )
       112        S      tau( 112) = (   0.7500004   0.0000006  -0.6064556  )
       113        S      tau( 113) = (   0.8750311   0.0720720  -0.1240212  )
       114        S      tau( 114) = (   0.7507437   0.1426622   0.3580001  )
       115        S      tau( 115) = (   0.7500004   0.0000005  -0.3584711  )
       116        S      tau( 116) = (   0.8750679   0.0720215   0.1243391  )
       117        S      tau( 117) = (   0.7495917   0.1435798   0.6069484  )
       118        Mo     tau( 118) = (  -0.2495513   0.4315827   0.4815648  )
       119        Mo     tau( 119) = (   0.7500001   0.2886759  -0.4825273  )
       120        Mo     tau( 120) = (   0.6250173   0.3607849   0.0000853  )
       121        S      tau( 121) = (   0.6250001   0.2165071  -0.6064556  )
       122        S      tau( 122) = (   0.7500100   0.2885948  -0.1240341  )
       123        S      tau( 123) = (   0.6253146   0.3594994   0.3574324  )
       124        S      tau( 124) = (   0.6250002   0.2165070  -0.3584711  )
       125        S      tau( 125) = (   0.7500616   0.2885920   0.1242759  )
       126        S      tau( 126) = (   0.6276913   0.3582815   0.6066892  )
       127        Mo     tau( 127) = (  -0.3734392   0.6486538   0.4825126  )
       128        Mo     tau( 128) = (   0.6249998   0.5051824  -0.4825273  )
       129        Mo     tau( 129) = (   0.5000108   0.5772931   0.0000391  )
       130        S      tau( 130) = (   0.4999998   0.4330136  -0.6064556  )
       131        S      tau( 131) = (   0.6249933   0.5050874  -0.1240675  )
       132        S      tau( 132) = (   0.4990505   0.5765481   0.3615193  )
       133        S      tau( 133) = (   0.4999999   0.4330135  -0.3584711  )
       134        S      tau( 134) = (   0.6249857   0.5051595   0.1242674  )
       135        S      tau( 135) = (   0.5084858   0.5722242   0.6106609  )
       136        Mo     tau( 136) = (   0.0003958  -0.0008070   0.4838665  )
       137        Mo     tau( 137) = (   0.4999996   0.7216889  -0.4825273  )
       138        Mo     tau( 138) = (   0.3750498   0.7937581   0.0000905  )
       139        S      tau( 139) = (   0.3749996   0.6495201  -0.6064556  )
       140        S      tau( 140) = (   0.5000109   0.7216246  -0.1240696  )
       141        S      tau( 141) = (   0.3755073   0.7912798   0.3612018  )
       142        S      tau( 142) = (   0.3749996   0.6495200  -0.3584711  )
       143        S      tau( 143) = (   0.5000873   0.7215932   0.1243026  )
       144        S      tau( 144) = (   0.3753273   0.8000111   0.6138078  )
       145        Pt     tau( 145) = (   0.2576892   0.4411371   0.7122167  )
       146        Pt     tau( 146) = (   0.3705587   0.6371970   0.7119237  )
       147        Pd     tau( 147) = (   0.5020879   0.4305082   0.7375951  )

     --------------------------------------------
     DFT-D3 Dispersion Correction (3-body terms):
     --------------------------------------------
       Reference C6 values for interpolation: 

         atom   Coordination number   C6
         S          0.000           268.01
         S          0.995           261.99
         S          1.990           251.62
         Mo         0.000          1691.79
         Mo         1.942          1004.01
         Mo        11.056           674.22
         Pd         0.000          1217.01
         Pd         1.863           573.90
         Pd         5.710           531.75
         Pt         0.000           782.29
         Pt         1.919           692.72
         Pt         6.667           673.75

       Values used:

         atom   Coordination number  R0_AB[au]  C6      C8
         Mo        10.221            3.547    674.22  77634.20
         Mo        10.189            3.547    674.22  77634.20
         Mo        10.201            3.547    674.22  77634.20
         S          3.753            3.128    251.62  12327.25
         S          3.858            3.128    251.62  12327.25
         S          3.859            3.128    251.62  12327.25
         S          3.858            3.128    251.62  12327.25
         S          3.859            3.128    251.62  12327.25
         S          3.815            3.128    251.62  12327.25
         Mo        10.208            3.547    674.22  77634.20
         Mo        10.189            3.547    674.22  77634.20
         Mo        10.200            3.547    674.22  77634.20
         S          3.753            3.128    251.62  12327.25
         S          3.858            3.128    251.62  12327.25
         S          3.858            3.128    251.62  12327.25
         S          3.858            3.128    251.62  12327.25
         S          3.854            3.128    251.62  12327.25
         S          3.808            3.128    251.62  12327.25
         Mo        10.273            3.547    674.22  77634.20
         Mo        10.189            3.547    674.22  77634.20
         Mo        10.200            3.547    674.22  77634.20
         S          3.753            3.128    251.62  12327.25
         S          3.858            3.128    251.62  12327.25
         S          3.855            3.128    251.62  12327.25
         S          3.858            3.128    251.62  12327.25
         S          3.864            3.128    251.62  12327.25
         S          3.827            3.128    251.62  12327.25
         Mo        10.240            3.547    674.22  77634.20
         Mo        10.189            3.547    674.22  77634.20
         Mo        10.201            3.547    674.22  77634.20
         S          3.753            3.128    251.62  12327.25
         S          3.857            3.128    251.62  12327.25
         S          3.867            3.128    251.62  12327.25
         S          3.858            3.128    251.62  12327.25
         S          3.862            3.128    251.62  12327.25
         S          3.762            3.128    251.62  12327.25
         Mo        10.212            3.547    674.21  77634.20
         Mo        10.189            3.547    674.22  77634.20
         Mo        10.201            3.547    674.22  77634.20
         S          3.753            3.128    251.62  12327.25
         S          3.858            3.128    251.62  12327.25
         S          3.865            3.128    251.62  12327.25
         S          3.858            3.128    251.62  12327.25
         S          3.862            3.128    251.62  12327.25
         S          3.763            3.128    251.62  12327.25
         Mo        10.827            3.547    674.22  77634.20
         Mo        10.189            3.547    674.22  77634.20
         Mo        10.202            3.547    674.22  77634.20
         S          3.753            3.128    251.62  12327.25
         S          3.858            3.128    251.62  12327.25
         S          3.845            3.128    251.62  12327.25
         S          3.858            3.128    251.62  12327.25
         S          3.853            3.128    251.62  12327.25
         S          4.626            3.128    251.62  12327.25
         Mo        10.153            3.547    674.22  77634.20
         Mo        10.189            3.547    674.22  77634.20
         Mo        10.200            3.547    674.22  77634.20
         S          3.753            3.128    251.62  12327.25
         S          3.858            3.128    251.62  12327.25
         S          3.837            3.128    251.62  12327.25
         S          3.858            3.128    251.62  12327.25
         S          3.851            3.128    251.62  12327.25
         S          3.837            3.128    251.62  12327.25
         Mo        10.272            3.547    674.22  77634.20
         Mo        10.189            3.547    674.22  77634.20
         Mo        10.199            3.547    674.22  77634.20
         S          3.753            3.128    251.62  12327.25
         S          3.858            3.128    251.62  12327.25
         S          3.856            3.128    251.62  12327.25
         S          3.858            3.128    251.62  12327.25
         S          3.862            3.128    251.62  12327.25
         S          3.791            3.128    251.62  12327.25
         Mo        10.252            3.547    674.22  77634.20
         Mo        10.189            3.547    674.22  77634.20
         Mo        10.200            3.547    674.22  77634.20
         S          3.753            3.128    251.62  12327.25
         S          3.858            3.128    251.62  12327.25
         S          3.854            3.128    251.62  12327.25
         S          3.858            3.128    251.62  12327.25
         S          3.863            3.128    251.62  12327.25
         S          3.825            3.128    251.62  12327.25
         Mo        10.505            3.547    674.22  77634.20
         Mo        10.189            3.547    674.22  77634.20
         Mo        10.202            3.547    674.22  77634.20
         S          3.753            3.128    251.62  12327.25
         S          3.858            3.128    251.62  12327.25
         S          3.857            3.128    251.62  12327.25
         S          3.858            3.128    251.62  12327.25
         S          3.857            3.128    251.62  12327.25
         S          5.605            3.128    251.62  12327.25
         Mo        10.825            3.547    674.22  77634.20
         Mo        10.189            3.547    674.22  77634.20
         Mo        10.202            3.547    674.22  77634.20
         S          3.753            3.128    251.62  12327.25
         S          3.858            3.128    251.62  12327.25
         S          3.874            3.128    251.62  12327.25
         S          3.858            3.128    251.62  12327.25
         S          3.848            3.128    251.62  12327.25
         S          5.678            3.128    251.62  12327.25
         Mo        10.209            3.547    674.22  77634.20
         Mo        10.189            3.547    674.22  77634.20
         Mo        10.200            3.547    674.22  77634.20
         S          3.753            3.128    251.62  12327.25
         S          3.858            3.128    251.62  12327.25
         S          3.837            3.128    251.62  12327.25
         S          3.858            3.128    251.62  12327.25
         S          3.851            3.128    251.62  12327.25
         S          3.836            3.128    251.62  12327.25
         Mo        10.229            3.547    674.22  77634.20
         Mo        10.189            3.547    674.22  77634.20
         Mo        10.200            3.547    674.22  77634.20
         S          3.753            3.128    251.62  12327.25
         S          3.858            3.128    251.62  12327.25
         S          3.859            3.128    251.62  12327.25
         S          3.858            3.128    251.62  12327.25
         S          3.854            3.128    251.62  12327.25
         S          3.807            3.128    251.62  12327.25
         Mo        10.250            3.547    674.22  77634.20
         Mo        10.189            3.547    674.22  77634.20
         Mo        10.201            3.547    674.22  77634.20
         S          3.753            3.128    251.62  12327.25
         S          3.858            3.128    251.62  12327.25
         S          3.846            3.128    251.62  12327.25
         S          3.858            3.128    251.62  12327.25
         S          3.859            3.128    251.62  12327.25
         S          4.735            3.128    251.62  12327.25
         Mo        10.210            3.547    674.22  77634.20
         Mo        10.189            3.547    674.22  77634.20
         Mo        10.202            3.547    674.22  77634.20
         S          3.753            3.128    251.62  12327.25
         S          3.858            3.128    251.62  12327.25
         S          3.858            3.128    251.62  12327.25
         S          3.858            3.128    251.62  12327.25
         S          3.858            3.128    251.62  12327.25
         S          5.605            3.128    251.62  12327.25
         Mo        10.221            3.547    674.22  77634.20
         Mo        10.189            3.547    674.22  77634.20
         Mo        10.202            3.547    674.22  77634.20
         S          3.753            3.128    251.62  12327.25
         S          3.858            3.128    251.62  12327.25
         S          3.843            3.128    251.62  12327.25
         S          3.858            3.128    251.62  12327.25
         S          3.853            3.128    251.62  12327.25
         S          4.628            3.128    251.62  12327.25
         Pt         4.866            3.168    673.75  70061.90
         Pt         4.866            3.168    673.75  70061.90
         Pd         3.794            3.168    550.03  50395.88

         Molecular C6 ( Ry / a.u.^6 ) =   8079715.52


     number of k points=     4  Gaussian smearing, width (Ry)=  0.0100
                       cart. coord. in units 2pi/alat
        k(    1) = (   0.0000000   0.0000000   0.0000000), wk =   0.5000000
        k(    2) = (   0.0000000  -0.5773499   0.0000000), wk =   0.5000000
        k(    3) = (  -0.5000000  -0.2886755   0.0000000), wk =   0.5000000
        k(    4) = (  -0.5000000  -0.8660254   0.0000000), wk =   0.5000000

     Dense  grid:  5955087 G-vectors     FFT dimensions: ( 180, 180, 432)

     Smooth grid:  2572543 G-vectors     FFT dimensions: ( 135, 135, 320)

     Estimated max dynamical RAM per process >       3.09 GB

     Estimated total dynamical RAM >     111.14 GB

     Initial potential from superposition of free atoms

     starting charge    1329.9539, renormalised to    1330.0000

     negative rho (up, down):  9.050E-04 0.000E+00
     Starting wfcs are  908 randomized atomic wfcs
     Checking if some PAW data can be deallocated... 

     total cpu time spent up to now is       98.8 secs

     Self-consistent Calculation

     iteration #  1     ecut=    77.00 Ry     beta= 0.20
     Davidson diagonalization with overlap
     ethr =  1.00E-02,  avg # of iterations =  2.0

     Threshold (ethr) on eigenvalues was too large:
     Diagonalizing with lowered threshold

     Davidson diagonalization with overlap
     ethr =  1.86E-04,  avg # of iterations = 16.5

     negative rho (up, down):  2.920E-04 0.000E+00

     total cpu time spent up to now is     1121.9 secs

     total energy              =  -27706.36603695 Ry
     estimated scf accuracy    <       4.99983656 Ry

     iteration #  2     ecut=    77.00 Ry     beta= 0.20
     Davidson diagonalization with overlap
     ethr =  3.76E-04,  avg # of iterations =  2.0

     negative rho (up, down):  4.813E-05 0.000E+00

     total cpu time spent up to now is     1343.1 secs

     total energy              =  -27705.42730896 Ry
     estimated scf accuracy    <       2.55625947 Ry

     iteration #  3     ecut=    77.00 Ry     beta= 0.20
     Davidson diagonalization with overlap
     ethr =  1.92E-04,  avg # of iterations = 18.8

     negative rho (up, down):  4.431E-05 0.000E+00

     total cpu time spent up to now is     1638.3 secs

     total energy              =  -27705.73936328 Ry
     estimated scf accuracy    <       1.79872747 Ry

     iteration #  4     ecut=    77.00 Ry     beta= 0.20
     Davidson diagonalization with overlap
     ethr =  1.35E-04,  avg # of iterations = 13.0

     negative rho (up, down):  3.051E-05 0.000E+00

     total cpu time spent up to now is     1885.7 secs

     total energy              =  -27705.79246281 Ry
     estimated scf accuracy    <       0.52542489 Ry

     iteration #  5     ecut=    77.00 Ry     beta= 0.20
     Davidson diagonalization with overlap
     c_bands:  1 eigenvalues not converged
     ethr =  3.95E-05,  avg # of iterations = 16.5

     negative rho (up, down):  4.463E-05 0.000E+00

     total cpu time spent up to now is     2621.8 secs

     total energy              =  -27706.37625035 Ry
     estimated scf accuracy    <       0.35233870 Ry

     iteration #  6     ecut=    77.00 Ry     beta= 0.20
     Davidson diagonalization with overlap
     ethr =  2.65E-05,  avg # of iterations =  4.0

     negative rho (up, down):  7.563E-05 0.000E+00

     total cpu time spent up to now is     2849.6 secs

     total energy              =  -27706.36881765 Ry
     estimated scf accuracy    <       0.18825286 Ry

     iteration #  7     ecut=    77.00 Ry     beta= 0.20
     Davidson diagonalization with overlap
     c_bands:  2 eigenvalues not converged
     ethr =  1.42E-05,  avg # of iterations = 18.2

     negative rho (up, down):  2.133E-04 0.000E+00

     total cpu time spent up to now is     3197.3 secs

     total energy              =  -27706.37694019 Ry
     estimated scf accuracy    <       0.09423094 Ry

     iteration #  8     ecut=    77.00 Ry     beta= 0.20
     Davidson diagonalization with overlap
     c_bands:  4 eigenvalues not converged
     c_bands:  3 eigenvalues not converged
     c_bands:  5 eigenvalues not converged
     ethr =  7.09E-06,  avg # of iterations = 33.0

     negative rho (up, down):  3.487E-04 0.000E+00

     total cpu time spent up to now is     3802.9 secs

     total energy              =  -27706.43245509 Ry
     estimated scf accuracy    <       0.05474695 Ry

     iteration #  9     ecut=    77.00 Ry     beta= 0.20
     Davidson diagonalization with overlap
     c_bands:  4 eigenvalues not converged
     c_bands:  1 eigenvalues not converged
     ethr =  4.12E-06,  avg # of iterations = 23.2

     negative rho (up, down):  4.022E-04 0.000E+00

     total cpu time spent up to now is     4157.2 secs

     total energy              =  -27706.43556168 Ry
     estimated scf accuracy    <       0.02187278 Ry

     iteration # 10     ecut=    77.00 Ry     beta= 0.20
     Davidson diagonalization with overlap
     c_bands:  3 eigenvalues not converged
     c_bands:  2 eigenvalues not converged
     ethr =  1.64E-06,  avg # of iterations = 34.5

     negative rho (up, down):  4.369E-04 0.000E+00

     total cpu time spent up to now is     4857.3 secs

     total energy              =  -27706.45395480 Ry
     estimated scf accuracy    <       0.00373878 Ry

     iteration # 11     ecut=    77.00 Ry     beta= 0.20
     Davidson diagonalization with overlap
     c_bands:  5 eigenvalues not converged
     ethr =  2.81E-07,  avg # of iterations = 22.8

     negative rho (up, down):  4.644E-04 0.000E+00

     total cpu time spent up to now is     5497.3 secs

     total energy              =  -27706.45846101 Ry
     estimated scf accuracy    <       0.00325517 Ry

     iteration # 12     ecut=    77.00 Ry     beta= 0.20
     Davidson diagonalization with overlap
     c_bands:  1 eigenvalues not converged
     ethr =  2.45E-07,  avg # of iterations =  6.5

     negative rho (up, down):  7.330E-04 0.000E+00

     total cpu time spent up to now is     5726.7 secs

     total energy              =  -27706.45724416 Ry
     estimated scf accuracy    <       0.00228467 Ry

     iteration # 13     ecut=    77.00 Ry     beta= 0.20
     Davidson diagonalization with overlap
     c_bands:  1 eigenvalues not converged
     ethr =  1.72E-07,  avg # of iterations = 16.0

     negative rho (up, down):  7.442E-04 0.000E+00

     total cpu time spent up to now is     6156.7 secs

     total energy              =  -27706.45853263 Ry
     estimated scf accuracy    <       0.00148949 Ry

     iteration # 14     ecut=    77.00 Ry     beta= 0.20
     Davidson diagonalization with overlap
     ethr =  1.12E-07,  avg # of iterations =  6.0

     negative rho (up, down):  7.647E-04 0.000E+00

     total cpu time spent up to now is     6386.7 secs

     total energy              =  -27706.45852534 Ry
     estimated scf accuracy    <       0.00041626 Ry

     iteration # 15     ecut=    77.00 Ry     beta= 0.20
     Davidson diagonalization with overlap
     ethr =  3.13E-08,  avg # of iterations = 12.2

     negative rho (up, down):  8.416E-04 0.000E+00

     total cpu time spent up to now is     6811.4 secs

     total energy              =  -27706.45879970 Ry
     estimated scf accuracy    <       0.00013197 Ry

     iteration # 16     ecut=    77.00 Ry     beta= 0.20
     Davidson diagonalization with overlap
     ethr =  9.92E-09,  avg # of iterations = 12.0

     negative rho (up, down):  8.759E-04 0.000E+00

     total cpu time spent up to now is     7302.0 secs

     total energy              =  -27706.45890775 Ry
     estimated scf accuracy    <       0.00006159 Ry

     iteration # 17     ecut=    77.00 Ry     beta= 0.20
     Davidson diagonalization with overlap
     ethr =  4.63E-09,  avg # of iterations = 11.2

     negative rho (up, down):  8.965E-04 0.000E+00

     total cpu time spent up to now is     7587.1 secs

     total energy              =  -27706.45889832 Ry
     estimated scf accuracy    <       0.00003698 Ry

     iteration # 18     ecut=    77.00 Ry     beta= 0.20
     Davidson diagonalization with overlap
     ethr =  2.78E-09,  avg # of iterations = 11.2

     negative rho (up, down):  9.013E-04 0.000E+00

     total cpu time spent up to now is     8022.3 secs

     total energy              =  -27706.45892145 Ry
     estimated scf accuracy    <       0.00000691 Ry

     iteration # 19     ecut=    77.00 Ry     beta= 0.20
     Davidson diagonalization with overlap
     ethr =  5.20E-10,  avg # of iterations = 16.5

     negative rho (up, down):  9.038E-04 0.000E+00

     total cpu time spent up to now is     8661.7 secs

     total energy              =  -27706.45892771 Ry
     estimated scf accuracy    <       0.00001196 Ry

     iteration # 20     ecut=    77.00 Ry     beta= 0.20
     Davidson diagonalization with overlap
     ethr =  5.20E-10,  avg # of iterations =  2.0

     negative rho (up, down):  9.089E-04 0.000E+00

     total cpu time spent up to now is     8885.7 secs

     total energy              =  -27706.45892386 Ry
     estimated scf accuracy    <       0.00000377 Ry

     iteration # 21     ecut=    77.00 Ry     beta= 0.20
     Davidson diagonalization with overlap
     ethr =  2.84E-10,  avg # of iterations = 10.8

     negative rho (up, down):  9.123E-04 0.000E+00

     total cpu time spent up to now is     9482.9 secs

     total energy              =  -27706.45892737 Ry
     estimated scf accuracy    <       0.00000854 Ry

     iteration # 22     ecut=    77.00 Ry     beta= 0.20
     Davidson diagonalization with overlap
     ethr =  2.84E-10,  avg # of iterations =  1.0

     negative rho (up, down):  9.163E-04 0.000E+00

     total cpu time spent up to now is     9683.7 secs

     total energy              =  -27706.45892316 Ry
     estimated scf accuracy    <       0.00000420 Ry

     iteration # 23     ecut=    77.00 Ry     beta= 0.20
     Davidson diagonalization with overlap
     ethr =  2.84E-10,  avg # of iterations =  6.2

     negative rho (up, down):  9.209E-04 0.000E+00

     total cpu time spent up to now is    10070.1 secs

     End of self-consistent calculation

          k = 0.0000 0.0000 0.0000 (321495 PWs)   bands (ev):

  -102.9615-102.9562 -88.3042 -71.3008 -71.2991 -71.2970 -71.2955 -71.2758
   -71.2724 -71.2557 -71.2524 -71.2450 -71.2415 -71.2256 -71.2216 -71.2154
   -71.2114 -66.7509 -66.7299 -66.7299 -66.7298 -66.7298 -66.7298 -66.7298
   -66.7087 -66.7087 -66.7087 -66.7087 -66.7087 -66.7086 -66.7086 -66.7086
   -66.7086 -66.6852 -66.6645 -66.6643 -66.6642 -66.6640 -66.6639 -66.6638
   -66.6433 -66.6433 -66.6432 -66.6431 -66.6429 -66.6428 -66.6427 -66.6427
   -66.6424 -66.6150 -66.6009 -66.5977 -66.5945 -66.5857 -66.5791 -66.5775
   -66.5697 -66.5642 -66.5575 -66.5522 -66.5473 -66.5416 -66.5371 -66.5293
   -66.5208 -57.2935 -57.2561 -57.1782 -57.1325 -57.1047 -57.0724 -54.1479
   -54.1016 -54.0494 -41.0774 -41.0774 -41.0774 -41.0106 -41.0105 -41.0103
   -41.0026 -41.0026 -41.0026 -41.0026 -41.0026 -41.0026 -40.9359 -40.9359
   -40.9358 -40.9356 -40.9356 -40.9355 -40.9331 -40.9271 -40.9262 -40.9111
   -40.8771 -40.8771 -40.8771 -40.8771 -40.8771 -40.8771 -40.8697 -40.8697
   -40.8697 -40.8697 -40.8696 -40.8696 -40.8612 -40.8562 -40.8521 -40.8458
   -40.8427 -40.8422 -40.8422 -40.8422 -40.8422 -40.8422 -40.8422 -40.8358
   -40.8280 -40.8280 -40.8280 -40.8280 -40.8280 -40.8280 -40.8279 -40.8279
   -40.8279 -40.8263 -40.8105 -40.8104 -40.8103 -40.8102 -40.8102 -40.8101
   -40.8047 -40.8046 -40.8045 -40.8043 -40.8043 -40.8042 -40.7881 -40.7757
   -40.7756 -40.7755 -40.7755 -40.7754 -40.7753 -40.7644 -40.7644 -40.7644
   -40.7631 -40.7630 -40.7630 -40.7629 -40.7627 -40.7627 -40.7626 -40.7625
   -40.7623 -40.7597 -40.7525 -40.7487 -40.7449 -40.7442 -40.7346 -40.7338
   -40.7316 -40.7300 -40.7179 -40.7176 -40.7176 -40.7176 -40.7176 -40.7176
   -40.7176 -40.7126 -40.7100 -40.7097 -40.7055 -40.6991 -40.6980 -40.6979
   -40.6978 -40.6978 -40.6977 -40.6964 -40.6955 -40.6929 -40.6899 -40.6832
   -40.6807 -40.6780 -40.6703 -40.6703 -40.6677 -40.6662 -40.6568 -40.6512
   -40.6512 -40.6511 -40.6509 -40.6508 -40.6507 -40.6188 -40.6093 -40.6053
   -40.6037 -40.6037 -40.5638 -40.5611 -40.5587 -40.5510 -40.5499 -40.5422
   -40.5026 -40.4928 -20.3369 -20.1700 -20.0110 -19.8034 -19.5484 -19.4457
   -19.3190 -19.3182 -19.3167 -19.3100 -19.3082 -19.3062 -19.2338 -19.2295
   -19.2135 -19.1674 -19.1623 -19.1592 -19.1236 -19.1204 -19.1009 -18.9499
   -18.8438 -18.8045 -18.7630 -18.6517 -18.5823 -18.5780 -18.5581 -18.5248
   -18.5055 -18.5042 -18.4699 -18.4490 -18.4376 -18.3925 -18.3551 -18.3498
   -18.3037 -18.2812 -18.2771 -18.2604 -18.2289 -18.2199 -18.2109 -18.2108
   -18.2105 -18.2103 -18.2100 -18.2097 -18.1926 -18.1704 -18.1702 -18.1702
   -18.1388 -18.1374 -18.1296 -18.1289 -18.1252 -18.1238 -18.0992 -18.0987
   -18.0973 -18.0884 -18.0841 -18.0457 -18.0448 -18.0369 -18.0283 -18.0168
   -18.0135 -18.0134 -18.0047 -18.0028 -17.9883 -17.9875 -17.9860 -17.9846
   -17.9628 -17.9536 -17.9528 -17.9392 -17.9354 -17.9204 -17.9198 -17.9183
   -17.9143 -17.8953 -17.8850 -17.8834 -17.8627 -17.8559 -17.8436 -17.8400
   -17.8335 -17.8303 -12.4108 -12.3013 -12.0760 -12.0117 -11.8437 -11.8248
   -11.8238 -11.8199 -11.7425 -11.7417 -11.7380 -11.7121 -11.6274 -11.5172
   -11.4472 -11.3705 -11.3309 -11.2953 -11.2812 -11.2775 -11.2732 -11.2575
   -11.2449 -11.2093 -11.2009 -11.1983 -11.1951 -11.1931 -11.1897 -11.1776
   -11.1306 -11.1122 -11.0994 -11.0632 -11.0628 -11.0577 -11.0562 -11.0477
   -11.0412 -11.0176 -10.9929 -10.9889 -10.9801 -10.9595 -10.9588 -10.9511
   -10.9303 -10.9139 -10.9124 -10.9024 -10.9021 -10.9015 -10.8998 -10.8964
   -10.8956 -10.8738 -10.8732 -10.8720 -10.8599 -10.8594 -10.8569 -10.8545
   -10.8534 -10.8473 -10.8412 -10.8306 -10.7892 -10.7806 -10.7796 -10.7724
   -10.7155 -10.7146 -10.7059 -10.6820 -10.6713 -10.6237 -10.5355 -10.4821
   -10.3394 -10.1548 -10.1197 -10.1176 -10.1141 -10.0770  -9.9765  -9.9704
    -9.9515  -9.8767  -9.8735  -9.8701  -9.8556  -9.8511  -9.8455  -9.8209
    -9.8167  -9.7979  -9.7906  -9.7898  -9.7791  -9.7781  -9.7603  -9.7327
    -9.7309  -9.7126  -9.7025  -9.6978  -9.6911  -9.6901  -9.6857  -9.6765
    -9.6628  -9.6455  -9.6445  -9.6442  -9.6426  -9.6415  -9.6408  -9.6170
    -9.6137  -9.5928  -9.5425  -9.5381  -9.5373  -9.5143  -9.5133  -9.5077
    -9.4990  -9.4722  -9.4656  -9.4434  -9.4312  -9.4170  -9.4104  -9.4058
    -9.4000  -9.3747  -9.3736  -9.3202  -9.3099  -9.3058  -9.2964  -9.2865
    -9.2777  -9.2767  -9.2555  -9.2272  -9.2037  -9.1558  -9.1293  -9.1096
    -9.0997  -9.0940  -9.0925  -9.0894  -9.0890  -9.0873  -9.0773  -9.0225
    -9.0140  -9.0121  -9.0047  -8.9882  -8.9875  -8.9834  -8.9518  -8.9199
    -8.8933  -8.8855  -8.8767  -8.8753  -8.8694  -8.8642  -8.8583  -8.8581
    -8.8492  -8.8399  -8.8309  -8.8280  -8.8214  -8.8108  -8.7952  -8.7880
    -8.7873  -8.7770  -8.6556  -8.6488  -8.5010  -8.5005  -8.5004  -8.4318
    -8.4277  -8.4277  -8.4229  -8.4109  -8.4089  -8.3881  -8.3881  -8.3880
    -8.3879  -8.3877  -8.3874  -8.3595  -8.3359  -8.3201  -8.3169  -8.3105
    -8.3105  -8.3100  -8.3092  -8.2912  -8.2593  -8.2254  -8.0607  -8.0319
    -8.0162  -7.9860  -7.9717  -7.8687  -7.8224  -7.7935  -7.7889  -7.7625
    -7.7248  -7.7004  -7.6774  -7.6538  -7.6527  -7.6526  -7.6524  -7.6522
    -7.6521  -7.6336  -7.6094  -7.6073  -7.6063  -7.6062  -7.6058  -7.6053
    -7.6049  -7.5924  -7.5900  -7.5790  -7.5740  -7.5732  -7.5725  -7.5692
    -7.5645  -7.5385  -7.5354  -7.5316  -7.5302  -7.5266  -7.5244  -7.5184
    -7.5178  -7.5015  -7.4977  -7.4924  -7.4915  -7.4804  -7.4688  -7.4635
    -7.4065  -7.3805  -7.3717  -7.3715  -7.3692  -7.3652  -7.3264  -7.3065
    -7.3008  -7.3005  -7.2680  -7.2655  -7.2402  -7.2198  -7.0986  -7.0870
    -7.0652  -7.0360  -7.0079  -6.9661  -6.9655  -6.9543  -6.9127  -6.8675
    -6.8657  -6.8654  -6.8391  -6.7721  -6.7677  -6.7392  -6.7356  -6.7282
    -6.7097  -6.7089  -6.6913  -6.6869  -6.6813  -6.6651  -6.6253  -6.6228
    -6.6142  -6.5955  -6.5939  -6.5906  -6.5798  -6.5778  -6.5727  -6.5417
    -6.5404  -6.5374  -6.5243  -6.5128  -6.5071  -6.5004  -6.4915  -6.4905
    -6.4555  -6.4425  -6.4195  -6.4194  -6.4194  -6.4194  -6.4194  -6.4194
    -6.4154  -6.3943  -6.3733  -6.3459  -6.3448  -6.3431  -6.3414  -6.3410
    -6.3388  -6.3228  -6.3158  -6.2877  -6.2856  -6.2687  -6.2206  -6.2092
    -6.0027  -5.7501  -5.6470  -5.6096  -5.4622  -5.4582  -5.3640  -5.1880
    -5.1857  -4.3204  -3.9859  -3.9703  -3.9043  -3.9028  -3.9003  -3.8833
    -3.8783  -3.8781  -3.8748  -3.8685  -3.8667  -3.8483  -3.8084  -3.7867
    -3.6863  -3.6740  -3.6599  -3.6584  -3.6493  -3.6487  -3.6421  -3.6377
    -3.6341  -3.5600  -3.5600  -3.5599  -3.5448  -3.5429  -3.5409  -3.5398
    -3.5397  -3.5386  -3.5098  -3.5027  -3.4931  -3.4929  -3.4925  -3.4844
    -3.4684  -3.4664  -3.4538  -3.4458  -3.4354  -3.4328  -3.4297  -3.4248
    -3.4213  -3.4194  -3.4066  -3.3998  -3.3917  -3.3841  -3.3759  -3.3648
    -3.3436  -3.3368  -3.3169  -3.3012  -3.2962  -3.2624  -3.2458  -3.2034
    -3.1382  -3.0947  -3.0943  -3.0931  -3.0885  -3.0881  -3.0729  -3.0446
    -3.0307  -3.0225  -3.0217  -3.0214  -3.0213  -3.0210  -3.0209  -3.0205
    -3.0174  -3.0063  -3.0035  -2.9931  -2.9825  -2.9706  -2.9619  -2.9610
    -2.9563  -2.9529  -2.9483  -2.9473  -2.9419  -2.9380  -2.9356  -2.9353
    -2.9314  -2.9036  -2.8988  -2.8928  -2.8762  -2.8611  -2.8408  -2.8351
    -2.8296  -2.8177  -2.8110  -2.8102  -2.8087  -2.8081  -2.8036  -2.7774
    -2.7634  -2.7603  -2.7373  -2.7338  -2.7023  -2.6950  -2.6908  -2.6659
    -2.6521  -2.6432  -2.6217  -2.6181  -2.6022  -2.6004  -2.5865  -2.5803
    -2.5681  -2.5469  -2.5450  -2.5185  -2.5128  -2.5014

          k = 0.0000-0.5773 0.0000 (321564 PWs)   bands (ev):

  -102.9615-102.9562 -88.3042 -71.3008 -71.2991 -71.2970 -71.2955 -71.2758
   -71.2724 -71.2557 -71.2524 -71.2449 -71.2415 -71.2256 -71.2216 -71.2154
   -71.2114 -66.7448 -66.7448 -66.7342 -66.7342 -66.7193 -66.7193 -66.7193
   -66.7193 -66.7149 -66.7149 -66.7087 -66.7087 -66.7086 -66.7086 -66.7043
   -66.7043 -66.6791 -66.6789 -66.6686 -66.6684 -66.6538 -66.6535 -66.6535
   -66.6533 -66.6492 -66.6491 -66.6431 -66.6430 -66.6430 -66.6427 -66.6386
   -66.6384 -66.6132 -66.6060 -66.5955 -66.5933 -66.5841 -66.5806 -66.5786
   -66.5677 -66.5650 -66.5561 -66.5549 -66.5453 -66.5421 -66.5374 -66.5294
   -66.5207 -57.2935 -57.2561 -57.1782 -57.1325 -57.1047 -57.0724 -54.1479
   -54.1016 -54.0494 -41.0460 -41.0460 -41.0460 -41.0460 -41.0194 -41.0194
   -41.0075 -41.0075 -40.9792 -40.9792 -40.9791 -40.9789 -40.9570 -40.9570
   -40.9570 -40.9570 -40.9525 -40.9524 -40.9406 -40.9404 -40.9106 -40.8994
   -40.8990 -40.8990 -40.8934 -40.8903 -40.8902 -40.8901 -40.8901 -40.8891
   -40.8891 -40.8868 -40.8825 -40.8783 -40.8783 -40.8725 -40.8522 -40.8488
   -40.8488 -40.8488 -40.8488 -40.8402 -40.8402 -40.8338 -40.8336 -40.8281
   -40.8281 -40.8279 -40.8279 -40.8279 -40.8279 -40.8246 -40.8224 -40.8223
   -40.8193 -40.8193 -40.8131 -40.8130 -40.8086 -40.7973 -40.7973 -40.7973
   -40.7973 -40.7932 -40.7905 -40.7872 -40.7838 -40.7837 -40.7836 -40.7835
   -40.7774 -40.7750 -40.7749 -40.7705 -40.7629 -40.7628 -40.7628 -40.7628
   -40.7628 -40.7628 -40.7628 -40.7625 -40.7614 -40.7613 -40.7595 -40.7542
   -40.7541 -40.7511 -40.7507 -40.7507 -40.7376 -40.7316 -40.7316 -40.7307
   -40.7307 -40.7306 -40.7306 -40.7305 -40.7281 -40.7261 -40.7215 -40.7204
   -40.7152 -40.7147 -40.7147 -40.7038 -40.7017 -40.6966 -40.6963 -40.6962
   -40.6961 -40.6961 -40.6923 -40.6885 -40.6867 -40.6842 -40.6842 -40.6842
   -40.6840 -40.6763 -40.6749 -40.6703 -40.6650 -40.6649 -40.6505 -40.6481
   -40.6480 -40.6466 -40.6425 -40.6380 -40.6177 -40.6176 -40.6099 -40.6068
   -40.6043 -40.5983 -40.5871 -40.5788 -40.5747 -40.5641 -40.5483 -40.5299
   -40.5243 -40.5074 -20.2673 -19.9545 -19.9373 -19.8847 -19.7872 -19.7600
   -19.6903 -19.5277 -19.5040 -19.4772 -19.3612 -19.3389 -19.2275 -19.0598
   -19.0096 -18.8205 -18.8192 -18.8094 -18.8007 -18.7999 -18.7962 -18.7734
   -18.7196 -18.6895 -18.6821 -18.6752 -18.6682 -18.6597 -18.6200 -18.6057
   -18.5699 -18.5554 -18.5511 -18.5311 -18.5091 -18.4998 -18.4706 -18.4635
   -18.4432 -18.4213 -18.3982 -18.3848 -18.3395 -18.3255 -18.2961 -18.2851
   -18.2604 -18.2592 -18.2352 -18.1996 -18.1913 -18.1908 -18.1907 -18.1905
   -18.1896 -18.1713 -18.1626 -18.1429 -18.1275 -18.1158 -18.1136 -18.1108
   -18.1097 -18.0988 -18.0766 -18.0717 -18.0615 -18.0534 -18.0460 -18.0312
   -18.0150 -18.0119 -18.0071 -17.9983 -17.9890 -17.9827 -17.9562 -17.9456
   -17.9358 -17.9275 -17.9275 -17.9247 -17.8912 -17.8850 -17.8713 -17.8682
   -17.8679 -17.8556 -17.8521 -17.8501 -17.8451 -17.8352 -17.8085 -17.8083
   -17.7509 -17.7464 -12.3740 -12.2000 -11.9600 -11.8231 -11.7715 -11.7324
   -11.6980 -11.6067 -11.5398 -11.5369 -11.5353 -11.5348 -11.5205 -11.5110
   -11.4820 -11.4557 -11.4512 -11.4409 -11.4406 -11.4147 -11.4081 -11.3821
   -11.3704 -11.3550 -11.3457 -11.3281 -11.3202 -11.3202 -11.2952 -11.2760
   -11.2739 -11.2576 -11.2276 -11.2199 -11.2186 -11.1920 -11.1693 -11.1350
   -11.1024 -11.0763 -11.0510 -11.0392 -11.0266 -11.0064 -10.9822 -10.9807
   -10.9716 -10.9648 -10.9589 -10.9499 -10.9201 -10.9068 -10.9010 -10.8941
   -10.8933 -10.8930 -10.8898 -10.8873 -10.8645 -10.8493 -10.8316 -10.8297
   -10.8220 -10.8199 -10.7638 -10.7302 -10.7085 -10.6676 -10.6258 -10.5637
   -10.5533 -10.4934 -10.4426 -10.4193 -10.3534 -10.3242 -10.2428 -10.2201
   -10.1875 -10.1835 -10.1715 -10.1518 -10.1295 -10.0964 -10.0753 -10.0410
   -10.0301 -10.0096 -10.0021  -9.9943  -9.9915  -9.9875  -9.9777  -9.9736
    -9.9628  -9.9508  -9.9487  -9.9006  -9.8873  -9.8757  -9.8658  -9.8262
    -9.8184  -9.8131  -9.7963  -9.7795  -9.7757  -9.7671  -9.7645  -9.7614
    -9.7398  -9.7296  -9.7242  -9.6934  -9.6884  -9.6708  -9.6578  -9.6328
    -9.6260  -9.6158  -9.5981  -9.5930  -9.5722  -9.5521  -9.5378  -9.5312
    -9.4862  -9.4793  -9.4190  -9.3968  -9.3595  -9.3429  -9.2973  -9.2927
    -9.2674  -9.2608  -9.2392  -9.2224  -9.2148  -9.1986  -9.1880  -9.1750
    -9.1721  -9.1610  -9.1522  -9.1259  -9.1150  -9.1105  -9.1060  -9.0899
    -9.0774  -9.0604  -9.0504  -9.0404  -9.0263  -9.0222  -9.0153  -9.0014
    -8.9996  -8.9970  -8.9948  -8.9822  -8.9523  -8.9456  -8.9342  -8.9236
    -8.9213  -8.9188  -8.9120  -8.9071  -8.9030  -8.9022  -8.8997  -8.8893
    -8.8806  -8.8727  -8.8670  -8.8315  -8.8258  -8.8165  -8.8033  -8.7763
    -8.7607  -8.7009  -8.6671  -8.5810  -8.5756  -8.5751  -8.5330  -8.5224
    -8.4938  -8.4904  -8.4479  -8.4322  -8.3407  -8.3079  -8.2602  -8.2568
    -8.2568  -8.2038  -8.1852  -8.1843  -8.1797  -8.1626  -8.0782  -8.0482
    -8.0130  -7.9950  -7.9911  -7.9615  -7.9233  -7.9223  -7.9212  -7.9162
    -7.9134  -7.9120  -7.9102  -7.9100  -7.9059  -7.8914  -7.8763  -7.8650
    -7.8627  -7.8608  -7.8584  -7.8402  -7.8386  -7.8351  -7.8226  -7.8175
    -7.8081  -7.8075  -7.8023  -7.7904  -7.7873  -7.7849  -7.7812  -7.7756
    -7.7578  -7.7494  -7.7411  -7.7287  -7.7248  -7.7246  -7.7236  -7.6980
    -7.6868  -7.6819  -7.6747  -7.6626  -7.6532  -7.6505  -7.6413  -7.6253
    -7.6055  -7.5944  -7.5566  -7.5545  -7.5368  -7.4527  -7.4463  -7.4033
    -7.3666  -7.3367  -7.3130  -7.3106  -7.2965  -7.2817  -7.2570  -7.2346
    -7.2006  -7.1800  -7.1499  -7.1406  -7.0939  -7.0779  -7.0731  -7.0675
    -7.0614  -7.0424  -7.0310  -7.0057  -6.9983  -6.9675  -6.9639  -6.9608
    -6.9178  -6.8952  -6.8920  -6.8820  -6.8547  -6.8329  -6.7963  -6.7832
    -6.7472  -6.7234  -6.7216  -6.7216  -6.7216  -6.7202  -6.7108  -6.6935
    -6.6731  -6.6548  -6.6546  -6.6516  -6.6512  -6.6332  -6.6186  -6.5927
    -6.5694  -6.5625  -6.5239  -6.5060  -6.4909  -6.4225  -6.3905  -6.3902
    -6.3900  -6.3887  -6.3548  -6.3342  -6.3266  -6.3196  -6.3161  -6.3122
    -6.3050  -6.3029  -6.2981  -6.2851  -6.2790  -6.2604  -6.2106  -6.1424
    -6.1189  -6.0498  -6.0416  -6.0412  -5.9648  -5.9623  -5.8963  -5.8464
    -5.8231  -5.6940  -5.6654  -5.6011  -5.5516  -5.4127  -5.3987  -5.3844
    -5.2188  -4.3414  -4.1021  -4.0990  -4.0812  -4.0519  -3.9672  -3.9571
    -3.9571  -3.9223  -3.9187  -3.9003  -3.8923  -3.8911  -3.8461  -3.8401
    -3.8213  -3.7852  -3.7550  -3.6965  -3.6825  -3.6659  -3.6606  -3.6596
    -3.6554  -3.6442  -3.6424  -3.6422  -3.6231  -3.5894  -3.5677  -3.5623
    -3.5584  -3.5489  -3.5427  -3.5396  -3.5318  -3.5244  -3.5225  -3.4884
    -3.4728  -3.4601  -3.4328  -3.4252  -3.4165  -3.4132  -3.4100  -3.4091
    -3.3872  -3.3807  -3.3773  -3.3694  -3.3665  -3.3434  -3.3356  -3.3342
    -3.3327  -3.3322  -3.3184  -3.3096  -3.2961  -3.2907  -3.2873  -3.2753
    -3.2707  -3.2626  -3.2583  -3.2490  -3.2426  -3.2267  -3.1955  -3.1913
    -3.1808  -3.1652  -3.1433  -3.1296  -3.1279  -3.1166  -3.1034  -3.0898
    -3.0879  -3.0708  -3.0704  -3.0699  -3.0696  -3.0395  -3.0355  -3.0225
    -3.0217  -3.0164  -3.0043  -2.9988  -2.9876  -2.9846  -2.9751  -2.9686
    -2.9610  -2.9551  -2.9520  -2.9482  -2.9380  -2.9222  -2.9058  -2.8940
    -2.8853  -2.8703  -2.8614  -2.8602  -2.8385  -2.8092  -2.7971  -2.7740
    -2.7674  -2.7344  -2.7199  -2.7077  -2.7071  -2.7005  -2.6926  -2.6299
    -2.6242  -2.5953  -2.5918  -2.5665  -2.5593  -2.5511  -2.5392  -2.4548
    -2.4304  -2.4153  -2.3916  -2.3667  -2.3562  -2.3249

          k =-0.5000-0.2887 0.0000 (321564 PWs)   bands (ev):

  -102.9615-102.9562 -88.3042 -71.3008 -71.2991 -71.2970 -71.2955 -71.2758
   -71.2724 -71.2557 -71.2524 -71.2450 -71.2415 -71.2256 -71.2216 -71.2154
   -71.2115 -66.7448 -66.7448 -66.7342 -66.7342 -66.7193 -66.7193 -66.7193
   -66.7193 -66.7149 -66.7149 -66.7087 -66.7087 -66.7086 -66.7086 -66.7043
   -66.7043 -66.6791 -66.6789 -66.6686 -66.6684 -66.6538 -66.6535 -66.6535
   -66.6533 -66.6492 -66.6491 -66.6430 -66.6430 -66.6430 -66.6427 -66.6386
   -66.6384 -66.6132 -66.6060 -66.5954 -66.5934 -66.5841 -66.5807 -66.5787
   -66.5677 -66.5650 -66.5561 -66.5550 -66.5453 -66.5421 -66.5374 -66.5294
   -66.5207 -57.2935 -57.2561 -57.1782 -57.1325 -57.1047 -57.0724 -54.1479
   -54.1016 -54.0494 -41.0460 -41.0460 -41.0460 -41.0460 -41.0194 -41.0194
   -41.0075 -41.0075 -40.9792 -40.9792 -40.9791 -40.9788 -40.9570 -40.9570
   -40.9570 -40.9570 -40.9525 -40.9524 -40.9406 -40.9404 -40.9108 -40.8996
   -40.8990 -40.8990 -40.8933 -40.8903 -40.8902 -40.8901 -40.8901 -40.8891
   -40.8891 -40.8865 -40.8824 -40.8783 -40.8783 -40.8723 -40.8520 -40.8488
   -40.8488 -40.8488 -40.8488 -40.8402 -40.8402 -40.8338 -40.8336 -40.8281
   -40.8281 -40.8280 -40.8280 -40.8279 -40.8279 -40.8248 -40.8224 -40.8223
   -40.8193 -40.8193 -40.8131 -40.8130 -40.8084 -40.7973 -40.7973 -40.7973
   -40.7973 -40.7934 -40.7907 -40.7873 -40.7838 -40.7837 -40.7836 -40.7835
   -40.7774 -40.7750 -40.7749 -40.7706 -40.7629 -40.7628 -40.7628 -40.7628
   -40.7628 -40.7628 -40.7628 -40.7625 -40.7614 -40.7613 -40.7594 -40.7542
   -40.7541 -40.7510 -40.7508 -40.7507 -40.7378 -40.7316 -40.7315 -40.7308
   -40.7307 -40.7306 -40.7306 -40.7305 -40.7283 -40.7261 -40.7215 -40.7202
   -40.7151 -40.7147 -40.7147 -40.7041 -40.7016 -40.6964 -40.6963 -40.6962
   -40.6961 -40.6961 -40.6920 -40.6886 -40.6869 -40.6842 -40.6842 -40.6842
   -40.6840 -40.6765 -40.6750 -40.6706 -40.6650 -40.6649 -40.6500 -40.6482
   -40.6480 -40.6466 -40.6419 -40.6380 -40.6177 -40.6175 -40.6100 -40.6068
   -40.6045 -40.5980 -40.5879 -40.5783 -40.5740 -40.5643 -40.5489 -40.5307
   -40.5242 -40.5068 -20.2671 -19.9547 -19.9372 -19.8854 -19.7870 -19.7601
   -19.6893 -19.5277 -19.5040 -19.4770 -19.3613 -19.3389 -19.2282 -19.0599
   -19.0100 -18.8203 -18.8194 -18.8093 -18.8006 -18.7999 -18.7962 -18.7740
   -18.7183 -18.6899 -18.6819 -18.6748 -18.6688 -18.6597 -18.6201 -18.6058
   -18.5698 -18.5552 -18.5512 -18.5310 -18.5090 -18.4994 -18.4709 -18.4632
   -18.4429 -18.4209 -18.3983 -18.3847 -18.3395 -18.3255 -18.2963 -18.2850
   -18.2606 -18.2593 -18.2352 -18.1994 -18.1915 -18.1909 -18.1907 -18.1906
   -18.1896 -18.1711 -18.1629 -18.1427 -18.1279 -18.1167 -18.1144 -18.1109
   -18.1103 -18.0987 -18.0765 -18.0715 -18.0615 -18.0529 -18.0463 -18.0321
   -18.0151 -18.0125 -18.0074 -17.9986 -17.9892 -17.9834 -17.9559 -17.9458
   -17.9359 -17.9275 -17.9275 -17.9250 -17.8899 -17.8846 -17.8695 -17.8677
   -17.8673 -17.8551 -17.8514 -17.8498 -17.8452 -17.8351 -17.8076 -17.8073
   -17.7535 -17.7477 -12.3739 -12.1999 -11.9601 -11.8232 -11.7712 -11.7331
   -11.6973 -11.6063 -11.5400 -11.5370 -11.5352 -11.5348 -11.5201 -11.5110
   -11.4823 -11.4562 -11.4510 -11.4410 -11.4406 -11.4142 -11.4088 -11.3815
   -11.3701 -11.3551 -11.3460 -11.3279 -11.3202 -11.3202 -11.2953 -11.2756
   -11.2739 -11.2584 -11.2277 -11.2198 -11.2186 -11.1916 -11.1691 -11.1344
   -11.1030 -11.0769 -11.0509 -11.0390 -11.0268 -11.0063 -10.9816 -10.9805
   -10.9718 -10.9645 -10.9590 -10.9494 -10.9207 -10.9068 -10.9012 -10.8943
   -10.8934 -10.8930 -10.8902 -10.8877 -10.8655 -10.8494 -10.8319 -10.8302
   -10.8219 -10.8197 -10.7628 -10.7311 -10.7066 -10.6677 -10.6258 -10.5633
   -10.5528 -10.4951 -10.4423 -10.4185 -10.3535 -10.3238 -10.2438 -10.2198
   -10.1874 -10.1838 -10.1713 -10.1510 -10.1289 -10.0958 -10.0756 -10.0412
   -10.0308 -10.0110 -10.0034  -9.9947  -9.9914  -9.9875  -9.9770  -9.9738
    -9.9613  -9.9500  -9.9480  -9.9008  -9.8875  -9.8772  -9.8666  -9.8281
    -9.8159  -9.8126  -9.7940  -9.7798  -9.7762  -9.7668  -9.7647  -9.7606
    -9.7401  -9.7284  -9.7243  -9.6959  -9.6881  -9.6709  -9.6596  -9.6326
    -9.6266  -9.6161  -9.5984  -9.5933  -9.5728  -9.5519  -9.5377  -9.5309
    -9.4856  -9.4784  -9.4182  -9.3968  -9.3616  -9.3458  -9.2970  -9.2904
    -9.2678  -9.2604  -9.2389  -9.2206  -9.2145  -9.1983  -9.1885  -9.1750
    -9.1721  -9.1608  -9.1522  -9.1261  -9.1150  -9.1100  -9.1052  -9.0885
    -9.0767  -9.0602  -9.0495  -9.0398  -9.0261  -9.0218  -9.0145  -9.0014
    -8.9986  -8.9957  -8.9947  -8.9825  -8.9518  -8.9457  -8.9343  -8.9236
    -8.9211  -8.9189  -8.9137  -8.9102  -8.9030  -8.9023  -8.8998  -8.8894
    -8.8792  -8.8737  -8.8689  -8.8311  -8.8262  -8.8170  -8.8040  -8.7774
    -8.7609  -8.7023  -8.6665  -8.5805  -8.5755  -8.5751  -8.5333  -8.5219
    -8.4937  -8.4905  -8.4472  -8.4326  -8.3433  -8.3084  -8.2582  -8.2568
    -8.2568  -8.2033  -8.1851  -8.1843  -8.1801  -8.1629  -8.0788  -8.0490
    -8.0147  -7.9949  -7.9914  -7.9614  -7.9238  -7.9229  -7.9214  -7.9143
    -7.9106  -7.9102  -7.9100  -7.9096  -7.9039  -7.8901  -7.8758  -7.8647
    -7.8626  -7.8608  -7.8582  -7.8402  -7.8386  -7.8335  -7.8223  -7.8184
    -7.8086  -7.8074  -7.8020  -7.7911  -7.7873  -7.7847  -7.7813  -7.7757
    -7.7581  -7.7503  -7.7415  -7.7289  -7.7248  -7.7247  -7.7234  -7.6994
    -7.6890  -7.6835  -7.6742  -7.6629  -7.6547  -7.6507  -7.6420  -7.6253
    -7.6041  -7.5911  -7.5547  -7.5514  -7.5318  -7.4538  -7.4485  -7.4059
    -7.3676  -7.3377  -7.3146  -7.3120  -7.2971  -7.2819  -7.2567  -7.2346
    -7.2009  -7.1788  -7.1517  -7.1405  -7.0947  -7.0780  -7.0731  -7.0674
    -7.0615  -7.0432  -7.0314  -7.0056  -6.9985  -6.9677  -6.9636  -6.9595
    -6.9177  -6.8947  -6.8922  -6.8819  -6.8550  -6.8316  -6.7970  -6.7831
    -6.7477  -6.7239  -6.7217  -6.7216  -6.7216  -6.7208  -6.7124  -6.6946
    -6.6728  -6.6550  -6.6547  -6.6521  -6.6513  -6.6344  -6.6188  -6.5929
    -6.5698  -6.5617  -6.5240  -6.5059  -6.4906  -6.4216  -6.3905  -6.3902
    -6.3900  -6.3885  -6.3545  -6.3335  -6.3263  -6.3202  -6.3159  -6.3122
    -6.3045  -6.3024  -6.2963  -6.2831  -6.2761  -6.2601  -6.2099  -6.1425
    -6.1189  -6.0498  -6.0415  -6.0412  -5.9647  -5.9624  -5.8977  -5.8470
    -5.8231  -5.6945  -5.6666  -5.6017  -5.5517  -5.4134  -5.3984  -5.3848
    -5.2188  -4.3412  -4.1021  -4.0988  -4.0811  -4.0515  -3.9673  -3.9570
    -3.9570  -3.9222  -3.9191  -3.9002  -3.8923  -3.8911  -3.8458  -3.8401
    -3.8220  -3.7838  -3.7555  -3.6968  -3.6830  -3.6656  -3.6602  -3.6594
    -3.6552  -3.6443  -3.6425  -3.6422  -3.6231  -3.5888  -3.5675  -3.5625
    -3.5580  -3.5492  -3.5432  -3.5387  -3.5314  -3.5247  -3.5225  -3.4880
    -3.4722  -3.4611  -3.4332  -3.4253  -3.4160  -3.4135  -3.4101  -3.4092
    -3.3872  -3.3800  -3.3770  -3.3698  -3.3666  -3.3428  -3.3355  -3.3341
    -3.3327  -3.3322  -3.3191  -3.3084  -3.2959  -3.2913  -3.2870  -3.2757
    -3.2709  -3.2620  -3.2581  -3.2491  -3.2418  -3.2260  -3.1952  -3.1902
    -3.1810  -3.1649  -3.1435  -3.1294  -3.1276  -3.1165  -3.1027  -3.0900
    -3.0877  -3.0704  -3.0701  -3.0696  -3.0694  -3.0395  -3.0351  -3.0229
    -3.0217  -3.0165  -3.0053  -2.9999  -2.9875  -2.9852  -2.9751  -2.9693
    -2.9616  -2.9555  -2.9516  -2.9491  -2.9376  -2.9213  -2.9055  -2.8937
    -2.8837  -2.8703  -2.8626  -2.8610  -2.8366  -2.8073  -2.7958  -2.7736
    -2.7663  -2.7344  -2.7196  -2.7077  -2.7070  -2.6997  -2.6923  -2.6298
    -2.6239  -2.5961  -2.5918  -2.5676  -2.5609  -2.5531  -2.5406  -2.4589
    -2.4284  -2.4048  -2.3959  -2.3690  -2.3594  -2.3147

          k =-0.5000-0.8660 0.0000 (321564 PWs)   bands (ev):

  -102.9615-102.9562 -88.3042 -71.3008 -71.2991 -71.2970 -71.2955 -71.2758
   -71.2724 -71.2557 -71.2525 -71.2449 -71.2415 -71.2256 -71.2216 -71.2154
   -71.2114 -66.7448 -66.7448 -66.7342 -66.7342 -66.7193 -66.7193 -66.7193
   -66.7193 -66.7149 -66.7149 -66.7087 -66.7087 -66.7087 -66.7086 -66.7043
   -66.7043 -66.6791 -66.6789 -66.6685 -66.6685 -66.6538 -66.6537 -66.6533
   -66.6533 -66.6493 -66.6490 -66.6431 -66.6431 -66.6430 -66.6425 -66.6385
   -66.6385 -66.6141 -66.6029 -66.5978 -66.5934 -66.5862 -66.5792 -66.5772
   -66.5687 -66.5646 -66.5563 -66.5535 -66.5477 -66.5411 -66.5374 -66.5293
   -66.5208 -57.2935 -57.2561 -57.1782 -57.1325 -57.1047 -57.0724 -54.1479
   -54.1016 -54.0494 -41.0460 -41.0460 -41.0460 -41.0460 -41.0194 -41.0194
   -41.0075 -41.0075 -40.9793 -40.9792 -40.9791 -40.9788 -40.9570 -40.9570
   -40.9570 -40.9570 -40.9525 -40.9524 -40.9405 -40.9405 -40.9206 -40.9036
   -40.8990 -40.8990 -40.8902 -40.8902 -40.8901 -40.8901 -40.8891 -40.8891
   -40.8875 -40.8860 -40.8783 -40.8783 -40.8705 -40.8580 -40.8531 -40.8488
   -40.8488 -40.8488 -40.8488 -40.8402 -40.8402 -40.8359 -40.8338 -40.8336
   -40.8281 -40.8281 -40.8279 -40.8279 -40.8279 -40.8279 -40.8224 -40.8223
   -40.8193 -40.8193 -40.8130 -40.8130 -40.8084 -40.8055 -40.7973 -40.7973
   -40.7973 -40.7973 -40.7926 -40.7872 -40.7838 -40.7838 -40.7834 -40.7834
   -40.7765 -40.7751 -40.7749 -40.7716 -40.7630 -40.7629 -40.7628 -40.7628
   -40.7628 -40.7628 -40.7627 -40.7624 -40.7614 -40.7613 -40.7542 -40.7541
   -40.7533 -40.7530 -40.7507 -40.7507 -40.7371 -40.7364 -40.7328 -40.7316
   -40.7316 -40.7309 -40.7308 -40.7306 -40.7303 -40.7244 -40.7204 -40.7163
   -40.7147 -40.7147 -40.7099 -40.7065 -40.7004 -40.6963 -40.6962 -40.6962
   -40.6961 -40.6961 -40.6957 -40.6910 -40.6842 -40.6842 -40.6842 -40.6840
   -40.6828 -40.6780 -40.6753 -40.6675 -40.6652 -40.6647 -40.6531 -40.6494
   -40.6481 -40.6481 -40.6363 -40.6278 -40.6178 -40.6175 -40.6151 -40.6051
   -40.6004 -40.5922 -40.5918 -40.5768 -40.5755 -40.5691 -40.5480 -40.5392
   -40.5319 -40.4964 -20.2612 -19.9728 -19.9370 -19.9112 -19.7831 -19.7626
   -19.5781 -19.5493 -19.5012 -19.4888 -19.3739 -19.3413 -19.3123 -19.0049
   -19.0000 -18.8257 -18.8147 -18.8112 -18.8006 -18.7997 -18.7947 -18.7793
   -18.7172 -18.6866 -18.6819 -18.6768 -18.6662 -18.6615 -18.6176 -18.6104
   -18.5641 -18.5561 -18.5494 -18.5357 -18.5112 -18.5089 -18.4680 -18.4656
   -18.4418 -18.4176 -18.4020 -18.3888 -18.3472 -18.3161 -18.2897 -18.2893
   -18.2598 -18.2564 -18.2264 -18.1997 -18.1973 -18.1912 -18.1908 -18.1908
   -18.1905 -18.1665 -18.1629 -18.1395 -18.1263 -18.1179 -18.1149 -18.1100
   -18.1097 -18.1005 -18.0813 -18.0706 -18.0569 -18.0538 -18.0457 -18.0370
   -18.0149 -18.0108 -18.0065 -17.9987 -17.9939 -17.9845 -17.9554 -17.9451
   -17.9369 -17.9301 -17.9274 -17.9274 -17.8895 -17.8851 -17.8712 -17.8678
   -17.8670 -17.8569 -17.8513 -17.8511 -17.8377 -17.8346 -17.8082 -17.8071
   -17.7539 -17.7464 -12.3622 -12.2391 -11.9077 -11.8092 -11.8036 -11.7120
   -11.7038 -11.6103 -11.5412 -11.5365 -11.5363 -11.5354 -11.5183 -11.5067
   -11.4847 -11.4633 -11.4519 -11.4425 -11.4345 -11.4207 -11.4087 -11.3784
   -11.3553 -11.3537 -11.3470 -11.3203 -11.3202 -11.3186 -11.3139 -11.2781
   -11.2736 -11.2718 -11.2217 -11.2211 -11.2147 -11.2061 -11.1500 -11.1450
   -11.1066 -11.0909 -11.0663 -11.0425 -11.0272 -10.9922 -10.9842 -10.9814
   -10.9780 -10.9707 -10.9543 -10.9452 -10.9208 -10.9026 -10.8958 -10.8938
   -10.8934 -10.8931 -10.8900 -10.8796 -10.8700 -10.8536 -10.8320 -10.8285
   -10.8274 -10.8200 -10.7805 -10.7061 -10.6806 -10.6700 -10.5794 -10.5674
   -10.5513 -10.4916 -10.4771 -10.4298 -10.3670 -10.3429 -10.2418 -10.2340
   -10.1914 -10.1751 -10.1705 -10.1642 -10.1115 -10.0903 -10.0713 -10.0562
   -10.0306 -10.0128 -10.0054 -10.0018  -9.9979  -9.9875  -9.9795  -9.9734
    -9.9600  -9.9495  -9.9439  -9.9037  -9.8967  -9.8843  -9.8535  -9.8191
    -9.8147  -9.8015  -9.7892  -9.7826  -9.7728  -9.7703  -9.7639  -9.7530
    -9.7462  -9.7320  -9.7265  -9.6914  -9.6822  -9.6711  -9.6662  -9.6222
    -9.6133  -9.6072  -9.5979  -9.5942  -9.5577  -9.5530  -9.5376  -9.5323
    -9.4794  -9.4589  -9.4097  -9.4049  -9.3749  -9.3562  -9.3156  -9.2802
    -9.2693  -9.2602  -9.2185  -9.2149  -9.2139  -9.2045  -9.1957  -9.1914
    -9.1715  -9.1699  -9.1568  -9.1141  -9.1113  -9.1045  -9.0935  -9.0859
    -9.0768  -9.0659  -9.0545  -9.0412  -9.0330  -9.0148  -9.0132  -9.0073
    -8.9993  -8.9955  -8.9931  -8.9838  -8.9480  -8.9466  -8.9320  -8.9231
    -8.9203  -8.9196  -8.9155  -8.9052  -8.9029  -8.9023  -8.8933  -8.8898
    -8.8786  -8.8752  -8.8730  -8.8335  -8.8259  -8.8128  -8.8058  -8.7853
    -8.7494  -8.6950  -8.6875  -8.5763  -8.5758  -8.5754  -8.5624  -8.5130
    -8.5008  -8.4915  -8.4623  -8.3964  -8.3894  -8.3162  -8.2811  -8.2568
    -8.2568  -8.1931  -8.1861  -8.1839  -8.1633  -8.1629  -8.0599  -8.0485
    -8.0247  -7.9951  -7.9927  -7.9799  -7.9269  -7.9259  -7.9229  -7.9170
    -7.9116  -7.9109  -7.9101  -7.9100  -7.9079  -7.8961  -7.8660  -7.8647
    -7.8628  -7.8616  -7.8446  -7.8418  -7.8384  -7.8359  -7.8217  -7.8109
    -7.8075  -7.8048  -7.7883  -7.7880  -7.7824  -7.7803  -7.7733  -7.7716
    -7.7689  -7.7477  -7.7464  -7.7248  -7.7246  -7.7206  -7.7130  -7.7112
    -7.6932  -7.6862  -7.6703  -7.6677  -7.6611  -7.6509  -7.6353  -7.6311
    -7.6112  -7.5974  -7.5488  -7.5337  -7.4913  -7.4642  -7.4554  -7.3852
    -7.3492  -7.3342  -7.3224  -7.2931  -7.2866  -7.2686  -7.2657  -7.2434
    -7.2005  -7.1732  -7.1359  -7.1299  -7.0892  -7.0881  -7.0742  -7.0723
    -7.0639  -7.0348  -7.0292  -7.0094  -6.9980  -6.9686  -6.9657  -6.9542
    -6.9353  -6.9185  -6.9024  -6.8867  -6.8581  -6.8500  -6.7975  -6.7969
    -6.7636  -6.7499  -6.7230  -6.7217  -6.7217  -6.7216  -6.7193  -6.7149
    -6.6889  -6.6545  -6.6533  -6.6524  -6.6520  -6.6294  -6.6131  -6.5982
    -6.5569  -6.5527  -6.5148  -6.4911  -6.4808  -6.4184  -6.3927  -6.3905
    -6.3902  -6.3891  -6.3813  -6.3325  -6.3261  -6.3229  -6.3150  -6.3094
    -6.3067  -6.3020  -6.2956  -6.2729  -6.2651  -6.2585  -6.2082  -6.2050
    -6.0738  -6.0416  -6.0415  -5.9856  -5.9646  -5.9588  -5.9114  -5.8888
    -5.8090  -5.6935  -5.6858  -5.5689  -5.5627  -5.4125  -5.4109  -5.3769
    -5.1996  -4.3166  -4.1069  -4.0893  -4.0807  -4.0493  -3.9878  -3.9570
    -3.9570  -3.9370  -3.9039  -3.8924  -3.8919  -3.8806  -3.8449  -3.8402
    -3.8279  -3.7886  -3.7646  -3.7044  -3.6775  -3.6707  -3.6604  -3.6563
    -3.6495  -3.6427  -3.6422  -3.6380  -3.6250  -3.5876  -3.5788  -3.5649
    -3.5552  -3.5501  -3.5442  -3.5400  -3.5323  -3.5290  -3.5247  -3.4897
    -3.4707  -3.4657  -3.4532  -3.4296  -3.4201  -3.4106  -3.4102  -3.4061
    -3.3827  -3.3793  -3.3734  -3.3708  -3.3627  -3.3495  -3.3361  -3.3341
    -3.3334  -3.3329  -3.3250  -3.3075  -3.2991  -3.2873  -3.2846  -3.2758
    -3.2678  -3.2568  -3.2526  -3.2437  -3.2424  -3.2323  -3.1970  -3.1954
    -3.1827  -3.1750  -3.1522  -3.1303  -3.1261  -3.1101  -3.0992  -3.0898
    -3.0879  -3.0729  -3.0705  -3.0698  -3.0692  -3.0437  -3.0430  -3.0319
    -3.0215  -3.0205  -3.0111  -3.0071  -2.9892  -2.9842  -2.9779  -2.9763
    -2.9616  -2.9610  -2.9497  -2.9441  -2.9356  -2.9250  -2.9095  -2.8936
    -2.8711  -2.8695  -2.8629  -2.8589  -2.8189  -2.8137  -2.7882  -2.7752
    -2.7581  -2.7188  -2.7135  -2.7123  -2.7072  -2.7001  -2.6881  -2.6334
    -2.6225  -2.5878  -2.5771  -2.5732  -2.5603  -2.5527  -2.5113  -2.4676
    -2.4306  -2.4205  -2.4057  -2.3677  -2.3624  -2.3373

     the Fermi energy is    -4.7630 ev

!    total energy              =  -27706.45892349 Ry
     total all-electron energy =   -549111.721362 Ry
     estimated scf accuracy    <       0.00000071 Ry
     smearing contrib. (-TS)   =      -0.00000051 Ry
     internal energy E=F+TS    =  -27706.45892298 Ry

     The total energy is F=E-TS. E is the sum of the following terms:
     one-electron contribution =  525249.33602178 Ry
     hartree contribution      = -262808.75191816 Ry
     xc contribution           =   -1610.32770094 Ry
     ewald contribution        = -271752.98871722 Ry
     DFT-D3 Dispersion         =      -4.06355485 Ry
     one-center paw contrib.   =  -16779.66305360 Ry

     convergence has been achieved in  23 iterations

     negative rho (up, down):  9.209E-04 0.000E+00

     Forces acting on atoms (cartesian axes, Ry/au):

     atom    1 type  1   force =     0.00084793    0.00063917    0.00051511
     atom    2 type  1   force =    -0.00000627    0.00000387    0.00190089
     atom    3 type  1   force =     0.00003451   -0.00000956    0.00003241
     atom    4 type  2   force =    -0.00000314    0.00000310   -0.00338790
     atom    5 type  2   force =    -0.00003321   -0.00002606   -0.00008797
     atom    6 type  2   force =    -0.00004406    0.00039236   -0.00054951
     atom    7 type  2   force =    -0.00000069   -0.00000171    0.00162508
     atom    8 type  2   force =     0.00002598   -0.00004035    0.00010514
     atom    9 type  2   force =    -0.00006204    0.00018095    0.00018481
     atom   10 type  1   force =    -0.00000244   -0.00007318    0.00070559
     atom   11 type  1   force =    -0.00000905    0.00000193    0.00189920
     atom   12 type  1   force =     0.00003148   -0.00000195    0.00005996
     atom   13 type  2   force =    -0.00000255    0.00000117   -0.00338013
     atom   14 type  2   force =     0.00000312   -0.00001705   -0.00007724
     atom   15 type  2   force =     0.00010129    0.00057666   -0.00051729
     atom   16 type  2   force =     0.00000109   -0.00000162    0.00163245
     atom   17 type  2   force =     0.00002349    0.00001086    0.00014160
     atom   18 type  2   force =    -0.00009412    0.00044747    0.00085294
     atom   19 type  1   force =     0.00010998    0.00004844    0.00038582
     atom   20 type  1   force =     0.00000814   -0.00000721    0.00190125
     atom   21 type  1   force =     0.00000331   -0.00002915    0.00004714
     atom   22 type  2   force =     0.00000298    0.00000181   -0.00338668
     atom   23 type  2   force =     0.00000013   -0.00003796   -0.00005070
     atom   24 type  2   force =     0.00062478    0.00019264   -0.00171393
     atom   25 type  2   force =     0.00000501   -0.00000532    0.00162904
     atom   26 type  2   force =    -0.00002342    0.00000197    0.00013656
     atom   27 type  2   force =    -0.00003857   -0.00047413   -0.00067591
     atom   28 type  1   force =    -0.00026519   -0.00016594    0.00006173
     atom   29 type  1   force =     0.00000006    0.00000640    0.00189752
     atom   30 type  1   force =    -0.00001552    0.00000214    0.00001640
     atom   31 type  2   force =    -0.00000269    0.00000416   -0.00338836
     atom   32 type  2   force =    -0.00003088   -0.00000989   -0.00006276
     atom   33 type  2   force =    -0.00013180    0.00023678   -0.00059271
     atom   34 type  2   force =    -0.00000475   -0.00000067    0.00163085
     atom   35 type  2   force =    -0.00005565   -0.00003190    0.00015679
     atom   36 type  2   force =    -0.00039068    0.00033863    0.00034362
     atom   37 type  1   force =    -0.00063921   -0.00195427   -0.00002139
     atom   38 type  1   force =    -0.00000481    0.00000048    0.00189619
     atom   39 type  1   force =    -0.00001790   -0.00007598   -0.00003517
     atom   40 type  2   force =    -0.00000256    0.00000117   -0.00338738
     atom   41 type  2   force =     0.00001687   -0.00008566   -0.00014495
     atom   42 type  2   force =     0.00063920    0.00003724   -0.00012352
     atom   43 type  2   force =    -0.00000029    0.00000348    0.00162274
     atom   44 type  2   force =    -0.00001004   -0.00003345    0.00005238
     atom   45 type  2   force =    -0.00019837   -0.00013156    0.00013287
     atom   46 type  1   force =    -0.00250438    0.00002907   -0.00122122
     atom   47 type  1   force =    -0.00001087    0.00000164    0.00189219
     atom   48 type  1   force =    -0.00003069    0.00000095    0.00003098
     atom   49 type  2   force =    -0.00000425    0.00000204   -0.00338794
     atom   50 type  2   force =    -0.00005189   -0.00001501   -0.00009085
     atom   51 type  2   force =    -0.00037197    0.00007115   -0.00050905
     atom   52 type  2   force =     0.00000249    0.00000263    0.00162028
     atom   53 type  2   force =     0.00002755   -0.00002380    0.00013663
     atom   54 type  2   force =     0.00114701    0.00235043    0.00347755
     atom   55 type  1   force =     0.00066255    0.00017744   -0.00208417
     atom   56 type  1   force =    -0.00000819    0.00000437    0.00189520
     atom   57 type  1   force =    -0.00000783   -0.00006083    0.00002445
     atom   58 type  2   force =    -0.00000368    0.00000482   -0.00338162
     atom   59 type  2   force =    -0.00001429   -0.00004256   -0.00005386
     atom   60 type  2   force =     0.00005652   -0.00028017   -0.00031018
     atom   61 type  2   force =     0.00000877   -0.00000474    0.00162235
     atom   62 type  2   force =     0.00001286   -0.00000004    0.00014814
     atom   63 type  2   force =     0.00065402   -0.00046073    0.00069888
     atom   64 type  1   force =    -0.00038332   -0.00027888    0.00034978
     atom   65 type  1   force =     0.00000732   -0.00000534    0.00189517
     atom   66 type  1   force =    -0.00003858   -0.00003299    0.00000979
     atom   67 type  2   force =     0.00000033    0.00000134   -0.00338614
     atom   68 type  2   force =    -0.00002949   -0.00001576   -0.00007544
     atom   69 type  2   force =    -0.00022803   -0.00034606   -0.00048060
     atom   70 type  2   force =     0.00001139   -0.00000050    0.00162339
     atom   71 type  2   force =     0.00000927   -0.00002375    0.00013811
     atom   72 type  2   force =    -0.00020444   -0.00007014   -0.00023813
     atom   73 type  1   force =     0.00053141   -0.00231114   -0.00114967
     atom   74 type  1   force =     0.00000573   -0.00000504    0.00190328
     atom   75 type  1   force =     0.00002877   -0.00007295   -0.00003359
     atom   76 type  2   force =    -0.00000215   -0.00000012   -0.00338741
     atom   77 type  2   force =     0.00001925   -0.00004131   -0.00013368
     atom   78 type  2   force =    -0.00048746   -0.00049465   -0.00126510
     atom   79 type  2   force =     0.00000092   -0.00000538    0.00163186
     atom   80 type  2   force =     0.00000517   -0.00002919    0.00006038
     atom   81 type  2   force =     0.00009267    0.00036660   -0.00095351
     atom   82 type  1   force =    -0.00246287    0.00161461   -0.02628164
     atom   83 type  1   force =    -0.00000460    0.00000708    0.00189360
     atom   84 type  1   force =     0.00000135   -0.00001487   -0.00004830
     atom   85 type  2   force =    -0.00000417    0.00000162   -0.00338799
     atom   86 type  2   force =    -0.00000115   -0.00003118   -0.00012115
     atom   87 type  2   force =    -0.00023521   -0.00045450    0.00208854
     atom   88 type  2   force =    -0.00000353    0.00000261    0.00162779
     atom   89 type  2   force =     0.00001291   -0.00003861    0.00004953
     atom   90 type  2   force =    -0.01312364   -0.01266322    0.00009934
     atom   91 type  1   force =    -0.00049934    0.00280414   -0.00104483
     atom   92 type  1   force =    -0.00000356    0.00000144    0.00189497
     atom   93 type  1   force =    -0.00001832   -0.00003226    0.00003072
     atom   94 type  2   force =    -0.00000535    0.00000273   -0.00338561
     atom   95 type  2   force =    -0.00002739   -0.00004024   -0.00013725
     atom   96 type  2   force =    -0.00095526    0.00103566   -0.00080716
     atom   97 type  2   force =    -0.00000604    0.00000101    0.00162508
     atom   98 type  2   force =    -0.00003452   -0.00006593    0.00010041
     atom   99 type  2   force =    -0.00568433    0.00428248   -0.00642071
     atom  100 type  1   force =    -0.00019536    0.00011677    0.00073911
     atom  101 type  1   force =    -0.00000853    0.00000308    0.00189287
     atom  102 type  1   force =     0.00002566   -0.00001354   -0.00002271
     atom  103 type  2   force =    -0.00000386    0.00000198   -0.00338146
     atom  104 type  2   force =     0.00000900   -0.00003922   -0.00007753
     atom  105 type  2   force =     0.00014531    0.00040466   -0.00034002
     atom  106 type  2   force =     0.00000321   -0.00000600    0.00162004
     atom  107 type  2   force =    -0.00003790   -0.00000885    0.00015485
     atom  108 type  2   force =     0.00030788    0.00002720    0.00047485
     atom  109 type  1   force =    -0.00048483    0.00071987   -0.00018912
     atom  110 type  1   force =    -0.00000636    0.00000670    0.00189789
     atom  111 type  1   force =    -0.00000784   -0.00005653   -0.00000599
     atom  112 type  2   force =    -0.00000321    0.00000197   -0.00338175
     atom  113 type  2   force =     0.00002633   -0.00001165   -0.00005807
     atom  114 type  2   force =    -0.00012400   -0.00002445   -0.00015196
     atom  115 type  2   force =    -0.00000223   -0.00000446    0.00163071
     atom  116 type  2   force =     0.00000159   -0.00002089    0.00010757
     atom  117 type  2   force =    -0.00014030   -0.00002870    0.00051563
     atom  118 type  1   force =     0.00228655    0.00049576   -0.00104940
     atom  119 type  1   force =     0.00001305   -0.00000509    0.00190343
     atom  120 type  1   force =    -0.00001120   -0.00001177   -0.00004582
     atom  121 type  2   force =    -0.00000007   -0.00000141   -0.00338916
     atom  122 type  2   force =     0.00002368   -0.00002615   -0.00008422
     atom  123 type  2   force =    -0.00033184    0.00014405    0.00248734
     atom  124 type  2   force =    -0.00000184   -0.00000858    0.00163484
     atom  125 type  2   force =    -0.00004675   -0.00001612    0.00019587
     atom  126 type  2   force =     0.01476968   -0.00930111    0.01638558
     atom  127 type  1   force =     0.00084354    0.00124733    0.00001671
     atom  128 type  1   force =    -0.00000740   -0.00000697    0.00189865
     atom  129 type  1   force =    -0.00004510   -0.00005232   -0.00001254
     atom  130 type  2   force =    -0.00000381    0.00000298   -0.00338259
     atom  131 type  2   force =    -0.00001423   -0.00000345   -0.00010213
     atom  132 type  2   force =    -0.00053295    0.00023463    0.00165194
     atom  133 type  2   force =    -0.00001094    0.00000026    0.00162027
     atom  134 type  2   force =    -0.00001143   -0.00002584    0.00010471
     atom  135 type  2   force =     0.00431422    0.01795673    0.00051572
     atom  136 type  1   force =    -0.00007444   -0.00055238    0.00044823
     atom  137 type  1   force =    -0.00000856    0.00000893    0.00189748
     atom  138 type  1   force =    -0.00004411   -0.00000435    0.00001742
     atom  139 type  2   force =    -0.00000474    0.00000507   -0.00338504
[...]
     atom   72 type  2   force =     0.00019009   -0.00006661   -0.00013514
     atom   73 type  1   force =     0.00014723   -0.00012176    0.00014262
     atom   74 type  1   force =     0.00000097   -0.00000504    0.00190590
     atom   75 type  1   force =    -0.00001297   -0.00001380   -0.00000536
     atom   76 type  2   force =     0.00000102   -0.00000037   -0.00328170
     atom   77 type  2   force =    -0.00000182   -0.00000709    0.00000246
     atom   78 type  2   force =     0.00010600    0.00026260    0.00002346
     atom   79 type  2   force =     0.00000307   -0.00001638    0.00152435
     atom   80 type  2   force =    -0.00000857   -0.00001842   -0.00002943
     atom   81 type  2   force =    -0.00023152    0.00009221    0.00001895
     atom   82 type  1   force =    -0.00011623    0.00013500   -0.00005047
     atom   83 type  1   force =     0.00000123   -0.00000337    0.00190287
     atom   84 type  1   force =    -0.00000262   -0.00001602   -0.00000830
     atom   85 type  2   force =     0.00000128   -0.00000057   -0.00328036
     atom   86 type  2   force =     0.00001717   -0.00000528   -0.00000457
     atom   87 type  2   force =     0.00038849    0.00009404    0.00008605
     atom   88 type  2   force =     0.00000009   -0.00000883    0.00152530
     atom   89 type  2   force =    -0.00002625   -0.00000029    0.00001036
     atom   90 type  2   force =    -0.00071378    0.00034719    0.00040540
     atom   91 type  1   force =    -0.00031339    0.00010737   -0.00022389
     atom   92 type  1   force =     0.00000052   -0.00000408    0.00190217
     atom   93 type  1   force =     0.00001115   -0.00003115   -0.00000640
     atom   94 type  2   force =     0.00000135   -0.00000065   -0.00328113
     atom   95 type  2   force =     0.00002469   -0.00003602   -0.00001201
     atom   96 type  2   force =     0.00013617   -0.00003853   -0.00080700
     atom   97 type  2   force =    -0.00000373   -0.00000985    0.00151737
     atom   98 type  2   force =     0.00000839   -0.00001998    0.00001646
     atom   99 type  2   force =    -0.00085355    0.00049842   -0.00064959
     atom  100 type  1   force =    -0.00003129    0.00005871   -0.00018839
     atom  101 type  1   force =     0.00000152   -0.00000294    0.00189930
     atom  102 type  1   force =     0.00000420   -0.00002264   -0.00003123
     atom  103 type  2   force =     0.00000114   -0.00000044   -0.00328091
     atom  104 type  2   force =     0.00000418   -0.00001513   -0.00002546
     atom  105 type  2   force =    -0.00017890   -0.00051596    0.00001350
     atom  106 type  2   force =     0.00000293   -0.00001368    0.00152720
     atom  107 type  2   force =     0.00000146   -0.00002396   -0.00003109
     atom  108 type  2   force =     0.00009749   -0.00006488    0.00005559
     atom  109 type  1   force =     0.00014907   -0.00005943   -0.00021132
     atom  110 type  1   force =     0.00000085   -0.00000522    0.00190154
     atom  111 type  1   force =     0.00001108   -0.00000459    0.00001466
     atom  112 type  2   force =     0.00000119   -0.00000033   -0.00328167
     atom  113 type  2   force =     0.00002405   -0.00000709    0.00000948
     atom  114 type  2   force =     0.00005724    0.00017556   -0.00037810
     atom  115 type  2   force =     0.00000453   -0.00001579    0.00152010
     atom  116 type  2   force =    -0.00000993   -0.00002831    0.00003320
     atom  117 type  2   force =     0.00039066   -0.00010317   -0.00000387
     atom  118 type  1   force =     0.00018588   -0.00001420    0.00017977
     atom  119 type  1   force =     0.00000091   -0.00000357    0.00190253
     atom  120 type  1   force =     0.00000669   -0.00001491    0.00001618
     atom  121 type  2   force =     0.00000115   -0.00000052   -0.00328143
     atom  122 type  2   force =    -0.00000935   -0.00002966   -0.00000569
     atom  123 type  2   force =     0.00014415   -0.00005900    0.00001322
     atom  124 type  2   force =     0.00000457   -0.00001090    0.00152684
     atom  125 type  2   force =    -0.00002689   -0.00001162    0.00006028
     atom  126 type  2   force =     0.00028515   -0.00014474    0.00059689
     atom  127 type  1   force =    -0.00031485    0.00001188    0.00010121
     atom  128 type  1   force =     0.00000030   -0.00000437    0.00190265
     atom  129 type  1   force =     0.00000043   -0.00001886   -0.00000559
     atom  130 type  2   force =     0.00000135   -0.00000058   -0.00328120
     atom  131 type  2   force =     0.00000188   -0.00004050   -0.00001676
     atom  132 type  2   force =     0.00007177   -0.00033102    0.00008481
     atom  133 type  2   force =    -0.00000025   -0.00001103    0.00151807
     atom  134 type  2   force =    -0.00001329    0.00000474   -0.00000250
     atom  135 type  2   force =    -0.00064525    0.00055259    0.00049354
     atom  136 type  1   force =     0.00007034    0.00001051    0.00010136
     atom  137 type  1   force =    -0.00000014   -0.00000342    0.00190008
     atom  138 type  1   force =     0.00001204   -0.00001169    0.00000489
     atom  139 type  2   force =     0.00000141   -0.00000049   -0.00328109
     atom  140 type  2   force =     0.00002308    0.00000245    0.00000021
     atom  141 type  2   force =     0.00009775   -0.00000593   -0.00001100
     atom  142 type  2   force =    -0.00000323   -0.00001024    0.00151590
     atom  143 type  2   force =    -0.00000406   -0.00005752    0.00004285
     atom  144 type  2   force =    -0.00008059    0.00000893   -0.00019318
     atom  145 type  3   force =    -0.00013475   -0.00061893    0.00008347
     atom  146 type  3   force =     0.00032484    0.00047242    0.00000862
     atom  147 type  4   force =     0.00085632   -0.00045450   -0.00049756

     Total force =     0.003222     Total SCF correction =     0.000361
     SCF correction compared to forces is large: reduce conv_thr to get better values
     Energy error            =      2.2E-05 Ry
     Gradient error          =      8.6E-04 Ry/Bohr

     bfgs converged in  23 scf cycles and  22 bfgs steps
     (criteria: energy <  1.0E-04 Ry, force <  1.0E-03 Ry/Bohr)

     End of BFGS Geometry Optimization

     Final energy             =  -27706.4692514743 Ry

     File ./outdir/pwscf.bfgs deleted, as requested
Begin final coordinates

ATOMIC_POSITIONS (angstrom)
Mo               1.5703038627        2.7097657683        6.0981375197
Mo               1.5769197498        0.9104407117       -6.0872367793    0   0   0
Mo              -0.0000066065        1.8188760805        0.0009622835
S                0.0000044503        0.0000077495       -7.6506323570    0   0   0
S                1.5765623813        0.9086395125       -1.5651594210
S               -0.0031141445        1.8080127139        4.5266688230
S                0.0000053241        0.0000068460       -4.5222282367    0   0   0
S                1.5768113752        0.9082313195        1.5666524375
S               -0.0009722338        1.8069266656        7.6704974342
Mo              -0.0069238503        5.4455124216        6.0989095750
Mo               0.0000011799        3.6417399547       -6.0872367793    0   0   0
Mo              -1.5766751015        4.5499345179        0.0013379248
S               -1.5769141197        2.7313069925       -7.6506323570    0   0   0
S                0.0003247050        3.6401134006       -1.5641436931
S               -1.5717491640        4.5327200553        4.5250228782
S               -1.5769132459        2.7313060890       -4.5222282367    0   0   0
S                0.0009395349        3.6396915718        1.5689400284
S               -1.5799339252        4.5392119522        7.6674381766
Mo              -1.5780298338        8.1770407158        6.0547771110
Mo              -1.5769173901        6.3730391977       -6.0872367793    0   0   0
Mo              -3.1541600036        7.2809990951        0.0006767834
S               -3.1538326896        5.4626062355       -7.6506323570    0   0   0
S               -1.5766203961        6.3708013659       -1.5644275603
S               -3.1475529789        7.2554538091        4.4916778702
S               -3.1538318159        5.4626053320       -4.5222282367    0   0   0
S               -1.5771157992        6.3705196531        1.5670935215
S               -3.1305821842        7.2782441734        7.6384875446
Mo               3.1523227623       -0.0138506890        6.0579611421
Mo              -3.1538359601        9.1043384407       -6.0872367793    0   0   0
Mo              -4.7313258576       10.0126127466        0.0003046957
S               -4.7307512596        8.1939054785       -7.6506323570    0   0   0
S               -3.1540051099        9.1020573286       -1.5648478565
S               -4.7415636575       10.0143496138        4.4970915153
S               -4.7307503859        8.1939045750       -4.5222282367    0   0   0
S               -3.1544793719        9.1021128049        1.5671621781
S               -4.7086059108       10.0108638246        7.6411641312
Mo               4.7317866481        2.6687209286        6.0639208399
Mo               4.7307503218        0.9104407117       -6.0872367793    0   0   0
Mo               3.1536398690        1.8191917751        0.0003186712
S                3.1538350223        0.0000077495       -7.6506323570    0   0   0
S                4.7308618489        0.9085407980       -1.5649253482
S                3.1358876279        1.8083589671        4.4967394832
S                3.1538358961        0.0000068460       -4.5222282367    0   0   0
S                4.7305078436        0.9086177539        1.5670933485
S                3.1553458121        1.7816514823        7.6407815194
Mo               3.1300941878        5.4287662214        6.1279700252
Mo               3.1538317519        3.6417399547       -6.0872367793    0   0   0
Mo               1.5773991054        4.5503398959        0.0014731183
S                1.5769164523        2.7313069925       -7.6506323570    0   0   0
S                3.1538046025        3.6402699530       -1.5646905137
S                1.5868793833        4.5418937840        4.5545450220
S                1.5769173261        2.7313060890       -4.5222282367    0   0   0
S                3.1546038662        3.6399728064        1.5686388928
S                1.4917332738        4.4838794941        7.7542055325
Mo               1.5270324077        8.2082438342        6.0631309082
Mo               1.5769131819        6.3730391977       -6.0872367793    0   0   0
Mo               0.0003739072        7.2810502859        0.0013596173
S               -0.0000021176        5.4626062355       -7.6506323570    0   0   0
S                1.5771114442        6.3710674176       -1.5641074984
S               -0.0094934908        7.2502740386        4.4935020191
S               -0.0000012439        5.4626053320       -4.5222282367    0   0   0
S                1.5781304016        6.3708977960        1.5692882546
S               -0.0260417746        7.2827798483        7.6399520042
Mo               6.3089773667       -0.0125305785        6.0548712993
Mo              -0.0000053881        9.1043384407       -6.0872367793    0   0   0
Mo              -1.5770175857       10.0126568002        0.0005637654
S               -1.5769206876        8.1939054785       -7.6506323570    0   0   0
S                0.0003086465        9.1021203334       -1.5641694839
S               -1.5781084229       10.0009258071        4.4869557897
S               -1.5769198139        8.1939045750       -4.5222282367    0   0   0
S                0.0000710131        9.1021599546        1.5679735904
S               -1.5770097373       10.0000089945        7.6206985572
Mo               7.8914484196        2.7097708394        6.0895006791
Mo               7.8845808939        0.9104407117       -6.0872367793    0   0   0
Mo               6.3078615916        1.8191288025        0.0005252655
S                6.3076655943        0.0000077495       -7.6506323570    0   0   0
S                7.8850540178        0.9083659838       -1.5646283782
S                6.3225786500        1.8074955090        4.4916175115
S                6.3076664681        0.0000068460       -4.5222282367    0   0   0
S                7.8848619039        0.9086012199        1.5669377905
S                6.3104509139        1.7813961916        7.6384600141
Mo               6.3379683366        5.4302097479        6.1282817597
Mo               6.3076623239        3.6417399547       -6.0872367793    0   0   0
Mo               4.7307833737        4.5505504275        0.0007413990
S                4.7307470244        2.7313069925       -7.6506323570    0   0   0
S                6.3078219549        3.6400131304       -1.5646265448
S                4.7286798610        4.5492897000        4.5745005393
S                4.7307478981        2.7313060890       -4.5222282367    0   0   0
S                6.3070127388        3.6400730195        1.5684766082
S                4.7567100196        4.3998699722        7.6800732022
Mo               4.7357400384        8.2097728906        6.1278765477
Mo               4.7307437539        6.3730391977       -6.0872367793    0   0   0
Mo               3.1542460576        7.2811971816        0.0011730919
S                3.1538284544        5.4626062355       -7.6506323570    0   0   0
S                4.7305144234        6.3711517610       -1.5649842819
S                3.1652369668        7.2625390317        4.5805727425
S                3.1538293281        5.4626053320       -4.5222282367    0   0   0
S                4.7308319408        6.3707616573        1.5688613799
S                3.0186502056        7.3474477614        7.6677124101
Mo               9.4602826074       -0.0069761522        6.0993496546
Mo               3.1538251839        9.1043384407       -6.0872367793    0   0   0
Mo               1.5774069274       10.0125950749        0.0012245721
S                1.5769098844        8.1939054785       -7.6506323570    0   0   0
S                3.1539154234        9.1022111461       -1.5642257741
S                1.5886704748       10.0181872522        4.4937440408
S                1.5769107581        8.1939045750       -4.5222282367    0   0   0
S                3.1543839642        9.1012466100        1.5691654940
S                1.5516929929       10.0158377082        7.6402088288
Mo              -1.5765197573        2.7165563680        6.0975736283
Mo              11.0384114659        0.9104407117       -6.0872367793    0   0   0
Mo               9.4618073860        1.8188073462        0.0011866679
S                9.4614961663        0.0000077495       -7.6506323570    0   0   0
S               11.0383850701        0.9082257647       -1.5642559276
S                9.4682127333        1.8046440569        4.5253305811
S                9.4614970401        0.0000068460       -4.5222282367    0   0   0
S               11.0387148389        0.9075470670        1.5687985581
S                9.4585455181        1.8084801768        7.6678542079
Mo              -3.1443072465        5.4453357916        6.0892449509
Mo               9.4614928959        3.6417399547       -6.0872367793    0   0   0
Mo               7.8844023853        4.5501444907        0.0013439222
S                7.8845775964        2.7313069925       -7.6506323570    0   0   0
S                9.4616389407        3.6398437672       -1.5640183629
S                7.8792348164        4.5405770616        4.5420576290
S                7.8845784701        2.7313060890       -4.5222282367    0   0   0
S                9.4612492100        3.6396962773        1.5690743097
S                7.9639521049        4.4916706267        7.7189174663
Mo              -4.6885429100        8.2021056992        6.0642971789
Mo               7.8845743259        6.3730391977       -6.0872367793    0   0   0
Mo               6.3071721043        7.2811227826        0.0007275270
S                6.3076590264        5.4626062355       -7.6506323570    0   0   0
S                7.8843588581        6.3707524434       -1.5645525964
S                6.2968199096        7.2647202839        4.5746713757
S                6.3076599001        5.4626053320       -4.5222282367    0   0   0
S                7.8835359063        6.3709951968        1.5685246653
S                6.4399110538        7.3144203361        7.6798832305
Mo               0.0028102292       -0.0054294916        6.0983916297
Mo               6.3076557559        9.1043384407       -6.0872367793    0   0   0
Mo               4.7307109575       10.0123049543        0.0013343416
S                4.7307404564        8.1939054785       -7.6506323570    0   0   0
S                6.3070924909        9.1021144280       -1.5647483008
S                4.7320140886        9.9900437226        4.5546337749
S                4.7307413301        8.1939045750       -4.5222282367    0   0   0
S                6.3074225000        9.1013107273        1.5685634467
S                4.7348876786       10.1008770825        7.7544737362
Pt               3.2563984028        5.5303426922        8.9981010409
Pt               4.7119518238        8.0493053311        8.9983438658
Pd               6.2246813868        5.4953102570        9.1037891718
End final coordinates



     Writing all to output data dir ./outdir/pwscf.save/ :
     XML data file, charge density, pseudopotentials, collected wavefunctions
 
     init_run     :     95.99s CPU     98.10s WALL (       1 calls)
     electrons    : 102702.71s CPU 104302.61s WALL (      23 calls)
     update_pot   :     35.06s CPU     35.98s WALL (      22 calls)
     forces       :   1649.92s CPU   1686.97s WALL (      23 calls)
     force_dftd3  :      8.76s CPU      9.17s WALL (      23 calls)

     Called by init_run:
     wfcinit      :     77.71s CPU     78.69s WALL (       1 calls)
     potinit      :      1.35s CPU      1.45s WALL (       1 calls)
     hinit0       :      9.23s CPU      9.30s WALL (       1 calls)

     Called by electrons:
     c_bands      :  89402.93s CPU  90379.21s WALL (     307 calls)
     sum_band     :  11373.76s CPU  11704.54s WALL (     307 calls)
     v_of_rho     :     88.16s CPU     99.14s WALL (     310 calls)
     newd         :   1557.95s CPU   1844.65s WALL (     310 calls)
     PAW_pot      :    342.17s CPU    344.65s WALL (     332 calls)
     mix_rho      :     23.43s CPU     26.60s WALL (     307 calls)
     energy_dftd3 :      4.98s CPU      5.01s WALL (      23 calls)

     Called by c_bands:
     init_us_2    :    431.71s CPU    433.80s WALL (    2640 calls)
     init_us_2:cp :    431.69s CPU    433.79s WALL (    2640 calls)
     cegterg      :  87664.12s CPU  88632.28s WALL (    1237 calls)

     Called by *egterg:
     cdiaghg      :   4743.48s CPU   4949.05s WALL (   15025 calls)
     h_psi        :  45269.15s CPU  45579.02s WALL (   15197 calls)
     s_psi        :   9270.26s CPU   9313.31s WALL (   15197 calls)
     g_psi        :    101.60s CPU    102.17s WALL (   13956 calls)

     Called by h_psi:
     h_psi:calbec :   9268.55s CPU   9306.28s WALL (   15197 calls)
     vloc_psi     :  26500.15s CPU  26652.13s WALL (   15197 calls)
     add_vuspsi   :   9280.93s CPU   9327.40s WALL (   15197 calls)

     General routines
     calbec       :  13213.17s CPU  13268.15s WALL (   16881 calls)
     fft          :     66.70s CPU     76.53s WALL (    4279 calls)
     ffts         :      4.14s CPU      4.26s WALL (     617 calls)
     fftw         :  19634.24s CPU  19748.78s WALL ( 6923750 calls)
     interpolate  :      7.41s CPU      8.14s WALL (     310 calls)
 
     Parallel routines
 
     PWSCF        :   1d 5h10m CPU   1d 5h39m WALL

 
   This run was terminated on:  22:17:40  29Mar2024            

=------------------------------------------------------------------------------=
   JOB DONE.
=------------------------------------------------------------------------------=
