
     Program PWSCF v.7.3 starts on  1Apr2024 at  3:18:21 

     This program is part of the open-source Quantum ESPRESSO suite
     for quantum simulation of materials; please cite
         "P. Giannozzi et al., J. Phys.:Condens. Matter 21 395502 (2009);
         "P. Giannozzi et al., J. Phys.:Condens. Matter 29 465901 (2017);
         "P. Giannozzi et al., J. Chem. Phys. 152 154105 (2020);
          URL http://www.quantum-espresso.org", 
     in publications or presentations arising from this work. More details at
     http://www.quantum-espresso.org/quote

     Parallel version (MPI & OpenMP), running on      36 processor cores
     Number of MPI processes:                36
     Threads/MPI process:                     1

     MPI processes distributed on     1 nodes
     548811 MiB available memory on the printing compute node when the environment starts
 
     Waiting for input...
     Reading input from standard input
Warning: card &CELL ignored
Warning: card / ignored

     Current dimensions of program PWSCF are:
     Max number of different atomic species (ntypx) = 10
     Max number of k-points (npk) =  40000
     Max angular momentum in pseudopotentials (lmaxx) =  4
     file Mo.pbe-spn-kjpaw_psl.1.0.0.UPF: wavefunction(s)  4S 4D renormalized
     file S.pbe-n-kjpaw_psl.1.0.0.UPF: wavefunction(s)  3S 3P renormalized
     file Pt.pbe-spfn-kjpaw_psl.1.0.0.UPF: wavefunction(s)  5P 4F renormalized
     file Pd.pbe-spn-kjpaw_psl.1.0.0.UPF: wavefunction(s)  4S 5S 4D renormalized
 
     R & G space division:  proc/nbgrp/npool/nimage =      36
     Subspace diagonalization in iterative solution of the eigenvalue problem:
     one sub-group per band group will be used
     scalapack distributed-memory algorithm (size of sub-group:  6*  6 procs)

 
     Parallelization info
     --------------------
     sticks:   dense  smooth     PW     G-vecs:    dense   smooth      PW
     Min         586     335     89               165416    71459    9765
     Max         587     337     90               165425    71461    9778
     Sum       21109   12085   3205              5955087  2572543  351657
 
     Using Slab Decomposition
 


     bravais-lattice index     =            0
     lattice parameter (alat)  =      23.8395  a.u.
     unit-cell volume          =   28182.8498 (a.u.)^3
     number of atoms/cell      =          147
     number of atomic types    =            4
     number of electrons       =      1316.00
     number of Kohn-Sham states=          790
     kinetic-energy cutoff     =      77.0000  Ry
     charge density cutoff     =     539.0000  Ry
     scf convergence threshold =      1.0E-06
     mixing beta               =       0.2000
     number of iterations used =            8  plain     mixing
     energy convergence thresh.=      1.0E-04
     force convergence thresh. =      1.0E-03
     Exchange-correlation= SLA  PW   PBX  PBC
                           (   1   4   3   4   0   0   0)
     nstep                     =         1000


     Effective Screening Medium Method
     =================================
     Boundary Conditions: Vacuum-Slab-Vacuum
     total charge in unit cell        =   0.0000
     grid points for fit at edges     =        4 
 

     celldm(1)=  23.839504  celldm(2)=   0.000000  celldm(3)=   0.000000
     celldm(4)=   0.000000  celldm(5)=   0.000000  celldm(6)=   0.000000

     crystal axes: (cart. coord. in units of alat)
               a(1) = (   1.000000   0.000000   0.000000 )  
               a(2) = (  -0.500001   0.866026   0.000000 )  
               a(3) = (   0.000000   0.000000   2.401941 )  

     reciprocal axes: (cart. coord. in units 2 pi/alat)
               b(1) = (  1.000000  0.577351  0.000000 )  
               b(2) = (  0.000000  1.154700  0.000000 )  
               b(3) = (  0.000000  0.000000  0.416330 )  


     PseudoPot. # 1 for Mo read from file:
     ./pseudo/Mo.pbe-spn-kjpaw_psl.1.0.0.UPF
     MD5 check sum: 317bf72632116215fd98f72de1686f13
     Pseudo is Projector augmented-wave + core cor, Zval = 14.0
     Generated using 'atomic' code by A. Dal Corso  v.7.2
     Shape of augmentation charge: PSQ
     Using radial grid of 1229 points,  6 beta functions with: 
                l(1) =   0
                l(2) =   0
                l(3) =   1
                l(4) =   1
                l(5) =   2
                l(6) =   2
     Q(r) pseudized with 0 coefficients 


     PseudoPot. # 2 for S  read from file:
     ./pseudo/S.pbe-n-kjpaw_psl.1.0.0.UPF
     MD5 check sum: 8b7b5302570d38d5e87fed6a1065abda
     Pseudo is Projector augmented-wave + core cor, Zval =  6.0
     Generated using 'atomic' code by A. Dal Corso  v.7.2
     Shape of augmentation charge: PSQ
     Using radial grid of 1151 points,  6 beta functions with: 
                l(1) =   0
                l(2) =   0
                l(3) =   1
                l(4) =   1
                l(5) =   2
                l(6) =   2
     Q(r) pseudized with 0 coefficients 


     PseudoPot. # 3 for Pt read from file:
     ./pseudo/Pt.pbe-spfn-kjpaw_psl.1.0.0.UPF
     MD5 check sum: 620096ebf4e6ebacc94de60fd67efcb5
     Pseudo is Projector augmented-wave + core cor, Zval = 32.0
     Generated using 'atomic' code by A. Dal Corso  v.7.2
     Shape of augmentation charge: PSQ
     Using radial grid of 1277 points,  8 beta functions with: 
                l(1) =   0
                l(2) =   0
                l(3) =   1
                l(4) =   1
                l(5) =   2
                l(6) =   2
                l(7) =   3
                l(8) =   3
     Q(r) pseudized with 0 coefficients 


     PseudoPot. # 4 for Pd read from file:
     ./pseudo/Pd.pbe-spn-kjpaw_psl.1.0.0.UPF
     MD5 check sum: a60571a671f2502b8a6a4569d20a6edb
     Pseudo is Projector augmented-wave + core cor, Zval = 18.0
     Generated using 'atomic' code by A. Dal Corso  v.7.2
     Shape of augmentation charge: PSQ
     Using radial grid of 1235 points,  6 beta functions with: 
                l(1) =   0
                l(2) =   0
                l(3) =   1
                l(4) =   1
                l(5) =   2
                l(6) =   2
     Q(r) pseudized with 0 coefficients 


     atomic species   valence    mass     pseudopotential
     Mo               14.00    95.95000     Mo( 1.00)
     S                 6.00    32.06000     S ( 1.00)
     Pt               32.00   195.08400     Pt( 1.00)
     Pd               18.00   106.42000     Pd( 1.00)

     No symmetry found



   Cartesian axes

     site n.     atom                  positions (alat units)
         1        Mo     tau(   1) = (   0.1246074   0.2157200   0.4826345  )
         2        Mo     tau(   2) = (   0.1250004   0.0721694  -0.4825273  )
         3        Mo     tau(   3) = (   0.0000068   0.1443549  -0.0000406  )
         4        S      tau(   4) = (   0.0000004   0.0000006  -0.6064556  )
         5        S      tau(   5) = (   0.1249873   0.0722031  -0.1241756  )
         6        S      tau(   6) = (   0.0000973   0.1450650   0.3573519  )
         7        S      tau(   7) = (   0.0000004   0.0000005  -0.3584711  )
         8        S      tau(   8) = (   0.1249847   0.0720950   0.1240801  )
         9        S      tau(   9) = (  -0.0005301   0.1434694   0.6062599  )
        10        Mo     tau(  10) = (  -0.0009156   0.4330317   0.4832560  )
        11        Mo     tau(  11) = (   0.0000001   0.2886759  -0.4825273  )
        12        Mo     tau(  12) = (  -0.1249829   0.3608507   0.0000027  )
        13        S      tau(  13) = (  -0.1249999   0.2165071  -0.6064556  )
        14        S      tau(  14) = (   0.0000128   0.2886930  -0.1241006  )
        15        S      tau(  15) = (  -0.1248837   0.3612581   0.3580377  )
        16        S      tau(  16) = (  -0.1249998   0.2165070  -0.3584711  )
        17        S      tau(  17) = (   0.0000764   0.2887257   0.1242499  )
        18        S      tau(  18) = (  -0.1253220   0.3603286   0.6073134  )
        19        Mo     tau(  19) = (  -0.1249684   0.6493789   0.4818062  )
        20        Mo     tau(  20) = (  -0.1250002   0.5051824  -0.4825273  )
        21        Mo     tau(  21) = (  -0.2500040   0.5773207  -0.0001409  )
        22        S      tau(  22) = (  -0.2500002   0.4330136  -0.6064556  )
        23        S      tau(  23) = (  -0.1249903   0.5051158  -0.1241917  )
        24        S      tau(  24) = (  -0.2499555   0.5769406   0.3578597  )
        25        S      tau(  25) = (  -0.2500001   0.4330135  -0.3584711  )
        26        S      tau(  26) = (  -0.1249930   0.5052458   0.1241101  )
        27        S      tau(  27) = (  -0.2497899   0.5778453   0.6063597  )
        28        Mo     tau(  28) = (   0.2497834  -0.0005160   0.4806710  )
        29        Mo     tau(  29) = (  -0.2500004   0.7216889  -0.4825273  )
        30        Mo     tau(  30) = (  -0.3750188   0.7938286  -0.0001549  )
        31        S      tau(  31) = (  -0.3750004   0.6495201  -0.6064556  )
        32        S      tau(  32) = (  -0.2500074   0.7216649  -0.1242513  )
        33        S      tau(  33) = (  -0.3752234   0.7935039   0.3566636  )
        34        S      tau(  34) = (  -0.3750004   0.6495200  -0.3584711  )
        35        S      tau(  35) = (  -0.2499996   0.7216607   0.1240200  )
        36        S      tau(  36) = (  -0.3746819   0.7948899   0.6057341  )
        37        Mo     tau(  37) = (   0.3750034   0.2123618   0.4807886  )
        38        Mo     tau(  38) = (   0.3750004   0.0721694  -0.4825273  )
        39        Mo     tau(  39) = (   0.2499981   0.1443415  -0.0000413  )
        40        S      tau(  40) = (   0.2500004   0.0000006  -0.6064556  )
        41        S      tau(  41) = (   0.3750280   0.0722231  -0.1241519  )
        42        S      tau(  42) = (   0.2489233   0.1437373   0.3564531  )
        43        S      tau(  43) = (   0.2500004   0.0000005  -0.3584711  )
        44        S      tau(  44) = (   0.3749877   0.0720947   0.1241383  )
        45        S      tau(  45) = (   0.2497122   0.1423104   0.6055821  )
        46        Mo     tau(  46) = (   0.2490774   0.4329018   0.4862977  )
        47        Mo     tau(  47) = (   0.2500001   0.2886759  -0.4825273  )
        48        Mo     tau(  48) = (   0.1250319   0.3608540  -0.0000126  )
        49        S      tau(  49) = (   0.1250001   0.2165071  -0.6064556  )
        50        S      tau(  50) = (   0.2500259   0.2886851  -0.1240979  )
        51        S      tau(  51) = (   0.1263042   0.3620125   0.3614359  )
        52        S      tau(  52) = (   0.1250002   0.2165070  -0.3584711  )
        53        S      tau(  53) = (   0.2500168   0.2886898   0.1242904  )
        54        S      tau(  54) = (   0.1173694   0.3566575   0.6132890  )
        55        Mo     tau(  55) = (   0.1240062   0.6506471   0.4823696  )
        56        Mo     tau(  56) = (   0.1249998   0.5051824  -0.4825273  )
        57        Mo     tau(  57) = (   0.0000191   0.5773226  -0.0001255  )
        58        S      tau(  58) = (  -0.0000002   0.4330136  -0.6064556  )
        59        S      tau(  59) = (   0.1250359   0.5051398  -0.1241676  )
        60        S      tau(  60) = (   0.0000697   0.5768181   0.3580317  )
        61        S      tau(  61) = (  -0.0000001   0.4330135  -0.3584711  )
        62        S      tau(  62) = (   0.1250059   0.5052001   0.1242069  )
        63        S      tau(  63) = (  -0.0003304   0.5778980   0.6066479  )
        64        Mo     tau(  64) = (   0.5003257  -0.0004925   0.4803774  )
        65        Mo     tau(  65) = (  -0.0000004   0.7216889  -0.4825273  )
        66        Mo     tau(  66) = (  -0.1249927   0.7938427  -0.0001655  )
        67        S      tau(  67) = (  -0.1250004   0.6495201  -0.6064556  )
        68        S      tau(  68) = (   0.0000418   0.7216760  -0.1242215  )
        69        S      tau(  69) = (  -0.1250504   0.7929751   0.3566577  )
        70        S      tau(  70) = (  -0.1250004   0.6495200  -0.3584711  )
        71        S      tau(  71) = (  -0.0000163   0.7216479   0.1240623  )
        72        S      tau(  72) = (  -0.1248984   0.7939509   0.6051552  )
        73        Mo     tau(  73) = (   0.6254010   0.2160480   0.4824065  )
        74        Mo     tau(  74) = (   0.6250004   0.0721694  -0.4825273  )
        75        Mo     tau(  75) = (   0.5000167   0.1443371   0.0000092  )
        76        S      tau(  76) = (   0.5000004   0.0000006  -0.6064556  )
        77        S      tau(  77) = (   0.6250207   0.0721868  -0.1241145  )
        78        S      tau(  78) = (   0.5010641   0.1438734   0.3562763  )
        79        S      tau(  79) = (   0.5000004   0.0000005  -0.3584711  )
        80        S      tau(  80) = (   0.6250414   0.0720927   0.1241409  )
        81        S      tau(  81) = (   0.5005473   0.1420509   0.6053992  )
        82        Mo     tau(  82) = (   0.5016373   0.4329758   0.4857863  )
        83        Mo     tau(  83) = (   0.5000001   0.2886759  -0.4825273  )
        84        Mo     tau(  84) = (   0.3750027   0.3608467   0.0000234  )
        85        S      tau(  85) = (   0.3750001   0.2165071  -0.6064556  )
        86        S      tau(  86) = (   0.5000046   0.2886693  -0.1240592  )
        87        S      tau(  87) = (   0.3745963   0.3620572   0.3631324  )
        88        S      tau(  88) = (   0.3750002   0.2165070  -0.3584711  )
        89        S      tau(  89) = (   0.4999634   0.2887051   0.1243131  )
        90        S      tau(  90) = (   0.3781068   0.3490112   0.6089630  )
        91        Mo     tau(  91) = (   0.3753335   0.6518408   0.4830502  )
        92        Mo     tau(  92) = (   0.3749998   0.5051824  -0.4825273  )
        93        Mo     tau(  93) = (   0.2500203   0.5772987  -0.0000555  )
        94        S      tau(  94) = (   0.2499998   0.4330136  -0.6064556  )
        95        S      tau(  95) = (   0.3750008   0.5051221  -0.1241383  )
        96        S      tau(  96) = (   0.2501878   0.5758780   0.3616377  )
        97        S      tau(  97) = (   0.2499999   0.4330135  -0.3584711  )
        98        S      tau(  98) = (   0.3750015   0.5051839   0.1242620  )
        99        S      tau(  99) = (   0.2495016   0.5878580   0.6113208  )
       100        Mo     tau( 100) = (   0.7500199   0.0003818   0.4811571  )
       101        Mo     tau( 101) = (   0.2499996   0.7216889  -0.4825273  )
       102        Mo     tau( 102) = (   0.1250316   0.7938162  -0.0000875  )
       103        S      tau( 103) = (   0.1249996   0.6495201  -0.6064556  )
       104        S      tau( 104) = (   0.2500359   0.7216507  -0.1241461  )
       105        S      tau( 105) = (   0.1254554   0.7934228   0.3566219  )
       106        S      tau( 106) = (   0.1249996   0.6495200  -0.3584711  )
       107        S      tau( 107) = (   0.2500086   0.7215741   0.1241838  )
       108        S      tau( 108) = (   0.1244907   0.7952297   0.6057917  )
       109        Mo     tau( 109) = (  -0.1249741   0.2166510   0.4819241  )
       110        Mo     tau( 110) = (   0.8750004   0.0721694  -0.4825273  )
       111        Mo     tau( 111) = (   0.7500133   0.1443436  -0.0000073  )
       112        S      tau( 112) = (   0.7500004   0.0000006  -0.6064556  )
       113        S      tau( 113) = (   0.8749956   0.0721731  -0.1241058  )
       114        S      tau( 114) = (   0.7500203   0.1449522   0.3574598  )
       115        S      tau( 115) = (   0.7500004   0.0000005  -0.3584711  )
       116        S      tau( 116) = (   0.8750238   0.0721604   0.1241841  )
       117        S      tau( 117) = (   0.7504201   0.1437382   0.6062629  )
       118        Mo     tau( 118) = (  -0.2493495   0.4328575   0.4828262  )
       119        Mo     tau( 119) = (   0.7500001   0.2886759  -0.4825273  )
       120        Mo     tau( 120) = (   0.6249856   0.3608477   0.0000279  )
       121        S      tau( 121) = (   0.6250001   0.2165071  -0.6064556  )
       122        S      tau( 122) = (   0.7499958   0.2886820  -0.1240679  )
       123        S      tau( 123) = (   0.6241512   0.3616755   0.3603414  )
       124        S      tau( 124) = (   0.6250002   0.2165070  -0.3584711  )
       125        S      tau( 125) = (   0.7499862   0.2887159   0.1242658  )
       126        S      tau( 126) = (   0.6305969   0.3581080   0.6112211  )
       127        Mo     tau( 127) = (  -0.3742668   0.6505223   0.4820597  )
       128        Mo     tau( 128) = (   0.6249998   0.5051824  -0.4825273  )
       129        Mo     tau( 129) = (   0.4999851   0.5773046  -0.0000631  )
       130        S      tau( 130) = (   0.4999998   0.4330136  -0.6064556  )
       131        S      tau( 131) = (   0.6249723   0.5051139  -0.1241565  )
       132        S      tau( 132) = (   0.4998783   0.5762956   0.3606843  )
       133        S      tau( 133) = (   0.4999999   0.4330135  -0.3584711  )
       134        S      tau( 134) = (   0.6250095   0.5052263   0.1241915  )
       135        S      tau( 135) = (   0.5006407   0.5846211   0.6091832  )
       136        Mo     tau( 136) = (   0.0000410   0.0004185   0.4809769  )
       137        Mo     tau( 137) = (   0.4999996   0.7216889  -0.4825273  )
       138        Mo     tau( 138) = (   0.3750036   0.7938273  -0.0000272  )
       139        S      tau( 139) = (   0.3749996   0.6495201  -0.6064556  )
       140        S      tau( 140) = (   0.4999499   0.7216482  -0.1241729  )
       141        S      tau( 141) = (   0.3750006   0.7941054   0.3569117  )
       142        S      tau( 142) = (   0.3749996   0.6495200  -0.3584711  )
       143        S      tau( 143) = (   0.5000314   0.7216102   0.1241515  )
       144        S      tau( 144) = (   0.3752329   0.7966920   0.6062052  )
       145        Pt     tau( 145) = (   0.2580795   0.4348292   0.7095693  )
       146        Pd     tau( 146) = (   0.4899479   0.4358638   0.7204770  )
       147        Pd     tau( 147) = (   0.1239762   0.6506374   0.7381500  )

     --------------------------------------------
     DFT-D3 Dispersion Correction (3-body terms):
     --------------------------------------------
       Reference C6 values for interpolation: 

         atom   Coordination number   C6
         S          0.000           268.01
         S          0.995           261.99
         S          1.990           251.62
         Mo         0.000          1691.79
         Mo         1.942          1004.01
         Mo        11.056           674.22
         Pd         0.000          1217.01
         Pd         1.863           573.90
         Pd         5.710           531.75
         Pt         0.000           782.29
         Pt         1.919           692.72
         Pt         6.667           673.75

       Values used:

         atom   Coordination number  R0_AB[au]  C6      C8
         Mo        10.200            3.547    674.22  77634.20
         Mo        10.189            3.547    674.22  77634.20
         Mo        10.200            3.547    674.22  77634.20
         S          3.753            3.128    251.62  12327.25
         S          3.858            3.128    251.62  12327.25
         S          3.855            3.128    251.62  12327.25
         S          3.858            3.128    251.62  12327.25
         S          3.864            3.128    251.62  12327.25
         S          3.814            3.128    251.62  12327.25
         Mo        10.213            3.547    674.22  77634.20
         Mo        10.189            3.547    674.22  77634.20
         Mo        10.201            3.547    674.22  77634.20
         S          3.753            3.128    251.62  12327.25
         S          3.859            3.128    251.62  12327.25
         S          3.854            3.128    251.62  12327.25
         S          3.858            3.128    251.62  12327.25
         S          3.855            3.128    251.62  12327.25
         S          3.818            3.128    251.62  12327.25
         Mo        10.237            3.547    674.22  77634.20
         Mo        10.189            3.547    674.22  77634.20
         Mo        10.201            3.547    674.22  77634.20
         S          3.753            3.128    251.62  12327.25
         S          3.858            3.128    251.62  12327.25
         S          3.865            3.128    251.62  12327.25
         S          3.859            3.128    251.62  12327.25
         S          3.860            3.128    251.62  12327.25
         S          3.762            3.128    251.62  12327.25
         Mo        10.259            3.547    674.21  77634.20
         Mo        10.189            3.547    674.22  77634.20
         Mo        10.200            3.547    674.22  77634.20
         S          3.753            3.128    251.62  12327.25
         S          3.857            3.128    251.62  12327.25
         S          3.856            3.128    251.62  12327.25
         S          3.859            3.128    251.62  12327.25
         S          3.864            3.128    251.62  12327.25
         S          3.803            3.128    251.62  12327.25
         Mo        10.158            3.547    674.22  77634.20
         Mo        10.189            3.547    674.22  77634.20
         Mo        10.200            3.547    674.22  77634.20
         S          3.753            3.128    251.62  12327.25
         S          3.858            3.128    251.62  12327.25
         S          3.842            3.128    251.62  12327.25
         S          3.859            3.128    251.62  12327.25
         S          3.863            3.128    251.62  12327.25
         S          3.812            3.128    251.62  12327.25
         Mo        10.854            3.547    674.22  77634.20
         Mo        10.189            3.547    674.22  77634.20
         Mo        10.202            3.547    674.22  77634.20
         S          3.753            3.128    251.62  12327.25
         S          3.859            3.128    251.62  12327.25
         S          3.851            3.128    251.62  12327.25
         S          3.858            3.128    251.62  12327.25
         S          3.851            3.128    251.62  12327.25
         S          4.642            3.128    251.62  12327.25
         Mo        10.535            3.547    674.22  77634.20
         Mo        10.189            3.547    674.22  77634.20
         Mo        10.201            3.547    674.22  77634.20
         S          3.753            3.128    251.62  12327.25
         S          3.859            3.128    251.62  12327.25
         S          3.865            3.128    251.62  12327.25
         S          3.859            3.128    251.62  12327.25
         S          3.853            3.128    251.62  12327.25
         S          4.659            3.128    251.62  12327.25
         Mo        10.265            3.547    674.22  77634.20
         Mo        10.189            3.547    674.22  77634.20
         Mo        10.200            3.547    674.22  77634.20
         S          3.753            3.128    251.62  12327.25
         S          3.858            3.128    251.62  12327.25
         S          3.858            3.128    251.62  12327.25
         S          3.859            3.128    251.62  12327.25
         S          3.863            3.128    251.62  12327.25
         S          3.791            3.128    251.62  12327.25
         Mo        10.209            3.547    674.22  77634.20
         Mo        10.189            3.547    674.22  77634.20
         Mo        10.200            3.547    674.22  77634.20
         S          3.753            3.128    251.62  12327.25
         S          3.859            3.128    251.62  12327.25
         S          3.839            3.128    251.62  12327.25
         S          3.859            3.128    251.62  12327.25
         S          3.863            3.128    251.62  12327.25
         S          3.836            3.128    251.62  12327.25
         Mo        10.708            3.547    674.22  77634.20
         Mo        10.189            3.547    674.22  77634.20
         Mo        10.202            3.547    674.22  77634.20
         S          3.753            3.128    251.62  12327.25
         S          3.859            3.128    251.62  12327.25
         S          3.873            3.128    251.62  12327.25
         S          3.858            3.128    251.62  12327.25
         S          3.851            3.128    251.62  12327.25
         S          5.637            3.128    251.62  12327.25
         Mo        10.157            3.547    674.22  77634.20
         Mo        10.189            3.547    674.22  77634.20
         Mo        10.203            3.547    674.22  77634.20
         S          3.753            3.128    251.62  12327.25
         S          3.859            3.128    251.62  12327.25
         S          3.861            3.128    251.62  12327.25
         S          3.859            3.128    251.62  12327.25
         S          3.849            3.128    251.62  12327.25
         S          5.607            3.128    251.62  12327.25
         Mo        10.247            3.547    674.22  77634.20
         Mo        10.189            3.547    674.22  77634.20
         Mo        10.200            3.547    674.22  77634.20
         S          3.753            3.128    251.62  12327.25
         S          3.858            3.128    251.62  12327.25
         S          3.852            3.128    251.62  12327.25
         S          3.859            3.128    251.62  12327.25
         S          3.858            3.128    251.62  12327.25
         S          4.713            3.128    251.62  12327.25
         Mo        10.231            3.547    674.22  77634.20
         Mo        10.189            3.547    674.22  77634.20
         Mo        10.200            3.547    674.22  77634.20
         S          3.753            3.128    251.62  12327.25
         S          3.858            3.128    251.62  12327.25
         S          3.857            3.128    251.62  12327.25
         S          3.858            3.128    251.62  12327.25
         S          3.861            3.128    251.62  12327.25
         S          3.803            3.128    251.62  12327.25
         Mo        10.222            3.547    674.22  77634.20
         Mo        10.189            3.547    674.22  77634.20
         Mo        10.201            3.547    674.22  77634.20
         S          3.753            3.128    251.62  12327.25
         S          3.859            3.128    251.62  12327.25
         S          3.849            3.128    251.62  12327.25
         S          3.858            3.128    251.62  12327.25
         S          3.855            3.128    251.62  12327.25
         S          4.617            3.128    251.62  12327.25
         Mo        10.207            3.547    674.22  77634.20
         Mo        10.189            3.547    674.22  77634.20
         Mo        10.202            3.547    674.22  77634.20
         S          3.753            3.128    251.62  12327.25
         S          3.858            3.128    251.62  12327.25
         S          3.862            3.128    251.62  12327.25
         S          3.858            3.128    251.62  12327.25
         S          3.855            3.128    251.62  12327.25
         S          4.663            3.128    251.62  12327.25
         Mo        10.248            3.547    674.22  77634.20
         Mo        10.189            3.547    674.22  77634.20
         Mo        10.201            3.547    674.22  77634.20
         S          3.753            3.128    251.62  12327.25
         S          3.858            3.128    251.62  12327.25
         S          3.844            3.128    251.62  12327.25
         S          3.859            3.128    251.62  12327.25
         S          3.859            3.128    251.62  12327.25
         S          3.844            3.128    251.62  12327.25
         Pt         4.644            3.168    673.75  70061.90
         Pd         4.117            3.168    531.75  48720.87
         Pd         3.343            3.168    573.90  52583.08

         Molecular C6 ( Ry / a.u.^6 ) =   8065800.50


     number of k points=     4  Gaussian smearing, width (Ry)=  0.0100
                       cart. coord. in units 2pi/alat
        k(    1) = (   0.0000000   0.0000000   0.0000000), wk =   0.5000000
        k(    2) = (   0.0000000  -0.5773499   0.0000000), wk =   0.5000000
        k(    3) = (  -0.5000000  -0.2886755   0.0000000), wk =   0.5000000
        k(    4) = (  -0.5000000  -0.8660254   0.0000000), wk =   0.5000000

     Dense  grid:  5955087 G-vectors     FFT dimensions: ( 180, 180, 432)

     Smooth grid:  2572543 G-vectors     FFT dimensions: ( 135, 135, 320)

     Estimated max dynamical RAM per process >       3.08 GB

     Estimated total dynamical RAM >     110.88 GB

     Initial potential from superposition of free atoms

     starting charge    1315.9537, renormalised to    1316.0000

     negative rho (up, down):  1.037E-03 0.000E+00
     Starting wfcs are  901 randomized atomic wfcs
     Checking if some PAW data can be deallocated... 

     total cpu time spent up to now is      101.4 secs

     Self-consistent Calculation

     iteration #  1     ecut=    77.00 Ry     beta= 0.20
     Davidson diagonalization with overlap
     ethr =  1.00E-02,  avg # of iterations =  2.0

     Threshold (ethr) on eigenvalues was too large:
     Diagonalizing with lowered threshold

     Davidson diagonalization with overlap
     ethr =  2.28E-04,  avg # of iterations = 15.8

     negative rho (up, down):  3.391E-04 0.000E+00

     total cpu time spent up to now is     1052.6 secs

     total energy              =  -26543.57895614 Ry
     estimated scf accuracy    <       4.85996378 Ry

     iteration #  2     ecut=    77.00 Ry     beta= 0.20
     Davidson diagonalization with overlap
     ethr =  3.69E-04,  avg # of iterations =  5.0

     negative rho (up, down):  6.536E-05 0.000E+00

     total cpu time spent up to now is     1281.3 secs

     total energy              =  -26542.85003277 Ry
     estimated scf accuracy    <       2.35614679 Ry

     iteration #  3     ecut=    77.00 Ry     beta= 0.20
     Davidson diagonalization with overlap
     ethr =  1.79E-04,  avg # of iterations = 14.8

     negative rho (up, down):  5.124E-05 0.000E+00

     total cpu time spent up to now is     1560.2 secs

     total energy              =  -26543.13078953 Ry
     estimated scf accuracy    <       1.16117889 Ry

     iteration #  4     ecut=    77.00 Ry     beta= 0.20
     Davidson diagonalization with overlap
     ethr =  8.82E-05,  avg # of iterations =  9.0

     negative rho (up, down):  3.268E-05 0.000E+00

     total cpu time spent up to now is     1910.2 secs

     total energy              =  -26543.32645652 Ry
     estimated scf accuracy    <       0.39787422 Ry

     iteration #  5     ecut=    77.00 Ry     beta= 0.20
     Davidson diagonalization with overlap
     c_bands:  1 eigenvalues not converged
     c_bands:  1 eigenvalues not converged
     ethr =  3.02E-05,  avg # of iterations = 17.8

     negative rho (up, down):  5.362E-05 0.000E+00

     total cpu time spent up to now is     2442.6 secs

     total energy              =  -26543.69872393 Ry
     estimated scf accuracy    <       0.15474837 Ry

     iteration #  6     ecut=    77.00 Ry     beta= 0.20
     Davidson diagonalization with overlap
     c_bands:  4 eigenvalues not converged
     c_bands:  2 eigenvalues not converged
     ethr =  1.18E-05,  avg # of iterations = 40.2

     negative rho (up, down):  1.090E-04 0.000E+00

     total cpu time spent up to now is     3105.8 secs

     total energy              =  -26543.72951192 Ry
     estimated scf accuracy    <       0.09985491 Ry

     iteration #  7     ecut=    77.00 Ry     beta= 0.20
     Davidson diagonalization with overlap
     ethr =  7.59E-06,  avg # of iterations = 16.8

     negative rho (up, down):  6.932E-04 0.000E+00

     total cpu time spent up to now is     3405.9 secs

     total energy              =  -26543.72642680 Ry
     estimated scf accuracy    <       0.06182634 Ry

     iteration #  8     ecut=    77.00 Ry     beta= 0.20
     Davidson diagonalization with overlap
     c_bands:  2 eigenvalues not converged
     c_bands:  2 eigenvalues not converged
     c_bands:  3 eigenvalues not converged
     ethr =  4.70E-06,  avg # of iterations = 18.8

     negative rho (up, down):  6.313E-04 0.000E+00

     total cpu time spent up to now is     3877.5 secs

     total energy              =  -26543.74457797 Ry
     estimated scf accuracy    <       0.06710001 Ry

     iteration #  9     ecut=    77.00 Ry     beta= 0.20
     Davidson diagonalization with overlap
     c_bands:  2 eigenvalues not converged
     ethr =  4.70E-06,  avg # of iterations =  6.5

     negative rho (up, down):  5.429E-04 0.000E+00

     total cpu time spent up to now is     4111.7 secs

     total energy              =  -26543.74214030 Ry
     estimated scf accuracy    <       0.01429825 Ry

     iteration # 10     ecut=    77.00 Ry     beta= 0.20
     Davidson diagonalization with overlap
     c_bands:  2 eigenvalues not converged
     c_bands:  3 eigenvalues not converged
     c_bands:  3 eigenvalues not converged
     ethr =  1.09E-06,  avg # of iterations = 50.5

     negative rho (up, down):  6.135E-04 0.000E+00

     total cpu time spent up to now is     5134.0 secs

     total energy              =  -26543.75967936 Ry
     estimated scf accuracy    <       0.00650452 Ry

     iteration # 11     ecut=    77.00 Ry     beta= 0.20
     Davidson diagonalization with overlap
     c_bands:  2 eigenvalues not converged
     ethr =  4.94E-07,  avg # of iterations =  7.5

     negative rho (up, down):  7.919E-04 0.000E+00

     total cpu time spent up to now is     5371.0 secs

     total energy              =  -26543.75795426 Ry
     estimated scf accuracy    <       0.00337413 Ry

     iteration # 12     ecut=    77.00 Ry     beta= 0.20
     Davidson diagonalization with overlap
     ethr =  2.56E-07,  avg # of iterations =  9.5

     negative rho (up, down):  8.888E-04 0.000E+00

     total cpu time spent up to now is     5732.0 secs

     total energy              =  -26543.75966449 Ry
     estimated scf accuracy    <       0.00020722 Ry

     iteration # 13     ecut=    77.00 Ry     beta= 0.20
     Davidson diagonalization with overlap
     c_bands:  4 eigenvalues not converged
     ethr =  1.57E-08,  avg # of iterations = 21.0

     negative rho (up, down):  8.394E-04 0.000E+00

     total cpu time spent up to now is     7058.0 secs

     total energy              =  -26543.76078242 Ry
     estimated scf accuracy    <       0.00173562 Ry

     iteration # 14     ecut=    77.00 Ry     beta= 0.20
     Davidson diagonalization with overlap
     ethr =  1.57E-08,  avg # of iterations =  9.8

     negative rho (up, down):  8.186E-04 0.000E+00

     total cpu time spent up to now is     7397.3 secs

     total energy              =  -26543.76063580 Ry
     estimated scf accuracy    <       0.00067309 Ry

     iteration # 15     ecut=    77.00 Ry     beta= 0.20
     Davidson diagonalization with overlap
     ethr =  1.57E-08,  avg # of iterations =  7.0

     negative rho (up, down):  8.755E-04 0.000E+00

     total cpu time spent up to now is     7767.6 secs

     total energy              =  -26543.76071257 Ry
     estimated scf accuracy    <       0.00014673 Ry

     iteration # 16     ecut=    77.00 Ry     beta= 0.20
     Davidson diagonalization with overlap
     ethr =  1.11E-08,  avg # of iterations =  9.0

     negative rho (up, down):  9.480E-04 0.000E+00

     total cpu time spent up to now is     8033.4 secs

     total energy              =  -26543.76071465 Ry
     estimated scf accuracy    <       0.00005877 Ry

     iteration # 17     ecut=    77.00 Ry     beta= 0.20
     Davidson diagonalization with overlap
     ethr =  4.47E-09,  avg # of iterations = 10.2

     negative rho (up, down):  9.573E-04 0.000E+00

     total cpu time spent up to now is     8391.1 secs

     total energy              =  -26543.76074477 Ry
     estimated scf accuracy    <       0.00002700 Ry

     iteration # 18     ecut=    77.00 Ry     beta= 0.20
     Davidson diagonalization with overlap
     ethr =  2.05E-09,  avg # of iterations = 10.5

     negative rho (up, down):  9.462E-04 0.000E+00

     total cpu time spent up to now is     8705.6 secs

     total energy              =  -26543.76075049 Ry
     estimated scf accuracy    <       0.00001368 Ry

     iteration # 19     ecut=    77.00 Ry     beta= 0.20
     Davidson diagonalization with overlap
     c_bands:  4 eigenvalues not converged
     ethr =  1.04E-09,  avg # of iterations = 12.0

     negative rho (up, down):  9.548E-04 0.000E+00

     total cpu time spent up to now is     9177.0 secs

     total energy              =  -26543.76076087 Ry
     estimated scf accuracy    <       0.00000483 Ry

     iteration # 20     ecut=    77.00 Ry     beta= 0.20
     Davidson diagonalization with overlap
     c_bands:  2 eigenvalues not converged
     ethr =  3.67E-10,  avg # of iterations = 19.8

     negative rho (up, down):  9.589E-04 0.000E+00

     total cpu time spent up to now is     9598.5 secs

     total energy              =  -26543.76075967 Ry
     estimated scf accuracy    <       0.00000344 Ry

     iteration # 21     ecut=    77.00 Ry     beta= 0.20
     Davidson diagonalization with overlap
     ethr =  2.62E-10,  avg # of iterations =  8.8

     negative rho (up, down):  9.617E-04 0.000E+00

     total cpu time spent up to now is     9847.0 secs

     End of self-consistent calculation

          k = 0.0000 0.0000 0.0000 (321495 PWs)   bands (ev):

  -102.8894 -88.6286 -88.0907 -71.2256 -71.2121 -71.2041 -71.1890 -71.1789
   -71.1647 -71.1544 -66.6771 -66.6560 -66.6560 -66.6560 -66.6560 -66.6560
   -66.6560 -66.6349 -66.6348 -66.6348 -66.6348 -66.6348 -66.6348 -66.6348
   -66.6347 -66.6347 -66.6111 -66.5903 -66.5902 -66.5901 -66.5900 -66.5898
   -66.5897 -66.5693 -66.5691 -66.5691 -66.5689 -66.5689 -66.5688 -66.5687
   -66.5685 -66.5684 -66.5382 -66.5260 -66.5199 -66.5155 -66.5072 -66.5058
   -66.5012 -66.4963 -66.4912 -66.4849 -66.4828 -66.4791 -66.4742 -66.4646
   -66.4535 -66.4481 -57.1917 -57.0763 -57.0392 -54.5115 -54.3956 -54.3618
   -53.9428 -53.9109 -53.8221 -41.0034 -41.0034 -41.0034 -40.9364 -40.9363
   -40.9362 -40.9287 -40.9286 -40.9286 -40.9286 -40.9286 -40.9286 -40.8618
   -40.8616 -40.8616 -40.8615 -40.8615 -40.8613 -40.8571 -40.8515 -40.8500
   -40.8372 -40.8031 -40.8031 -40.8031 -40.8031 -40.8030 -40.8030 -40.7958
   -40.7958 -40.7958 -40.7958 -40.7958 -40.7958 -40.7871 -40.7823 -40.7751
   -40.7717 -40.7699 -40.7682 -40.7682 -40.7682 -40.7682 -40.7682 -40.7682
   -40.7622 -40.7543 -40.7542 -40.7542 -40.7542 -40.7541 -40.7541 -40.7541
   -40.7541 -40.7540 -40.7540 -40.7363 -40.7362 -40.7361 -40.7361 -40.7360
   -40.7359 -40.7306 -40.7305 -40.7304 -40.7303 -40.7302 -40.7301 -40.7108
   -40.7015 -40.7014 -40.7013 -40.7013 -40.7012 -40.7011 -40.6904 -40.6904
   -40.6904 -40.6890 -40.6889 -40.6889 -40.6888 -40.6888 -40.6887 -40.6885
   -40.6884 -40.6883 -40.6862 -40.6737 -40.6721 -40.6675 -40.6628 -40.6603
   -40.6577 -40.6556 -40.6536 -40.6436 -40.6436 -40.6436 -40.6436 -40.6436
   -40.6436 -40.6431 -40.6386 -40.6352 -40.6323 -40.6319 -40.6274 -40.6242
   -40.6239 -40.6237 -40.6236 -40.6235 -40.6211 -40.6163 -40.6159 -40.6139
   -40.6102 -40.6080 -40.6010 -40.5963 -40.5963 -40.5945 -40.5925 -40.5911
   -40.5771 -40.5770 -40.5769 -40.5767 -40.5767 -40.5765 -40.5419 -40.5332
   -40.5328 -40.5296 -40.5296 -40.4914 -40.4898 -40.4835 -40.4801 -40.4766
   -40.4735 -40.4308 -40.4231 -20.1543 -20.0819 -19.9238 -19.5691 -19.4392
   -19.2537 -19.2472 -19.2432 -19.2425 -19.2349 -19.2338 -19.1992 -19.1716
   -19.1448 -19.1372 -19.0900 -19.0876 -19.0677 -19.0561 -19.0337 -19.0219
   -18.8765 -18.7397 -18.7139 -18.6043 -18.5103 -18.4910 -18.4854 -18.4607
   -18.4584 -18.4327 -18.4141 -18.3687 -18.3574 -18.3389 -18.3270 -18.2930
   -18.2747 -18.2076 -18.2022 -18.1977 -18.1963 -18.1772 -18.1499 -18.1368
   -18.1366 -18.1362 -18.1361 -18.1358 -18.1356 -18.1013 -18.0961 -18.0960
   -18.0957 -18.0798 -18.0628 -18.0572 -18.0523 -18.0509 -18.0492 -18.0386
   -18.0295 -18.0228 -18.0217 -18.0162 -17.9767 -17.9732 -17.9654 -17.9578
   -17.9409 -17.9396 -17.9384 -17.9316 -17.9304 -17.9176 -17.9132 -17.9125
   -17.9109 -17.8845 -17.8806 -17.8777 -17.8634 -17.8621 -17.8512 -17.8464
   -17.8427 -17.8393 -17.8179 -17.8125 -17.8099 -17.7863 -17.7858 -17.7709
   -17.7661 -17.7585 -17.7555 -12.1629 -11.9732 -11.9340 -11.8435 -11.7520
   -11.7495 -11.7484 -11.7331 -11.6660 -11.6649 -11.6614 -11.4442 -11.3979
   -11.3669 -11.3282 -11.2369 -11.2181 -11.2062 -11.2013 -11.1990 -11.1810
   -11.1486 -11.1338 -11.1314 -11.1256 -11.1199 -11.1181 -11.1143 -11.1001
   -11.0917 -11.0537 -11.0252 -10.9890 -10.9848 -10.9827 -10.9754 -10.9695
   -10.9578 -10.9395 -10.9307 -10.9172 -10.9151 -10.8949 -10.8864 -10.8689
   -10.8553 -10.8384 -10.8337 -10.8300 -10.8278 -10.8270 -10.8257 -10.8220
   -10.8176 -10.8077 -10.8004 -10.7985 -10.7954 -10.7908 -10.7835 -10.7801
   -10.7769 -10.7722 -10.7684 -10.7605 -10.7304 -10.7086 -10.7064 -10.6908
   -10.6782 -10.6546 -10.6336 -10.6181 -10.6085 -10.5986 -10.5335 -10.4084
   -10.1812 -10.1561 -10.0598 -10.0445 -10.0414 -10.0163  -9.9337  -9.8976
    -9.8860  -9.8617  -9.8446  -9.7933  -9.7860  -9.7783  -9.7700  -9.7646
    -9.7490  -9.7418  -9.7250  -9.7101  -9.7068  -9.6880  -9.6843  -9.6654
    -9.6508  -9.6382  -9.6288  -9.6182  -9.6156  -9.6127  -9.6019  -9.5995
    -9.5917  -9.5823  -9.5736  -9.5719  -9.5693  -9.5678  -9.5674  -9.5653
    -9.5448  -9.5381  -9.5211  -9.4727  -9.4640  -9.4481  -9.4417  -9.4337
    -9.4325  -9.4247  -9.3832  -9.3718  -9.3528  -9.3461  -9.3378  -9.3337
    -9.3216  -9.3095  -9.3003  -9.2739  -9.2489  -9.2358  -9.2233  -9.2072
    -9.2007  -9.1908  -9.1822  -9.1542  -9.1302  -9.1017  -9.0938  -9.0392
    -9.0294  -9.0202  -9.0168  -9.0152  -9.0147  -9.0144  -8.9974  -8.9719
    -8.9506  -8.9401  -8.9377  -8.9274  -8.9098  -8.8995  -8.8951  -8.8670
    -8.8319  -8.8184  -8.8042  -8.7994  -8.7965  -8.7908  -8.7887  -8.7862
    -8.7777  -8.7617  -8.7527  -8.7450  -8.7384  -8.7351  -8.7247  -8.7172
    -8.7133  -8.7063  -8.6472  -8.5357  -8.5090  -8.4260  -8.4260  -8.4214
    -8.3598  -8.3534  -8.3534  -8.3144  -8.3140  -8.3140  -8.3139  -8.3138
    -8.3136  -8.3047  -8.2844  -8.2784  -8.2715  -8.2493  -8.2383  -8.2375
    -8.2365  -8.2356  -8.2347  -8.2250  -8.1771  -8.1554  -8.0570  -7.9513
    -7.9444  -7.9206  -7.9008  -7.8804  -7.8690  -7.7343  -7.7071  -7.6678
    -7.6515  -7.6312  -7.5953  -7.5812  -7.5787  -7.5784  -7.5783  -7.5779
    -7.5776  -7.5729  -7.5522  -7.5327  -7.5325  -7.5320  -7.5316  -7.5313
    -7.5303  -7.5184  -7.5076  -7.5036  -7.5019  -7.4993  -7.4966  -7.4927
    -7.4815  -7.4722  -7.4665  -7.4594  -7.4572  -7.4560  -7.4513  -7.4464
    -7.4449  -7.4372  -7.4243  -7.4211  -7.4171  -7.4140  -7.4072  -7.3848
    -7.3718  -7.3117  -7.2973  -7.2972  -7.2930  -7.2653  -7.2610  -7.2321
    -7.2268  -7.2254  -7.2101  -7.1835  -7.1562  -7.0890  -7.0682  -7.0153
    -6.9876  -6.9569  -6.9330  -6.9233  -6.8989  -6.8686  -6.8548  -6.8423
    -6.7923  -6.7899  -6.7868  -6.6848  -6.6678  -6.6644  -6.6616  -6.6522
    -6.6427  -6.6278  -6.6218  -6.6136  -6.6075  -6.5770  -6.5631  -6.5502
    -6.5426  -6.5240  -6.5164  -6.5133  -6.5103  -6.5021  -6.4885  -6.4790
    -6.4739  -6.4625  -6.4562  -6.4461  -6.4362  -6.4266  -6.4195  -6.4099
    -6.3991  -6.3861  -6.3690  -6.3561  -6.3452  -6.3451  -6.3451  -6.3451
    -6.3451  -6.3451  -6.3074  -6.2910  -6.2751  -6.2704  -6.2683  -6.2668
    -6.2656  -6.2648  -6.2585  -6.2489  -6.2231  -6.1817  -6.1591  -5.9860
    -5.9030  -5.8739  -5.7653  -5.5681  -5.5064  -5.4576  -5.3481  -5.2981
    -5.2771  -5.1049  -4.1480  -3.9293  -3.8498  -3.8313  -3.8282  -3.8262
    -3.8086  -3.8031  -3.8017  -3.7968  -3.7959  -3.7946  -3.7716  -3.7321
    -3.6677  -3.6081  -3.6012  -3.5913  -3.5874  -3.5795  -3.5696  -3.5651
    -3.5632  -3.5581  -3.4856  -3.4856  -3.4856  -3.4709  -3.4685  -3.4680
    -3.4667  -3.4658  -3.4651  -3.4327  -3.4189  -3.4183  -3.4180  -3.4136
    -3.4035  -3.3849  -3.3781  -3.3764  -3.3730  -3.3657  -3.3635  -3.3589
    -3.3536  -3.3497  -3.3409  -3.3364  -3.3268  -3.3254  -3.3147  -3.2910
    -3.2769  -3.2643  -3.2588  -3.2473  -3.2405  -3.2211  -3.2008  -3.1753
    -3.1452  -3.0230  -3.0198  -3.0196  -3.0174  -3.0142  -3.0141  -2.9776
    -2.9517  -2.9481  -2.9478  -2.9476  -2.9474  -2.9472  -2.9468  -2.9467
    -2.9378  -2.9332  -2.9281  -2.9276  -2.9161  -2.9139  -2.8985  -2.8979
    -2.8904  -2.8832  -2.8783  -2.8760  -2.8728  -2.8654  -2.8641  -2.8608
    -2.8550  -2.8467  -2.8300  -2.8237  -2.8118  -2.8075  -2.7955  -2.7860
    -2.7589  -2.7576  -2.7401  -2.7364  -2.7358  -2.7348  -2.7337  -2.7332
    -2.6924  -2.6911  -2.6844  -2.6770  -2.6514  -2.6283  -2.6239  -2.6152
    -2.5959  -2.5808  -2.5440  -2.5407  -2.5267  -2.5257  -2.5179  -2.5082
    -2.4908  -2.4800  -2.4642  -2.4463  -2.4424  -2.4358

          k = 0.0000-0.5773 0.0000 (321564 PWs)   bands (ev):

  -102.8894 -88.6286 -88.0907 -71.2256 -71.2121 -71.2041 -71.1891 -71.1789
   -71.1647 -71.1544 -66.6710 -66.6709 -66.6604 -66.6604 -66.6454 -66.6454
   -66.6454 -66.6454 -66.6410 -66.6410 -66.6349 -66.6348 -66.6348 -66.6348
   -66.6304 -66.6304 -66.6050 -66.6049 -66.5944 -66.5943 -66.5797 -66.5796
   -66.5793 -66.5792 -66.5751 -66.5749 -66.5690 -66.5690 -66.5688 -66.5684
   -66.5645 -66.5644 -66.5372 -66.5272 -66.5203 -66.5160 -66.5091 -66.5040
   -66.4982 -66.4955 -66.4935 -66.4852 -66.4825 -66.4794 -66.4739 -66.4647
   -66.4536 -66.4480 -57.1917 -57.0763 -57.0392 -54.5115 -54.3956 -54.3618
   -53.9428 -53.9109 -53.8221 -40.9721 -40.9721 -40.9720 -40.9720 -40.9454
   -40.9453 -40.9335 -40.9335 -40.9051 -40.9050 -40.9049 -40.9047 -40.8830
   -40.8830 -40.8830 -40.8830 -40.8783 -40.8782 -40.8664 -40.8663 -40.8427
   -40.8278 -40.8252 -40.8251 -40.8161 -40.8160 -40.8160 -40.8159 -40.8151
   -40.8151 -40.8120 -40.8077 -40.8044 -40.8044 -40.7933 -40.7870 -40.7810
   -40.7750 -40.7750 -40.7750 -40.7750 -40.7664 -40.7663 -40.7660 -40.7597
   -40.7596 -40.7542 -40.7541 -40.7541 -40.7541 -40.7541 -40.7540 -40.7482
   -40.7481 -40.7455 -40.7455 -40.7390 -40.7389 -40.7346 -40.7263 -40.7244
   -40.7234 -40.7234 -40.7233 -40.7233 -40.7120 -40.7098 -40.7097 -40.7094
   -40.7093 -40.7013 -40.7010 -40.7008 -40.6972 -40.6889 -40.6889 -40.6888
   -40.6888 -40.6888 -40.6888 -40.6886 -40.6884 -40.6872 -40.6871 -40.6805
   -40.6801 -40.6801 -40.6768 -40.6767 -40.6748 -40.6615 -40.6576 -40.6575
   -40.6569 -40.6567 -40.6566 -40.6564 -40.6562 -40.6537 -40.6482 -40.6455
   -40.6407 -40.6407 -40.6390 -40.6353 -40.6309 -40.6280 -40.6221 -40.6220
   -40.6220 -40.6219 -40.6219 -40.6163 -40.6123 -40.6107 -40.6103 -40.6102
   -40.6100 -40.6099 -40.6014 -40.5941 -40.5920 -40.5910 -40.5905 -40.5786
   -40.5771 -40.5739 -40.5739 -40.5595 -40.5545 -40.5436 -40.5434 -40.5404
   -40.5362 -40.5273 -40.5227 -40.5193 -40.5037 -40.5014 -40.4974 -40.4818
   -40.4679 -40.4559 -40.4274 -20.0111 -19.8829 -19.8589 -19.8122 -19.7000
   -19.6792 -19.4724 -19.4529 -19.4173 -19.3997 -19.2733 -19.2630 -19.1191
   -18.9189 -18.7789 -18.7441 -18.7355 -18.7324 -18.7260 -18.7229 -18.7096
   -18.6810 -18.6280 -18.6118 -18.5967 -18.5876 -18.5856 -18.5718 -18.5514
   -18.5361 -18.4914 -18.4817 -18.4726 -18.4474 -18.4358 -18.4162 -18.3991
   -18.3908 -18.3672 -18.3294 -18.3171 -18.3077 -18.2645 -18.2488 -18.2257
   -18.2114 -18.1885 -18.1757 -18.1405 -18.1322 -18.1168 -18.1167 -18.1165
   -18.1164 -18.1152 -18.1025 -18.0804 -18.0735 -18.0502 -18.0424 -18.0403
   -18.0351 -18.0347 -18.0266 -18.0065 -17.9993 -17.9927 -17.9775 -17.9767
   -17.9636 -17.9386 -17.9349 -17.9339 -17.9275 -17.9191 -17.9098 -17.8795
   -17.8716 -17.8633 -17.8548 -17.8532 -17.8532 -17.8232 -17.8120 -17.8013
   -17.7936 -17.7933 -17.7813 -17.7773 -17.7769 -17.7727 -17.7604 -17.7345
   -17.7325 -17.6802 -17.6686 -12.0711 -11.8348 -11.7799 -11.7018 -11.6681
   -11.5810 -11.4718 -11.4652 -11.4624 -11.4608 -11.4516 -11.4427 -11.4311
   -11.4114 -11.3876 -11.3727 -11.3649 -11.3629 -11.3467 -11.3319 -11.3214
   -11.2954 -11.2806 -11.2717 -11.2545 -11.2460 -11.2460 -11.2320 -11.2006
   -11.2004 -11.1755 -11.1578 -11.1503 -11.1444 -11.1265 -11.1178 -11.0712
   -11.0305 -11.0007 -10.9946 -10.9658 -10.9468 -10.9325 -10.9172 -10.9060
   -10.9015 -10.8933 -10.8850 -10.8676 -10.8528 -10.8352 -10.8343 -10.8204
   -10.8200 -10.8186 -10.8177 -10.8126 -10.8020 -10.7920 -10.7605 -10.7578
   -10.7525 -10.7442 -10.7218 -10.7064 -10.6089 -10.5869 -10.5564 -10.4899
   -10.4807 -10.4270 -10.3805 -10.3200 -10.2881 -10.2671 -10.1664 -10.1387
   -10.1258 -10.1105 -10.1005 -10.0932 -10.0741 -10.0438 -10.0181  -9.9984
    -9.9699  -9.9598  -9.9355  -9.9294  -9.9233  -9.9162  -9.9135  -9.8934
    -9.8887  -9.8822  -9.8733  -9.8505  -9.8382  -9.8093  -9.7930  -9.7723
    -9.7475  -9.7435  -9.7361  -9.7151  -9.7039  -9.7005  -9.6911  -9.6890
    -9.6848  -9.6580  -9.6529  -9.6450  -9.6389  -9.6269  -9.6011  -9.5898
    -9.5545  -9.5383  -9.5255  -9.5235  -9.5133  -9.4995  -9.4625  -9.4595
    -9.4388  -9.3776  -9.3556  -9.3378  -9.3065  -9.2882  -9.2379  -9.2003
    -9.1943  -9.1808  -9.1487  -9.1391  -9.1361  -9.1315  -9.1239  -9.1078
    -9.0956  -9.0870  -9.0789  -9.0520  -9.0396  -9.0318  -9.0227  -9.0137
    -9.0056  -8.9948  -8.9764  -8.9705  -8.9623  -8.9431  -8.9384  -8.9341
    -8.9261  -8.9232  -8.9199  -8.9048  -8.8971  -8.8687  -8.8656  -8.8541
    -8.8512  -8.8478  -8.8449  -8.8348  -8.8288  -8.8281  -8.8224  -8.8174
    -8.8089  -8.7946  -8.7831  -8.7688  -8.7589  -8.7512  -8.7459  -8.7267
    -8.7205  -8.6427  -8.5934  -8.5459  -8.5091  -8.5011  -8.5009  -8.4235
    -8.4193  -8.4160  -8.3545  -8.3203  -8.2938  -8.2316  -8.1825  -8.1824
    -8.1632  -8.1116  -8.1104  -8.1093  -8.0893  -8.0743  -8.0697  -8.0093
    -7.9382  -7.9226  -7.9176  -7.8978  -7.8703  -7.8564  -7.8475  -7.8462
    -7.8387  -7.8364  -7.8357  -7.8355  -7.8341  -7.8212  -7.8157  -7.7951
    -7.7900  -7.7885  -7.7874  -7.7835  -7.7668  -7.7656  -7.7592  -7.7496
    -7.7382  -7.7331  -7.7240  -7.7149  -7.7131  -7.7109  -7.7089  -7.6939
    -7.6854  -7.6821  -7.6704  -7.6544  -7.6527  -7.6506  -7.6500  -7.6408
    -7.6264  -7.6157  -7.6081  -7.5904  -7.5860  -7.5788  -7.5763  -7.5596
    -7.5294  -7.5250  -7.5195  -7.4710  -7.4557  -7.4180  -7.3924  -7.3773
    -7.3142  -7.2617  -7.2377  -7.2286  -7.2192  -7.1941  -7.1643  -7.1516
    -7.1209  -7.1091  -7.0660  -7.0439  -7.0218  -7.0070  -7.0058  -7.0018
    -6.9966  -6.9794  -6.9547  -6.9420  -6.9384  -6.8932  -6.8908  -6.8771
    -6.8644  -6.8610  -6.8310  -6.8135  -6.7705  -6.7425  -6.7209  -6.6953
    -6.6885  -6.6552  -6.6476  -6.6475  -6.6474  -6.6474  -6.6404  -6.6134
    -6.6011  -6.5872  -6.5800  -6.5779  -6.5772  -6.5747  -6.5693  -6.5517
    -6.5114  -6.4800  -6.4386  -6.4271  -6.3942  -6.3783  -6.3177  -6.3162
    -6.3154  -6.3152  -6.3100  -6.2917  -6.2569  -6.2509  -6.2464  -6.2380
    -6.2319  -6.2296  -6.2283  -6.2201  -6.1915  -6.1723  -6.1540  -6.1133
    -6.0582  -5.9674  -5.9673  -5.9639  -5.8902  -5.8900  -5.8631  -5.7595
    -5.7485  -5.7087  -5.6324  -5.5829  -5.5720  -5.4911  -5.4529  -5.3438
    -5.2759  -5.2111  -4.1762  -4.0349  -4.0159  -4.0044  -3.9727  -3.8955
    -3.8827  -3.8827  -3.8510  -3.8266  -3.8182  -3.8176  -3.7955  -3.7628
    -3.7571  -3.7512  -3.7071  -3.6844  -3.6192  -3.5940  -3.5884  -3.5841
    -3.5832  -3.5721  -3.5684  -3.5680  -3.5568  -3.5385  -3.5043  -3.4953
    -3.4906  -3.4840  -3.4766  -3.4689  -3.4676  -3.4635  -3.4512  -3.4505
    -3.4141  -3.4072  -3.3886  -3.3710  -3.3573  -3.3535  -3.3377  -3.3354
    -3.3325  -3.3177  -3.3054  -3.3014  -3.2970  -3.2939  -3.2734  -3.2603
    -3.2593  -3.2589  -3.2581  -3.2417  -3.2343  -3.2234  -3.2140  -3.2118
    -3.2000  -3.1917  -3.1865  -3.1750  -3.1725  -3.1654  -3.1549  -3.1407
    -3.1151  -3.1026  -3.0970  -3.0813  -3.0559  -3.0523  -3.0301  -3.0228
    -3.0145  -3.0127  -2.9968  -2.9962  -2.9956  -2.9952  -2.9686  -2.9541
    -2.9474  -2.9462  -2.9393  -2.9329  -2.9226  -2.9141  -2.9087  -2.9033
    -2.9008  -2.8885  -2.8823  -2.8724  -2.8656  -2.8605  -2.8527  -2.8341
    -2.8204  -2.8107  -2.7908  -2.7899  -2.7864  -2.7511  -2.7281  -2.7268
    -2.6979  -2.6969  -2.6446  -2.6366  -2.6338  -2.6293  -2.6229  -2.6169
    -2.5568  -2.5487  -2.5096  -2.4979  -2.4863  -2.4843  -2.4773  -2.4445
    -2.3694  -2.3590  -2.3514  -2.3038  -2.2933  -2.2751

          k =-0.5000-0.2887 0.0000 (321564 PWs)   bands (ev):

  -102.8894 -88.6286 -88.0907 -71.2256 -71.2121 -71.2041 -71.1890 -71.1789
   -71.1647 -71.1544 -66.6709 -66.6709 -66.6604 -66.6604 -66.6454 -66.6454
   -66.6454 -66.6454 -66.6410 -66.6410 -66.6348 -66.6348 -66.6348 -66.6348
   -66.6304 -66.6304 -66.6051 -66.6048 -66.5945 -66.5943 -66.5796 -66.5795
   -66.5794 -66.5793 -66.5751 -66.5750 -66.5690 -66.5689 -66.5689 -66.5686
   -66.5645 -66.5644 -66.5362 -66.5304 -66.5181 -66.5140 -66.5102 -66.5051
   -66.4976 -66.4957 -66.4945 -66.4849 -66.4820 -66.4795 -66.4738 -66.4648
   -66.4536 -66.4480 -57.1917 -57.0763 -57.0392 -54.5115 -54.3956 -54.3618
   -53.9428 -53.9109 -53.8221 -40.9720 -40.9720 -40.9720 -40.9720 -40.9454
   -40.9454 -40.9335 -40.9335 -40.9051 -40.9050 -40.9049 -40.9047 -40.8830
   -40.8830 -40.8830 -40.8830 -40.8784 -40.8782 -40.8664 -40.8663 -40.8339
   -40.8252 -40.8251 -40.8225 -40.8162 -40.8161 -40.8160 -40.8159 -40.8159
   -40.8151 -40.8151 -40.8109 -40.8044 -40.8044 -40.8036 -40.8019 -40.7770
   -40.7750 -40.7750 -40.7750 -40.7750 -40.7663 -40.7663 -40.7597 -40.7595
   -40.7580 -40.7541 -40.7541 -40.7541 -40.7541 -40.7541 -40.7541 -40.7483
   -40.7481 -40.7455 -40.7455 -40.7390 -40.7389 -40.7312 -40.7234 -40.7234
   -40.7233 -40.7233 -40.7233 -40.7218 -40.7097 -40.7096 -40.7095 -40.7095
   -40.7094 -40.7014 -40.7010 -40.7008 -40.6956 -40.6889 -40.6888 -40.6888
   -40.6888 -40.6888 -40.6888 -40.6887 -40.6884 -40.6873 -40.6871 -40.6833
   -40.6801 -40.6800 -40.6768 -40.6767 -40.6745 -40.6580 -40.6576 -40.6576
   -40.6566 -40.6565 -40.6564 -40.6564 -40.6556 -40.6524 -40.6495 -40.6476
   -40.6442 -40.6407 -40.6407 -40.6363 -40.6283 -40.6268 -40.6221 -40.6221
   -40.6219 -40.6219 -40.6208 -40.6168 -40.6130 -40.6109 -40.6102 -40.6102
   -40.6101 -40.6098 -40.5995 -40.5976 -40.5919 -40.5908 -40.5907 -40.5767
   -40.5740 -40.5738 -40.5725 -40.5688 -40.5625 -40.5436 -40.5434 -40.5378
   -40.5335 -40.5312 -40.5210 -40.5167 -40.5074 -40.5029 -40.4964 -40.4795
   -40.4581 -40.4531 -40.4355 -20.0278 -19.8738 -19.8591 -19.7708 -19.6996
   -19.6502 -19.5867 -19.4455 -19.4276 -19.3831 -19.2784 -19.2569 -19.0293
   -18.9572 -18.7871 -18.7511 -18.7315 -18.7308 -18.7261 -18.7244 -18.6970
   -18.6730 -18.6378 -18.6087 -18.6022 -18.5931 -18.5789 -18.5711 -18.5637
   -18.5393 -18.5083 -18.4812 -18.4778 -18.4469 -18.4307 -18.4143 -18.3990
   -18.3871 -18.3659 -18.3574 -18.3041 -18.2697 -18.2542 -18.2523 -18.2278
   -18.2206 -18.1966 -18.1666 -18.1492 -18.1365 -18.1170 -18.1166 -18.1165
   -18.1165 -18.1151 -18.1021 -18.0866 -18.0629 -18.0548 -18.0421 -18.0403
   -18.0363 -18.0320 -18.0270 -18.0132 -18.0028 -17.9868 -17.9815 -17.9767
   -17.9577 -17.9389 -17.9347 -17.9325 -17.9303 -17.9143 -17.9086 -17.8765
   -17.8729 -17.8685 -17.8532 -17.8532 -17.8499 -17.8204 -17.8116 -17.8053
   -17.7934 -17.7933 -17.7816 -17.7772 -17.7764 -17.7709 -17.7630 -17.7337
   -17.7334 -17.6766 -17.6728 -12.0957 -11.8132 -11.7714 -11.7004 -11.6630
   -11.5621 -11.4760 -11.4647 -11.4629 -11.4611 -11.4454 -11.4405 -11.4338
   -11.3928 -11.3887 -11.3662 -11.3625 -11.3542 -11.3528 -11.3253 -11.3150
   -11.3046 -11.2872 -11.2759 -11.2596 -11.2509 -11.2460 -11.2460 -11.2042
   -11.2003 -11.1945 -11.1709 -11.1519 -11.1444 -11.1409 -11.1052 -11.0864
   -11.0231 -10.9985 -10.9714 -10.9619 -10.9513 -10.9272 -10.9212 -10.9070
   -10.9023 -10.8868 -10.8786 -10.8736 -10.8586 -10.8332 -10.8321 -10.8218
   -10.8201 -10.8190 -10.8175 -10.8071 -10.8051 -10.7909 -10.7738 -10.7564
   -10.7494 -10.7463 -10.7385 -10.6656 -10.6492 -10.5921 -10.5725 -10.4897
   -10.4789 -10.4077 -10.3616 -10.3398 -10.3057 -10.2632 -10.2416 -10.1335
   -10.1248 -10.1125 -10.1015 -10.0642 -10.0535 -10.0339 -10.0230  -9.9947
    -9.9766  -9.9410  -9.9340  -9.9293  -9.9283  -9.9210  -9.9141  -9.9002
    -9.8877  -9.8818  -9.8732  -9.8673  -9.8204  -9.8023  -9.7879  -9.7705
    -9.7498  -9.7433  -9.7319  -9.7050  -9.7018  -9.7006  -9.6938  -9.6871
    -9.6798  -9.6636  -9.6508  -9.6430  -9.6283  -9.6107  -9.6004  -9.5737
    -9.5525  -9.5416  -9.5266  -9.5166  -9.5099  -9.4715  -9.4663  -9.4597
    -9.4504  -9.3746  -9.3461  -9.3374  -9.3139  -9.2858  -9.2323  -9.2125
    -9.1996  -9.1739  -9.1634  -9.1553  -9.1422  -9.1335  -9.1231  -9.1077
    -9.0929  -9.0817  -9.0741  -9.0589  -9.0383  -9.0285  -9.0215  -9.0189
    -9.0099  -8.9873  -8.9797  -8.9719  -8.9562  -8.9470  -8.9405  -8.9331
    -8.9281  -8.9226  -8.9175  -8.9083  -8.8981  -8.8912  -8.8703  -8.8640
    -8.8480  -8.8450  -8.8414  -8.8379  -8.8289  -8.8282  -8.8260  -8.8164
    -8.8090  -8.7998  -8.7817  -8.7627  -8.7537  -8.7526  -8.7441  -8.7242
    -8.7147  -8.6613  -8.5769  -8.5589  -8.5012  -8.5008  -8.4709  -8.4260
    -8.4157  -8.4082  -8.3723  -8.3050  -8.2950  -8.2571  -8.1824  -8.1824
    -8.1711  -8.1395  -8.1103  -8.1095  -8.1048  -8.0711  -8.0066  -7.9839
    -7.9406  -7.9291  -7.9187  -7.9122  -7.8647  -7.8538  -7.8516  -7.8418
    -7.8367  -7.8359  -7.8357  -7.8356  -7.8270  -7.8239  -7.8133  -7.7976
    -7.7911  -7.7889  -7.7880  -7.7864  -7.7731  -7.7656  -7.7618  -7.7533
    -7.7438  -7.7368  -7.7297  -7.7248  -7.7145  -7.7121  -7.7099  -7.7058
    -7.6943  -7.6817  -7.6756  -7.6714  -7.6506  -7.6504  -7.6497  -7.6421
    -7.6242  -7.6115  -7.6037  -7.5923  -7.5821  -7.5759  -7.5717  -7.5496
    -7.5365  -7.5194  -7.5175  -7.4815  -7.4611  -7.4446  -7.3643  -7.3372
    -7.3046  -7.2798  -7.2332  -7.2313  -7.2151  -7.2079  -7.1970  -7.1586
    -7.1211  -7.1082  -7.0623  -7.0610  -7.0400  -7.0159  -7.0012  -6.9983
    -6.9838  -6.9822  -6.9466  -6.9443  -6.9240  -6.9013  -6.8910  -6.8823
    -6.8472  -6.8282  -6.8187  -6.8124  -6.7593  -6.7221  -6.7061  -6.7002
    -6.6724  -6.6573  -6.6475  -6.6475  -6.6474  -6.6474  -6.6370  -6.6247
    -6.6102  -6.5964  -6.5821  -6.5796  -6.5774  -6.5763  -6.5613  -6.5490
    -6.5012  -6.4590  -6.4433  -6.4327  -6.4164  -6.3723  -6.3590  -6.3163
    -6.3157  -6.3153  -6.3146  -6.2789  -6.2548  -6.2506  -6.2416  -6.2348
    -6.2310  -6.2292  -6.2247  -6.2171  -6.1948  -6.1838  -6.1602  -6.1217
    -6.0158  -5.9673  -5.9673  -5.9312  -5.8945  -5.8890  -5.8856  -5.8420
    -5.7261  -5.7135  -5.6323  -5.5765  -5.5542  -5.4995  -5.4240  -5.3629
    -5.2842  -5.2163  -4.1708  -4.0293  -4.0106  -4.0063  -3.9697  -3.8960
    -3.8827  -3.8827  -3.8475  -3.8253  -3.8180  -3.8171  -3.7919  -3.7709
    -3.7608  -3.7445  -3.7086  -3.6963  -3.6190  -3.6012  -3.5894  -3.5856
    -3.5829  -3.5732  -3.5685  -3.5680  -3.5592  -3.5430  -3.5141  -3.5029
    -3.4921  -3.4865  -3.4709  -3.4695  -3.4654  -3.4605  -3.4572  -3.4467
    -3.4198  -3.4107  -3.3840  -3.3685  -3.3585  -3.3470  -3.3387  -3.3358
    -3.3349  -3.3073  -3.3044  -3.3029  -3.2938  -3.2841  -3.2683  -3.2600
    -3.2598  -3.2585  -3.2572  -3.2369  -3.2284  -3.2196  -3.2140  -3.2115
    -3.1956  -3.1909  -3.1886  -3.1835  -3.1774  -3.1682  -3.1532  -3.1300
    -3.1173  -3.1100  -3.0937  -3.0776  -3.0552  -3.0527  -3.0274  -3.0173
    -3.0154  -3.0137  -2.9968  -2.9956  -2.9955  -2.9953  -2.9637  -2.9519
    -2.9478  -2.9462  -2.9355  -2.9296  -2.9224  -2.9203  -2.9067  -2.9003
    -2.8925  -2.8875  -2.8774  -2.8761  -2.8696  -2.8563  -2.8417  -2.8406
    -2.8292  -2.8001  -2.7929  -2.7897  -2.7874  -2.7692  -2.7299  -2.7262
    -2.6977  -2.6948  -2.6599  -2.6365  -2.6342  -2.6329  -2.6219  -2.6204
    -2.5556  -2.5489  -2.5206  -2.5012  -2.4857  -2.4849  -2.4794  -2.4537
    -2.4059  -2.3588  -2.3469  -2.3076  -2.2835  -2.2711

          k =-0.5000-0.8660 0.0000 (321564 PWs)   bands (ev):

  -102.8894 -88.6286 -88.0907 -71.2256 -71.2121 -71.2041 -71.1890 -71.1789
   -71.1647 -71.1544 -66.6709 -66.6709 -66.6604 -66.6604 -66.6454 -66.6454
   -66.6454 -66.6454 -66.6410 -66.6410 -66.6348 -66.6348 -66.6348 -66.6348
   -66.6304 -66.6304 -66.6050 -66.6049 -66.5945 -66.5943 -66.5796 -66.5795
   -66.5794 -66.5792 -66.5751 -66.5750 -66.5689 -66.5689 -66.5689 -66.5687
   -66.5645 -66.5643 -66.5356 -66.5314 -66.5178 -66.5135 -66.5086 -66.5059
   -66.5012 -66.4955 -66.4915 -66.4850 -66.4825 -66.4793 -66.4740 -66.4647
   -66.4536 -66.4480 -57.1917 -57.0763 -57.0392 -54.5115 -54.3957 -54.3618
   -53.9428 -53.9109 -53.8221 -40.9720 -40.9720 -40.9720 -40.9720 -40.9454
   -40.9454 -40.9335 -40.9335 -40.9050 -40.9050 -40.9049 -40.9048 -40.8830
   -40.8830 -40.8830 -40.8830 -40.8783 -40.8782 -40.8664 -40.8663 -40.8288
   -40.8268 -40.8251 -40.8251 -40.8228 -40.8161 -40.8161 -40.8159 -40.8159
   -40.8151 -40.8151 -40.8089 -40.8044 -40.8044 -40.8042 -40.7999 -40.7752
   -40.7750 -40.7750 -40.7750 -40.7750 -40.7663 -40.7663 -40.7597 -40.7596
   -40.7549 -40.7541 -40.7541 -40.7541 -40.7541 -40.7541 -40.7541 -40.7483
   -40.7481 -40.7455 -40.7455 -40.7390 -40.7389 -40.7298 -40.7238 -40.7233
   -40.7233 -40.7233 -40.7233 -40.7194 -40.7112 -40.7097 -40.7096 -40.7095
   -40.7094 -40.7030 -40.7010 -40.7008 -40.6944 -40.6888 -40.6888 -40.6888
   -40.6888 -40.6888 -40.6887 -40.6887 -40.6885 -40.6873 -40.6871 -40.6853
   -40.6801 -40.6800 -40.6768 -40.6768 -40.6729 -40.6590 -40.6584 -40.6576
   -40.6576 -40.6566 -40.6566 -40.6564 -40.6563 -40.6539 -40.6499 -40.6474
   -40.6430 -40.6407 -40.6407 -40.6343 -40.6303 -40.6291 -40.6221 -40.6221
   -40.6219 -40.6219 -40.6184 -40.6168 -40.6136 -40.6106 -40.6102 -40.6102
   -40.6100 -40.6099 -40.6027 -40.5962 -40.5920 -40.5909 -40.5906 -40.5740
   -40.5738 -40.5735 -40.5715 -40.5704 -40.5641 -40.5435 -40.5434 -40.5375
   -40.5305 -40.5299 -40.5248 -40.5180 -40.5073 -40.5043 -40.4920 -40.4754
   -40.4601 -40.4542 -40.4367 -20.0068 -19.8850 -19.8590 -19.8180 -19.7009
   -19.6803 -19.4673 -19.4528 -19.4155 -19.4000 -19.2734 -19.2632 -19.1053
   -18.9435 -18.7623 -18.7596 -18.7322 -18.7302 -18.7265 -18.7238 -18.6933
   -18.6747 -18.6367 -18.6138 -18.5974 -18.5932 -18.5837 -18.5683 -18.5526
   -18.5416 -18.5040 -18.4812 -18.4774 -18.4558 -18.4306 -18.4108 -18.4078
   -18.3918 -18.3705 -18.3376 -18.3048 -18.2871 -18.2507 -18.2407 -18.2210
   -18.2182 -18.1786 -18.1763 -18.1453 -18.1358 -18.1169 -18.1167 -18.1165
   -18.1164 -18.1121 -18.0961 -18.0886 -18.0723 -18.0488 -18.0468 -18.0410
   -18.0354 -18.0294 -18.0284 -18.0219 -17.9997 -17.9903 -17.9826 -17.9708
   -17.9679 -17.9431 -17.9363 -17.9315 -17.9284 -17.9232 -17.9132 -17.8773
   -17.8745 -17.8650 -17.8586 -17.8532 -17.8531 -17.8174 -17.8109 -17.7956
   -17.7933 -17.7929 -17.7909 -17.7776 -17.7766 -17.7692 -17.7507 -17.7342
   -17.7328 -17.6800 -17.6692 -12.0607 -11.7996 -11.7716 -11.7375 -11.6671
   -11.5919 -11.4950 -11.4686 -11.4625 -11.4606 -11.4555 -11.4486 -11.4375
   -11.4198 -11.3958 -11.3750 -11.3646 -11.3618 -11.3543 -11.3494 -11.3066
   -11.2882 -11.2812 -11.2741 -11.2694 -11.2460 -11.2460 -11.2151 -11.2005
   -11.2000 -11.1588 -11.1554 -11.1480 -11.1429 -11.1344 -11.1026 -11.0587
   -11.0264 -11.0010 -10.9864 -10.9622 -10.9545 -10.9439 -10.9077 -10.9003
   -10.8983 -10.8932 -10.8840 -10.8664 -10.8399 -10.8341 -10.8258 -10.8245
   -10.8192 -10.8190 -10.8169 -10.8143 -10.8130 -10.7942 -10.7741 -10.7551
   -10.7526 -10.7475 -10.7389 -10.6616 -10.5977 -10.5893 -10.5418 -10.4933
   -10.4809 -10.4523 -10.4102 -10.3439 -10.3057 -10.2431 -10.2251 -10.1253
   -10.1176 -10.1047 -10.1001 -10.0761 -10.0544 -10.0180 -10.0111  -9.9990
    -9.9812  -9.9476  -9.9372  -9.9343  -9.9182  -9.9163  -9.9030  -9.8957
    -9.8935  -9.8866  -9.8718  -9.8663  -9.8230  -9.8097  -9.7632  -9.7536
    -9.7500  -9.7308  -9.7260  -9.7225  -9.7035  -9.6983  -9.6971  -9.6866
    -9.6804  -9.6619  -9.6523  -9.6243  -9.6165  -9.6081  -9.6015  -9.5677
    -9.5493  -9.5417  -9.5226  -9.5186  -9.5132  -9.5006  -9.4856  -9.4634
    -9.4597  -9.4231  -9.3921  -9.3629  -9.3186  -9.2768  -9.2649  -9.2046
    -9.1870  -9.1823  -9.1642  -9.1619  -9.1435  -9.1360  -9.1200  -9.1031
    -9.0994  -9.0838  -9.0626  -9.0418  -9.0341  -9.0303  -9.0242  -9.0109
    -9.0036  -8.9965  -8.9787  -8.9764  -8.9622  -8.9486  -8.9423  -8.9293
    -8.9246  -8.9224  -8.9214  -8.8969  -8.8907  -8.8708  -8.8691  -8.8491
    -8.8468  -8.8452  -8.8420  -8.8331  -8.8291  -8.8285  -8.8278  -8.8141
    -8.8123  -8.7966  -8.7872  -8.7822  -8.7599  -8.7523  -8.7442  -8.7338
    -8.7003  -8.6492  -8.5846  -8.5405  -8.5013  -8.5008  -8.4696  -8.4409
    -8.4230  -8.4166  -8.4007  -8.3310  -8.2925  -8.2304  -8.1824  -8.1824
    -8.1649  -8.1352  -8.1104  -8.1097  -8.0923  -8.0577  -8.0075  -7.9964
    -7.9411  -7.9217  -7.9161  -7.9024  -7.8645  -7.8533  -7.8476  -7.8453
    -7.8385  -7.8380  -7.8357  -7.8357  -7.8332  -7.8310  -7.8030  -7.7910
    -7.7898  -7.7891  -7.7877  -7.7706  -7.7649  -7.7636  -7.7540  -7.7400
    -7.7397  -7.7314  -7.7223  -7.7195  -7.7119  -7.7106  -7.7026  -7.6947
    -7.6863  -7.6808  -7.6738  -7.6647  -7.6580  -7.6506  -7.6505  -7.6262
    -7.6227  -7.6175  -7.6024  -7.5976  -7.5899  -7.5811  -7.5754  -7.5601
    -7.5358  -7.5128  -7.5049  -7.4926  -7.4819  -7.4260  -7.4062  -7.3220
    -7.3033  -7.2552  -7.2356  -7.2194  -7.2187  -7.2073  -7.1966  -7.1482
    -7.1350  -7.1045  -7.0820  -7.0668  -7.0355  -7.0250  -7.0105  -6.9988
    -6.9979  -6.9873  -6.9655  -6.9512  -6.9196  -6.8998  -6.8965  -6.8884
    -6.8646  -6.8416  -6.8261  -6.8120  -6.7905  -6.7470  -6.6971  -6.6914
    -6.6794  -6.6479  -6.6475  -6.6475  -6.6473  -6.6426  -6.6278  -6.6195
    -6.5983  -6.5828  -6.5801  -6.5773  -6.5763  -6.5654  -6.5522  -6.5430
    -6.4864  -6.4844  -6.4402  -6.4296  -6.4123  -6.3962  -6.3430  -6.3221
    -6.3155  -6.3153  -6.3145  -6.3103  -6.2586  -6.2528  -6.2373  -6.2334
    -6.2321  -6.2290  -6.2287  -6.2097  -6.1999  -6.1938  -6.1207  -6.0207
    -5.9939  -5.9741  -5.9672  -5.9671  -5.8972  -5.8894  -5.8817  -5.8271
    -5.7523  -5.7156  -5.6292  -5.5802  -5.5699  -5.5118  -5.4262  -5.3702
    -5.2840  -5.2198  -4.1938  -4.0379  -4.0098  -4.0074  -3.9827  -3.8828
    -3.8827  -3.8683  -3.8584  -3.8402  -3.8181  -3.8179  -3.7756  -3.7710
    -3.7628  -3.7465  -3.7292  -3.6754  -3.6175  -3.5980  -3.5909  -3.5871
    -3.5812  -3.5777  -3.5684  -3.5682  -3.5477  -3.5402  -3.5301  -3.4925
    -3.4893  -3.4871  -3.4739  -3.4636  -3.4615  -3.4609  -3.4513  -3.4492
    -3.4072  -3.3876  -3.3818  -3.3650  -3.3504  -3.3446  -3.3371  -3.3358
    -3.3216  -3.3078  -3.3047  -3.3013  -3.2956  -3.2893  -3.2717  -3.2603
    -3.2595  -3.2589  -3.2574  -3.2404  -3.2313  -3.2219  -3.2182  -3.2119
    -3.1999  -3.1926  -3.1878  -3.1805  -3.1750  -3.1672  -3.1552  -3.1212
    -3.1122  -3.1085  -3.0992  -3.0772  -3.0551  -3.0534  -3.0349  -3.0241
    -3.0160  -3.0130  -2.9963  -2.9959  -2.9955  -2.9952  -2.9613  -2.9552
    -2.9478  -2.9463  -2.9314  -2.9266  -2.9198  -2.9086  -2.9059  -2.9024
    -2.8956  -2.8911  -2.8810  -2.8734  -2.8677  -2.8569  -2.8392  -2.8362
    -2.8257  -2.8232  -2.7972  -2.7909  -2.7864  -2.7775  -2.7308  -2.7218
    -2.6979  -2.6939  -2.6541  -2.6467  -2.6329  -2.6321  -2.6205  -2.6163
    -2.5561  -2.5487  -2.5179  -2.5073  -2.4878  -2.4809  -2.4768  -2.4596
    -2.4195  -2.3625  -2.3395  -2.2940  -2.2800  -2.2683

     the Fermi energy is    -4.6549 ev

!    total energy              =  -26543.76075806 Ry
     total all-electron energy =   -522376.357066 Ry
     estimated scf accuracy    <       0.00000067 Ry
     smearing contrib. (-TS)   =      -0.00000005 Ry
     internal energy E=F+TS    =  -26543.76075801 Ry

     The total energy is F=E-TS. E is the sum of the following terms:
     one-electron contribution =  511446.38288860 Ry
     hartree contribution      = -255867.57696384 Ry
     xc contribution           =   -1565.66409623 Ry
     ewald contribution        = -264108.90340140 Ry
     DFT-D3 Dispersion         =      -4.05874363 Ry
     one-center paw contrib.   =  -16443.94044152 Ry

     convergence has been achieved in  21 iterations

     negative rho (up, down):  9.617E-04 0.000E+00

     Forces acting on atoms (cartesian axes, Ry/au):

     atom    1 type  1   force =     0.00080835   -0.00018724    0.00026813
     atom    2 type  1   force =    -0.00001050    0.00001957    0.00194746
     atom    3 type  1   force =    -0.00003625    0.00002752    0.00000626
     atom    4 type  2   force =    -0.00000188    0.00000252   -0.00343734
     atom    5 type  2   force =     0.00001718   -0.00000059   -0.00011596
     atom    6 type  2   force =    -0.00020404    0.00012526   -0.00016189
     atom    7 type  2   force =    -0.00000083    0.00000585    0.00163206
     atom    8 type  2   force =    -0.00000914   -0.00000175    0.00008992
     atom    9 type  2   force =    -0.00041878    0.00038968    0.00010098
     atom   10 type  1   force =    -0.00269078   -0.00236704   -0.00092912
     atom   11 type  1   force =    -0.00001510   -0.00001288    0.00193572
     atom   12 type  1   force =    -0.00002211   -0.00006207    0.00002533
     atom   13 type  2   force =    -0.00000375   -0.00000836   -0.00343555
     atom   14 type  2   force =     0.00000983   -0.00000552   -0.00013064
     atom   15 type  2   force =     0.00042240    0.00011316   -0.00005687
     atom   16 type  2   force =    -0.00000250   -0.00000565    0.00164390
     atom   17 type  2   force =    -0.00002040   -0.00001144    0.00010671
     atom   18 type  2   force =    -0.00012697   -0.00054793    0.00005812
     atom   19 type  1   force =    -0.00212425   -0.00064539   -0.00180408
     atom   20 type  1   force =    -0.00001257   -0.00003596    0.00193054
     atom   21 type  1   force =    -0.00003910    0.00000877    0.00000622
     atom   22 type  2   force =     0.00000209   -0.00000205   -0.00343073
     atom   23 type  2   force =     0.00001497   -0.00000082   -0.00013957
     atom   24 type  2   force =     0.00012919   -0.00008741   -0.00032782
     atom   25 type  2   force =    -0.00000230   -0.00001437    0.00162586
     atom   26 type  2   force =     0.00000119   -0.00001001    0.00018041
     atom   27 type  2   force =    -0.00001195   -0.00005512    0.00075849
     atom   28 type  1   force =    -0.00042416    0.00050614    0.00038446
     atom   29 type  1   force =    -0.00001363   -0.00001437    0.00193932
     atom   30 type  1   force =     0.00001120   -0.00003206    0.00002914
     atom   31 type  2   force =     0.00000413   -0.00000319   -0.00343238
     atom   32 type  2   force =     0.00000193    0.00001862   -0.00013997
     atom   33 type  2   force =    -0.00011425   -0.00003714   -0.00044858
     atom   34 type  2   force =    -0.00000410   -0.00000841    0.00163488
     atom   35 type  2   force =     0.00000478   -0.00000824    0.00012933
     atom   36 type  2   force =     0.00007760   -0.00023908    0.00009274
     atom   37 type  1   force =    -0.00012236    0.00018176   -0.00009811
     atom   38 type  1   force =    -0.00000728    0.00000292    0.00193230
     atom   39 type  1   force =     0.00001933    0.00001644    0.00006441
     atom   40 type  2   force =     0.00000186    0.00000060   -0.00343636
     atom   41 type  2   force =    -0.00002535   -0.00001900   -0.00013746
     atom   42 type  2   force =    -0.00007202    0.00043436   -0.00030921
     atom   43 type  2   force =     0.00000254    0.00000658    0.00163176
     atom   44 type  2   force =    -0.00000688    0.00000816    0.00015388
     atom   45 type  2   force =     0.00032246    0.00043665    0.00025826
     atom   46 type  1   force =     0.00100975   -0.00204410   -0.00243926
     atom   47 type  1   force =     0.00000165    0.00000006    0.00192880
     atom   48 type  1   force =     0.00000490   -0.00006968    0.00006419
     atom   49 type  2   force =     0.00000084   -0.00001221   -0.00343136
     atom   50 type  2   force =    -0.00001377   -0.00002698   -0.00012472
     atom   51 type  2   force =    -0.00024786   -0.00092190   -0.00092691
     atom   52 type  2   force =     0.00000005   -0.00000041    0.00162550
     atom   53 type  2   force =     0.00004045    0.00000323    0.00017610
     atom   54 type  2   force =     0.00215951    0.00002824   -0.00408563
     atom   55 type  1   force =     0.00148475    0.00045230   -0.02054118
     atom   56 type  1   force =     0.00000073   -0.00000010    0.00193998
     atom   57 type  1   force =     0.00000640   -0.00002183    0.00003067
     atom   58 type  2   force =    -0.00001161   -0.00000678   -0.00343757
     atom   59 type  2   force =    -0.00001192   -0.00001906   -0.00013340
     atom   60 type  2   force =    -0.00054846   -0.00077108    0.00239048
     atom   61 type  2   force =     0.00000250   -0.00001061    0.00162760
     atom   62 type  2   force =     0.00000803   -0.00000010    0.00015815
     atom   63 type  2   force =    -0.00964675   -0.00383176    0.01536055
     atom   64 type  1   force =    -0.00094041    0.00246982   -0.00178268
     atom   65 type  1   force =     0.00001193   -0.00000473    0.00193183
     atom   66 type  1   force =    -0.00005325    0.00002087    0.00007489
     atom   67 type  2   force =    -0.00000051    0.00000050   -0.00343738
     atom   68 type  2   force =    -0.00001302   -0.00001459   -0.00014106
     atom   69 type  2   force =    -0.00042115    0.00062419   -0.00113358
     atom   70 type  2   force =     0.00000614   -0.00000134    0.00162805
     atom   71 type  2   force =    -0.00000423   -0.00001402    0.00018908
     atom   72 type  2   force =     0.00083592   -0.00051678   -0.00050015
     atom   73 type  1   force =    -0.00023991   -0.00066108   -0.00003454
     atom   74 type  1   force =     0.00000998    0.00000737    0.00193392
     atom   75 type  1   force =    -0.00001091    0.00001972    0.00001963
     atom   76 type  2   force =    -0.00000347   -0.00000851   -0.00344337
     atom   77 type  2   force =    -0.00000387   -0.00000336   -0.00014123
     atom   78 type  2   force =    -0.00007345   -0.00031364   -0.00038381
     atom   79 type  2   force =    -0.00000505    0.00000062    0.00163652
     atom   80 type  2   force =    -0.00000124   -0.00000761    0.00014931
     atom   81 type  2   force =    -0.00026564    0.00013182    0.00092460
     atom   82 type  1   force =    -0.00078802    0.00027740   -0.00007366
     atom   83 type  1   force =    -0.00000377    0.00000323    0.00193038
     atom   84 type  1   force =    -0.00000984   -0.00005066    0.00000682
     atom   85 type  2   force =    -0.00000650   -0.00000877   -0.00344224
     atom   86 type  2   force =    -0.00001053   -0.00000254   -0.00016085
     atom   87 type  2   force =    -0.00003174   -0.00050130   -0.00043564
     atom   88 type  2   force =    -0.00000155    0.00000172    0.00163695
     atom   89 type  2   force =    -0.00003112   -0.00000111    0.00010826
     atom   90 type  2   force =     0.00034124   -0.00198118    0.00112527
     atom   91 type  1   force =     0.00275617   -0.00019451    0.00135627
     atom   92 type  1   force =    -0.00001611   -0.00001626    0.00192359
     atom   93 type  1   force =    -0.00002274    0.00001820   -0.00004726
     atom   94 type  2   force =     0.00000324   -0.00000987   -0.00343467
     atom   95 type  2   force =     0.00001050   -0.00001375   -0.00015420
     atom   96 type  2   force =    -0.00034405   -0.00011622    0.00175395
     atom   97 type  2   force =    -0.00000315   -0.00001202    0.00162678
     atom   98 type  2   force =    -0.00002242   -0.00001365    0.00016894
     atom   99 type  2   force =     0.00817518   -0.00661380    0.00525618
     atom  100 type  1   force =     0.00088487    0.00229522   -0.00055575
     atom  101 type  1   force =    -0.00001499   -0.00000950    0.00193458
     atom  102 type  1   force =     0.00004299    0.00001411   -0.00000065
     atom  103 type  2   force =    -0.00000419    0.00000231   -0.00343999
     atom  104 type  2   force =     0.00000217    0.00000861   -0.00013971
     atom  105 type  2   force =    -0.00008635   -0.00024141    0.00250957
     atom  106 type  2   force =     0.00000048   -0.00000917    0.00163447
     atom  107 type  2   force =    -0.00000962    0.00000440    0.00012692
     atom  108 type  2   force =    -0.00185483    0.01170282    0.01630500
     atom  109 type  1   force =    -0.00011894   -0.00027884    0.00050987
     atom  110 type  1   force =     0.00000237    0.00002632    0.00193434
     atom  111 type  1   force =     0.00002981    0.00003556   -0.00000952
     atom  112 type  2   force =    -0.00000112    0.00000312   -0.00344304
     atom  113 type  2   force =     0.00000768   -0.00000823   -0.00015286
     atom  114 type  2   force =     0.00002608   -0.00012032   -0.00031955
     atom  115 type  2   force =    -0.00000118    0.00000435    0.00164590
     atom  116 type  2   force =    -0.00000420    0.00000333    0.00013101
     atom  117 type  2   force =     0.00005982    0.00024666    0.00039977
     atom  118 type  1   force =     0.00036595    0.00055558    0.00009093
     atom  119 type  1   force =     0.00001257    0.00000149    0.00194618
     atom  120 type  1   force =     0.00001901   -0.00002205   -0.00001368
     atom  121 type  2   force =     0.00000098   -0.00001261   -0.00343821
     atom  122 type  2   force =    -0.00000630    0.00000498   -0.00013913
     atom  123 type  2   force =    -0.00001195    0.00001025   -0.00021274
     atom  124 type  2   force =     0.00000409   -0.00000348    0.00163871
     atom  125 type  2   force =    -0.00002902    0.00001041    0.00014441
     atom  126 type  2   force =    -0.00019364    0.00025960    0.00091679
     atom  127 type  1   force =    -0.00035192   -0.00022658    0.00022093
     atom  128 type  1   force =     0.00001518   -0.00001131    0.00193146
     atom  129 type  1   force =     0.00006167    0.00000901    0.00000454
     atom  130 type  2   force =    -0.00000160   -0.00000674   -0.00343730
     atom  131 type  2   force =    -0.00000194   -0.00000742   -0.00015701
     atom  132 type  2   force =    -0.00023737    0.00076087   -0.00075475
     atom  133 type  2   force =    -0.00000333   -0.00001523    0.00163533
     atom  134 type  2   force =     0.00000568   -0.00000015    0.00010570
     atom  135 type  2   force =    -0.00016703    0.00002782    0.00097836
     atom  136 type  1   force =     0.00035502   -0.00011493    0.00059787
     atom  137 type  1   force =     0.00000888   -0.00000446    0.00193444
     atom  138 type  1   force =     0.00001173    0.00003598   -0.00000506
     atom  139 type  2   force =    -0.00000004   -0.00000758   -0.00343640
     atom  140 type  2   force =     0.00001261    0.00000251   -0.00014146
     atom  141 type  2   force =     0.00038226    0.00005506   -0.00140756
     atom  142 type  2   force =    -0.00000519   -0.00001640    0.00162629
     atom  143 type  2   force =     0.00001705   -0.00002500    0.00016530
     atom  144 type  2   force =    -0.00029275   -0.00038764   -0.00129262
     atom  145 type  3   force =    -0.01047688    0.01727057    0.01045666
     atom  146 type  4   force =     0.00127050    0.00008237   -0.00077736
     atom  147 type  4   force =     0.01190525   -0.01502714   -0.02437358

     Total force =     0.054010     Total SCF correction =     0.002246

     BFGS Geometry Optimization
     Energy error            =      0.0E+00 Ry
     Gradient error          =      2.4E-02 Ry/Bohr

     number of scf cycles    =   1
     number of bfgs steps    =   0

     energy             new  =  -26543.7607580639 Ry

[...]
     atom   72 type  2   force =     0.00017029   -0.00007644    0.00010346
     atom   73 type  1   force =    -0.00010851    0.00004377    0.00001201
     atom   74 type  1   force =    -0.00000008   -0.00000001    0.00190080
     atom   75 type  1   force =    -0.00000397    0.00001494   -0.00000078
     atom   76 type  2   force =     0.00000138    0.00000133   -0.00328021
     atom   77 type  2   force =     0.00001225    0.00003823    0.00002305
     atom   78 type  2   force =     0.00006766   -0.00007569   -0.00004727
     atom   79 type  2   force =    -0.00000511    0.00000402    0.00150032
     atom   80 type  2   force =     0.00001003    0.00003491   -0.00000774
     atom   81 type  2   force =    -0.00025874    0.00025584   -0.00002498
     atom   82 type  1   force =     0.00017820   -0.00000853   -0.00012097
     atom   83 type  1   force =     0.00000009    0.00000225    0.00189575
     atom   84 type  1   force =    -0.00000533    0.00000258   -0.00002095
     atom   85 type  2   force =     0.00000127    0.00000135   -0.00328072
     atom   86 type  2   force =     0.00001701    0.00002961   -0.00003839
     atom   87 type  2   force =    -0.00001648   -0.00004023    0.00006892
     atom   88 type  2   force =     0.00000189    0.00000260    0.00150479
     atom   89 type  2   force =    -0.00001766    0.00000898   -0.00000810
     atom   90 type  2   force =     0.00031139   -0.00010735   -0.00041423
     atom   91 type  1   force =    -0.00038782   -0.00008887    0.00035685
     atom   92 type  1   force =     0.00000320   -0.00000003    0.00189681
     atom   93 type  1   force =     0.00000976    0.00001756    0.00001457
     atom   94 type  2   force =     0.00000093    0.00000182   -0.00328051
     atom   95 type  2   force =    -0.00000875    0.00002050   -0.00001724
     atom   96 type  2   force =     0.00003196    0.00034429    0.00053331
     atom   97 type  2   force =     0.00001058   -0.00000380    0.00151171
     atom   98 type  2   force =     0.00003202   -0.00001752   -0.00002170
     atom   99 type  2   force =     0.00049928   -0.00051125   -0.00001927
     atom  100 type  1   force =    -0.00015078    0.00003222   -0.00012722
     atom  101 type  1   force =     0.00000096    0.00000194    0.00190070
     atom  102 type  1   force =    -0.00001195    0.00001816   -0.00000366
     atom  103 type  2   force =     0.00000125    0.00000180   -0.00327972
     atom  104 type  2   force =    -0.00000615    0.00003528    0.00000131
     atom  105 type  2   force =     0.00020869   -0.00037087   -0.00024253
     atom  106 type  2   force =     0.00000302    0.00000385    0.00150731
     atom  107 type  2   force =     0.00000550    0.00000684   -0.00000872
     atom  108 type  2   force =     0.00014126   -0.00003392   -0.00025448
     atom  109 type  1   force =     0.00001053   -0.00000660   -0.00021000
     atom  110 type  1   force =    -0.00000035    0.00000017    0.00190630
     atom  111 type  1   force =     0.00001550    0.00000174    0.00000930
     atom  112 type  2   force =     0.00000128    0.00000178   -0.00328055
     atom  113 type  2   force =     0.00001166    0.00000540   -0.00001043
     atom  114 type  2   force =    -0.00012527    0.00034183   -0.00025334
     atom  115 type  2   force =    -0.00000572   -0.00000212    0.00150713
     atom  116 type  2   force =     0.00001383    0.00001301    0.00002550
     atom  117 type  2   force =     0.00000796    0.00023373   -0.00007988
     atom  118 type  1   force =     0.00000316   -0.00015287   -0.00007304
     atom  119 type  1   force =    -0.00000020    0.00000138    0.00190193
     atom  120 type  1   force =    -0.00001032    0.00001815   -0.00000612
     atom  121 type  2   force =     0.00000167    0.00000140   -0.00327990
     atom  122 type  2   force =    -0.00002847    0.00000983    0.00000735
     atom  123 type  2   force =    -0.00013799   -0.00002995    0.00012381
     atom  124 type  2   force =    -0.00000491    0.00000448    0.00151416
     atom  125 type  2   force =    -0.00001059    0.00000469    0.00000451
     atom  126 type  2   force =    -0.00031333    0.00004577   -0.00023172
     atom  127 type  1   force =     0.00010034    0.00001978   -0.00005666
     atom  128 type  1   force =    -0.00000071    0.00000110    0.00189928
     atom  129 type  1   force =     0.00000481    0.00000520   -0.00003639
     atom  130 type  2   force =     0.00000141    0.00000173   -0.00328111
     atom  131 type  2   force =     0.00001569   -0.00001653   -0.00005075
     atom  132 type  2   force =    -0.00019840    0.00003540    0.00028527
     atom  133 type  2   force =    -0.00000011   -0.00000634    0.00151193
     atom  134 type  2   force =    -0.00000349    0.00002907   -0.00002391
     atom  135 type  2   force =    -0.00014484    0.00014505   -0.00011623
     atom  136 type  1   force =     0.00001467   -0.00024467   -0.00022966
     atom  137 type  1   force =     0.00000209    0.00000056    0.00189971
     atom  138 type  1   force =    -0.00000481    0.00002369   -0.00000202
     atom  139 type  2   force =     0.00000113    0.00000205   -0.00328023
     atom  140 type  2   force =    -0.00002100    0.00002540   -0.00001442
     atom  141 type  2   force =    -0.00005294   -0.00047708   -0.00003184
     atom  142 type  2   force =     0.00000568   -0.00000838    0.00151326
     atom  143 type  2   force =     0.00001185    0.00000441   -0.00003203
     atom  144 type  2   force =     0.00006817    0.00019421   -0.00007726
     atom  145 type  3   force =    -0.00024281    0.00050253    0.00089470
     atom  146 type  4   force =    -0.00005200   -0.00022889   -0.00036191
     atom  147 type  4   force =    -0.00039755    0.00004190   -0.00041506

     Total force =     0.002632     Total SCF correction =     0.000350
     SCF correction compared to forces is large: reduce conv_thr to get better values
     Energy error            =      1.3E-05 Ry
     Gradient error          =      8.9E-04 Ry/Bohr

     bfgs converged in  32 scf cycles and  31 bfgs steps
     (criteria: energy <  1.0E-04 Ry, force <  1.0E-03 Ry/Bohr)

     End of BFGS Geometry Optimization

     Final energy             =  -26543.7749929173 Ry

     File ./outdir/pwscf.bfgs deleted, as requested
Begin final coordinates

ATOMIC_POSITIONS (angstrom)
Mo               1.5708415037        2.7243641772        6.0809080234
Mo               1.5769197498        0.9104407117       -6.0872367793    0   0   0
Mo              -0.0001685882        1.8212177693       -0.0010496686
S                0.0000044503        0.0000077495       -7.6506323570    0   0   0
S                1.5771990102        0.9101352751       -1.5654898453
S               -0.0030622055        1.8367575293        4.5024941743
S                0.0000053241        0.0000068460       -4.5222282367    0   0   0
S                1.5760593984        0.9105743530        1.5661648502
S               -0.0045804209        1.8153901806        7.6451426129
Mo              -0.0198370771        5.4512090027        6.0926951448
Mo               0.0000011799        3.6417399547       -6.0872367793    0   0   0
Mo              -1.5770456737        4.5521489736       -0.0005285847
S               -1.5769141197        2.7313069925       -7.6506323570    0   0   0
S                0.0001719566        3.6420614852       -1.5661110191
S               -1.5858662596        4.5550390700        4.5144498082
S               -1.5769132459        2.7313060890       -4.5222282367    0   0   0
S                0.0001510325        3.6423972795        1.5663847183
S               -1.5874434718        4.5396786715        7.6609888444
Mo              -1.5906799609        8.1944768512        6.0805197740
Mo              -1.5769173901        6.3730391977       -6.0872367793    0   0   0
Mo              -3.1535757015        7.2830208467       -0.0006783067
S               -3.1538326896        5.4626062355       -7.6506323570    0   0   0
S               -1.5768929234        6.3726950466       -1.5664626792
S               -3.1485642020        7.2761024722        4.5063620257
S               -3.1538318159        5.4626053320       -4.5222282367    0   0   0
S               -1.5758858664        6.3732180210        1.5661808418
S               -3.1647953190        7.2929977404        7.6494407865
Mo               3.1500169354       -0.0007470926        6.0630949507
Mo              -3.1538359601        9.1043384407       -6.0872367793    0   0   0
Mo              -4.7310053332       10.0143478391        0.0001554548
S               -4.7307512596        8.1939054785       -7.6506323570    0   0   0
S               -3.1542153435        9.1042730280       -1.5657666810
S               -4.7302129894       10.0203952274        4.4910145540
S               -4.7307503859        8.1939045750       -4.5222282367    0   0   0
S               -3.1534251033        9.1037600981        1.5664472935
S               -4.7291707836       10.0288298285        7.6328861108
Mo               4.7306799090        2.6890370501        6.0722711213
Mo               4.7307503218        0.9104407117       -6.0872367793    0   0   0
Mo               3.1538508035        1.8208945522        0.0005097679
S                3.1538350223        0.0000077495       -7.6506323570    0   0   0
S                4.7306601576        0.9106105569       -1.5652708809
S                3.1461335571        1.8176742469        4.4956715161
S                3.1538358961        0.0000068460       -4.5222282367    0   0   0
S                4.7307416639        0.9096404194        1.5671105085
S                3.1444387449        1.7999752310        7.6394246254
Mo               3.1463448916        5.4471120104        6.1014906140
Mo               3.1538317519        3.6417399547       -6.0872367793    0   0   0
Mo               1.5771743468        4.5523706796       -0.0002110890
S                1.5769164523        2.7313069925       -7.6506323570    0   0   0
S                3.1545406894        3.6416529600       -1.5647520974
S                1.5783864954        4.5599757720        4.5386534887
S                1.5769173261        2.7313060890       -4.5222282367    0   0   0
S                3.1536278426        3.6421671582        1.5684660436
S                1.5034184196        4.5116754358        7.7093871568
Mo               1.5649397719        8.2110894631        6.1072305336
Mo               1.5769131819        6.3730391977       -6.0872367793    0   0   0
Mo               0.0004114701        7.2830867221       -0.0012543915
S               -0.0000021176        5.4626062355       -7.6506323570    0   0   0
S                1.5776004711        6.3726768110       -1.5662164267
S                0.0034020554        7.2836340565        4.5397939362
S               -0.0000012439        5.4626053320       -4.5222282367    0   0   0
S                1.5765636081        6.3730836369        1.5671818122
S               -0.0676168783        7.2508230364        7.6808838143
Mo               6.3069021694        0.0025291083        6.0849552763
Mo              -0.0000053881        9.1043384407       -6.0872367793    0   0   0
Mo              -1.5768051825       10.0144588088       -0.0005266530
S               -1.5769206876        8.1939054785       -7.6506323570    0   0   0
S                0.0000192346        9.1042375938       -1.5663542719
S               -1.5716627524       10.0124775059        4.5074739859
S               -1.5769198139        8.1939045750       -4.5222282367    0   0   0
S                0.0003107515        9.1034170861        1.5664020463
S               -1.5872446628       10.0159133000        7.6412736010
Mo               7.8853816727        2.7267757247        6.0982027651
Mo               7.8845808939        0.9104407117       -6.0872367793    0   0   0
Mo               6.3077389987        1.8203293672        0.0005513905
S                6.3076655943        0.0000077495       -7.6506323570    0   0   0
S                7.8842012734        0.9100109797       -1.5658231038
S                6.3202267704        1.8124133442        4.5088714516
S                6.3076664681        0.0000068460       -4.5222282367    0   0   0
S                7.8851102398        0.9088720210        1.5667079720
S                6.3062433663        1.8083917116        7.6562104021
Mo               6.3160858062        5.4635771910        6.1275025376
Mo               6.3076623239        3.6417399547       -6.0872367793    0   0   0
Mo               4.7308482722        4.5519895650        0.0013744860
S                4.7307470244        2.7313069925       -7.6506323570    0   0   0
S                6.3071842355        3.6412615807       -1.5646055861
S                4.7363083442        4.5571505701        4.5645991545
S                4.7307478981        2.7313060890       -4.5222282367    0   0   0
S                6.3078063187        3.6412753058        1.5685004849
S                4.7236131517        4.4185630563        7.6967431755
Mo               4.7662749412        8.2375347664        6.0570870774
Mo               4.7307437539        6.3730391977       -6.0872367793    0   0   0
Mo               3.1538822374        7.2828961230        0.0001730049
S                3.1538284544        5.4626062355       -7.6506323570    0   0   0
S                4.7311293234        6.3722901668       -1.5645421157
S                3.1460608024        7.2821154722        4.5541208459
S                3.1538293281        5.4626053320       -4.5222282367    0   0   0
S                4.7299205635        6.3729045141        1.5691036428
S                3.2454675713        7.3614766640        7.6381178487
Mo               9.4623162202        0.0095184777        6.0834611689
Mo               3.1538251839        9.1043384407       -6.0872367793    0   0   0
Mo               1.5771390843       10.0140158516       -0.0007242368
S                1.5769098844        8.1939054785       -7.6506323570    0   0   0
S                3.1544648301        9.1036121288       -1.5655151352
S                1.5742698123       10.0067629264        4.5350883081
S                1.5769107581        8.1939045750       -4.5222282367    0   0   0
S                3.1533713263        9.1035365989        1.5674651170
S                1.5724739970       10.0775633764        7.7026948852
Mo              -1.5810570862        2.7331801393        6.0796970863
Mo              11.0384114659        0.9104407117       -6.0872367793    0   0   0
Mo               9.4611636528        1.8207812503       -0.0006622789
S                9.4614961663        0.0000077495       -7.6506323570    0   0   0
S               11.0381785001        0.9099285653       -1.5658998438
S                9.4523331749        1.8267045231        4.5175026709
S                9.4614970401        0.0000068460       -4.5222282367    0   0   0
S               11.0382122974        0.9114842015        1.5657332383
S                9.4702273314        1.8195578065        7.6580816050
Mo              -3.1508264623        5.4635342331        6.0926985768
Mo               9.4614928959        3.6417399547       -6.0872367793    0   0   0
Mo               7.8843974367        4.5517030913        0.0001711201
S                7.8845775964        2.7313069925       -7.6506323570    0   0   0
S                9.4610786427        3.6416882738       -1.5657980512
S                7.8685849298        4.5591491706        4.5533233770
S                7.8845784701        2.7313060890       -4.5222282367    0   0   0
S                9.4611485297        3.6417284686        1.5673856737
S                7.9462095578        4.5259059207        7.7173492819
Mo              -4.7172637167        8.2081994603        6.0650810057
Mo               7.8845743259        6.3730391977       -6.0872367793    0   0   0
Mo               6.3075272731        7.2826729770        0.0011422865
S                6.3076590264        5.4626062355       -7.6506323570    0   0   0
S                7.8840202237        6.3726323957       -1.5651950309
S                6.3234576484        7.2628662128        4.5245388193
S                6.3076599001        5.4626053320       -4.5222282367    0   0   0
S                7.8855834655        6.3722565884        1.5670316735
S                6.3268327202        7.3886404831        7.6691890203
Mo               0.0018838676        0.0132750092        6.0605562086
Mo               6.3076557559        9.1043384407       -6.0872367793    0   0   0
Mo               4.7306288947       10.0144666612        0.0004112921
S                4.7307404564        8.1939054785       -7.6506323570    0   0   0
S                6.3074972859        9.1034173498       -1.5646374025
S                4.7281754959       10.0432096234        4.4871309615
S                4.7307413301        8.1939045750       -4.5222282367    0   0   0
S                6.3074291825        9.1035607288        1.5680981270
S                4.7447497675       10.0435958887        7.6359629951
Pt               3.2082912808        5.5619982884        9.0154665708
Pd               6.1712858215        5.5159504673        9.0652783963
Pd               1.6659853093        8.0379258284        9.0997780754
End final coordinates



     Writing all to output data dir ./outdir/pwscf.save/ :
     XML data file, charge density, pseudopotentials, collected wavefunctions
 
     init_run     :     96.94s CPU     99.17s WALL (       1 calls)
     electrons    : 132172.05s CPU 134142.69s WALL (      32 calls)
     update_pot   :     41.05s CPU     42.32s WALL (      31 calls)
     forces       :   2297.97s CPU   2347.92s WALL (      32 calls)
     force_dftd3  :     12.24s CPU     12.78s WALL (      32 calls)

     Called by init_run:
     wfcinit      :     78.83s CPU     79.93s WALL (       1 calls)
     potinit      :      1.09s CPU      1.18s WALL (       1 calls)
     hinit0       :      9.24s CPU      9.30s WALL (       1 calls)

     Called by electrons:
     c_bands      : 115427.21s CPU 116613.67s WALL (     389 calls)
     sum_band     :  14406.41s CPU  14810.20s WALL (     389 calls)
     v_of_rho     :    112.13s CPU    126.06s WALL (     393 calls)
     newd         :   1978.43s CPU   2351.30s WALL (     393 calls)
     PAW_pot      :    323.42s CPU    326.10s WALL (     424 calls)
     mix_rho      :     28.78s CPU     32.82s WALL (     389 calls)
     energy_dftd3 :      6.89s CPU      6.92s WALL (      32 calls)

     Called by c_bands:
     init_us_2    :    553.32s CPU    555.87s WALL (    3368 calls)
     init_us_2:cp :    553.30s CPU    555.85s WALL (    3368 calls)
     cegterg      : 113107.61s CPU 114284.55s WALL (    1579 calls)

     Called by *egterg:
     cdiaghg      :   5885.71s CPU   6145.28s WALL (   18848 calls)
     h_psi        :  58647.71s CPU  59025.63s WALL (   19093 calls)
     s_psi        :  12586.23s CPU  12641.93s WALL (   19093 calls)
     g_psi        :    131.26s CPU    132.28s WALL (   17510 calls)

     Called by h_psi:
     h_psi:calbec :  12062.20s CPU  12103.94s WALL (   19093 calls)
     vloc_psi     :  33643.20s CPU  33827.39s WALL (   19093 calls)
     add_vuspsi   :  12661.03s CPU  12720.97s WALL (   19093 calls)

     General routines
     calbec       :  17215.13s CPU  17273.33s WALL (   21285 calls)
     fft          :     89.91s CPU    102.31s WALL (    5456 calls)
     ffts         :      5.00s CPU      5.21s WALL (     782 calls)
     fftw         :  25210.52s CPU  25347.05s WALL ( 8821932 calls)
     interpolate  :      9.24s CPU     10.15s WALL (     393 calls)
 
     Parallel routines
 
     PWSCF        :   1d13h36m CPU   1d14h11m WALL

 
   This run was terminated on:  17:30: 9   2Apr2024            

=------------------------------------------------------------------------------=
   JOB DONE.
=------------------------------------------------------------------------------=
