
     Program PWSCF v.7.3 starts on  8Apr2024 at  0:44:39 

     This program is part of the open-source Quantum ESPRESSO suite
     for quantum simulation of materials; please cite
         "P. Giannozzi et al., J. Phys.:Condens. Matter 21 395502 (2009);
         "P. Giannozzi et al., J. Phys.:Condens. Matter 29 465901 (2017);
         "P. Giannozzi et al., J. Chem. Phys. 152 154105 (2020);
          URL http://www.quantum-espresso.org", 
     in publications or presentations arising from this work. More details at
     http://www.quantum-espresso.org/quote

     Parallel version (MPI & OpenMP), running on      36 processor cores
     Number of MPI processes:                36
     Threads/MPI process:                     1

     MPI processes distributed on     1 nodes
     559209 MiB available memory on the printing compute node when the environment starts
 
     Waiting for input...
     Reading input from standard input
Warning: card &CELL ignored
Warning: card / ignored

     Current dimensions of program PWSCF are:
     Max number of different atomic species (ntypx) = 10
     Max number of k-points (npk) =  40000
     Max angular momentum in pseudopotentials (lmaxx) =  4
     file Mo.pbe-spn-kjpaw_psl.1.0.0.UPF: wavefunction(s)  4S 4D renormalized
     file S.pbe-n-kjpaw_psl.1.0.0.UPF: wavefunction(s)  3S 3P renormalized
     file Pt.pbe-spfn-kjpaw_psl.1.0.0.UPF: wavefunction(s)  5P 4F renormalized
     file Pd.pbe-spn-kjpaw_psl.1.0.0.UPF: wavefunction(s)  4S 5S 4D renormalized
 
     R & G space division:  proc/nbgrp/npool/nimage =      36
     Subspace diagonalization in iterative solution of the eigenvalue problem:
     one sub-group per band group will be used
     scalapack distributed-memory algorithm (size of sub-group:  6*  6 procs)

 
     Parallelization info
     --------------------
     sticks:   dense  smooth     PW     G-vecs:    dense   smooth      PW
     Min         585     334     89               198743    85850   11735
     Max         586     335     90               198750    85861   11748
     Sum       21073   12049   3205              7154885  3090769  422587
 
     Using Slab Decomposition
 


     bravais-lattice index     =            0
     lattice parameter (alat)  =      23.8199  a.u.
     unit-cell volume          =   33861.0370 (a.u.)^3
     number of atoms/cell      =          195
     number of atomic types    =            4
     number of electrons       =      1746.00
     number of Kohn-Sham states=         1048
     kinetic-energy cutoff     =      77.0000  Ry
     charge density cutoff     =     539.0000  Ry
     scf convergence threshold =      1.0E-06
     mixing beta               =       0.2000
     number of iterations used =            8  plain     mixing
     energy convergence thresh.=      1.0E-04
     force convergence thresh. =      1.0E-03
     Exchange-correlation= SLA  PW   PBX  PBC
                           (   1   4   3   4   0   0   0)
     nstep                     =         1000


     Effective Screening Medium Method
     =================================
     Boundary Conditions: Vacuum-Slab-Vacuum
     total charge in unit cell        =   0.0000
     grid points for fit at edges     =        4 
 

     celldm(1)=  23.819920  celldm(2)=   0.000000  celldm(3)=   0.000000
     celldm(4)=   0.000000  celldm(5)=   0.000000  celldm(6)=   0.000000

     crystal axes: (cart. coord. in units of alat)
               a(1) = (   1.000000   0.000000   0.000000 )  
               a(2) = (  -0.499999   0.866026   0.000000 )  
               a(3) = (   0.000000   0.000000   2.893000 )  

     reciprocal axes: (cart. coord. in units 2 pi/alat)
               b(1) = (  1.000000  0.577349  0.000000 )  
               b(2) = (  0.000000  1.154700  0.000000 )  
               b(3) = (  0.000000  0.000000  0.345662 )  


     PseudoPot. # 1 for Mo read from file:
     ./pseudo/Mo.pbe-spn-kjpaw_psl.1.0.0.UPF
     MD5 check sum: 317bf72632116215fd98f72de1686f13
     Pseudo is Projector augmented-wave + core cor, Zval = 14.0
     Generated using 'atomic' code by A. Dal Corso  v.7.2
     Shape of augmentation charge: PSQ
     Using radial grid of 1229 points,  6 beta functions with: 
                l(1) =   0
                l(2) =   0
                l(3) =   1
                l(4) =   1
                l(5) =   2
                l(6) =   2
     Q(r) pseudized with 0 coefficients 


     PseudoPot. # 2 for S  read from file:
     ./pseudo/S.pbe-n-kjpaw_psl.1.0.0.UPF
     MD5 check sum: 8b7b5302570d38d5e87fed6a1065abda
     Pseudo is Projector augmented-wave + core cor, Zval =  6.0
     Generated using 'atomic' code by A. Dal Corso  v.7.2
     Shape of augmentation charge: PSQ
     Using radial grid of 1151 points,  6 beta functions with: 
                l(1) =   0
                l(2) =   0
                l(3) =   1
                l(4) =   1
                l(5) =   2
                l(6) =   2
     Q(r) pseudized with 0 coefficients 


     PseudoPot. # 3 for Pt read from file:
     ./pseudo/Pt.pbe-spfn-kjpaw_psl.1.0.0.UPF
     MD5 check sum: 620096ebf4e6ebacc94de60fd67efcb5
     Pseudo is Projector augmented-wave + core cor, Zval = 32.0
     Generated using 'atomic' code by A. Dal Corso  v.7.2
     Shape of augmentation charge: PSQ
     Using radial grid of 1277 points,  8 beta functions with: 
                l(1) =   0
                l(2) =   0
                l(3) =   1
                l(4) =   1
                l(5) =   2
                l(6) =   2
                l(7) =   3
                l(8) =   3
     Q(r) pseudized with 0 coefficients 


     PseudoPot. # 4 for Pd read from file:
     ./pseudo/Pd.pbe-spn-kjpaw_psl.1.0.0.UPF
     MD5 check sum: a60571a671f2502b8a6a4569d20a6edb
     Pseudo is Projector augmented-wave + core cor, Zval = 18.0
     Generated using 'atomic' code by A. Dal Corso  v.7.2
     Shape of augmentation charge: PSQ
     Using radial grid of 1235 points,  6 beta functions with: 
                l(1) =   0
                l(2) =   0
                l(3) =   1
                l(4) =   1
                l(5) =   2
                l(6) =   2
     Q(r) pseudized with 0 coefficients 


     atomic species   valence    mass     pseudopotential
     Mo               14.00    95.95000     Mo( 1.00)
     S                 6.00    32.06000     S ( 1.00)
     Pt               32.00   195.08400     Pt( 1.00)
     Pd               18.00   106.42000     Pd( 1.00)

     No symmetry found



   Cartesian axes

     site n.     atom                  positions (alat units)
         1        Mo     tau(   1) = (   0.0000010   0.1443372  -0.7272732  )
         2        Mo     tau(   2) = (   0.1249995   0.0721706  -0.2424038  )
         3        S      tau(   3) = (   0.0000015   0.1443386  -0.3667807  )
         4        S      tau(   4) = (   0.1250010   0.0721682  -0.6030489  )
         5        S      tau(   5) = (   0.1250010   0.0721683  -0.8514963  )
         6        S      tau(   6) = (   0.0000015   0.1443389  -0.1180260  )
         7        Mo     tau(   7) = (   0.0000005   0.1443381   0.2424561  )
         8        Mo     tau(   8) = (   0.1251981   0.0716023   0.7276027  )
         9        S      tau(   9) = (  -0.0003031   0.1454842   0.6052312  )
        10        S      tau(  10) = (   0.1249558   0.0721599   0.3668208  )
        11        S      tau(  11) = (   0.1250088   0.0721517   0.1180857  )
        12        S      tau(  12) = (  -0.0004157   0.1382876   0.8564685  )
        13        Mo     tau(  13) = (  -0.1249989   0.3608437  -0.7272732  )
        14        Mo     tau(  14) = (   0.0000030   0.2886752  -0.2424042  )
        15        S      tau(  15) = (  -0.1249977   0.3608450  -0.3667802  )
        16        S      tau(  16) = (   0.0000012   0.2886747  -0.6030489  )
        17        S      tau(  17) = (   0.0000012   0.2886748  -0.8514963  )
        18        S      tau(  18) = (  -0.1249977   0.3608454  -0.1180274  )
        19        Mo     tau(  19) = (  -0.1249623   0.3608201   0.2425155  )
        20        Mo     tau(  20) = (  -0.0007801   0.2872696   0.7308518  )
        21        S      tau(  21) = (  -0.1240398   0.3604107   0.6055268  )
        22        S      tau(  22) = (   0.0000411   0.2886546   0.3669163  )
        23        S      tau(  23) = (   0.0000035   0.2886726   0.1180964  )
        24        S      tau(  24) = (  -0.1315418   0.3638985   0.8543850  )
        25        Mo     tau(  25) = (  -0.2499987   0.5773502  -0.7272732  )
        26        Mo     tau(  26) = (  -0.1249977   0.5051839  -0.2424055  )
        27        S      tau(  27) = (  -0.2499981   0.5773518  -0.3667809  )
        28        S      tau(  28) = (  -0.1249986   0.5051812  -0.6030489  )
        29        S      tau(  29) = (  -0.1249986   0.5051813  -0.8514963  )
        30        S      tau(  30) = (  -0.2499979   0.5773512  -0.1180266  )
        31        Mo     tau(  31) = (  -0.2499787   0.5773156   0.2425145  )
        32        Mo     tau(  32) = (  -0.1271807   0.5060660   0.7281741  )
        33        S      tau(  33) = (  -0.2502658   0.5775034   0.6017985  )
        34        S      tau(  34) = (  -0.1249543   0.5051367   0.3669386  )
        35        S      tau(  35) = (  -0.1249864   0.5051552   0.1181399  )
        36        S      tau(  36) = (  -0.2525628   0.5785576   0.8514793  )
        37        Mo     tau(  37) = (  -0.3749985   0.7938567  -0.7272732  )
        38        Mo     tau(  38) = (  -0.2500001   0.7216874  -0.2424031  )
        39        S      tau(  39) = (  -0.3749980   0.7938584  -0.3667800  )
        40        S      tau(  40) = (  -0.2499984   0.7216877  -0.6030489  )
        41        S      tau(  41) = (  -0.2499984   0.7216878  -0.8514963  )
        42        S      tau(  42) = (  -0.3749982   0.7938585  -0.1180264  )
        43        Mo     tau(  43) = (  -0.3750043   0.7938372   0.2424536  )
        44        Mo     tau(  44) = (  -0.2503619   0.7218808   0.7263407  )
        45        S      tau(  45) = (  -0.3755748   0.7941519   0.6023691  )
        46        S      tau(  46) = (  -0.2500067   0.7216811   0.3668312  )
        47        S      tau(  47) = (  -0.2499793   0.7216445   0.1181126  )
        48        S      tau(  48) = (  -0.3746959   0.7932047   0.8515893  )
        49        Mo     tau(  49) = (   0.2500010   0.1443372  -0.7272732  )
        50        Mo     tau(  50) = (   0.3750034   0.0721723  -0.2424032  )
        51        S      tau(  51) = (   0.2500017   0.1443391  -0.3667788  )
        52        S      tau(  52) = (   0.3750010   0.0721682  -0.6030489  )
        53        S      tau(  53) = (   0.3750010   0.0721683  -0.8514963  )
        54        S      tau(  54) = (   0.2500016   0.1443391  -0.1180271  )
        55        Mo     tau(  55) = (   0.2500033   0.1443124   0.2424881  )
        56        Mo     tau(  56) = (   0.3752595   0.0716472   0.7255395  )
        57        S      tau(  57) = (   0.2498544   0.1431280   0.6011361  )
        58        S      tau(  58) = (   0.3750516   0.0721435   0.3668117  )
        59        S      tau(  59) = (   0.3750079   0.0721203   0.1180977  )
        60        S      tau(  60) = (   0.2517312   0.1427646   0.8506906  )
        61        Mo     tau(  61) = (   0.1250012   0.3608437  -0.7272732  )
        62        Mo     tau(  62) = (   0.2500029   0.2886782  -0.2424031  )
        63        S      tau(  63) = (   0.1250024   0.3608455  -0.3667794  )
        64        S      tau(  64) = (   0.2500012   0.2886747  -0.6030489  )
        65        S      tau(  65) = (   0.2500012   0.2886748  -0.8514963  )
        66        S      tau(  66) = (   0.1250021   0.3608455  -0.1180270  )
        67        Mo     tau(  67) = (   0.1249995   0.3608273   0.2424838  )
        68        Mo     tau(  68) = (   0.2535704   0.2866116   0.7259154  )
        69        S      tau(  69) = (   0.1241106   0.3617788   0.6079553  )
        70        S      tau(  70) = (   0.2499752   0.2886689   0.3668869  )
        71        S      tau(  71) = (   0.2500098   0.2886475   0.1181123  )
        72        S      tau(  72) = (   0.1336503   0.3523048   0.8541313  )
        73        Mo     tau(  73) = (   0.0000014   0.5773502  -0.7272732  )
        74        Mo     tau(  74) = (   0.1250045   0.5051840  -0.2424036  )
        75        S      tau(  75) = (   0.0000030   0.5773520  -0.3667799  )
        76        S      tau(  76) = (   0.1250014   0.5051812  -0.6030489  )
        77        S      tau(  77) = (   0.1250014   0.5051813  -0.8514963  )
        78        S      tau(  78) = (   0.0000026   0.5773517  -0.1180274  )
        79        Mo     tau(  79) = (   0.0000276   0.5772927   0.2425177  )
        80        Mo     tau(  80) = (   0.1255270   0.5059369   0.7313762  )
        81        S      tau(  81) = (   0.0011816   0.5764663   0.6064450  )
        82        S      tau(  82) = (   0.1250222   0.5051261   0.3669341  )
        83        S      tau(  83) = (   0.1249880   0.5051467   0.1180950  )
        84        S      tau(  84) = (  -0.0088763   0.5830479   0.8565830  )
        85        Mo     tau(  85) = (  -0.1249984   0.7938567  -0.7272732  )
        86        Mo     tau(  86) = (   0.0000069   0.7216896  -0.2424039  )
        87        S      tau(  87) = (  -0.1249975   0.7938582  -0.3667782  )
        88        S      tau(  88) = (   0.0000016   0.7216877  -0.6030489  )
        89        S      tau(  89) = (   0.0000016   0.7216878  -0.8514963  )
        90        S      tau(  90) = (  -0.1249973   0.7938582  -0.1180279  )
        91        Mo     tau(  91) = (  -0.1249699   0.7938095   0.2424907  )
        92        Mo     tau(  92) = (  -0.0004895   0.7231014   0.7275053  )
        93        S      tau(  93) = (  -0.1248847   0.7932555   0.6014963  )
        94        S      tau(  94) = (   0.0000405   0.7216116   0.3668908  )
        95        S      tau(  95) = (   0.0000242   0.7216332   0.1181249  )
        96        S      tau(  96) = (  -0.1259194   0.7949777   0.8510667  )
        97        Mo     tau(  97) = (   0.5000010   0.1443372  -0.7272732  )
        98        Mo     tau(  98) = (   0.6250001   0.0721662  -0.2424040  )
        99        S      tau(  99) = (   0.5000017   0.1443386  -0.3667801  )
       100        S      tau( 100) = (   0.6250010   0.0721682  -0.6030489  )
       101        S      tau( 101) = (   0.6250010   0.0721683  -0.8514963  )
       102        S      tau( 102) = (   0.5000020   0.1443388  -0.1180261  )
       103        Mo     tau( 103) = (   0.5000355   0.1442968   0.2424343  )
       104        Mo     tau( 104) = (   0.6251054   0.0720760   0.7269638  )
       105        S      tau( 105) = (   0.5007812   0.1439212   0.6015111  )
       106        S      tau( 106) = (   0.6250309   0.0721295   0.3668346  )
       107        S      tau( 107) = (   0.6250410   0.0721183   0.1180973  )
       108        S      tau( 108) = (   0.4998652   0.1442971   0.8504179  )
       109        Mo     tau( 109) = (   0.3750012   0.3608437  -0.7272732  )
       110        Mo     tau( 110) = (   0.4999991   0.2886761  -0.2424038  )
       111        S      tau( 111) = (   0.3750012   0.3608452  -0.3667804  )
       112        S      tau( 112) = (   0.5000012   0.2886747  -0.6030489  )
       113        S      tau( 113) = (   0.5000012   0.2886748  -0.8514963  )
       114        S      tau( 114) = (   0.3750014   0.3608455  -0.1180261  )
       115        Mo     tau( 115) = (   0.3749988   0.3608207   0.2424913  )
       116        Mo     tau( 116) = (   0.5005676   0.2886014   0.7258090  )
       117        S      tau( 117) = (   0.3761076   0.3615161   0.6013079  )
       118        S      tau( 118) = (   0.5000282   0.2886169   0.3668001  )
       119        S      tau( 119) = (   0.5000158   0.2886613   0.1180928  )
       120        S      tau( 120) = (   0.3768791   0.3600665   0.8508100  )
       121        Mo     tau( 121) = (   0.2500014   0.5773502  -0.7272732  )
       122        Mo     tau( 122) = (   0.3749983   0.5051825  -0.2424043  )
       123        S      tau( 123) = (   0.2500017   0.5773519  -0.3667810  )
       124        S      tau( 124) = (   0.3750014   0.5051812  -0.6030489  )
       125        S      tau( 125) = (   0.3750014   0.5051813  -0.8514963  )
       126        S      tau( 126) = (   0.2500018   0.5773519  -0.1180256  )
       127        Mo     tau( 127) = (   0.2499755   0.5773110   0.2424609  )
       128        Mo     tau( 128) = (   0.3758691   0.5051374   0.7277779  )
       129        S      tau( 129) = (   0.2483182   0.5768077   0.6062789  )
       130        S      tau( 130) = (   0.3749464   0.5051844   0.3668408  )
       131        S      tau( 131) = (   0.3749944   0.5051486   0.1180923  )
       132        S      tau( 132) = (   0.2574557   0.5818559   0.8585037  )
       133        Mo     tau( 133) = (   0.1250016   0.7938567  -0.7272732  )
       134        Mo     tau( 134) = (   0.2499995   0.7216883  -0.2424036  )
       135        S      tau( 135) = (   0.1250024   0.7938578  -0.3667813  )
       136        S      tau( 136) = (   0.2500016   0.7216877  -0.6030489  )
       137        S      tau( 137) = (   0.2500016   0.7216878  -0.8514963  )
       138        S      tau( 138) = (   0.1250024   0.7938579  -0.1180253  )
       139        Mo     tau( 139) = (   0.1250229   0.7938069   0.2425006  )
       140        Mo     tau( 140) = (   0.2504358   0.7224862   0.7284223  )
       141        S      tau( 141) = (   0.1254429   0.7935457   0.6029055  )
       142        S      tau( 142) = (   0.2500049   0.7216116   0.3668842  )
       143        S      tau( 143) = (   0.2500022   0.7216616   0.1181021  )
       144        S      tau( 144) = (   0.1246626   0.7944127   0.8519137  )
       145        Mo     tau( 145) = (   0.7500010   0.1443372  -0.7272732  )
       146        Mo     tau( 146) = (   0.8750038   0.0721696  -0.2424038  )
       147        S      tau( 147) = (   0.7500016   0.1443382  -0.3667789  )
       148        S      tau( 148) = (   0.8750010   0.0721682  -0.6030489  )
       149        S      tau( 149) = (   0.8750010   0.0721683  -0.8514963  )
       150        S      tau( 150) = (   0.7500016   0.1443384  -0.1180279  )
       151        Mo     tau( 151) = (   0.7500289   0.1443141   0.2424936  )
       152        Mo     tau( 152) = (   0.8748115   0.0715393   0.7280420  )
       153        S      tau( 153) = (   0.7503587   0.1440662   0.6027403  )
       154        S      tau( 154) = (   0.8750369   0.0721618   0.3668742  )
       155        S      tau( 155) = (   0.8750002   0.0721408   0.1181001  )
       156        S      tau( 156) = (   0.7494385   0.1444101   0.8516821  )
       157        Mo     tau( 157) = (   0.6250012   0.3608437  -0.7272732  )
       158        Mo     tau( 158) = (   0.7500028   0.2886769  -0.2424041  )
       159        S      tau( 159) = (   0.6250015   0.3608451  -0.3667792  )
       160        S      tau( 160) = (   0.7500012   0.2886747  -0.6030489  )
       161        S      tau( 161) = (   0.7500012   0.2886748  -0.8514963  )
       162        S      tau( 162) = (   0.6250016   0.3608454  -0.1180280  )
       163        Mo     tau( 163) = (   0.6250302   0.3608127   0.2424760  )
       164        Mo     tau( 164) = (   0.7487590   0.2885376   0.7272130  )
       165        S      tau( 165) = (   0.6254237   0.3608917   0.6015174  )
       166        S      tau( 166) = (   0.7500486   0.2886525   0.3668797  )
       167        S      tau( 167) = (   0.7500385   0.2886557   0.1181169  )
       168        S      tau( 168) = (   0.6239430   0.3610912   0.8510113  )
       169        Mo     tau( 169) = (   0.5000014   0.5773502  -0.7272732  )
       170        Mo     tau( 170) = (   0.6250029   0.5051841  -0.2424047  )
       171        S      tau( 171) = (   0.5000014   0.5773518  -0.3667794  )
       172        S      tau( 172) = (   0.6250014   0.5051812  -0.6030489  )
       173        S      tau( 173) = (   0.6250014   0.5051813  -0.8514963  )
       174        S      tau( 174) = (   0.5000016   0.5773516  -0.1180277  )
       175        Mo     tau( 175) = (   0.4999859   0.5773250   0.2424709  )
       176        Mo     tau( 176) = (   0.6245890   0.5053660   0.7261562  )
       177        S      tau( 177) = (   0.4993068   0.5776651   0.6022414  )
       178        S      tau( 178) = (   0.6249823   0.5051501   0.3668388  )
       179        S      tau( 179) = (   0.6250205   0.5051637   0.1181147  )
       180        S      tau( 180) = (   0.5009766   0.5773609   0.8515797  )
       181        Mo     tau( 181) = (   0.3750016   0.7938567  -0.7272732  )
       182        Mo     tau( 182) = (   0.5000025   0.7216901  -0.2424039  )
       183        S      tau( 183) = (   0.3750019   0.7938578  -0.3667793  )
       184        S      tau( 184) = (   0.5000016   0.7216877  -0.6030489  )
       185        S      tau( 185) = (   0.5000016   0.7216878  -0.8514963  )
       186        S      tau( 186) = (   0.3750020   0.7938579  -0.1180272  )
       187        Mo     tau( 187) = (   0.3749951   0.7938323   0.2424893  )
       188        Mo     tau( 188) = (   0.4998599   0.7217391   0.7271366  )
       189        S      tau( 189) = (   0.3746033   0.7939741   0.6029663  )
       190        S      tau( 190) = (   0.4999946   0.7216688   0.3668260  )
       191        S      tau( 191) = (   0.4999891   0.7216628   0.1180901  )
       192        S      tau( 192) = (   0.3755955   0.7938624   0.8526444  )
       193        Pt     tau( 193) = (   0.1194898   0.4990527   0.9549993  )
       194        Pd     tau( 194) = (   0.0026419   0.2990244   0.9662205  )
       195        Pt     tau( 195) = (   0.1251888   0.0716385   0.9754891  )

     --------------------------------------------
     DFT-D3 Dispersion Correction (3-body terms):
     --------------------------------------------
       Reference C6 values for interpolation: 

         atom   Coordination number   C6
         S          0.000           268.01
         S          0.995           261.99
         S          1.990           251.62
         Mo         0.000          1691.79
         Mo         1.942          1004.01
         Mo        11.056           674.22
         Pd         0.000          1217.01
         Pd         1.863           573.90
         Pd         5.710           531.75
         Pt         0.000           782.29
         Pt         1.919           692.72
         Pt         6.667           673.75

       Values used:

         atom   Coordination number  R0_AB[au]  C6      C8
         Mo        10.208            3.547    674.22  77634.20
         Mo        10.221            3.547    674.22  77634.20
         S          3.858            3.128    251.62  12327.25
         S          3.859            3.128    251.62  12327.25
         S          3.758            3.128    251.62  12327.25
         S          3.859            3.128    251.62  12327.25
         Mo        10.221            3.547    674.22  77634.20
         Mo        10.756            3.547    674.22  77634.20
         S          3.850            3.128    251.62  12327.25
         S          3.859            3.128    251.62  12327.25
         S          3.859            3.128    251.62  12327.25
         S          5.593            3.128    251.62  12327.25
         Mo        10.208            3.547    674.22  77634.20
         Mo        10.221            3.547    674.22  77634.20
         S          3.858            3.128    251.62  12327.25
         S          3.859            3.128    251.62  12327.25
         S          3.758            3.128    251.62  12327.25
         S          3.859            3.128    251.62  12327.25
         Mo        10.222            3.547    674.22  77634.20
         Mo        10.731            3.547    674.22  77634.20
         S          3.862            3.128    251.62  12327.25
         S          3.850            3.128    251.62  12327.25
         S          3.859            3.128    251.62  12327.25
         S          4.669            3.128    251.62  12327.25
         Mo        10.208            3.547    674.22  77634.20
         Mo        10.221            3.547    674.22  77634.20
         S          3.858            3.128    251.62  12327.25
         S          3.859            3.128    251.62  12327.25
         S          3.758            3.128    251.62  12327.25
         S          3.859            3.128    251.62  12327.25
         Mo        10.220            3.547    674.22  77634.20
         Mo        10.171            3.547    674.21  77634.20
         S          3.843            3.128    251.62  12327.25
         S          3.853            3.128    251.62  12327.25
         S          3.859            3.128    251.62  12327.25
         S          3.844            3.128    251.62  12327.25
         Mo        10.208            3.547    674.22  77634.20
         Mo        10.220            3.547    674.22  77634.20
         S          3.858            3.128    251.62  12327.25
         S          3.859            3.128    251.62  12327.25
         S          3.758            3.128    251.62  12327.25
         S          3.859            3.128    251.62  12327.25
         Mo        10.220            3.547    674.22  77634.20
         Mo        10.269            3.547    674.22  77634.20
         S          3.857            3.128    251.62  12327.25
         S          3.861            3.128    251.62  12327.25
         S          3.859            3.128    251.62  12327.25
         S          4.762            3.128    251.62  12327.25
         Mo        10.208            3.547    674.22  77634.20
         Mo        10.221            3.547    674.22  77634.20
         S          3.858            3.128    251.62  12327.25
         S          3.859            3.128    251.62  12327.25
         S          3.758            3.128    251.62  12327.25
         S          3.859            3.128    251.62  12327.25
         Mo        10.220            3.547    674.22  77634.20
         Mo        10.287            3.547    674.22  77634.20
         S          3.838            3.128    251.62  12327.25
         S          3.863            3.128    251.62  12327.25
         S          3.859            3.128    251.62  12327.25
         S          4.790            3.128    251.62  12327.25
         Mo        10.208            3.547    674.22  77634.20
         Mo        10.221            3.547    674.22  77634.20
         S          3.858            3.128    251.62  12327.25
         S          3.859            3.128    251.62  12327.25
         S          3.758            3.128    251.62  12327.25
         S          3.859            3.128    251.62  12327.25
         Mo        10.222            3.547    674.22  77634.20
         Mo        10.186            3.547    674.22  77634.20
         S          3.873            3.128    251.62  12327.25
         S          3.855            3.128    251.62  12327.25
         S          3.859            3.128    251.62  12327.25
         S          5.658            3.128    251.62  12327.25
         Mo        10.208            3.547    674.22  77634.20
         Mo        10.221            3.547    674.22  77634.20
         S          3.858            3.128    251.62  12327.25
         S          3.859            3.128    251.62  12327.25
         S          3.758            3.128    251.62  12327.25
         S          3.859            3.128    251.62  12327.25
         Mo        10.222            3.547    674.22  77634.20
         Mo        10.867            3.547    674.22  77634.20
         S          3.860            3.128    251.62  12327.25
         S          3.850            3.128    251.62  12327.25
         S          3.859            3.128    251.62  12327.25
         S          4.672            3.128    251.62  12327.25
         Mo        10.208            3.547    674.22  77634.20
         Mo        10.221            3.547    674.22  77634.20
         S          3.858            3.128    251.62  12327.25
         S          3.859            3.128    251.62  12327.25
         S          3.758            3.128    251.62  12327.25
         S          3.859            3.128    251.62  12327.25
         Mo        10.220            3.547    674.22  77634.20
         Mo        10.215            3.547    674.22  77634.20
         S          3.850            3.128    251.62  12327.25
         S          3.856            3.128    251.62  12327.25
         S          3.859            3.128    251.62  12327.25
         S          3.839            3.128    251.62  12327.25
         Mo        10.208            3.547    674.22  77634.20
         Mo        10.221            3.547    674.22  77634.20
         S          3.858            3.128    251.62  12327.25
         S          3.859            3.128    251.62  12327.25
         S          3.758            3.128    251.62  12327.25
         S          3.859            3.128    251.62  12327.25
         Mo        10.220            3.547    674.22  77634.20
         Mo        10.250            3.547    674.22  77634.20
         S          3.856            3.128    251.62  12327.25
         S          3.861            3.128    251.62  12327.25
         S          3.859            3.128    251.62  12327.25
         S          3.790            3.128    251.62  12327.25
         Mo        10.208            3.547    674.22  77634.20
         Mo        10.221            3.547    674.22  77634.20
         S          3.858            3.128    251.62  12327.25
         S          3.859            3.128    251.62  12327.25
         S          3.758            3.128    251.62  12327.25
         S          3.859            3.128    251.62  12327.25
         Mo        10.220            3.547    674.22  77634.20
         Mo        10.278            3.547    674.22  77634.20
         S          3.840            3.128    251.62  12327.25
         S          3.863            3.128    251.62  12327.25
         S          3.859            3.128    251.62  12327.25
         S          3.820            3.128    251.62  12327.25
         Mo        10.208            3.547    674.22  77634.20
         Mo        10.221            3.547    674.22  77634.20
         S          3.858            3.128    251.62  12327.25
         S          3.859            3.128    251.62  12327.25
         S          3.758            3.128    251.62  12327.25
         S          3.859            3.128    251.62  12327.25
         Mo        10.222            3.547    674.22  77634.20
         Mo        10.220            3.547    674.22  77634.20
         S          3.851            3.128    251.62  12327.25
         S          3.858            3.128    251.62  12327.25
         S          3.859            3.128    251.62  12327.25
         S          4.642            3.128    251.62  12327.25
         Mo        10.208            3.547    674.22  77634.20
         Mo        10.221            3.547    674.22  77634.20
         S          3.858            3.128    251.62  12327.25
         S          3.859            3.128    251.62  12327.25
         S          3.758            3.128    251.62  12327.25
         S          3.859            3.128    251.62  12327.25
         Mo        10.221            3.547    674.22  77634.20
         Mo        10.226            3.547    674.22  77634.20
         S          3.863            3.128    251.62  12327.25
         S          3.856            3.128    251.62  12327.25
         S          3.859            3.128    251.62  12327.25
         S          3.764            3.128    251.62  12327.25
         Mo        10.208            3.547    674.22  77634.20
         Mo        10.221            3.547    674.22  77634.20
         S          3.858            3.128    251.62  12327.25
         S          3.859            3.128    251.62  12327.25
         S          3.758            3.128    251.62  12327.25
         S          3.859            3.128    251.62  12327.25
         Mo        10.221            3.547    674.22  77634.20
         Mo        10.250            3.547    674.22  77634.20
         S          3.864            3.128    251.62  12327.25
         S          3.857            3.128    251.62  12327.25
         S          3.859            3.128    251.62  12327.25
         S          3.767            3.128    251.62  12327.25
         Mo        10.208            3.547    674.22  77634.20
         Mo        10.220            3.547    674.22  77634.20
         S          3.858            3.128    251.62  12327.25
         S          3.859            3.128    251.62  12327.25
         S          3.758            3.128    251.62  12327.25
         S          3.859            3.128    251.62  12327.25
         Mo        10.220            3.547    674.22  77634.20
         Mo        10.226            3.547    674.22  77634.20
         S          3.854            3.128    251.62  12327.25
         S          3.857            3.128    251.62  12327.25
         S          3.859            3.128    251.62  12327.25
         S          3.809            3.128    251.62  12327.25
         Mo        10.208            3.547    674.22  77634.20
         Mo        10.221            3.547    674.22  77634.20
         S          3.858            3.128    251.62  12327.25
         S          3.859            3.128    251.62  12327.25
         S          3.758            3.128    251.62  12327.25
         S          3.859            3.128    251.62  12327.25
         Mo        10.220            3.547    674.22  77634.20
         Mo        10.267            3.547    674.22  77634.20
         S          3.853            3.128    251.62  12327.25
         S          3.861            3.128    251.62  12327.25
         S          3.859            3.128    251.62  12327.25
         S          3.821            3.128    251.62  12327.25
         Mo        10.208            3.547    674.22  77634.20
         Mo        10.221            3.547    674.22  77634.20
         S          3.858            3.128    251.62  12327.25
         S          3.859            3.128    251.62  12327.25
         S          3.758            3.128    251.62  12327.25
         S          3.859            3.128    251.62  12327.25
         Mo        10.221            3.547    674.22  77634.20
         Mo        10.260            3.547    674.21  77634.20
         S          3.853            3.128    251.62  12327.25
         S          3.860            3.128    251.62  12327.25
         S          3.859            3.128    251.62  12327.25
         S          3.834            3.128    251.62  12327.25
         Pt         4.461            3.168    673.78  70065.07
         Pd         4.282            3.168    531.75  48720.73
         Pt         3.686            3.168    692.72  72035.25

         Molecular C6 ( Ry / a.u.^6 ) =  14174372.50


     number of k points=     4  Gaussian smearing, width (Ry)=  0.0100
                       cart. coord. in units 2pi/alat
        k(    1) = (   0.0000000   0.0000000   0.0000000), wk =   0.5000000
        k(    2) = (   0.0000000  -0.5773499   0.0000000), wk =   0.5000000
        k(    3) = (  -0.5000000  -0.2886744   0.0000000), wk =   0.5000000
        k(    4) = (  -0.5000000  -0.8660242   0.0000000), wk =   0.5000000

     Dense  grid:  7154885 G-vectors     FFT dimensions: ( 180, 180, 512)

     Smooth grid:  3090769 G-vectors     FFT dimensions: ( 135, 135, 400)

     Estimated max dynamical RAM per process >       4.33 GB

     Estimated total dynamical RAM >     155.86 GB

     Initial potential from superposition of free atoms

     starting charge    1745.9388, renormalised to    1746.0000

     negative rho (up, down):  8.751E-04 0.000E+00
     Starting wfcs are 1196 randomized atomic wfcs
     Checking if some PAW data can be deallocated... 

     total cpu time spent up to now is      179.5 secs

     Self-consistent Calculation

     iteration #  1     ecut=    77.00 Ry     beta= 0.20
     Davidson diagonalization with overlap
     ethr =  1.00E-02,  avg # of iterations =  2.0

     Threshold (ethr) on eigenvalues was too large:
     Diagonalizing with lowered threshold

     Davidson diagonalization with overlap
     ethr =  1.69E-04,  avg # of iterations = 17.0

     negative rho (up, down):  2.380E-04 0.000E+00

     total cpu time spent up to now is     2231.5 secs

     total energy              =  -35654.83484256 Ry
     estimated scf accuracy    <       6.60690791 Ry

     iteration #  2     ecut=    77.00 Ry     beta= 0.20
     Davidson diagonalization with overlap
     ethr =  3.78E-04,  avg # of iterations =  1.0

     negative rho (up, down):  2.571E-05 0.000E+00

     total cpu time spent up to now is     2606.2 secs

     total energy              =  -35653.50881062 Ry
     estimated scf accuracy    <       3.42994729 Ry

     iteration #  3     ecut=    77.00 Ry     beta= 0.20
     Davidson diagonalization with overlap
     ethr =  1.96E-04,  avg # of iterations = 17.8

     negative rho (up, down):  1.881E-05 0.000E+00

     total cpu time spent up to now is     3164.1 secs

     total energy              =  -35653.91271859 Ry
     estimated scf accuracy    <       1.23791831 Ry

     iteration #  4     ecut=    77.00 Ry     beta= 0.20
     Davidson diagonalization with overlap
     ethr =  7.09E-05,  avg # of iterations = 14.2

     negative rho (up, down):  1.757E-05 0.000E+00

     total cpu time spent up to now is     4044.1 secs

     total energy              =  -35654.57904403 Ry
     estimated scf accuracy    <       0.40773295 Ry

     iteration #  5     ecut=    77.00 Ry     beta= 0.20
     Davidson diagonalization with overlap
     c_bands:  1 eigenvalues not converged
     c_bands:  1 eigenvalues not converged
     ethr =  2.34E-05,  avg # of iterations = 19.0

     negative rho (up, down):  3.683E-05 0.000E+00

     total cpu time spent up to now is     4988.2 secs

     total energy              =  -35654.83489351 Ry
     estimated scf accuracy    <       0.22466625 Ry

     iteration #  6     ecut=    77.00 Ry     beta= 0.20
     Davidson diagonalization with overlap
     c_bands:  1 eigenvalues not converged
     ethr =  1.29E-05,  avg # of iterations = 14.5

     negative rho (up, down):  1.017E-04 0.000E+00

     total cpu time spent up to now is     5528.2 secs

     total energy              =  -35654.84076703 Ry
     estimated scf accuracy    <       0.14244844 Ry

     iteration #  7     ecut=    77.00 Ry     beta= 0.20
     Davidson diagonalization with overlap
     c_bands:  1 eigenvalues not converged
     c_bands:  3 eigenvalues not converged
     c_bands:  2 eigenvalues not converged
     ethr =  8.16E-06,  avg # of iterations = 17.8

     negative rho (up, down):  6.231E-04 0.000E+00

     total cpu time spent up to now is     6056.5 secs

     total energy              =  -35654.85088673 Ry
     estimated scf accuracy    <       0.07677703 Ry

     iteration #  8     ecut=    77.00 Ry     beta= 0.20
     Davidson diagonalization with overlap
     c_bands:  1 eigenvalues not converged
     c_bands:  5 eigenvalues not converged
     c_bands:  2 eigenvalues not converged
     ethr =  4.40E-06,  avg # of iterations = 20.0

     negative rho (up, down):  4.843E-04 0.000E+00

     total cpu time spent up to now is     7156.3 secs

     total energy              =  -35654.87283393 Ry
     estimated scf accuracy    <       0.17256883 Ry

     iteration #  9     ecut=    77.00 Ry     beta= 0.20
     Davidson diagonalization with overlap
     c_bands:  4 eigenvalues not converged
     c_bands:  2 eigenvalues not converged
     ethr =  4.40E-06,  avg # of iterations = 30.0

     negative rho (up, down):  4.258E-04 0.000E+00

     total cpu time spent up to now is     7952.4 secs

     total energy              =  -35654.88386220 Ry
     estimated scf accuracy    <       0.01699569 Ry

     iteration # 10     ecut=    77.00 Ry     beta= 0.20
     Davidson diagonalization with overlap
     c_bands:  2 eigenvalues not converged
     c_bands:  1 eigenvalues not converged
     c_bands:  1 eigenvalues not converged
     c_bands:  3 eigenvalues not converged
     ethr =  9.73E-07,  avg # of iterations = 75.0

     negative rho (up, down):  4.643E-04 0.000E+00

     total cpu time spent up to now is    10438.7 secs

     total energy              =  -35654.91242880 Ry
     estimated scf accuracy    <       0.01242341 Ry

     iteration # 11     ecut=    77.00 Ry     beta= 0.20
     Davidson diagonalization with overlap
     ethr =  7.12E-07,  avg # of iterations =  2.0

     negative rho (up, down):  6.556E-04 0.000E+00

     total cpu time spent up to now is    10847.6 secs

     total energy              =  -35654.90842211 Ry
     estimated scf accuracy    <       0.00810018 Ry

     iteration # 12     ecut=    77.00 Ry     beta= 0.20
     Davidson diagonalization with overlap
     ethr =  4.64E-07,  avg # of iterations =  2.8

     negative rho (up, down):  8.321E-04 0.000E+00

     total cpu time spent up to now is    11271.1 secs

     total energy              =  -35654.90850823 Ry
     estimated scf accuracy    <       0.00118702 Ry

     iteration # 13     ecut=    77.00 Ry     beta= 0.20
     Davidson diagonalization with overlap
     c_bands:  1 eigenvalues not converged
     c_bands:  3 eigenvalues not converged
     c_bands:  5 eigenvalues not converged
     ethr =  6.80E-08,  avg # of iterations = 20.0

     negative rho (up, down):  8.243E-04 0.000E+00

     total cpu time spent up to now is    13322.7 secs

     total energy              =  -35654.91303393 Ry
     estimated scf accuracy    <       0.00383693 Ry

     iteration # 14     ecut=    77.00 Ry     beta= 0.20
     Davidson diagonalization with overlap
     ethr =  6.80E-08,  avg # of iterations = 11.2

     negative rho (up, down):  8.276E-04 0.000E+00

     total cpu time spent up to now is    13904.6 secs

     total energy              =  -35654.91332087 Ry
     estimated scf accuracy    <       0.00364114 Ry

     iteration # 15     ecut=    77.00 Ry     beta= 0.20
     Davidson diagonalization with overlap
     ethr =  6.80E-08,  avg # of iterations =  1.0

     negative rho (up, down):  8.385E-04 0.000E+00

     total cpu time spent up to now is    14277.6 secs

     total energy              =  -35654.91125634 Ry
     estimated scf accuracy    <       0.00394591 Ry

     iteration # 16     ecut=    77.00 Ry     beta= 0.20
     Davidson diagonalization with overlap
     ethr =  6.80E-08,  avg # of iterations =  7.0

     negative rho (up, down):  8.447E-04 0.000E+00

     total cpu time spent up to now is    14942.9 secs

     total energy              =  -35654.91179010 Ry
     estimated scf accuracy    <       0.00037577 Ry

     iteration # 17     ecut=    77.00 Ry     beta= 0.20
     Davidson diagonalization with overlap
     ethr =  2.15E-08,  avg # of iterations =  9.2

     negative rho (up, down):  8.551E-04 0.000E+00

     total cpu time spent up to now is    15578.7 secs

     total energy              =  -35654.91197158 Ry
     estimated scf accuracy    <       0.00008398 Ry

     iteration # 18     ecut=    77.00 Ry     beta= 0.20
     Davidson diagonalization with overlap
     ethr =  4.81E-09,  avg # of iterations = 17.5

     negative rho (up, down):  8.687E-04 0.000E+00

     total cpu time spent up to now is    16817.3 secs

     total energy              =  -35654.91209036 Ry
     estimated scf accuracy    <       0.00002474 Ry

     iteration # 19     ecut=    77.00 Ry     beta= 0.20
     Davidson diagonalization with overlap
     ethr =  1.42E-09,  avg # of iterations = 15.8

     negative rho (up, down):  8.793E-04 0.000E+00

     total cpu time spent up to now is    17672.1 secs

     total energy              =  -35654.91210403 Ry
     estimated scf accuracy    <       0.00001294 Ry

     iteration # 20     ecut=    77.00 Ry     beta= 0.20
     Davidson diagonalization with overlap
     ethr =  7.41E-10,  avg # of iterations = 13.2

     negative rho (up, down):  8.830E-04 0.000E+00

     total cpu time spent up to now is    18343.4 secs

     total energy              =  -35654.91210880 Ry
     estimated scf accuracy    <       0.00000937 Ry

     iteration # 21     ecut=    77.00 Ry     beta= 0.20
     Davidson diagonalization with overlap
     ethr =  5.37E-10,  avg # of iterations =  5.5

     negative rho (up, down):  8.856E-04 0.000E+00

     total cpu time spent up to now is    18775.4 secs

     total energy              =  -35654.91210314 Ry
     estimated scf accuracy    <       0.00001007 Ry

     iteration # 22     ecut=    77.00 Ry     beta= 0.20
     Davidson diagonalization with overlap
     ethr =  5.37E-10,  avg # of iterations =  8.8

     negative rho (up, down):  8.829E-04 0.000E+00

     total cpu time spent up to now is    19298.1 secs

     total energy              =  -35654.91210584 Ry
     estimated scf accuracy    <       0.00000138 Ry

     iteration # 23     ecut=    77.00 Ry     beta= 0.20
     Davidson diagonalization with overlap
     c_bands:  1 eigenvalues not converged
     c_bands:  3 eigenvalues not converged
     c_bands:  2 eigenvalues not converged
     ethr =  7.88E-11,  avg # of iterations = 20.2

     negative rho (up, down):  8.822E-04 0.000E+00

     total cpu time spent up to now is    21335.6 secs

     total energy              =  -35654.91211262 Ry
     estimated scf accuracy    <       0.00001121 Ry

     iteration # 24     ecut=    77.00 Ry     beta= 0.20
     Davidson diagonalization with overlap
     ethr =  7.88E-11,  avg # of iterations =  1.5

     negative rho (up, down):  8.824E-04 0.000E+00

     total cpu time spent up to now is    21724.1 secs

     total energy              =  -35654.91211192 Ry
     estimated scf accuracy    <       0.00000841 Ry

     iteration # 25     ecut=    77.00 Ry     beta= 0.20
     Davidson diagonalization with overlap
     ethr =  7.88E-11,  avg # of iterations =  1.0

     negative rho (up, down):  8.825E-04 0.000E+00

     total cpu time spent up to now is    22094.1 secs

     total energy              =  -35654.91211030 Ry
     estimated scf accuracy    <       0.00000722 Ry

     iteration # 26     ecut=    77.00 Ry     beta= 0.20
     Davidson diagonalization with overlap
     ethr =  7.88E-11,  avg # of iterations =  5.5

     negative rho (up, down):  8.840E-04 0.000E+00

     total cpu time spent up to now is    22657.9 secs

     total energy              =  -35654.91210854 Ry
     estimated scf accuracy    <       0.00000303 Ry

     iteration # 27     ecut=    77.00 Ry     beta= 0.20
     Davidson diagonalization with overlap
     ethr =  7.88E-11,  avg # of iterations = 11.5

     negative rho (up, down):  8.844E-04 0.000E+00

     total cpu time spent up to now is    23393.3 secs

     End of self-consistent calculation

          k = 0.0000 0.0000 0.0000 (386245 PWs)   bands (ev):

  -103.0024-102.2453 -88.8857 -71.3346 -71.3277 -71.3098 -71.2931 -71.2831
   -71.2725 -71.2640 -70.5852 -70.5842 -70.5638 -70.5593 -70.5454 -70.5311
   -70.5199 -66.6537 -66.6537 -66.6524 -66.6462 -66.6337 -66.6326 -66.6325
   -66.6324 -66.6324 -66.6324 -66.6324 -66.6324 -66.6324 -66.6324 -66.6324
   -66.6322 -66.6320 -66.6311 -66.6311 -66.6311 -66.6311 -66.6311 -66.6311
   -66.6250 -66.6183 -66.6146 -66.6126 -66.6113 -66.6112 -66.6111 -66.6111
   -66.6111 -66.6110 -66.6110 -66.6110 -66.6110 -66.6110 -66.6110 -66.6110
   -66.6110 -66.6110 -66.6109 -66.6109 -66.6107 -66.6104 -66.6097 -66.6097
   -66.6097 -66.6097 -66.6097 -66.6097 -66.6096 -66.6096 -66.6096 -66.6077
   -66.5982 -66.5950 -66.5925 -66.5901 -66.5879 -66.5821 -66.5766 -66.5681
   -66.5657 -57.3123 -57.2008 -57.1594 -56.5313 -56.4714 -56.4158 -54.7303
   -54.6487 -54.6371 -40.9812 -40.9811 -40.9811 -40.9811 -40.9810 -40.9810
   -40.9805 -40.9805 -40.9805 -40.9644 -40.9607 -40.9586 -40.9059 -40.9058
   -40.9058 -40.9058 -40.9058 -40.9058 -40.9058 -40.9058 -40.9058 -40.9057
   -40.9056 -40.9055 -40.9051 -40.9051 -40.9051 -40.9051 -40.9051 -40.9051
   -40.8930 -40.8869 -40.8833 -40.8775 -40.8719 -40.8675 -40.8384 -40.8133
   -40.8132 -40.8126 -40.8077 -40.7796 -40.7796 -40.7795 -40.7795 -40.7795
   -40.7795 -40.7795 -40.7795 -40.7794 -40.7794 -40.7793 -40.7793 -40.7792
   -40.7786 -40.7786 -40.7786 -40.7786 -40.7786 -40.7786 -40.7766 -40.7740
   -40.7719 -40.7717 -40.7716 -40.7716 -40.7716 -40.7716 -40.7716 -40.7716
   -40.7715 -40.7715 -40.7714 -40.7712 -40.7709 -40.7709 -40.7709 -40.7709
   -40.7709 -40.7709 -40.7705 -40.7659 -40.7653 -40.7633 -40.7588 -40.7557
   -40.7484 -40.7460 -40.7445 -40.7445 -40.7445 -40.7444 -40.7444 -40.7444
   -40.7444 -40.7444 -40.7444 -40.7443 -40.7442 -40.7442 -40.7435 -40.7435
   -40.7435 -40.7435 -40.7435 -40.7435 -40.7390 -40.7383 -40.7341 -40.7335
   -40.7299 -40.7299 -40.7298 -40.7298 -40.7297 -40.7297 -40.7296 -40.7296
   -40.7296 -40.7296 -40.7296 -40.7296 -40.7295 -40.7295 -40.7295 -40.7295
   -40.7294 -40.7294 -40.7290 -40.7289 -40.7289 -40.7289 -40.7289 -40.7289
   -40.7289 -40.7288 -40.7288 -40.7288 -40.7285 -40.7277 -40.7237 -40.7212
   -40.7203 -40.7188 -40.7163 -40.7107 -40.7008 -40.6999 -40.6661 -40.6661
   -40.6661 -40.6661 -40.6660 -40.6660 -40.6651 -40.6651 -40.6651 -40.6455
   -40.6433 -40.6387 -40.6191 -40.6191 -40.6190 -40.6190 -40.6190 -40.6190
   -40.6190 -40.6190 -40.6189 -40.6188 -40.6187 -40.6187 -40.6180 -40.6180
   -40.6180 -40.6180 -40.6180 -40.6180 -40.5987 -40.5964 -40.5911 -40.5900
   -40.5836 -40.5786 -40.5714 -40.5713 -40.5713 -40.5713 -40.5703 -40.5703
   -40.5415 -40.5334 -20.2950 -20.1331 -20.0317 -19.9213 -19.6909 -19.5837
   -19.3624 -19.3205 -19.3071 -19.2816 -19.2672 -19.2664 -19.2613 -19.2565
   -19.2525 -19.2276 -19.1809 -19.1790 -19.1708 -19.1667 -19.1641 -19.1454
   -19.0759 -19.0745 -19.0700 -19.0687 -19.0679 -19.0613 -18.9597 -18.8555
   -18.8410 -18.7131 -18.6602 -18.6201 -18.5973 -18.5684 -18.5617 -18.5284
   -18.4940 -18.4847 -18.4598 -18.4535 -18.4510 -18.4441 -18.4082 -18.3853
   -18.3350 -18.3289 -18.3166 -18.3132 -18.3029 -18.2801 -18.2468 -18.2417
   -18.2159 -18.2143 -18.2122 -18.2042 -18.1991 -18.1950 -18.1625 -18.1513
   -18.1505 -18.1492 -18.1489 -18.1482 -18.1423 -18.1208 -18.1184 -18.1142
   -18.1135 -18.1085 -18.1066 -18.1056 -18.1053 -18.1012 -18.0854 -18.0796
   -18.0788 -18.0771 -18.0688 -18.0648 -18.0623 -18.0510 -18.0469 -18.0413
   -18.0365 -18.0353 -18.0316 -18.0222 -18.0202 -18.0176 -17.9901 -17.9838
   -17.9778 -17.9753 -17.9687 -17.9550 -17.9509 -17.9493 -17.9470 -17.9282
   -17.9233 -17.9231 -17.9140 -17.9103 -17.9065 -17.9000 -17.8988 -17.8956
   -17.8881 -17.8879 -17.8872 -17.8709 -17.8701 -17.8701 -17.8612 -17.8590
   -17.8580 -17.8532 -17.8516 -17.8502 -17.8271 -17.8266 -17.8264 -17.8249
   -17.8242 -17.8236 -12.3024 -12.1691 -12.1081 -12.0072 -11.8822 -11.8346
   -11.8294 -11.8223 -11.7485 -11.7132 -11.7061 -11.6792 -11.6290 -11.5914
   -11.5843 -11.5818 -11.4680 -11.4445 -11.3876 -11.3405 -11.3115 -11.2806
   -11.2697 -11.2674 -11.2571 -11.2424 -11.2340 -11.2277 -11.1891 -11.1636
   -11.1613 -11.1595 -11.1584 -11.1547 -11.1480 -11.1351 -11.1158 -11.1045
   -11.1032 -11.0963 -11.0887 -11.0845 -11.0794 -11.0741 -11.0651 -11.0569
   -11.0437 -11.0187 -11.0061 -10.9966 -10.9876 -10.9840 -10.9745 -10.9692
   -10.9480 -10.9357 -10.9302 -10.9223 -10.9186 -10.9154 -10.9112 -10.9005
   -10.8856 -10.8826 -10.8750 -10.8733 -10.8704 -10.8625 -10.8597 -10.8588
   -10.8576 -10.8556 -10.8511 -10.8442 -10.8399 -10.8368 -10.8143 -10.8119
   -10.8100 -10.8087 -10.8071 -10.8032 -10.8017 -10.7993 -10.7924 -10.7682
   -10.7674 -10.7671 -10.7668 -10.7661 -10.7643 -10.7232 -10.6989 -10.6918
   -10.6745 -10.6546 -10.6440 -10.6271 -10.6209 -10.6177 -10.5989 -10.5510
   -10.5024 -10.3897 -10.3398 -10.2138 -10.1787 -10.1532 -10.1109 -10.0242
    -9.9934  -9.9590  -9.9318  -9.9083  -9.8582  -9.8561  -9.8454  -9.8426
    -9.8354  -9.8153  -9.8076  -9.8046  -9.8032  -9.8003  -9.7973  -9.7927
    -9.7873  -9.7829  -9.7808  -9.7792  -9.7751  -9.7670  -9.7502  -9.7425
    -9.7323  -9.7176  -9.6816  -9.6755  -9.6651  -9.6604  -9.6587  -9.6529
    -9.6493  -9.6488  -9.6474  -9.6469  -9.6456  -9.6428  -9.6181  -9.6075
    -9.5869  -9.5755  -9.5722  -9.5711  -9.5710  -9.5708  -9.5704  -9.5702
    -9.5673  -9.5580  -9.5462  -9.5400  -9.5343  -9.5273  -9.5133  -9.4870
    -9.4711  -9.4301  -9.4122  -9.4066  -9.4010  -9.3970  -9.3883  -9.3823
    -9.3764  -9.3711  -9.3621  -9.3569  -9.3412  -9.3274  -9.2973  -9.2887
    -9.2788  -9.2757  -9.2702  -9.2552  -9.2424  -9.2223  -9.2140  -9.2134
    -9.2126  -9.2103  -9.2084  -9.1931  -9.1906  -9.1607  -9.1502  -9.1381
    -9.1369  -9.1166  -9.0913  -9.0650  -9.0521  -9.0140  -9.0115  -9.0094
    -9.0071  -8.9858  -8.9781  -8.9777  -8.9652  -8.9487  -8.9470  -8.9468
    -8.9460  -8.9421  -8.9348  -8.9315  -8.9256  -8.9191  -8.8527  -8.8514
    -8.8511  -8.8509  -8.8503  -8.8498  -8.8227  -8.8101  -8.7947  -8.7927
    -8.7794  -8.7739  -8.7690  -8.7183  -8.7077  -8.7030  -8.6981  -8.6928
    -8.6861  -8.6639  -8.6407  -8.6291  -8.6226  -8.6217  -8.6203  -8.6190
    -8.6081  -8.5798  -8.5692  -8.4635  -8.4256  -8.3959  -8.3959  -8.3921
    -8.3911  -8.3890  -8.3852  -8.3839  -8.3810  -8.3534  -8.3294  -8.3059
    -8.3054  -8.3052  -8.3049  -8.3040  -8.3040  -8.2860  -8.2795  -8.2787
    -8.2781  -8.2772  -8.2767  -8.2699  -8.2516  -8.2505  -8.2501  -8.2498
    -8.2495  -8.2483  -8.2225  -8.1834  -8.1302  -8.0377  -7.9571  -7.8889
    -7.8865  -7.8858  -7.8661  -7.8247  -7.8081  -7.7933  -7.7846  -7.7508
    -7.7220  -7.7108  -7.6866  -7.6795  -7.6717  -7.6685  -7.6598  -7.6460
    -7.6406  -7.6331  -7.6253  -7.6247  -7.6237  -7.6040  -7.5839  -7.5804
    -7.5654  -7.5640  -7.5638  -7.5636  -7.5629  -7.5599  -7.5544  -7.5389
    -7.5374  -7.5367  -7.5360  -7.5349  -7.5331  -7.5245  -7.5147  -7.5121
    -7.5117  -7.5114  -7.5109  -7.5108  -7.5078  -7.5027  -7.4884  -7.4763
    -7.4666  -7.4620  -7.4510  -7.4440  -7.4430  -7.4256  -7.4077  -7.3968
    -7.3857  -7.3814  -7.3772  -7.3578  -7.3472  -7.3391  -7.3342  -7.3285
    -7.3264  -7.3213  -7.3197  -7.3181  -7.2810  -7.2798  -7.2793  -7.2614
    -7.2612  -7.2518  -7.2430  -7.2430  -7.2169  -7.1945  -7.1773  -7.1607
    -7.1502  -7.1330  -7.1173  -7.0823  -7.0362  -6.9766  -6.9546  -6.9144
    -6.9053  -6.8996  -6.8851  -6.8786  -6.8259  -6.8105  -6.8091  -6.8074
    -6.7917  -6.7546  -6.7420  -6.7307  -6.7268  -6.7263  -6.6945  -6.6800
    -6.6672  -6.6618  -6.6522  -6.6512  -6.6497  -6.6244  -6.6114  -6.6061
    -6.6018  -6.5940  -6.5856  -6.5826  -6.5636  -6.5548  -6.5460  -6.5436
    -6.5425  -6.5411  -6.5390  -6.5364  -6.5353  -6.5286  -6.5270  -6.5268
    -6.5265  -6.5265  -6.5262  -6.5256  -6.5159  -6.4968  -6.4796  -6.4722
    -6.4664  -6.4468  -6.4408  -6.4388  -6.4364  -6.4093  -6.3875  -6.3792
    -6.3643  -6.3615  -6.3597  -6.3594  -6.3576  -6.3537  -6.3339  -6.3236
    -6.3195  -6.3193  -6.3181  -6.3148  -6.3031  -6.2956  -6.2837  -6.2822
    -6.2819  -6.2809  -6.2794  -6.2776  -6.2233  -6.1251  -6.0471  -5.9964
    -5.8193  -5.7168  -5.6709  -5.5825  -5.5558  -5.4256  -5.3327  -5.3066
    -5.1776  -4.3933  -4.2497  -3.9296  -3.8814  -3.8794  -3.8773  -3.8702
    -3.8608  -3.8585  -3.8559  -3.8528  -3.8503  -3.8334  -3.8326  -3.7858
    -3.7389  -3.7346  -3.7212  -3.7167  -3.7149  -3.7104  -3.7042  -3.7013
    -3.6986  -3.6170  -3.6088  -3.5755  -3.5546  -3.5416  -3.5378  -3.5298
    -3.5224  -3.5151  -3.5053  -3.5009  -3.5007  -3.4982  -3.4948  -3.4906
    -3.4843  -3.4781  -3.4742  -3.4712  -3.4709  -3.4707  -3.4597  -3.4585
    -3.4555  -3.4539  -3.4481  -3.4403  -3.4376  -3.4371  -3.4337  -3.4319
    -3.4295  -3.4262  -3.4179  -3.4144  -3.4137  -3.3920  -3.3852  -3.3825
    -3.3786  -3.3760  -3.3743  -3.3727  -3.3662  -3.3586  -3.3546  -3.3403
    -3.3321  -3.3273  -3.3233  -3.3157  -3.3133  -3.3077  -3.3001  -3.2934
    -3.2564  -3.2450  -3.2437  -3.2313  -3.2220  -3.1286  -3.1224  -3.1086
    -3.0947  -3.0899  -3.0884  -3.0827  -3.0814  -3.0752  -3.0735  -3.0711
    -3.0417  -3.0312  -3.0198  -3.0069  -3.0045  -3.0030  -3.0020  -2.9999
    -2.9993  -2.9944  -2.9915  -2.9914  -2.9882  -2.9830  -2.9826  -2.9816
    -2.9722  -2.9658  -2.9636  -2.9626  -2.9621  -2.9610  -2.9580  -2.9563
    -2.9555  -2.9538  -2.9494  -2.9404  -2.9315  -2.9199  -2.9152  -2.9121
    -2.9016  -2.8962  -2.8942  -2.8636  -2.8389  -2.8353  -2.8352  -2.8351
    -2.8338  -2.8335  -2.8330  -2.8326  -2.8323  -2.8252  -2.8146  -2.8121
    -2.8032  -2.7834  -2.7706  -2.7651  -2.7547  -2.7468  -2.7448  -2.6936
    -2.6919  -2.6731  -2.6666  -2.6647  -2.6563  -2.6528  -2.6516  -2.6485
    -2.6475  -2.6429  -2.6136  -2.5901  -2.5787  -2.5744  -2.5628  -2.5075
    -2.4934  -2.4846  -2.4781  -2.4504  -2.4435  -2.4393  -2.4376  -2.4321

          k = 0.0000-0.5773 0.0000 (386352 PWs)   bands (ev):

  -103.0024-102.2453 -88.8857 -71.3346 -71.3277 -71.3098 -71.2931 -71.2831
   -71.2725 -71.2640 -70.5852 -70.5842 -70.5638 -70.5593 -70.5454 -70.5311
   -70.5199 -66.6475 -66.6475 -66.6475 -66.6474 -66.6461 -66.6461 -66.6448
   -66.6368 -66.6368 -66.6368 -66.6367 -66.6365 -66.6355 -66.6355 -66.6236
   -66.6219 -66.6217 -66.6217 -66.6217 -66.6217 -66.6217 -66.6216 -66.6215
   -66.6204 -66.6204 -66.6204 -66.6204 -66.6185 -66.6173 -66.6173 -66.6173
   -66.6173 -66.6172 -66.6159 -66.6159 -66.6112 -66.6110 -66.6110 -66.6110
   -66.6110 -66.6110 -66.6109 -66.6108 -66.6097 -66.6097 -66.6097 -66.6096
   -66.6096 -66.6066 -66.6066 -66.6065 -66.6065 -66.6061 -66.6052 -66.6052
   -66.5999 -66.5954 -66.5917 -66.5905 -66.5875 -66.5817 -66.5777 -66.5678
   -66.5657 -57.3123 -57.2008 -57.1594 -56.5313 -56.4714 -56.4159 -54.7303
   -54.6487 -54.6371 -40.9496 -40.9495 -40.9495 -40.9495 -40.9495 -40.9494
   -40.9494 -40.9493 -40.9488 -40.9488 -40.9488 -40.9488 -40.9360 -40.9314
   -40.9300 -40.9227 -40.9227 -40.9227 -40.9226 -40.9226 -40.9220 -40.9220
   -40.9145 -40.9106 -40.9106 -40.9106 -40.9105 -40.9099 -40.9099 -40.9024
   -40.8855 -40.8627 -40.8599 -40.8599 -40.8599 -40.8599 -40.8599 -40.8599
   -40.8598 -40.8598 -40.8592 -40.8592 -40.8592 -40.8592 -40.8380 -40.8365
   -40.8331 -40.8264 -40.8233 -40.8047 -40.8011 -40.8011 -40.8011 -40.8010
   -40.8004 -40.8004 -40.7942 -40.7917 -40.7916 -40.7916 -40.7915 -40.7908
   -40.7908 -40.7802 -40.7802 -40.7802 -40.7802 -40.7796 -40.7796 -40.7787
   -40.7733 -40.7680 -40.7611 -40.7561 -40.7507 -40.7507 -40.7506 -40.7506
   -40.7506 -40.7506 -40.7505 -40.7504 -40.7499 -40.7499 -40.7499 -40.7499
   -40.7492 -40.7469 -40.7438 -40.7427 -40.7419 -40.7419 -40.7419 -40.7418
   -40.7412 -40.7412 -40.7336 -40.7313 -40.7302 -40.7302 -40.7301 -40.7300
   -40.7297 -40.7296 -40.7296 -40.7296 -40.7296 -40.7296 -40.7295 -40.7294
   -40.7293 -40.7293 -40.7288 -40.7288 -40.7288 -40.7288 -40.7278 -40.7240
   -40.7209 -40.7209 -40.7209 -40.7209 -40.7208 -40.7201 -40.7201 -40.7145
   -40.7108 -40.7016 -40.6993 -40.6992 -40.6992 -40.6992 -40.6992 -40.6992
   -40.6991 -40.6991 -40.6983 -40.6983 -40.6983 -40.6983 -40.6814 -40.6810
   -40.6731 -40.6714 -40.6645 -40.6645 -40.6645 -40.6645 -40.6645 -40.6645
   -40.6644 -40.6644 -40.6635 -40.6635 -40.6635 -40.6635 -40.6523 -40.6523
   -40.6523 -40.6522 -40.6514 -40.6513 -40.6410 -40.6402 -40.6334 -40.6330
   -40.6330 -40.6330 -40.6329 -40.6329 -40.6320 -40.6320 -40.6257 -40.6197
   -40.6160 -40.6160 -40.6160 -40.6159 -40.6150 -40.6150 -40.6104 -40.5971
   -40.5853 -40.5853 -40.5853 -40.5853 -40.5843 -40.5843 -40.5827 -40.5703
   -40.5571 -40.5546 -20.1716 -19.9818 -19.8990 -19.8906 -19.8027 -19.7900
   -19.6919 -19.6839 -19.5758 -19.5297 -19.4604 -19.4544 -19.3712 -19.3609
   -19.2851 -19.2590 -19.2470 -19.0875 -18.9117 -18.8741 -18.8130 -18.7919
   -18.7567 -18.7549 -18.7494 -18.7489 -18.7428 -18.7334 -18.6975 -18.6810
   -18.6762 -18.6736 -18.6698 -18.6389 -18.6305 -18.5902 -18.5856 -18.5831
   -18.5783 -18.5624 -18.5504 -18.5381 -18.5269 -18.5091 -18.5004 -18.4871
   -18.4434 -18.4400 -18.4378 -18.4312 -18.4126 -18.3978 -18.3867 -18.3685
   -18.3600 -18.3496 -18.3058 -18.2911 -18.2834 -18.2781 -18.2539 -18.2414
   -18.2205 -18.2152 -18.1998 -18.1871 -18.1610 -18.1470 -18.1374 -18.1341
   -18.1276 -18.1269 -18.1248 -18.1207 -18.1053 -18.1029 -18.0977 -18.0961
   -18.0928 -18.0906 -18.0824 -18.0759 -18.0752 -18.0706 -18.0409 -18.0385
   -18.0372 -18.0343 -18.0309 -18.0290 -18.0254 -18.0244 -18.0201 -18.0095
   -17.9844 -17.9772 -17.9683 -17.9652 -17.9645 -17.9599 -17.9269 -17.9242
   -17.9165 -17.9129 -17.9047 -17.8823 -17.8747 -17.8731 -17.8700 -17.8612
   -17.8480 -17.8478 -17.8474 -17.8473 -17.8463 -17.8456 -17.8339 -17.8322
   -17.8149 -17.8114 -17.7903 -17.7872 -17.7712 -17.7670 -17.7560 -17.7532
   -17.7480 -17.7476 -12.1939 -12.0678 -11.9691 -11.8140 -11.7626 -11.7465
   -11.6953 -11.6595 -11.5851 -11.5366 -11.5291 -11.5267 -11.5251 -11.5218
   -11.4982 -11.4802 -11.4416 -11.4222 -11.4209 -11.4156 -11.4082 -11.3977
   -11.3717 -11.3584 -11.3561 -11.3235 -11.3139 -11.3076 -11.3032 -11.2994
   -11.2926 -11.2857 -11.2820 -11.2698 -11.2424 -11.2331 -11.2288 -11.2238
   -11.2201 -11.2103 -11.2009 -11.1967 -11.1940 -11.1757 -11.1752 -11.1716
   -11.1601 -11.1410 -11.1285 -11.1127 -11.0940 -11.0843 -11.0752 -11.0516
   -11.0207 -10.9963 -10.9920 -10.9719 -10.9613 -10.9576 -10.9468 -10.9295
   -10.9093 -10.8820 -10.8735 -10.8664 -10.8623 -10.8508 -10.8476 -10.8425
   -10.8399 -10.8395 -10.8388 -10.8368 -10.8306 -10.8273 -10.8217 -10.8211
   -10.8154 -10.8139 -10.8118 -10.8106 -10.7770 -10.7737 -10.7720 -10.7715
   -10.7630 -10.7371 -10.6518 -10.6102 -10.5823 -10.5694 -10.5570 -10.5430
   -10.5077 -10.4701 -10.4337 -10.4081 -10.3826 -10.3134 -10.2789 -10.2620
   -10.2038 -10.1701 -10.1657 -10.1574 -10.1431 -10.1374 -10.1259 -10.1198
   -10.0825 -10.0670 -10.0647 -10.0632 -10.0525 -10.0505 -10.0481 -10.0431
   -10.0089 -10.0013  -9.9720  -9.9625  -9.9601  -9.9424  -9.9280  -9.9214
    -9.9208  -9.9029  -9.8899  -9.8814  -9.8653  -9.8553  -9.8421  -9.8339
    -9.8241  -9.8149  -9.7988  -9.7927  -9.7505  -9.7435  -9.7273  -9.7174
    -9.6963  -9.6917  -9.6859  -9.6744  -9.6629  -9.6511  -9.6402  -9.6342
    -9.6295  -9.6073  -9.5958  -9.5831  -9.5725  -9.5692  -9.5648  -9.5230
    -9.5210  -9.5192  -9.5084  -9.5052  -9.4991  -9.4957  -9.4887  -9.4886
    -9.4845  -9.4736  -9.4541  -9.4445  -9.4390  -9.3987  -9.3742  -9.3603
    -9.3309  -9.2915  -9.2800  -9.2549  -9.2512  -9.2448  -9.2410  -9.2255
    -9.2168  -9.2044  -9.1887  -9.1643  -9.1605  -9.1550  -9.1375  -9.1243
    -9.1119  -9.0991  -9.0889  -9.0777  -9.0746  -9.0672  -9.0358  -9.0320
    -9.0313  -9.0128  -9.0066  -8.9921  -8.9811  -8.9782  -8.9728  -8.9680
    -8.9397  -8.9258  -8.9199  -8.9189  -8.9179  -8.9161  -8.9136  -8.9103
    -8.9017  -8.9004  -8.8985  -8.8971  -8.8968  -8.8917  -8.8840  -8.8832
    -8.8745  -8.8683  -8.8681  -8.8463  -8.8228  -8.8220  -8.8212  -8.8202
    -8.8171  -8.8149  -8.8108  -8.7920  -8.7911  -8.7834  -8.7617  -8.7612
    -8.7609  -8.7578  -8.7374  -8.7140  -8.6901  -8.6845  -8.6770  -8.6558
    -8.6011  -8.5690  -8.5325  -8.5316  -8.5156  -8.5057  -8.4731  -8.4654
    -8.4229  -8.3862  -8.3758  -8.3400  -8.3215  -8.2849  -8.2445  -8.1570
    -8.1559  -8.1542  -8.1469  -8.1464  -8.1374  -8.1356  -8.1340  -8.0962
    -8.0879  -8.0769  -8.0018  -7.9990  -7.9888  -7.9772  -7.9546  -7.9318
    -7.9079  -7.8841  -7.8770  -7.8732  -7.8628  -7.8608  -7.8508  -7.8462
    -7.8436  -7.8325  -7.8302  -7.8276  -7.8262  -7.8248  -7.8171  -7.8150
    -7.8103  -7.8097  -7.8051  -7.7977  -7.7965  -7.7944  -7.7925  -7.7920
    -7.7908  -7.7866  -7.7862  -7.7796  -7.7736  -7.7614  -7.7591  -7.7576
    -7.7527  -7.7366  -7.7256  -7.7250  -7.7245  -7.7215  -7.6963  -7.6952
    -7.6940  -7.6938  -7.6871  -7.6818  -7.6807  -7.6725  -7.6687  -7.6498
    -7.6395  -7.6363  -7.6360  -7.6343  -7.6330  -7.6142  -7.6131  -7.6083
    -7.5988  -7.5940  -7.5923  -7.5908  -7.5843  -7.5710  -7.5423  -7.5268
    -7.4943  -7.4901  -7.4845  -7.4792  -7.4604  -7.4410  -7.3676  -7.3500
    -7.2719  -7.2342  -7.2021  -7.2009  -7.1966  -7.1933  -7.1715  -7.1592
    -7.1525  -7.1440  -7.1369  -7.1223  -7.1083  -7.0990  -7.0817  -7.0653
    -7.0607  -7.0553  -7.0462  -7.0406  -7.0069  -7.0040  -6.9954  -6.9525
    -6.9442  -6.9419  -6.9341  -6.9227  -6.9166  -6.9063  -6.8937  -6.8876
    -6.8871  -6.8777  -6.8326  -6.8313  -6.8001  -6.7955  -6.7776  -6.7744
    -6.7501  -6.7177  -6.7010  -6.6823  -6.6551  -6.6517  -6.6398  -6.6344
    -6.6336  -6.6329  -6.6277  -6.6183  -6.6161  -6.6154  -6.6138  -6.6117
    -6.6072  -6.6071  -6.6069  -6.6066  -6.5968  -6.5849  -6.5730  -6.5503
    -6.5113  -6.4834  -6.4476  -6.4411  -6.3931  -6.3529  -6.3471  -6.3470
    -6.3433  -6.3339  -6.3318  -6.3054  -6.3052  -6.3012  -6.3004  -6.2971
    -6.2916  -6.2864  -6.2832  -6.2792  -6.2599  -6.2534  -6.2348  -6.2333
    -6.2301  -6.2260  -6.1550  -6.1277  -6.0600  -6.0188  -6.0102  -5.9961
    -5.9714  -5.9456  -5.9365  -5.8858  -5.8800  -5.8673  -5.8380  -5.7507
    -5.7448  -5.7184  -5.6380  -5.6317  -5.6225  -5.4991  -5.4570  -5.4247
    -5.3137  -4.3399  -4.3168  -4.1277  -4.1253  -4.1107  -4.0733  -3.9811
    -3.9621  -3.9537  -3.9376  -3.9312  -3.8737  -3.8695  -3.8604  -3.8555
    -3.8464  -3.8416  -3.8371  -3.8266  -3.8256  -3.8212  -3.7563  -3.7365
    -3.7227  -3.7135  -3.6524  -3.6393  -3.6280  -3.6265  -3.6223  -3.6045
    -3.5815  -3.5767  -3.5720  -3.5705  -3.5542  -3.5477  -3.5439  -3.5363
    -3.5266  -3.5253  -3.5097  -3.5067  -3.5057  -3.5016  -3.4965  -3.4895
    -3.4761  -3.4727  -3.4704  -3.4545  -3.4488  -3.4404  -3.4304  -3.4256
    -3.3990  -3.3843  -3.3791  -3.3751  -3.3743  -3.3684  -3.3655  -3.3620
    -3.3543  -3.3327  -3.3193  -3.3147  -3.3097  -3.3081  -3.3072  -3.3029
    -3.3021  -3.2989  -3.2812  -3.2777  -3.2701  -3.2619  -3.2610  -3.2566
    -3.2502  -3.2410  -3.2385  -3.2369  -3.2280  -3.2232  -3.2120  -3.2095
    -3.2077  -3.1980  -3.1913  -3.1896  -3.1884  -3.1884  -3.1714  -3.1484
    -3.1289  -3.1266  -3.1172  -3.1014  -3.0973  -3.0905  -3.0865  -3.0566
    -3.0520  -3.0500  -3.0483  -3.0479  -3.0475  -3.0434  -3.0403  -3.0353
    -3.0314  -3.0298  -3.0270  -3.0172  -3.0144  -3.0127  -3.0110  -3.0077
    -3.0039  -2.9999  -2.9978  -2.9910  -2.9865  -2.9757  -2.9738  -2.9709
    -2.9690  -2.9595  -2.9574  -2.9491  -2.9393  -2.9315  -2.9244  -2.9172
    -2.9136  -2.9048  -2.9026  -2.8951  -2.8821  -2.8294  -2.8259  -2.8251
    -2.8174  -2.8010  -2.7707  -2.7480  -2.7396  -2.7176  -2.6532  -2.6416
    -2.6273  -2.6177  -2.5980  -2.5964  -2.5831  -2.5750  -2.5698  -2.5615
    -2.5550  -2.5524  -2.5518  -2.5496  -2.4805  -2.4468  -2.4312  -2.4263
    -2.4230  -2.4153  -2.4139  -2.4085  -2.3926  -2.3794  -2.3676  -2.3672

          k =-0.5000-0.2887 0.0000 (386352 PWs)   bands (ev):

  -103.0024-102.2453 -88.8857 -71.3346 -71.3277 -71.3098 -71.2931 -71.2831
   -71.2725 -71.2640 -70.5852 -70.5842 -70.5638 -70.5593 -70.5454 -70.5311
   -70.5199 -66.6476 -66.6475 -66.6475 -66.6473 -66.6461 -66.6461 -66.6454
   -66.6368 -66.6368 -66.6368 -66.6367 -66.6355 -66.6355 -66.6344 -66.6254
   -66.6218 -66.6218 -66.6217 -66.6217 -66.6217 -66.6217 -66.6216 -66.6214
   -66.6209 -66.6204 -66.6204 -66.6204 -66.6204 -66.6174 -66.6173 -66.6173
   -66.6171 -66.6159 -66.6159 -66.6141 -66.6114 -66.6112 -66.6110 -66.6110
   -66.6110 -66.6110 -66.6110 -66.6110 -66.6106 -66.6097 -66.6097 -66.6096
   -66.6096 -66.6066 -66.6066 -66.6066 -66.6065 -66.6052 -66.6052 -66.6049
   -66.5983 -66.5964 -66.5919 -66.5903 -66.5874 -66.5836 -66.5763 -66.5680
   -66.5657 -57.3123 -57.2008 -57.1594 -56.5313 -56.4714 -56.4159 -54.7303
   -54.6487 -54.6371 -40.9495 -40.9495 -40.9495 -40.9495 -40.9495 -40.9495
   -40.9494 -40.9492 -40.9488 -40.9488 -40.9488 -40.9488 -40.9454 -40.9403
   -40.9227 -40.9227 -40.9227 -40.9225 -40.9220 -40.9220 -40.9166 -40.9129
   -40.9106 -40.9106 -40.9106 -40.9105 -40.9099 -40.9099 -40.9070 -40.9012
   -40.8871 -40.8707 -40.8599 -40.8599 -40.8599 -40.8599 -40.8599 -40.8599
   -40.8598 -40.8598 -40.8592 -40.8592 -40.8592 -40.8592 -40.8433 -40.8375
   -40.8332 -40.8306 -40.8240 -40.8058 -40.8012 -40.8011 -40.8011 -40.8009
   -40.8004 -40.8004 -40.7920 -40.7917 -40.7916 -40.7916 -40.7915 -40.7908
   -40.7908 -40.7819 -40.7802 -40.7802 -40.7802 -40.7802 -40.7796 -40.7796
   -40.7703 -40.7640 -40.7618 -40.7566 -40.7522 -40.7507 -40.7507 -40.7506
   -40.7506 -40.7506 -40.7506 -40.7505 -40.7504 -40.7499 -40.7499 -40.7499
   -40.7499 -40.7466 -40.7442 -40.7420 -40.7419 -40.7419 -40.7417 -40.7412
   -40.7412 -40.7378 -40.7325 -40.7310 -40.7302 -40.7302 -40.7302 -40.7300
   -40.7300 -40.7298 -40.7297 -40.7296 -40.7296 -40.7296 -40.7296 -40.7296
   -40.7293 -40.7293 -40.7292 -40.7288 -40.7288 -40.7288 -40.7288 -40.7266
   -40.7209 -40.7209 -40.7209 -40.7209 -40.7201 -40.7201 -40.7178 -40.7160
   -40.7079 -40.7010 -40.6993 -40.6993 -40.6992 -40.6992 -40.6992 -40.6992
   -40.6992 -40.6989 -40.6983 -40.6983 -40.6983 -40.6983 -40.6842 -40.6801
   -40.6682 -40.6645 -40.6645 -40.6645 -40.6645 -40.6645 -40.6645 -40.6644
   -40.6644 -40.6644 -40.6635 -40.6635 -40.6635 -40.6635 -40.6524 -40.6523
   -40.6523 -40.6522 -40.6514 -40.6513 -40.6429 -40.6378 -40.6376 -40.6341
   -40.6331 -40.6330 -40.6330 -40.6328 -40.6320 -40.6320 -40.6306 -40.6160
   -40.6160 -40.6160 -40.6159 -40.6150 -40.6150 -40.6121 -40.6061 -40.6037
   -40.5869 -40.5854 -40.5854 -40.5853 -40.5852 -40.5843 -40.5843 -40.5800
   -40.5627 -40.5407 -20.1881 -19.9416 -19.8986 -19.8823 -19.8017 -19.7855
   -19.6916 -19.6842 -19.6015 -19.5881 -19.4614 -19.4592 -19.3715 -19.3658
   -19.2692 -19.2608 -19.2120 -19.0198 -18.9278 -18.8883 -18.8480 -18.8137
   -18.7535 -18.7527 -18.7496 -18.7490 -18.7397 -18.7204 -18.6938 -18.6844
   -18.6780 -18.6761 -18.6704 -18.6192 -18.6125 -18.5896 -18.5849 -18.5832
   -18.5779 -18.5723 -18.5532 -18.5245 -18.5151 -18.5076 -18.4992 -18.4832
   -18.4721 -18.4417 -18.4400 -18.4346 -18.4251 -18.4146 -18.3854 -18.3635
   -18.3593 -18.3508 -18.3206 -18.3079 -18.2794 -18.2696 -18.2522 -18.2452
   -18.2216 -18.2064 -18.2063 -18.1797 -18.1607 -18.1518 -18.1336 -18.1298
   -18.1279 -18.1274 -18.1207 -18.1056 -18.1049 -18.1017 -18.0992 -18.0966
   -18.0929 -18.0899 -18.0824 -18.0803 -18.0730 -18.0604 -18.0416 -18.0392
   -18.0357 -18.0331 -18.0291 -18.0288 -18.0281 -18.0197 -18.0171 -18.0117
   -17.9839 -17.9793 -17.9711 -17.9655 -17.9598 -17.9513 -17.9386 -17.9226
   -17.9178 -17.9062 -17.9057 -17.8872 -17.8760 -17.8740 -17.8692 -17.8680
   -17.8484 -17.8479 -17.8475 -17.8469 -17.8463 -17.8457 -17.8337 -17.8327
   -17.8144 -17.8121 -17.7898 -17.7877 -17.7707 -17.7677 -17.7558 -17.7538
   -17.7479 -17.7477 -12.2213 -12.0797 -11.9866 -11.7823 -11.7549 -11.7083
   -11.6631 -11.5971 -11.5765 -11.5549 -11.5312 -11.5275 -11.5256 -11.5108
   -11.5000 -11.4910 -11.4582 -11.4477 -11.4211 -11.4153 -11.4062 -11.3849
   -11.3716 -11.3709 -11.3572 -11.3321 -11.3254 -11.3138 -11.3011 -11.2985
   -11.2961 -11.2892 -11.2840 -11.2832 -11.2506 -11.2362 -11.2341 -11.2269
   -11.2154 -11.2111 -11.2059 -11.1971 -11.1919 -11.1776 -11.1761 -11.1726
   -11.1656 -11.1502 -11.1283 -11.1082 -11.1002 -11.0850 -11.0705 -11.0189
   -11.0141 -10.9983 -10.9886 -10.9704 -10.9546 -10.9493 -10.9330 -10.9286
   -10.9169 -10.9046 -10.8720 -10.8675 -10.8648 -10.8635 -10.8463 -10.8407
   -10.8396 -10.8391 -10.8381 -10.8352 -10.8335 -10.8270 -10.8218 -10.8208
   -10.8164 -10.8132 -10.8123 -10.8102 -10.8015 -10.7734 -10.7722 -10.7714
   -10.7707 -10.7360 -10.6583 -10.5862 -10.5716 -10.5636 -10.5515 -10.5245
   -10.4996 -10.4905 -10.4556 -10.4209 -10.3837 -10.3032 -10.2618 -10.2613
   -10.2170 -10.2057 -10.1628 -10.1478 -10.1451 -10.1419 -10.1200 -10.0948
   -10.0859 -10.0773 -10.0667 -10.0638 -10.0575 -10.0533 -10.0465 -10.0443
   -10.0312  -9.9918  -9.9701  -9.9610  -9.9526  -9.9440  -9.9351  -9.9267
    -9.9235  -9.9216  -9.9107  -9.8920  -9.8739  -9.8629  -9.8389  -9.8258
    -9.8190  -9.8075  -9.8020  -9.7852  -9.7715  -9.7649  -9.7480  -9.7369
    -9.7143  -9.6948  -9.6856  -9.6695  -9.6538  -9.6495  -9.6372  -9.6268
    -9.6135  -9.6017  -9.5910  -9.5829  -9.5732  -9.5608  -9.5334  -9.5219
    -9.5194  -9.5159  -9.5060  -9.5044  -9.4981  -9.4940  -9.4892  -9.4874
    -9.4691  -9.4599  -9.4365  -9.4265  -9.4086  -9.3925  -9.3775  -9.3564
    -9.3113  -9.2783  -9.2611  -9.2583  -9.2519  -9.2456  -9.2381  -9.2224
    -9.2135  -9.1894  -9.1859  -9.1734  -9.1624  -9.1552  -9.1423  -9.1209
    -9.1113  -9.1055  -9.0972  -9.0856  -9.0749  -9.0671  -9.0601  -9.0467
    -9.0270  -9.0097  -8.9969  -8.9935  -8.9869  -8.9786  -8.9765  -8.9634
    -8.9484  -8.9422  -8.9224  -8.9216  -8.9190  -8.9173  -8.9155  -8.9124
    -8.9050  -8.9029  -8.8974  -8.8970  -8.8897  -8.8889  -8.8841  -8.8715
    -8.8684  -8.8684  -8.8641  -8.8498  -8.8315  -8.8224  -8.8216  -8.8195
    -8.8182  -8.8139  -8.8005  -8.7920  -8.7906  -8.7698  -8.7616  -8.7606
    -8.7588  -8.7574  -8.7483  -8.7104  -8.6908  -8.6868  -8.6824  -8.6757
    -8.6051  -8.5689  -8.5351  -8.5298  -8.4983  -8.4687  -8.4591  -8.4463
    -8.4063  -8.3861  -8.3807  -8.3428  -8.3339  -8.3131  -8.2223  -8.1751
    -8.1559  -8.1559  -8.1470  -8.1469  -8.1374  -8.1356  -8.1333  -8.1204
    -8.0974  -8.0719  -8.0319  -8.0128  -8.0019  -7.9961  -7.9767  -7.9239
    -7.9021  -7.8810  -7.8707  -7.8694  -7.8596  -7.8574  -7.8526  -7.8409
    -7.8405  -7.8354  -7.8309  -7.8259  -7.8240  -7.8217  -7.8157  -7.8102
    -7.8099  -7.8008  -7.7994  -7.7968  -7.7964  -7.7951  -7.7932  -7.7919
    -7.7904  -7.7867  -7.7860  -7.7808  -7.7726  -7.7624  -7.7602  -7.7585
    -7.7552  -7.7432  -7.7259  -7.7253  -7.7246  -7.7244  -7.7060  -7.6957
    -7.6949  -7.6931  -7.6918  -7.6890  -7.6801  -7.6706  -7.6664  -7.6587
    -7.6369  -7.6366  -7.6363  -7.6317  -7.6194  -7.6154  -7.6138  -7.6094
    -7.5932  -7.5924  -7.5921  -7.5833  -7.5805  -7.5763  -7.5636  -7.4939
    -7.4917  -7.4890  -7.4858  -7.4740  -7.4520  -7.4394  -7.4162  -7.3243
    -7.2716  -7.2282  -7.2159  -7.2073  -7.1964  -7.1939  -7.1825  -7.1721
    -7.1501  -7.1367  -7.1254  -7.1243  -7.1097  -7.1045  -7.0950  -7.0642
    -7.0555  -7.0484  -7.0400  -7.0330  -7.0121  -7.0047  -6.9966  -6.9611
    -6.9535  -6.9445  -6.9397  -6.9162  -6.9078  -6.8964  -6.8908  -6.8868
    -6.8821  -6.8650  -6.8487  -6.8113  -6.8046  -6.7885  -6.7807  -6.7469
    -6.7216  -6.7064  -6.6985  -6.6815  -6.6666  -6.6569  -6.6461  -6.6377
    -6.6345  -6.6331  -6.6319  -6.6304  -6.6223  -6.6157  -6.6157  -6.6147
    -6.6128  -6.6072  -6.6071  -6.6070  -6.6066  -6.5750  -6.5646  -6.5598
    -6.5082  -6.4557  -6.4502  -6.4230  -6.3705  -6.3572  -6.3505  -6.3461
    -6.3445  -6.3414  -6.3340  -6.3168  -6.3058  -6.3052  -6.3008  -6.3005
    -6.2984  -6.2945  -6.2835  -6.2786  -6.2607  -6.2531  -6.2456  -6.2331
    -6.2301  -6.2251  -6.2193  -6.1114  -6.0722  -6.0215  -6.0176  -6.0080
    -5.9589  -5.9477  -5.8945  -5.8932  -5.8773  -5.8546  -5.8335  -5.7641
    -5.7468  -5.7123  -5.6392  -5.6297  -5.6148  -5.5065  -5.4563  -5.3941
    -5.3265  -4.3848  -4.2858  -4.1255  -4.1183  -4.0894  -4.0860  -3.9780
    -3.9535  -3.9495  -3.9461  -3.8905  -3.8849  -3.8736  -3.8675  -3.8607
    -3.8502  -3.8418  -3.8347  -3.8267  -3.8250  -3.8052  -3.7700  -3.7371
    -3.7198  -3.6793  -3.6647  -3.6455  -3.6321  -3.6289  -3.6254  -3.6112
    -3.5823  -3.5803  -3.5767  -3.5592  -3.5554  -3.5479  -3.5453  -3.5386
    -3.5348  -3.5198  -3.5133  -3.5077  -3.5044  -3.4993  -3.4929  -3.4864
    -3.4815  -3.4738  -3.4682  -3.4625  -3.4546  -3.4448  -3.4416  -3.4280
    -3.4067  -3.3887  -3.3802  -3.3790  -3.3737  -3.3713  -3.3644  -3.3635
    -3.3573  -3.3353  -3.3190  -3.3125  -3.3107  -3.3079  -3.3056  -3.3045
    -3.3032  -3.2996  -3.2880  -3.2737  -3.2699  -3.2663  -3.2607  -3.2561
    -3.2529  -3.2395  -3.2376  -3.2352  -3.2241  -3.2202  -3.2150  -3.2085
    -3.2046  -3.1967  -3.1902  -3.1885  -3.1885  -3.1804  -3.1746  -3.1376
    -3.1275  -3.1219  -3.1188  -3.1030  -3.0973  -3.0916  -3.0862  -3.0576
    -3.0537  -3.0508  -3.0482  -3.0478  -3.0469  -3.0439  -3.0377  -3.0369
    -3.0343  -3.0303  -3.0230  -3.0180  -3.0175  -3.0151  -3.0122  -3.0084
    -3.0057  -3.0028  -2.9962  -2.9916  -2.9851  -2.9745  -2.9732  -2.9704
    -2.9664  -2.9601  -2.9557  -2.9493  -2.9421  -2.9303  -2.9237  -2.9219
    -2.9116  -2.9045  -2.8976  -2.8963  -2.8748  -2.8351  -2.8275  -2.8178
    -2.8122  -2.7983  -2.7770  -2.7575  -2.7442  -2.7048  -2.6535  -2.6389
    -2.6265  -2.6153  -2.6016  -2.5930  -2.5845  -2.5717  -2.5657  -2.5577
    -2.5537  -2.5528  -2.5498  -2.5378  -2.4910  -2.4817  -2.4456  -2.4328
    -2.4256  -2.4213  -2.4152  -2.4128  -2.4084  -2.4030  -2.3707  -2.3695

          k =-0.5000-0.8660 0.0000 (386352 PWs)   bands (ev):

  -103.0024-102.2453 -88.8857 -71.3346 -71.3277 -71.3098 -71.2931 -71.2831
   -71.2725 -71.2640 -70.5852 -70.5842 -70.5638 -70.5593 -70.5454 -70.5311
   -70.5199 -66.6475 -66.6475 -66.6475 -66.6473 -66.6462 -66.6461 -66.6451
   -66.6368 -66.6368 -66.6368 -66.6368 -66.6355 -66.6355 -66.6355 -66.6239
   -66.6218 -66.6218 -66.6217 -66.6217 -66.6217 -66.6217 -66.6216 -66.6215
   -66.6209 -66.6204 -66.6204 -66.6204 -66.6204 -66.6173 -66.6173 -66.6173
   -66.6171 -66.6159 -66.6159 -66.6154 -66.6112 -66.6110 -66.6110 -66.6110
   -66.6110 -66.6110 -66.6109 -66.6107 -66.6097 -66.6097 -66.6097 -66.6096
   -66.6096 -66.6066 -66.6066 -66.6065 -66.6065 -66.6056 -66.6052 -66.6052
   -66.5997 -66.5962 -66.5919 -66.5897 -66.5875 -66.5825 -66.5772 -66.5678
   -66.5657 -57.3123 -57.2008 -57.1594 -56.5313 -56.4714 -56.4158 -54.7303
   -54.6487 -54.6371 -40.9496 -40.9495 -40.9495 -40.9495 -40.9495 -40.9494
   -40.9494 -40.9493 -40.9488 -40.9488 -40.9488 -40.9488 -40.9431 -40.9388
   -40.9235 -40.9227 -40.9227 -40.9227 -40.9225 -40.9220 -40.9220 -40.9143
   -40.9106 -40.9106 -40.9106 -40.9105 -40.9099 -40.9099 -40.9060 -40.9028
   -40.8801 -40.8743 -40.8599 -40.8599 -40.8599 -40.8599 -40.8599 -40.8599
   -40.8598 -40.8598 -40.8592 -40.8592 -40.8592 -40.8592 -40.8384 -40.8355
   -40.8349 -40.8301 -40.8268 -40.8037 -40.8012 -40.8011 -40.8011 -40.8009
   -40.8004 -40.8004 -40.7948 -40.7917 -40.7916 -40.7916 -40.7916 -40.7908
   -40.7908 -40.7817 -40.7802 -40.7802 -40.7802 -40.7802 -40.7796 -40.7796
   -40.7684 -40.7673 -40.7584 -40.7551 -40.7533 -40.7507 -40.7507 -40.7506
   -40.7506 -40.7506 -40.7506 -40.7505 -40.7505 -40.7499 -40.7499 -40.7499
   -40.7499 -40.7492 -40.7436 -40.7420 -40.7419 -40.7419 -40.7417 -40.7412
   -40.7412 -40.7391 -40.7333 -40.7309 -40.7302 -40.7302 -40.7301 -40.7301
   -40.7298 -40.7297 -40.7296 -40.7296 -40.7296 -40.7296 -40.7296 -40.7293
   -40.7293 -40.7292 -40.7288 -40.7288 -40.7288 -40.7288 -40.7277 -40.7255
   -40.7209 -40.7209 -40.7209 -40.7209 -40.7201 -40.7201 -40.7196 -40.7150
   -40.7098 -40.7001 -40.6995 -40.6992 -40.6992 -40.6992 -40.6992 -40.6991
   -40.6990 -40.6990 -40.6983 -40.6983 -40.6983 -40.6983 -40.6823 -40.6792
   -40.6707 -40.6684 -40.6645 -40.6645 -40.6645 -40.6645 -40.6645 -40.6644
   -40.6644 -40.6644 -40.6635 -40.6635 -40.6635 -40.6635 -40.6523 -40.6523
   -40.6523 -40.6522 -40.6514 -40.6514 -40.6432 -40.6403 -40.6334 -40.6331
   -40.6330 -40.6330 -40.6327 -40.6325 -40.6320 -40.6320 -40.6304 -40.6160
   -40.6160 -40.6160 -40.6159 -40.6150 -40.6150 -40.6131 -40.6056 -40.6019
   -40.5863 -40.5854 -40.5853 -40.5853 -40.5852 -40.5843 -40.5843 -40.5815
   -40.5614 -40.5420 -20.1893 -19.9364 -19.8986 -19.8792 -19.8012 -19.7832
   -19.6921 -19.6852 -19.6505 -19.5563 -19.4621 -19.4581 -19.3721 -19.3652
   -19.2670 -19.2608 -19.1728 -19.0384 -18.9506 -18.9007 -18.8433 -18.7998
   -18.7553 -18.7526 -18.7503 -18.7483 -18.7425 -18.7232 -18.6943 -18.6856
   -18.6795 -18.6719 -18.6669 -18.6350 -18.6069 -18.5922 -18.5852 -18.5838
   -18.5798 -18.5600 -18.5563 -18.5259 -18.5185 -18.5086 -18.4988 -18.4868
   -18.4659 -18.4426 -18.4369 -18.4348 -18.4142 -18.3936 -18.3853 -18.3752
   -18.3610 -18.3505 -18.3200 -18.3087 -18.2782 -18.2755 -18.2497 -18.2303
   -18.2261 -18.2153 -18.1991 -18.1748 -18.1675 -18.1509 -18.1421 -18.1296
[...]
     atom  176 type  1   force =    -0.00026830    0.00014884   -0.00011386
     atom  177 type  2   force =     0.00006174   -0.00047391   -0.00104653
     atom  178 type  2   force =    -0.00004297    0.00000395   -0.00006113
     atom  179 type  2   force =    -0.00005970    0.00001968    0.00001815
     atom  180 type  2   force =    -0.00066264    0.00003652   -0.00047927
     atom  181 type  1   force =     0.00000047   -0.00000032    0.00068860
     atom  182 type  1   force =    -0.00001267   -0.00001248    0.00000539
     atom  183 type  2   force =    -0.00000253   -0.00000070    0.00000397
     atom  184 type  2   force =    -0.00000074    0.00000119    0.00161548
     atom  185 type  2   force =    -0.00000084    0.00000076   -0.00236014
     atom  186 type  2   force =    -0.00000471   -0.00000125    0.00002167
     atom  187 type  1   force =     0.00003271    0.00004523    0.00003658
     atom  188 type  1   force =    -0.00008381   -0.00038904   -0.00077340
     atom  189 type  2   force =    -0.00180584    0.00066026    0.00062590
     atom  190 type  2   force =     0.00015040    0.00001488   -0.00008321
     atom  191 type  2   force =    -0.00009662    0.00003570   -0.00000877
     atom  192 type  2   force =     0.00040733    0.00053446   -0.00042024
     atom  193 type  3   force =     0.00022150    0.00221600    0.00048636
     atom  194 type  4   force =     0.00273852    0.00164923    0.00577770
     atom  195 type  3   force =     0.00478435   -0.00762620    0.00287716

     Total force =     0.015726     Total SCF correction =     0.000611
     Energy error            =      3.0E-05 Ry
     Gradient error          =      7.6E-03 Ry/Bohr

     number of scf cycles    =  28
     number of bfgs steps    =  27

     energy             old  =  -35654.9426549256 Ry
     energy             new  =  -35654.9426849451 Ry

     CASE: energy            _new < energy            _old


     WARNING: info=585 for Hessian
     new trust radius        =       0.0154533514 bohr
     new conv_thr            =       0.0000000100 Ry


ATOMIC_POSITIONS (angstrom)
Mo               0.0000119917        1.8193638619       -9.1672481230    0   0   0
Mo               1.5756136568        0.9097075315       -3.0554901653    0   0   0
S                0.0000188998        1.8193822938       -4.6232556019    0   0   0
S                1.5756321638        0.9096773839       -7.6014065489    0   0   0
S                1.5756326175        0.9096785128      -10.7330757790    0   0   0
S                0.0000189190        1.8193860094       -1.4877129945    0   0   0
Mo               0.0000166216        1.8188931952        3.0584175486
Mo               1.5723308247        0.9208880395        9.2089924640
S                0.0113136216        1.7820335037        7.6128623185
S                1.5758354739        0.9086993706        4.6253594791
S                1.5756605619        0.9098915900        1.4900954782
S               -0.1712008404        1.8912089372       10.7615767077
Mo              -1.5756053507        4.5484193819       -9.1672481230    0   0   0
Mo               0.0000378379        3.6387394919       -3.0554952701    0   0   0
S               -1.5755913433        4.5484363582       -4.6232494962    0   0   0
S                0.0000148214        3.6387329039       -7.6014065489    0   0   0
S                0.0000152751        3.6387340328      -10.7330757790    0   0   0
S               -1.5755906502        4.5484413613       -1.4877305502    0   0   0
Mo              -1.5756039375        4.5483121332        3.0587845398
Mo              -0.0438463126        3.6385874417        9.1114291944
S               -1.6047888711        4.5777664156        7.5656602515
S                0.0000658252        3.6381779274        4.6272440163
S               -0.0000669834        3.6385623142        1.4912095150
S               -1.5937358924        4.5546494936       10.7265855469
Mo              -3.1512226931        7.2774749019       -9.1672481230    0   0   0
Mo              -1.5755910988        6.3678216792       -3.0555115988    0   0   0
S               -3.1512162438        7.2774954350       -4.6232578178    0   0   0
S               -1.5756025210        6.3677884239       -7.6014065489    0   0   0
S               -1.5756020673        6.3677895528      -10.7330757790    0   0   0
S               -3.1512127704        7.2774877076       -1.4877200710    0   0   0
Mo              -3.1512326706        7.2776748304        3.0575784749
Mo              -1.6021720279        6.3740765863        9.1711810711
S               -3.1631376369        7.3003568016        7.6049669591
S               -1.5756535006        6.3687907058        4.6256377138
S               -1.5755400416        6.3671123235        1.4902532155
S               -3.1685009515        7.2687069223       10.7542933317
Mo              -4.7268400355       10.0065304219       -9.1672481230    0   0   0
Mo              -3.1512405618        9.0968403586       -3.0554816746    0   0   0
S               -4.7268341792       10.0065523623       -4.6232463762    0   0   0
S               -3.1512198634        9.0968439439       -7.6014065489    0   0   0
S               -3.1512194097        9.0968450728      -10.7330757790    0   0   0
S               -4.7268370797       10.0065537885       -1.4877176751    0   0   0
Mo              -4.7268522510       10.0063454618        3.0570898299
Mo              -3.1500544371        9.0973253692        9.1987732334
S               -4.7283766892       10.0326153666        7.6600437405
S               -3.1515827694        9.0971144133        4.6253897368
S               -3.1512971457        9.0966314026        1.4894004301
S               -4.7285926173        9.9367162518       10.8361204031
Mo               3.1512517547        1.8193638619       -9.1672481230    0   0   0
Mo               4.7269020221        0.9097289540       -3.0554823951    0   0   0
S                3.1512612351        1.8193882564       -4.6232320683    0   0   0
S                4.7268719268        0.9096773839       -7.6014065489    0   0   0
S                4.7268723805        0.9096785128      -10.7330757790    0   0   0
S                3.1512592485        1.8193890201       -1.4877261251    0   0   0
Mo               3.1514812046        1.8188867039        3.0581291254
Mo               4.7491336495        0.8998499796        9.1581005714
S                3.1392535546        1.7888764129        7.6193211952
S                4.7274730071        0.9087140684        4.6254569783
S                4.7266511652        0.9094766991        1.4897393116
S                3.2829428858        1.8654965166       10.7809546567
Mo               1.5756344123        4.5484193819       -9.1672481230    0   0   0
Mo               3.1512756394        3.6387769522       -3.0554814834    0   0   0
S                1.5756504879        4.5484423799       -4.6232390542    0   0   0
S                3.1512545844        3.6387329039       -7.6014065489    0   0   0
S                3.1512550381        3.6387340328      -10.7330757790    0   0   0
S                1.5756466253        4.5484431864       -1.4877251801    0   0   0
Mo               1.5757480060        4.5481140724        3.0590599907
Mo               3.1962753650        3.6278778880        9.1504820707
S                1.5913772090        4.5598329959        7.6125829486
S                3.1518488577        3.6381421413        4.6264281886
S                3.1514648760        3.6386692846        1.4909518588
S                1.5821668435        4.3933730957       10.7007067659
Mo               0.0000170699        7.2774749019       -9.1672481230    0   0   0
Mo               1.5756764447        6.3678236689       -3.0554877708    0   0   0
S                0.0000381981        7.2774979204       -4.6232454413    0   0   0
S                1.5756372420        6.3677884239       -7.6014065489    0   0   0
S                1.5756376957        6.3677895528      -10.7330757790    0   0   0
S                0.0000328088        7.2774946042       -1.4877307940    0   0   0
Mo               0.0002211118        7.2770160845        3.0577949189
Mo               1.5737849034        6.3651975595        9.1947441493
S                0.0063989856        7.2721602982        7.6314438702
S                1.5755386164        6.3676505645        4.6266285898
S                1.5756110168        6.3668259868        1.4902334705
S               -0.0935390206        7.3280762230       10.7898743807
Mo              -1.5756002725       10.0065304219       -9.1672481230    0   0   0
Mo               0.0000873425        9.0968676911       -3.0554912329    0   0   0
S               -1.5755883952       10.0065504530       -4.6232240150    0   0   0
S                0.0000198996        9.0968439439       -7.6014065489    0   0   0
S                0.0000203533        9.0968450728      -10.7330757790    0   0   0
S               -1.5755859047       10.0065492576       -1.4877362381    0   0   0
Mo              -1.5755759029       10.0059731609        3.0574606833
Mo              -0.0102390242        9.1093312682        9.1730586631
S               -1.5890568811        9.9931818848        7.6000030564
S               -0.0003363512        9.0961068892        4.6257808692
S                0.0003130719        9.0960266583        1.4897977784
S               -1.5720923954       10.0215836041       10.7498240989
Mo               6.3024915177        1.8193638619       -9.1672481230    0   0   0
Mo               7.8781001445        0.9096521684       -3.0554919963    0   0   0
S                6.3025008696        1.8193826232       -4.6232480596    0   0   0
S                7.8781116898        0.9096773839       -7.6014065489    0   0   0
S                7.8781121435        0.9096785128      -10.7330757790    0   0   0
S                6.3025042007        1.8193849068       -1.4877147524    0   0   0
Mo               6.3026139173        1.8189008617        3.0572571385
Mo               7.8721892536        0.9121660554        9.1431337234
S                6.3026274177        1.8204729045        7.5727744296
S                7.8778650465        0.9087337354        4.6249192067
S                7.8781228242        0.9088136250        1.4897084242
S                6.3217129344        1.8283007215       10.7197847577
Mo               4.7268741753        4.5484193819       -9.1672481230    0   0   0
Mo               6.3024679138        3.6387501714       -3.0554895197    0   0   0
S                4.7268748770        4.5484386753       -4.6232519432    0   0   0
S                6.3024943474        3.6387329039       -7.6014065489    0   0   0
S                6.3024948011        3.6387340328      -10.7330757790    0   0   0
S                4.7268770533        4.5484432419       -1.4877137856    0   0   0
Mo               4.7272396737        4.5484518727        3.0583765587
Mo               6.3093102575        3.6433558179        9.1473074982
S                4.7414411711        4.5668207036        7.5786731726
S                6.3031334901        3.6382740349        4.6249664220
S                6.3026131146        3.6388375711        1.4898626552
S                4.7473746610        4.5502505666       10.7259913190
Mo               3.1512568329        7.2774749019       -9.1672481230    0   0   0
Mo               4.7268384135        6.3678043337       -3.0554959052    0   0   0
S                3.1512606125        7.2774972547       -4.6232589675    0   0   0
S                4.7268770050        6.3677884239       -7.6014065489    0   0   0
S                4.7268774587        6.3677895528      -10.7330757790    0   0   0
S                3.1512629079        7.2774963749       -1.4877081835    0   0   0
Mo               3.1510621328        7.2768978627        3.0578374110
Mo               4.7340423280        6.3722884399        9.1788219424
S                3.1337936541        7.2734682460        7.6348476772
S                4.7270664697        6.3685175863        4.6257628968
S                4.7271406353        6.3674909187        1.4901841784
S                3.2148675763        7.3150277258       10.8110057000
Mo               1.5756394905       10.0065304219       -9.1672481230    0   0   0
Mo               3.1512330605        9.0968514907       -3.0554878870    0   0   0
S                1.5756499830       10.0065443759       -4.6232632674    0   0   0
S                3.1512596626        9.0968439439       -7.6014065489    0   0   0
S                3.1512601163        9.0968450728      -10.7330757790    0   0   0
S                1.5756503041       10.0065459699       -1.4877044377    0   0   0
Mo               1.5755514034       10.0056306206        3.0577910096
Mo               3.1492192683        9.1026784193        9.1810666831
S                1.5726442072        9.9940479166        7.5945709145
S                3.1512444868        9.0959720393        4.6256843955
S                3.1508976896        9.0959432915        1.4897972040
S                1.5675555202       10.0187206983       10.7305974897
Mo               9.4537312807        1.8193638619       -9.1672481230    0   0   0
Mo              11.0293863460        0.9096952246       -3.0554894007    0   0   0
S                9.4537395970        1.8193770750       -4.6232328036    0   0   0
S               11.0293514528        0.9096773839       -7.6014065489    0   0   0
S               11.0293519066        0.9096785128      -10.7330757790    0   0   0
S                9.4537393632        1.8193794783       -1.4877366147    0   0   0
Mo               9.4535492537        1.8187172425        3.0574255022
Mo              10.9938582657        0.8920247136        9.1516253982
S                9.4423636475        1.8204396294        7.5672822233
S               11.0289093569        0.9085196962        4.6254908610
S               11.0295250000        0.9093436036        1.4901209472
S                9.4233875495        1.8241942154       10.7141159128
Mo               7.8781139383        4.5484193819       -9.1672481230    0   0   0
Mo               9.4537539161        3.6387607911       -3.0554933032    0   0   0
S                7.8781175448        4.5484378232       -4.6232366318    0   0   0
S                9.4537341104        3.6387329039       -7.6014065489    0   0   0
S                9.4537345641        3.6387340328      -10.7330757790    0   0   0
S                7.8781194018        4.5484411585       -1.4877377057    0   0   0
Mo               7.8782319295        4.5485627231        3.0574441879
Mo               9.4445716421        3.6439588964        9.1439325455
S                7.8766942361        4.5663465152        7.5799492401
S                9.4531018394        3.6380500403        4.6247213319
S                9.4541306712        3.6387321761        1.4900675811
S                7.8787877881        4.5445672051       10.7221156330
Mo               6.3024965959        7.2774749019       -9.1672481230    0   0   0
Mo               7.8781361655        6.3678242352       -3.0555014130    0   0   0
S                6.3024973331        7.2774953556       -4.6232392528    0   0   0
S                7.8781167680        6.3677884239       -7.6014065489    0   0   0
S                7.8781172217        6.3677895528      -10.7330757790    0   0   0
S                6.3024989866        7.2774929744       -1.4877349119    0   0   0
Mo               6.3027123337        7.2776763364        3.0577142991
Mo               7.8732078450        6.3749340497        9.1685246182
S                6.2979118559        7.2974784030        7.6113280945
S                7.8782009608        6.3683124848        4.6254054421
S                7.8783413943        6.3677882646        1.4897115362
S                6.3067432343        7.2680007791       10.7544202866
Mo               4.7268792535       10.0065304219       -9.1672481230    0   0   0
Mo               6.3025111524        9.0968738021       -3.0554915260    0   0   0
S                4.7268840634       10.0065452125       -4.6232380477    0   0   0
S                6.3024994256        9.0968439439       -7.6014065489    0   0   0
S                6.3024998793        9.0968450728      -10.7330757790    0   0   0
S                4.7268847312       10.0065459141       -1.4877283294    0   0   0
Mo               4.7268133338       10.0057322621        3.0576392824
Mo               6.2932516641        9.0990275077        9.1999848937
S                4.7275076418        9.9830898526        7.5988110543
S                6.3029569263        9.0970661918        4.6256523211
S                6.3025575931        9.0965357593        1.4895335009
S                4.7133029149       10.0201001316       10.7501873384
Pt               1.5116278768        6.1739616228       12.0301601548
Pd               0.3565317387        3.6093740372       12.4878970891
Pt               1.5010262878        1.0745763879       12.0075873792



     Writing config-only to output data dir ./outdir/pwscf.save/ :
     XML data file
     NEW-OLD atomic charge density approx. for the potential

     negative rho (up, down):  9.079E-04 0.000E+00

     total cpu time spent up to now is   254717.2 secs

     Self-consistent Calculation

     iteration #  1     ecut=    77.00 Ry     beta= 0.20
     Davidson diagonalization with overlap
     ethr =  1.00E-06,  avg # of iterations = 10.2

     Threshold (ethr) on eigenvalues was too large:
     Diagonalizing with lowered threshold

     Davidson diagonalization with overlap
     c_bands:  4 eigenvalues not converged
     c_bands:  2 eigenvalues not converged
     c_bands:  3 eigenvalues not converged
     c_bands:  3 eigenvalues not converged
     ethr =  4.98E-09,  avg # of iterations = 20.0

     negative rho (up, down):  9.076E-04 0.000E+00

     total cpu time spent up to now is   256519.2 secs

     total energy              =  -35654.94274536 Ry
     estimated scf accuracy    <       0.00005111 Ry

     iteration #  2     ecut=    77.00 Ry     beta= 0.20
     Davidson diagonalization with overlap
     ethr =  2.93E-09,  avg # of iterations =  9.0

     negative rho (up, down):  9.073E-04 0.000E+00

     total cpu time spent up to now is   256965.2 secs

     total energy              =  -35654.94273519 Ry
     estimated scf accuracy    <       0.00001652 Ry

     iteration #  3     ecut=    77.00 Ry     beta= 0.20
     Davidson diagonalization with overlap
     ethr =  9.46E-10,  avg # of iterations =  9.8

     negative rho (up, down):  9.072E-04 0.000E+00

     total cpu time spent up to now is   257477.8 secs

     total energy              =  -35654.94272886 Ry
     estimated scf accuracy    <       0.00000747 Ry

     iteration #  4     ecut=    77.00 Ry     beta= 0.20
     Davidson diagonalization with overlap
     ethr =  4.28E-10,  avg # of iterations =  8.0

     negative rho (up, down):  9.072E-04 0.000E+00

     total cpu time spent up to now is   257944.1 secs

     total energy              =  -35654.94272316 Ry
     estimated scf accuracy    <       0.00000381 Ry

     iteration #  5     ecut=    77.00 Ry     beta= 0.20
     Davidson diagonalization with overlap
     ethr =  2.18E-10,  avg # of iterations = 10.5

     negative rho (up, down):  9.073E-04 0.000E+00

     total cpu time spent up to now is   258527.9 secs

     total energy              =  -35654.94272082 Ry
     estimated scf accuracy    <       0.00000160 Ry

     iteration #  6     ecut=    77.00 Ry     beta= 0.20
     Davidson diagonalization with overlap
     ethr =  9.18E-11,  avg # of iterations =  8.0

     negative rho (up, down):  9.075E-04 0.000E+00

     total cpu time spent up to now is   259006.0 secs

     total energy              =  -35654.94271962 Ry
     estimated scf accuracy    <       0.00000057 Ry

     iteration #  7     ecut=    77.00 Ry     beta= 0.20
     Davidson diagonalization with overlap
