lammps.data (written by ASE) 

1620 	 atoms 
2  atom types
0.0      28.730159999999998  xlo xhi
0.0      27.645609350000001  ylo yhi
0.0      56.574100000000001  zlo zhi
                      0                       0                       0  xy xz yz


Atoms 

     1   1      3.1922240388000005      1.8430498385364502            18.253067624
     2   1      1.5961040388000001      4.6076107735364502            18.253067624
     3   1      1.5961359612000001     0.92151109646355012      11.564311781000001
     4   1  1.5961200000000019e-05      3.6860720314635502      11.564311781000001
     5   2      3.1922240388000005      1.8430498385364502            10.000037916
     6   2      1.5961040388000001      4.6076107735364502            10.000037916
     7   2      1.5961359612000001     0.92151109646355012            19.817341489
     8   2  1.5961200000000019e-05      3.6860720314635502            19.817341489
     9   2      1.5961359612000001     0.92151109646355012      16.689359499999995
    10   2  1.5961200000000019e-05      3.6860720314635502      16.689359499999995
    11   2      3.1922240388000005      1.8430498385364502      13.128585645999998
    12   2      1.5961040388000001      4.6076107735364502      13.128585645999998
    13   1      3.1922240388000005      1.8430498385364502      31.631710791999993
    14   1      1.5961040388000001      4.6076107735364502      31.631710791999993
    15   1      1.5961359612000001     0.92151109646355012      24.942389208000002
    16   1  1.5961200000000019e-05      3.6860720314635502      24.942389208000002
    17   2      3.1922240388000005      1.8430498385364502      23.378115343000001
    18   2      1.5961040388000001      4.6076107735364502      23.378115343000001
    19   2      1.5961359612000001     0.92151109646355012      33.195984657000004
    20   2  1.5961200000000019e-05      3.6860720314635502      33.195984657000004
    21   2      1.5961359612000001     0.92151109646355012      30.067436926999999
    22   2  1.5961200000000019e-05      3.6860720314635502      30.067436926999999
    23   2      3.1922240388000005      1.8430498385364502      26.506663073000002
    24   2      1.5961040388000001      4.6076107735364502      26.506663073000002
    25   1      3.1922240388000005      1.8430498385364502      45.009788218999994
    26   1      1.5961040388000001      4.6076107735364502      45.009788218999994
    27   1      1.5961359612000001     0.92151109646355012      38.321032375999998
    28   1  1.5961200000000019e-05      3.6860720314635502      38.321032375999998
    29   2      3.1922240388000005      1.8430498385364502      36.756758511000001
    30   2      1.5961040388000001      4.6076107735364502      36.756758511000001
    31   2      1.5961359612000001     0.92151109646355012      46.574062083999991
    32   2  1.5961200000000019e-05      3.6860720314635502      46.574062083999991
    33   2      1.5961359612000001     0.92151109646355012       43.44551435399999
    34   2  1.5961200000000019e-05      3.6860720314635502       43.44551435399999
    35   2      3.1922240388000005      1.8430498385364502      39.884740499999999
    36   2      1.5961040388000001      4.6076107735364502      39.884740499999999
    37   1      3.1922240388000005      7.3721717085364515            18.253067624
    38   1      1.5961040388000001      10.136732643536451            18.253067624
    39   1      1.5961359612000001      6.4506329664635516      11.564311781000001
    40   1  1.5961200000000019e-05      9.2151939014635502      11.564311781000001
    41   2      3.1922240388000005      7.3721717085364515            10.000037916
    42   2      1.5961040388000001      10.136732643536451            10.000037916
    43   2      1.5961359612000001      6.4506329664635516            19.817341489
    44   2  1.5961200000000019e-05      9.2151939014635502            19.817341489
    45   2      1.5961359612000001      6.4506329664635516      16.689359499999995
    46   2  1.5961200000000019e-05      9.2151939014635502      16.689359499999995
    47   2      3.1922240388000005      7.3721717085364515      13.128585645999998
    48   2      1.5961040388000001      10.136732643536451      13.128585645999998
    49   1      3.1922240388000005      7.3721717085364515      31.631710791999993
    50   1      1.5961040388000001      10.136732643536451      31.631710791999993
    51   1      1.5961359612000001      6.4506329664635516      24.942389208000002
    52   1  1.5961200000000019e-05      9.2151939014635502      24.942389208000002
    53   2      3.1922240388000005      7.3721717085364515      23.378115343000001
    54   2      1.5961040388000001      10.136732643536451      23.378115343000001
    55   2      1.5961359612000001      6.4506329664635516      33.195984657000004
    56   2  1.5961200000000019e-05      9.2151939014635502      33.195984657000004
    57   2      1.5961359612000001      6.4506329664635516      30.067436926999999
    58   2  1.5961200000000019e-05      9.2151939014635502      30.067436926999999
    59   2      3.1922240388000005      7.3721717085364515      26.506663073000002
    60   2      1.5961040388000001      10.136732643536451      26.506663073000002
    61   1      3.1922240388000005      7.3721717085364515      45.009788218999994
    62   1      1.5961040388000001      10.136732643536451      45.009788218999994
    63   1      1.5961359612000001      6.4506329664635516      38.321032375999998
    64   1  1.5961200000000019e-05      9.2151939014635502      38.321032375999998
    65   2      3.1922240388000005      7.3721717085364515      36.756758511000001
    66   2      1.5961040388000001      10.136732643536451      36.756758511000001
    67   2      1.5961359612000001      6.4506329664635516      46.574062083999991
    68   2  1.5961200000000019e-05      9.2151939014635502      46.574062083999991
    69   2      1.5961359612000001      6.4506329664635516       43.44551435399999
    70   2  1.5961200000000019e-05      9.2151939014635502       43.44551435399999
    71   2      3.1922240388000005      7.3721717085364515      39.884740499999999
    72   2      1.5961040388000001      10.136732643536451      39.884740499999999
    73   1      3.1922240388000005      12.901293578536452            18.253067624
    74   1      1.5961040388000001      15.665854513536452            18.253067624
    75   1      1.5961359612000001      11.979754836463552      11.564311781000001
    76   1  1.5961200000000019e-05      14.744315771463553      11.564311781000001
    77   2      3.1922240388000005      12.901293578536452            10.000037916
    78   2      1.5961040388000001      15.665854513536452            10.000037916
    79   2      1.5961359612000001      11.979754836463552            19.817341489
    80   2  1.5961200000000019e-05      14.744315771463553            19.817341489
    81   2      1.5961359612000001      11.979754836463552      16.689359499999995
    82   2  1.5961200000000019e-05      14.744315771463553      16.689359499999995
    83   2      3.1922240388000005      12.901293578536452      13.128585645999998
    84   2      1.5961040388000001      15.665854513536452      13.128585645999998
    85   1      3.1922240388000005      12.901293578536452      31.631710791999993
    86   1      1.5961040388000001      15.665854513536452      31.631710791999993
    87   1      1.5961359612000001      11.979754836463552      24.942389208000002
    88   1  1.5961200000000019e-05      14.744315771463553      24.942389208000002
    89   2      3.1922240388000005      12.901293578536452      23.378115343000001
    90   2      1.5961040388000001      15.665854513536452      23.378115343000001
    91   2      1.5961359612000001      11.979754836463552      33.195984657000004
    92   2  1.5961200000000019e-05      14.744315771463553      33.195984657000004
    93   2      1.5961359612000001      11.979754836463552      30.067436926999999
    94   2  1.5961200000000019e-05      14.744315771463553      30.067436926999999
    95   2      3.1922240388000005      12.901293578536452      26.506663073000002
    96   2      1.5961040388000001      15.665854513536452      26.506663073000002
    97   1      3.1922240388000005      12.901293578536452      45.009788218999994
    98   1      1.5961040388000001      15.665854513536452      45.009788218999994
    99   1      1.5961359612000001      11.979754836463552      38.321032375999998
   100   1  1.5961200000000019e-05      14.744315771463553      38.321032375999998
   101   2      3.1922240388000005      12.901293578536452      36.756758511000001
   102   2      1.5961040388000001      15.665854513536452      36.756758511000001
   103   2      1.5961359612000001      11.979754836463552      46.574062083999991
   104   2  1.5961200000000019e-05      14.744315771463553      46.574062083999991
   105   2      1.5961359612000001      11.979754836463552       43.44551435399999
   106   2  1.5961200000000019e-05      14.744315771463553       43.44551435399999
   107   2      3.1922240388000005      12.901293578536452      39.884740499999999
   108   2      1.5961040388000001      15.665854513536452      39.884740499999999
   109   1      3.1922240388000005      18.430415448536454            18.253067624
   110   1      1.5961040388000001      21.194976383536453            18.253067624
   111   1      1.5961359612000001      17.508876706463553      11.564311781000001
   112   1  1.5961200000000019e-05      20.273437641463556      11.564311781000001
   113   2      3.1922240388000005      18.430415448536454            10.000037916
   114   2      1.5961040388000001      21.194976383536453            10.000037916
   115   2      1.5961359612000001      17.508876706463553            19.817341489
   116   2  1.5961200000000019e-05      20.273437641463556            19.817341489
   117   2      1.5961359612000001      17.508876706463553      16.689359499999995
   118   2  1.5961200000000019e-05      20.273437641463556      16.689359499999995
   119   2      3.1922240388000005      18.430415448536454      13.128585645999998
   120   2      1.5961040388000001      21.194976383536453      13.128585645999998
   121   1      3.1922240388000005      18.430415448536454      31.631710791999993
   122   1      1.5961040388000001      21.194976383536453      31.631710791999993
   123   1      1.5961359612000001      17.508876706463553      24.942389208000002
   124   1  1.5961200000000019e-05      20.273437641463556      24.942389208000002
   125   2      3.1922240388000005      18.430415448536454      23.378115343000001
   126   2      1.5961040388000001      21.194976383536453      23.378115343000001
   127   2      1.5961359612000001      17.508876706463553      33.195984657000004
   128   2  1.5961200000000019e-05      20.273437641463556      33.195984657000004
   129   2      1.5961359612000001      17.508876706463553      30.067436926999999
   130   2  1.5961200000000019e-05      20.273437641463556      30.067436926999999
   131   2      3.1922240388000005      18.430415448536454      26.506663073000002
   132   2      1.5961040388000001      21.194976383536453      26.506663073000002
   133   1      3.1922240388000005      18.430415448536454      45.009788218999994
   134   1      1.5961040388000001      21.194976383536453      45.009788218999994
   135   1      1.5961359612000001      17.508876706463553      38.321032375999998
   136   1  1.5961200000000019e-05      20.273437641463556      38.321032375999998
   137   2      3.1922240388000005      18.430415448536454      36.756758511000001
   138   2      1.5961040388000001      21.194976383536453      36.756758511000001
   139   2      1.5961359612000001      17.508876706463553      46.574062083999991
   140   2  1.5961200000000019e-05      20.273437641463556      46.574062083999991
   141   2      1.5961359612000001      17.508876706463553       43.44551435399999
   142   2  1.5961200000000019e-05      20.273437641463556       43.44551435399999
   143   2      3.1922240388000005      18.430415448536454      39.884740499999999
   144   2      1.5961040388000001      21.194976383536453      39.884740499999999
   145   1      3.1922240388000005      23.959537318536455            18.253067624
   146   1      1.5961040388000001      26.724098253536454            18.253067624
   147   1      1.5961359612000001      23.037998576463558      11.564311781000001
   148   1  1.5961200000000019e-05      25.802559511463553      11.564311781000001
   149   2      3.1922240388000005      23.959537318536455            10.000037916
   150   2      1.5961040388000001      26.724098253536454            10.000037916
   151   2      1.5961359612000001      23.037998576463558            19.817341489
   152   2  1.5961200000000019e-05      25.802559511463553            19.817341489
   153   2      1.5961359612000001      23.037998576463558      16.689359499999995
   154   2  1.5961200000000019e-05      25.802559511463553      16.689359499999995
   155   2      3.1922240388000005      23.959537318536455      13.128585645999998
   156   2      1.5961040388000001      26.724098253536454      13.128585645999998
   157   1      3.1922240388000005      23.959537318536455      31.631710791999993
   158   1      1.5961040388000001      26.724098253536454      31.631710791999993
   159   1      1.5961359612000001      23.037998576463558      24.942389208000002
   160   1  1.5961200000000019e-05      25.802559511463553      24.942389208000002
   161   2      3.1922240388000005      23.959537318536455      23.378115343000001
   162   2      1.5961040388000001      26.724098253536454      23.378115343000001
   163   2      1.5961359612000001      23.037998576463558      33.195984657000004
   164   2  1.5961200000000019e-05      25.802559511463553      33.195984657000004
   165   2      1.5961359612000001      23.037998576463558      30.067436926999999
   166   2  1.5961200000000019e-05      25.802559511463553      30.067436926999999
   167   2      3.1922240388000005      23.959537318536455      26.506663073000002
   168   2      1.5961040388000001      26.724098253536454      26.506663073000002
   169   1      3.1922240388000005      23.959537318536455      45.009788218999994
   170   1      1.5961040388000001      26.724098253536454      45.009788218999994
   171   1      1.5961359612000001      23.037998576463558      38.321032375999998
   172   1  1.5961200000000019e-05      25.802559511463553      38.321032375999998
   173   2      3.1922240388000005      23.959537318536455      36.756758511000001
   174   2      1.5961040388000001      26.724098253536454      36.756758511000001
   175   2      1.5961359612000001      23.037998576463558      46.574062083999991
   176   2  1.5961200000000019e-05      25.802559511463553      46.574062083999991
   177   2      1.5961359612000001      23.037998576463558       43.44551435399999
   178   2  1.5961200000000019e-05      25.802559511463553       43.44551435399999
   179   2      3.1922240388000005      23.959537318536455      39.884740499999999
   180   2      1.5961040388000001      26.724098253536454      39.884740499999999
   181   1      6.3844640387999991      1.8430498385364502            18.253067624
   182   1            4.7883440388      4.6076107735364502            18.253067624
   183   1      4.7883759611999999     0.92151109646355012      11.564311781000001
   184   1      3.1922559611999999      3.6860720314635502      11.564311781000001
   185   2      6.3844640387999991      1.8430498385364502            10.000037916
   186   2            4.7883440388      4.6076107735364502            10.000037916
   187   2      4.7883759611999999     0.92151109646355012            19.817341489
   188   2      3.1922559611999999      3.6860720314635502            19.817341489
   189   2      4.7883759611999999     0.92151109646355012      16.689359499999995
   190   2      3.1922559611999999      3.6860720314635502      16.689359499999995
   191   2      6.3844640387999991      1.8430498385364502      13.128585645999998
   192   2            4.7883440388      4.6076107735364502      13.128585645999998
   193   1      6.3844640387999991      1.8430498385364502      31.631710791999993
   194   1            4.7883440388      4.6076107735364502      31.631710791999993
   195   1      4.7883759611999999     0.92151109646355012      24.942389208000002
   196   1      3.1922559611999999      3.6860720314635502      24.942389208000002
   197   2      6.3844640387999991      1.8430498385364502      23.378115343000001
   198   2            4.7883440388      4.6076107735364502      23.378115343000001
   199   2      4.7883759611999999     0.92151109646355012      33.195984657000004
   200   2      3.1922559611999999      3.6860720314635502      33.195984657000004
   201   2      4.7883759611999999     0.92151109646355012      30.067436926999999
   202   2      3.1922559611999999      3.6860720314635502      30.067436926999999
   203   2      6.3844640387999991      1.8430498385364502      26.506663073000002
   204   2            4.7883440388      4.6076107735364502      26.506663073000002
   205   1      6.3844640387999991      1.8430498385364502      45.009788218999994
   206   1            4.7883440388      4.6076107735364502      45.009788218999994
   207   1      4.7883759611999999     0.92151109646355012      38.321032375999998
   208   1      3.1922559611999999      3.6860720314635502      38.321032375999998
   209   2      6.3844640387999991      1.8430498385364502      36.756758511000001
   210   2            4.7883440388      4.6076107735364502      36.756758511000001
   211   2      4.7883759611999999     0.92151109646355012      46.574062083999991
   212   2      3.1922559611999999      3.6860720314635502      46.574062083999991
   213   2      4.7883759611999999     0.92151109646355012       43.44551435399999
   214   2      3.1922559611999999      3.6860720314635502       43.44551435399999
   215   2      6.3844640387999991      1.8430498385364502      39.884740499999999
   216   2            4.7883440388      4.6076107735364502      39.884740499999999
   217   1      6.3844640387999991      7.3721717085364515            18.253067624
   218   1            4.7883440388      10.136732643536451            18.253067624
   219   1      4.7883759611999999      6.4506329664635516      11.564311781000001
   220   1      3.1922559611999999      9.2151939014635502      11.564311781000001
   221   2      6.3844640387999991      7.3721717085364515            10.000037916
   222   2            4.7883440388      10.136732643536451            10.000037916
   223   2      4.7883759611999999      6.4506329664635516            19.817341489
   224   2      3.1922559611999999      9.2151939014635502            19.817341489
   225   2      4.7883759611999999      6.4506329664635516      16.689359499999995
   226   2      3.1922559611999999      9.2151939014635502      16.689359499999995
   227   2      6.3844640387999991      7.3721717085364515      13.128585645999998
   228   2            4.7883440388      10.136732643536451      13.128585645999998
   229   1      6.3844640387999991      7.3721717085364515      31.631710791999993
   230   1            4.7883440388      10.136732643536451      31.631710791999993
   231   1      4.7883759611999999      6.4506329664635516      24.942389208000002
   232   1      3.1922559611999999      9.2151939014635502      24.942389208000002
   233   2      6.3844640387999991      7.3721717085364515      23.378115343000001
   234   2            4.7883440388      10.136732643536451      23.378115343000001
   235   2      4.7883759611999999      6.4506329664635516      33.195984657000004
   236   2      3.1922559611999999      9.2151939014635502      33.195984657000004
   237   2      4.7883759611999999      6.4506329664635516      30.067436926999999
   238   2      3.1922559611999999      9.2151939014635502      30.067436926999999
   239   2      6.3844640387999991      7.3721717085364515      26.506663073000002
   240   2            4.7883440388      10.136732643536451      26.506663073000002
   241   1      6.3844640387999991      7.3721717085364515      45.009788218999994
   242   1            4.7883440388      10.136732643536451      45.009788218999994
   243   1      4.7883759611999999      6.4506329664635516      38.321032375999998
   244   1      3.1922559611999999      9.2151939014635502      38.321032375999998
   245   2      6.3844640387999991      7.3721717085364515      36.756758511000001
   246   2            4.7883440388      10.136732643536451      36.756758511000001
   247   2      4.7883759611999999      6.4506329664635516      46.574062083999991
   248   2      3.1922559611999999      9.2151939014635502      46.574062083999991
   249   2      4.7883759611999999      6.4506329664635516       43.44551435399999
   250   2      3.1922559611999999      9.2151939014635502       43.44551435399999
   251   2      6.3844640387999991      7.3721717085364515      39.884740499999999
   252   2            4.7883440388      10.136732643536451      39.884740499999999
   253   1      6.3844640387999991      12.901293578536452            18.253067624
   254   1            4.7883440388      15.665854513536452            18.253067624
   255   1      4.7883759611999999      11.979754836463552      11.564311781000001
   256   1      3.1922559611999999      14.744315771463553      11.564311781000001
   257   2      6.3844640387999991      12.901293578536452            10.000037916
   258   2            4.7883440388      15.665854513536452            10.000037916
   259   2      4.7883759611999999      11.979754836463552            19.817341489
   260   2      3.1922559611999999      14.744315771463553            19.817341489
   261   2      4.7883759611999999      11.979754836463552      16.689359499999995
   262   2      3.1922559611999999      14.744315771463553      16.689359499999995
   263   2      6.3844640387999991      12.901293578536452      13.128585645999998
   264   2            4.7883440388      15.665854513536452      13.128585645999998
   265   1      6.3844640387999991      12.901293578536452      31.631710791999993
   266   1            4.7883440388      15.665854513536452      31.631710791999993
   267   1      4.7883759611999999      11.979754836463552      24.942389208000002
   268   1      3.1922559611999999      14.744315771463553      24.942389208000002
   269   2      6.3844640387999991      12.901293578536452      23.378115343000001
   270   2            4.7883440388      15.665854513536452      23.378115343000001
   271   2      4.7883759611999999      11.979754836463552      33.195984657000004
   272   2      3.1922559611999999      14.744315771463553      33.195984657000004
   273   2      4.7883759611999999      11.979754836463552      30.067436926999999
   274   2      3.1922559611999999      14.744315771463553      30.067436926999999
   275   2      6.3844640387999991      12.901293578536452      26.506663073000002
   276   2            4.7883440388      15.665854513536452      26.506663073000002
   277   1      6.3844640387999991      12.901293578536452      45.009788218999994
   278   1            4.7883440388      15.665854513536452      45.009788218999994
   279   1      4.7883759611999999      11.979754836463552      38.321032375999998
   280   1      3.1922559611999999      14.744315771463553      38.321032375999998
   281   2      6.3844640387999991      12.901293578536452      36.756758511000001
   282   2            4.7883440388      15.665854513536452      36.756758511000001
   283   2      4.7883759611999999      11.979754836463552      46.574062083999991
   284   2      3.1922559611999999      14.744315771463553      46.574062083999991
   285   2      4.7883759611999999      11.979754836463552       43.44551435399999
   286   2      3.1922559611999999      14.744315771463553       43.44551435399999
   287   2      6.3844640387999991      12.901293578536452      39.884740499999999
   288   2            4.7883440388      15.665854513536452      39.884740499999999
   289   1      6.3844640387999991      18.430415448536454            18.253067624
   290   1            4.7883440388      21.194976383536453            18.253067624
   291   1      4.7883759611999999      17.508876706463553      11.564311781000001
   292   1      3.1922559611999999      20.273437641463556      11.564311781000001
   293   2      6.3844640387999991      18.430415448536454            10.000037916
   294   2            4.7883440388      21.194976383536453            10.000037916
   295   2      4.7883759611999999      17.508876706463553            19.817341489
   296   2      3.1922559611999999      20.273437641463556            19.817341489
   297   2      4.7883759611999999      17.508876706463553      16.689359499999995
   298   2      3.1922559611999999      20.273437641463556      16.689359499999995
   299   2      6.3844640387999991      18.430415448536454      13.128585645999998
   300   2            4.7883440388      21.194976383536453      13.128585645999998
   301   1      6.3844640387999991      18.430415448536454      31.631710791999993
   302   1            4.7883440388      21.194976383536453      31.631710791999993
   303   1      4.7883759611999999      17.508876706463553      24.942389208000002
   304   1      3.1922559611999999      20.273437641463556      24.942389208000002
   305   2      6.3844640387999991      18.430415448536454      23.378115343000001
   306   2            4.7883440388      21.194976383536453      23.378115343000001
   307   2      4.7883759611999999      17.508876706463553      33.195984657000004
   308   2      3.1922559611999999      20.273437641463556      33.195984657000004
   309   2      4.7883759611999999      17.508876706463553      30.067436926999999
   310   2      3.1922559611999999      20.273437641463556      30.067436926999999
   311   2      6.3844640387999991      18.430415448536454      26.506663073000002
   312   2            4.7883440388      21.194976383536453      26.506663073000002
   313   1      6.3844640387999991      18.430415448536454      45.009788218999994
   314   1            4.7883440388      21.194976383536453      45.009788218999994
   315   1      4.7883759611999999      17.508876706463553      38.321032375999998
   316   1      3.1922559611999999      20.273437641463556      38.321032375999998
   317   2      6.3844640387999991      18.430415448536454      36.756758511000001
   318   2            4.7883440388      21.194976383536453      36.756758511000001
   319   2      4.7883759611999999      17.508876706463553      46.574062083999991
   320   2      3.1922559611999999      20.273437641463556      46.574062083999991
   321   2      4.7883759611999999      17.508876706463553       43.44551435399999
   322   2      3.1922559611999999      20.273437641463556       43.44551435399999
   323   2      6.3844640387999991      18.430415448536454      39.884740499999999
   324   2            4.7883440388      21.194976383536453      39.884740499999999
   325   1      6.3844640387999991      23.959537318536455            18.253067624
   326   1            4.7883440388      26.724098253536454            18.253067624
   327   1      4.7883759611999999      23.037998576463558      11.564311781000001
   328   1      3.1922559611999999      25.802559511463553      11.564311781000001
   329   2      6.3844640387999991      23.959537318536455            10.000037916
   330   2            4.7883440388      26.724098253536454            10.000037916
   331   2      4.7883759611999999      23.037998576463558            19.817341489
   332   2      3.1922559611999999      25.802559511463553            19.817341489
   333   2      4.7883759611999999      23.037998576463558      16.689359499999995
   334   2      3.1922559611999999      25.802559511463553      16.689359499999995
   335   2      6.3844640387999991      23.959537318536455      13.128585645999998
   336   2            4.7883440388      26.724098253536454      13.128585645999998
   337   1      6.3844640387999991      23.959537318536455      31.631710791999993
   338   1            4.7883440388      26.724098253536454      31.631710791999993
   339   1      4.7883759611999999      23.037998576463558      24.942389208000002
   340   1      3.1922559611999999      25.802559511463553      24.942389208000002
   341   2      6.3844640387999991      23.959537318536455      23.378115343000001
   342   2            4.7883440388      26.724098253536454      23.378115343000001
   343   2      4.7883759611999999      23.037998576463558      33.195984657000004
   344   2      3.1922559611999999      25.802559511463553      33.195984657000004
   345   2      4.7883759611999999      23.037998576463558      30.067436926999999
   346   2      3.1922559611999999      25.802559511463553      30.067436926999999
   347   2      6.3844640387999991      23.959537318536455      26.506663073000002
   348   2            4.7883440388      26.724098253536454      26.506663073000002
   349   1      6.3844640387999991      23.959537318536455      45.009788218999994
   350   1            4.7883440388      26.724098253536454      45.009788218999994
   351   1      4.7883759611999999      23.037998576463558      38.321032375999998
   352   1      3.1922559611999999      25.802559511463553      38.321032375999998
   353   2      6.3844640387999991      23.959537318536455      36.756758511000001
   354   2            4.7883440388      26.724098253536454      36.756758511000001
   355   2      4.7883759611999999      23.037998576463558      46.574062083999991
   356   2      3.1922559611999999      25.802559511463553      46.574062083999991
   357   2      4.7883759611999999      23.037998576463558       43.44551435399999
   358   2      3.1922559611999999      25.802559511463553       43.44551435399999