
     Program PWSCF v.7.2 starts on  7Mar2024 at 21:55:59 

     This program is part of the open-source Quantum ESPRESSO suite
     for quantum simulation of materials; please cite
         "P. Giannozzi et al., J. Phys.:Condens. Matter 21 395502 (2009);
         "P. Giannozzi et al., J. Phys.:Condens. Matter 29 465901 (2017);
         "P. Giannozzi et al., J. Chem. Phys. 152 154105 (2020);
          URL http://www.quantum-espresso.org", 
     in publications or presentations arising from this work. More details at
     http://www.quantum-espresso.org/quote

     Parallel version (MPI), running on    48 processors

     MPI processes distributed on     1 nodes
     972790 MiB available memory on the printing compute node when the environment starts
 
     Waiting for input...
     Reading input from standard input
Warning: card &CELL ignored
Warning: card / ignored

     Current dimensions of program PWSCF are:
     Max number of different atomic species (ntypx) = 10
     Max number of k-points (npk) =  40000
     Max angular momentum in pseudopotentials (lmaxx) =  4
     file O.pbe-n-kjpaw_psl.1.0.0.UPF: wavefunction(s)  2S 2P renormalized
     file N.pbe-n-kjpaw_psl.1.0.0.UPF: wavefunction(s)  2S renormalized
     file H.pbe-kjpaw_psl.1.0.0.UPF: wavefunction(s)  1S renormalized
     file C.pbe-n-kjpaw_psl.1.0.0.UPF: wavefunction(s)  2S 2P renormalized
 
     R & G space division:  proc/nbgrp/npool/nimage =      48
     Subspace diagonalization in iterative solution of the eigenvalue problem:
     a serial algorithm will be used

 
     Parallelization info
     --------------------
     sticks:   dense  smooth     PW     G-vecs:    dense   smooth      PW
     Min         126      45     13                13302     2865     448
     Max         127      46     14                13311     2874     456
     Sum        6051    2163    631               638809   137783   21679
 
     Using Slab Decomposition
 


     bravais-lattice index     =            0
     lattice parameter (alat)  =      25.8836  a.u.
     unit-cell volume          =    4728.0872 (a.u.)^3
     number of atoms/cell      =           72
     number of atomic types    =            4
     number of electrons       =       228.00
     number of Kohn-Sham states=          137
     kinetic-energy cutoff     =      36.0000  Ry
     charge density cutoff     =     400.0000  Ry
     scf convergence threshold =      1.0E-06
     mixing beta               =       0.2000
     number of iterations used =            8  plain     mixing
     energy convergence thresh.=      1.0E-04
     force convergence thresh. =      1.0E-03
     Exchange-correlation= SLA  PW   PBX  PBC
                           (   1   4   3   4   0   0   0)
     nstep                     =         9999


     celldm(1)=  25.883579  celldm(2)=   0.000000  celldm(3)=   0.000000
     celldm(4)=   0.000000  celldm(5)=   0.000000  celldm(6)=   0.000000

     crystal axes: (cart. coord. in units of alat)
               a(1) = (   1.000000   0.000000   0.000000 )  
               a(2) = (   0.000000   0.283347   0.000000 )  
               a(3) = (  -0.177303   0.000000   0.962264 )  

     reciprocal axes: (cart. coord. in units 2 pi/alat)
               b(1) = (  1.000000  0.000000  0.184256 )  
               b(2) = (  0.000000  3.529245  0.000000 )  
               b(3) = (  0.000000  0.000000  1.039216 )  


     PseudoPot. # 1 for O  read from file:
     ./pseudo/O.pbe-n-kjpaw_psl.1.0.0.UPF
     MD5 check sum: 54880130194cacfd11baed2e72b13d2a
     Pseudo is Projector augmented-wave + core cor, Zval =  6.0
     Generated using 'atomic' code by A. Dal Corso  v.7.2
     Shape of augmentation charge: PSQ
     Using radial grid of 1095 points,  4 beta functions with: 
                l(1) =   0
                l(2) =   0
                l(3) =   1
                l(4) =   1
     Q(r) pseudized with 0 coefficients 


     PseudoPot. # 2 for N  read from file:
     ./pseudo/N.pbe-n-kjpaw_psl.1.0.0.UPF
     MD5 check sum: 6654930a71f78718b13e91073ae2a058
     Pseudo is Projector augmented-wave + core cor, Zval =  5.0
     Generated using 'atomic' code by A. Dal Corso  v.7.2
     Shape of augmentation charge: PSQ
     Using radial grid of 1085 points,  4 beta functions with: 
                l(1) =   0
                l(2) =   0
                l(3) =   1
                l(4) =   1
     Q(r) pseudized with 0 coefficients 


     PseudoPot. # 3 for H  read from file:
     ./pseudo/H.pbe-kjpaw_psl.1.0.0.UPF
     MD5 check sum: b3cb3c48ee3b58cc53e4d592112d0ca6
     Pseudo is Projector augmented-wave, Zval =  1.0
     Generated using 'atomic' code by A. Dal Corso  v.7.2
     Shape of augmentation charge: PSQ
     Using radial grid of  929 points,  2 beta functions with: 
                l(1) =   0
                l(2) =   0
     Q(r) pseudized with 0 coefficients 


     PseudoPot. # 4 for C  read from file:
     ./pseudo/C.pbe-n-kjpaw_psl.1.0.0.UPF
     MD5 check sum: 6b0792899573946bb42fe395835041da
     Pseudo is Projector augmented-wave + core cor, Zval =  4.0
     Generated using 'atomic' code by A. Dal Corso  v.7.2
     Shape of augmentation charge: PSQ
     Using radial grid of 1073 points,  4 beta functions with: 
                l(1) =   0
                l(2) =   0
                l(3) =   1
                l(4) =   1
     Q(r) pseudized with 0 coefficients 


     atomic species   valence    mass     pseudopotential
        O              6.00    15.99900     O ( 1.00)
        N              5.00    14.00700     N ( 1.00)
        H              1.00     1.00800     H ( 1.00)
        C              4.00    12.01100     C ( 1.00)

     No symmetry found



   Cartesian axes

     site n.     atom                  positions (alat units)
         1           O   tau(   1) = (   0.3034797   0.1195723   0.1390472  )
         2           O   tau(   2) = (   0.2148282   0.0221010   0.6201793  )
         3           O   tau(   3) = (   0.5192173   0.1637744   0.8232170  )
         4           O   tau(   4) = (   0.6078688   0.2612457   0.3420849  )
         5           N   tau(   5) = (   0.1989265   0.0643197   0.8193680  )
         6           N   tau(   6) = (   0.2875780   0.0773537   0.3382359  )
         7           N   tau(   7) = (   0.6237705   0.2190270   0.1428962  )
         8           N   tau(   8) = (   0.5351190   0.2059931   0.6240283  )
         9           H   tau(   9) = (   0.2142547   0.0534392   0.7595151  )
        10           H   tau(  10) = (   0.3029062   0.0882342   0.2783830  )
        11           H   tau(  11) = (   0.6084423   0.2299075   0.2027491  )
        12           H   tau(  12) = (   0.5197907   0.1951126   0.6838812  )
        13           C   tau(  13) = (  -0.0051399   0.1751083   0.9505246  )
        14           C   tau(  14) = (   0.0835116   0.2499118   0.4693925  )
        15           C   tau(  15) = (   0.8278369   0.1082384   0.0117396  )
        16           C   tau(  16) = (   0.7391854   0.0334349   0.4928717  )
        17           H   tau(  17) = (   0.1538902   0.1888223   0.0521547  )
        18           H   tau(  18) = (   0.0652387   0.2361978   0.5332868  )
        19           H   tau(  19) = (   0.6688068   0.0945245   0.9101095  )
        20           H   tau(  20) = (   0.7574583   0.0471489   0.4289774  )
        21           C   tau(  21) = (  -0.0668408   0.2028763   0.8767189  )
        22           C   tau(  22) = (   0.0218107   0.2221438   0.3955868  )
        23           C   tau(  23) = (   0.8895378   0.0804705   0.0855453  )
        24           C   tau(  24) = (   0.8008862   0.0612029   0.5666774  )
        25           H   tau(  25) = (  -0.1256876   0.2340444   0.8899982  )
        26           H   tau(  26) = (  -0.0370361   0.1909757   0.4088661  )
        27           H   tau(  27) = (   0.9483845   0.0493023   0.0722660  )
        28           H   tau(  28) = (   0.8597330   0.0923710   0.5533981  )
        29           C   tau(  29) = (  -0.0371367   0.1819086   0.7768359  )
        30           C   tau(  30) = (   0.0515148   0.2431115   0.2957038  )
        31           C   tau(  31) = (   0.8598337   0.1014381   0.1854283  )
        32           C   tau(  32) = (   0.7711822   0.0402352   0.6665604  )
        33           H   tau(  33) = (  -0.0783624   0.1963876   0.7248736  )
        34           H   tau(  34) = (   0.0102891   0.2286325   0.2437415  )
        35           H   tau(  35) = (   0.9010593   0.0869591   0.2373906  )
        36           H   tau(  36) = (   0.8124078   0.0547143   0.7185227  )
        37           C   tau(  37) = (   0.0521774   0.1405400   0.7604774  )
        38           C   tau(  38) = (   0.1408289   0.0011334   0.2793453  )
        39           C   tau(  39) = (   0.7705196   0.1428067   0.2017868  )
        40           C   tau(  40) = (   0.6818680   0.2822133   0.6829189  )
        41           H   tau(  41) = (   0.0722035   0.1311612   0.6962944  )
        42           H   tau(  42) = (   0.1608550   0.0105122   0.2151623  )
        43           H   tau(  43) = (   0.7504934   0.1521855   0.2659698  )
        44           H   tau(  44) = (   0.6618419   0.2728346   0.7471019  )
        45           C   tau(  45) = (   0.1137896   0.1124886   0.8347642  )
        46           C   tau(  46) = (   0.2024411   0.0291847   0.3536321  )
        47           C   tau(  47) = (   0.7089073   0.1708581   0.1275000  )
        48           C   tau(  48) = (   0.6202558   0.2541620   0.6086321  )
        49           C   tau(  49) = (   0.0837792   0.1269393   0.9352246  )
        50           C   tau(  50) = (   0.1724307   0.0147340   0.4540925  )
        51           C   tau(  51) = (   0.7389178   0.1564074   0.0270396  )
        52           C   tau(  52) = (   0.6502663   0.2686127   0.5081717  )
        53           C   tau(  53) = (   0.2626202   0.0308848   0.8877849  )
        54           C   tau(  54) = (   0.3512717   0.1107886   0.4066528  )
        55           C   tau(  55) = (   0.5600767   0.2524619   0.0744792  )
        56           C   tau(  56) = (   0.4714252   0.1725582   0.5556113  )
        57           C   tau(  57) = (   0.4138823   0.0510024   0.0272321  )
        58           C   tau(  58) = (   0.3252308   0.0906709   0.5083642  )
        59           C   tau(  59) = (   0.4088146   0.2323443   0.9350321  )
        60           C   tau(  60) = (   0.4974662   0.1926758   0.4539000  )
        61           C   tau(  61) = (   0.3253753   0.0994547   0.0489792  )
        62           C   tau(  62) = (   0.2367238   0.0422187   0.5301113  )
        63           C   tau(  63) = (   0.4973217   0.1838920   0.9132849  )
        64           C   tau(  64) = (   0.5859732   0.2411281   0.4321528  )
        65           C   tau(  65) = (   0.4764357   0.0153007   0.0947830  )
        66           C   tau(  66) = (   0.3877841   0.1263726   0.5759151  )
        67           C   tau(  67) = (   0.3462613   0.2680460   0.8674812  )
        68           C   tau(  68) = (   0.4349128   0.1569741   0.3863491  )
        69           H   tau(  69) = (   0.4601968   0.0238011   0.1601208  )
        70           H   tau(  70) = (   0.3715453   0.1178722   0.6412529  )
        71           H   tau(  71) = (   0.3625002   0.2595456   0.8021434  )
        72           H   tau(  72) = (   0.4511517   0.1654745   0.3210113  )

     --------------------------------------------
     DFT-D3 Dispersion Correction (3-body terms):
     --------------------------------------------
       Reference C6 values for interpolation: 

         atom   Coordination number   C6
         H          0.912             6.05
         H          0.000            15.18
         C          0.000            98.23
         C          0.987            86.49
         C          1.998            58.72
         C          2.999            51.56
         C          3.984            36.41
         N          0.000            50.54
         N          0.994            44.25
         N          2.014            39.35
         N          2.990            31.16
         O          0.000            31.01
         O          0.993            25.63
         O          1.989            20.74

       Values used:

         atom   Coordination number  R0_AB[au]  C6      C8
         O          1.084            2.345     25.48    514.21
         O          1.084            2.345     25.48    514.21
         O          1.084            2.345     25.48    514.21
         O          1.084            2.345     25.48    514.21
         N          3.216            2.478     31.19    688.13
         N          3.216            2.478     31.19    688.13
         N          3.216            2.478     31.19    688.13
         N          3.216            2.478     31.19    688.13
         H          1.045            2.062      6.15     74.29
         H          1.045            2.062      6.15     74.29
         H          1.045            2.062      6.15     74.29
         H          1.045            2.062      6.15     74.29
         C          3.193            2.750     50.13   1449.84
         C          3.193            2.750     50.13   1449.84
         C          3.193            2.750     50.13   1449.84
         C          3.193            2.750     50.13   1449.84
         H          1.024            2.062      6.16     74.47
         H          1.024            2.062      6.16     74.47
         H          1.024            2.062      6.16     74.47
         H          1.024            2.062      6.16     74.47
         C          3.142            2.750     50.59   1463.25
         C          3.142            2.750     50.59   1463.25
         C          3.142            2.750     50.59   1463.25
         C          3.142            2.750     50.59   1463.25
         H          1.018            2.062      6.17     74.53
         H          1.018            2.062      6.17     74.53
         H          1.018            2.062      6.17     74.53
         H          1.018            2.062      6.17     74.53
         C          3.157            2.750     50.47   1459.80
         C          3.157            2.750     50.47   1459.80
         C          3.157            2.750     50.47   1459.80
         C          3.157            2.750     50.47   1459.80
         H          1.020            2.062      6.16     74.51
         H          1.020            2.062      6.16     74.51
         H          1.020            2.062      6.16     74.51
         H          1.020            2.062      6.16     74.51
         C          3.189            2.750     50.17   1451.10
         C          3.189            2.750     50.17   1451.10
         C          3.189            2.750     50.17   1451.10
         C          3.189            2.750     50.17   1451.10
         H          1.025            2.062      6.16     74.46
         H          1.025            2.062      6.16     74.46
         H          1.025            2.062      6.16     74.46
         H          1.025            2.062      6.16     74.46
         C          3.276            2.750     49.01   1417.31
         C          3.276            2.750     49.01   1417.31
         C          3.276            2.750     49.01   1417.31
         C          3.276            2.750     49.01   1417.31
         C          3.268            2.750     49.13   1420.83
         C          3.268            2.750     49.13   1420.83
         C          3.268            2.750     49.13   1420.83
         C          3.268            2.750     49.13   1420.83
         C          3.302            2.750     48.52   1403.27
         C          3.302            2.750     48.52   1403.27
         C          3.302            2.750     48.52   1403.27
         C          3.302            2.750     48.52   1403.27
         C          3.299            2.750     48.59   1405.38
         C          3.299            2.750     48.59   1405.38
         C          3.299            2.750     48.59   1405.38
         C          3.299            2.750     48.59   1405.38
         C          3.203            2.750     50.03   1446.85
         C          3.203            2.750     50.03   1446.85
         C          3.203            2.750     50.03   1446.85
         C          3.203            2.750     50.03   1446.85
         C          3.266            2.750     49.17   1422.00
         C          3.266            2.750     49.17   1422.00
         C          3.266            2.750     49.17   1422.00
         C          3.266            2.750     49.17   1422.00
         H          1.031            2.062      6.16     74.41
         H          1.031            2.062      6.16     74.41
         H          1.031            2.062      6.16     74.41
         H          1.031            2.062      6.16     74.41

         Molecular C6 ( Ry / a.u.^6 ) =    146766.26


     number of k points=     8  Gaussian smearing, width (Ry)=  0.0100
                       cart. coord. in units 2pi/alat
        k(    1) = (   0.0000000   0.0000000   0.0000000), wk =   0.2500000
        k(    2) = (   0.0000000   0.0000000  -0.5196078), wk =   0.2500000
        k(    3) = (   0.0000000  -1.7646225   0.0000000), wk =   0.2500000
        k(    4) = (   0.0000000  -1.7646225  -0.5196078), wk =   0.2500000
        k(    5) = (  -0.5000000   0.0000000  -0.0921280), wk =   0.2500000
        k(    6) = (  -0.5000000   0.0000000  -0.6117359), wk =   0.2500000
        k(    7) = (  -0.5000000  -1.7646225  -0.0921280), wk =   0.2500000
        k(    8) = (  -0.5000000  -1.7646225  -0.6117359), wk =   0.2500000

     Dense  grid:   638809 G-vectors     FFT dimensions: ( 180,  48, 162)

     Smooth grid:   137783 G-vectors     FFT dimensions: ( 100,  30, 100)

     Estimated max dynamical RAM per process >      52.83 MB

     Estimated total dynamical RAM >       2.48 GB

     Check: negative core charge=   -0.000005

     Initial potential from superposition of free atoms

     starting charge     227.9981, renormalised to     228.0000
     Starting wfcs are  216 randomized atomic wfcs
     Checking if some PAW data can be deallocated... 

     total cpu time spent up to now is        2.5 secs

     Self-consistent Calculation

     iteration #  1     ecut=    36.00 Ry     beta= 0.20
     Davidson diagonalization with overlap
     ethr =  1.00E-02,  avg # of iterations =  2.8

     total cpu time spent up to now is        5.3 secs

     total energy              =   -1045.70652874 Ry
     estimated scf accuracy    <       9.26483325 Ry

     iteration #  2     ecut=    36.00 Ry     beta= 0.20
     Davidson diagonalization with overlap
     ethr =  4.06E-03,  avg # of iterations =  1.2

     total cpu time spent up to now is        6.9 secs

     total energy              =   -1043.63838541 Ry
     estimated scf accuracy    <       4.42071318 Ry

     iteration #  3     ecut=    36.00 Ry     beta= 0.20
     Davidson diagonalization with overlap
     ethr =  1.94E-03,  avg # of iterations =  6.0

     total cpu time spent up to now is       10.0 secs

     total energy              =   -1044.27704707 Ry
     estimated scf accuracy    <       0.36940792 Ry

     iteration #  4     ecut=    36.00 Ry     beta= 0.20
     Davidson diagonalization with overlap
     ethr =  1.62E-04,  avg # of iterations =  8.8

     total cpu time spent up to now is       13.3 secs

     total energy              =   -1044.24869100 Ry
     estimated scf accuracy    <       0.16233702 Ry

     iteration #  5     ecut=    36.00 Ry     beta= 0.20
     Davidson diagonalization with overlap
     ethr =  7.12E-05,  avg # of iterations =  4.1

     total cpu time spent up to now is       15.8 secs

     total energy              =   -1044.26950728 Ry
     estimated scf accuracy    <       0.03156178 Ry

     iteration #  6     ecut=    36.00 Ry     beta= 0.20
     Davidson diagonalization with overlap
     ethr =  1.38E-05,  avg # of iterations =  8.4

     total cpu time spent up to now is       18.8 secs

     total energy              =   -1044.27262317 Ry
     estimated scf accuracy    <       0.00883190 Ry

     iteration #  7     ecut=    36.00 Ry     beta= 0.20
     Davidson diagonalization with overlap
     ethr =  3.87E-06,  avg # of iterations =  4.9

     total cpu time spent up to now is       21.1 secs

     total energy              =   -1044.27284141 Ry
     estimated scf accuracy    <       0.00252782 Ry

     iteration #  8     ecut=    36.00 Ry     beta= 0.20
     Davidson diagonalization with overlap
     ethr =  1.11E-06,  avg # of iterations =  5.5

     total cpu time spent up to now is       24.0 secs

     total energy              =   -1044.27307866 Ry
     estimated scf accuracy    <       0.00215948 Ry

     iteration #  9     ecut=    36.00 Ry     beta= 0.20
     Davidson diagonalization with overlap
     ethr =  9.47E-07,  avg # of iterations =  4.0

     total cpu time spent up to now is       26.1 secs

     total energy              =   -1044.27340621 Ry
     estimated scf accuracy    <       0.00012375 Ry

     iteration # 10     ecut=    36.00 Ry     beta= 0.20
     Davidson diagonalization with overlap
     ethr =  5.43E-08,  avg # of iterations =  4.6

     total cpu time spent up to now is       28.9 secs

     total energy              =   -1044.27348169 Ry
     estimated scf accuracy    <       0.00005237 Ry

     iteration # 11     ecut=    36.00 Ry     beta= 0.20
     Davidson diagonalization with overlap
     ethr =  2.30E-08,  avg # of iterations =  2.0

     total cpu time spent up to now is       30.6 secs

     total energy              =   -1044.27350016 Ry
     estimated scf accuracy    <       0.00001775 Ry

     iteration # 12     ecut=    36.00 Ry     beta= 0.20
     Davidson diagonalization with overlap
     ethr =  7.78E-09,  avg # of iterations =  4.0

     total cpu time spent up to now is       33.0 secs

     total energy              =   -1044.27351108 Ry
     estimated scf accuracy    <       0.00001149 Ry

     iteration # 13     ecut=    36.00 Ry     beta= 0.20
     Davidson diagonalization with overlap
     ethr =  5.04E-09,  avg # of iterations =  2.0

     total cpu time spent up to now is       34.7 secs

     total energy              =   -1044.27351782 Ry
     estimated scf accuracy    <       0.00000203 Ry

     iteration # 14     ecut=    36.00 Ry     beta= 0.20
     Davidson diagonalization with overlap
     ethr =  8.88E-10,  avg # of iterations =  5.0

     total cpu time spent up to now is       37.2 secs

     End of self-consistent calculation

          k = 0.0000 0.0000 0.0000 ( 17141 PWs)   bands (ev):

   -18.3845 -18.2922 -18.2670 -18.1824 -17.7664 -17.7464 -17.6428 -17.6075
   -15.0653 -15.0374 -14.5323 -14.5218 -14.3760 -14.2953 -13.1057 -13.0471
   -12.7584 -12.7383 -12.5768 -12.4406 -12.1070 -12.0914 -12.0193 -11.9131
   -11.5135 -11.4907 -10.4671 -10.2965  -9.6615  -9.6431  -9.1559  -9.0994
    -9.0573  -9.0105  -8.8162  -8.7856  -8.3347  -8.2165  -8.1671  -7.9098
    -7.5706  -7.4082  -7.3489  -7.2481  -6.9470  -6.8620  -6.7606  -6.6982
    -6.2753  -6.1374  -5.5180  -5.5053  -4.7812  -4.7613  -4.7264  -4.5144
    -4.4472  -4.4452  -4.3901  -4.3794  -4.2509  -4.2301  -4.1199  -3.9766
    -3.9735  -3.8038  -3.7523  -3.7311  -3.7058  -3.6543  -3.6470  -3.6172
    -3.4164  -3.3978  -3.3975  -2.9947  -2.7288  -2.5669  -2.4811  -2.4792
    -2.2658  -2.2335  -2.1585  -2.1530  -2.0178  -2.0099  -1.8898  -1.8385
    -1.8367  -1.7534  -1.4674  -1.4052  -1.4051  -1.2472  -1.2135  -0.8958
    -0.6687  -0.6381   0.0736   0.1306   0.2726   0.2979   0.8435   0.8558
     0.8785   0.8952   1.1849   1.1864   1.3824   1.4497   1.4774   1.5047
     2.0634   2.1274   3.5096   3.5933   4.6159   4.6301   4.9285   4.9387
     5.8258   5.9853   5.9872   6.0654   6.8062   6.8741   6.8864   6.9302
     7.0599   7.2239   7.6278   7.7335   7.7649   7.7906   7.9546   8.1416
     8.2677

          k = 0.0000 0.0000-0.5196 ( 17184 PWs)   bands (ev):

   -18.3434 -18.3434 -18.2286 -18.2285 -17.7045 -17.7044 -17.6690 -17.6690
   -15.0514 -15.0514 -14.5270 -14.5270 -14.3355 -14.3355 -13.0726 -13.0726
   -12.7530 -12.7530 -12.5099 -12.5099 -12.1029 -12.1028 -11.9638 -11.9637
   -11.5040 -11.5040 -10.3859 -10.3858  -9.6525  -9.6524  -9.1248  -9.1247
    -8.9215  -8.9214  -8.8963  -8.8962  -8.2824  -8.2824  -8.0543  -8.0543
    -7.4943  -7.4943  -7.2957  -7.2957  -6.8814  -6.8813  -6.7758  -6.7757
    -6.1990  -6.1989  -5.5069  -5.5069  -4.7510  -4.7509  -4.5942  -4.5942
    -4.4219  -4.4219  -4.3378  -4.3378  -4.1931  -4.1930  -4.0603  -4.0603
    -3.9986  -3.9986  -3.7767  -3.7767  -3.6719  -3.6719  -3.6447  -3.6447
    -3.3938  -3.3937  -3.2609  -3.2608  -2.6168  -2.6168  -2.4867  -2.4867
    -2.2480  -2.2480  -2.1549  -2.1548  -2.0056  -2.0056  -1.8600  -1.8600
    -1.7834  -1.7833  -1.4501  -1.4501  -1.3009  -1.3009  -1.0565  -1.0565
    -0.6518  -0.6518   0.1028   0.1028   0.2850   0.2850   0.8500   0.8500
     0.8836   0.8836   1.1864   1.1864   1.4212   1.4213   1.4874   1.4875
     2.0948   2.0948   3.5501   3.5501   4.6255   4.6255   4.9337   4.9338
     5.9304   5.9304   5.9863   5.9863   6.9020   6.9021   6.9638   6.9638
     6.9939   6.9940   7.6658   7.6658   7.8639   7.8640   8.0113   8.0114
     8.4172

          k = 0.0000-1.7646 0.0000 ( 17282 PWs)   bands (ev):

   -18.2589 -18.2588 -18.1371 -18.1370 -17.7169 -17.7169 -17.5892 -17.5891
   -14.9565 -14.9565 -14.4315 -14.4314 -14.2245 -14.2244 -13.0356 -13.0355
   -12.6905 -12.6905 -12.4224 -12.4224 -12.0768 -12.0768 -11.9713 -11.9713
   -11.5013 -11.5012 -10.4136 -10.4136  -9.6810  -9.6809  -9.1312  -9.1311
    -9.0374  -9.0374  -8.7954  -8.7954  -8.2837  -8.2836  -8.0482  -8.0481
    -7.4933  -7.4932  -7.2963  -7.2963  -6.8526  -6.8525  -6.7935  -6.7934
    -6.2483  -6.2482  -5.5503  -5.5503  -4.9853  -4.9852  -4.7967  -4.7966
    -4.6055  -4.6055  -4.4569  -4.4569  -4.3695  -4.3695  -4.3102  -4.3102
    -4.2119  -4.2119  -4.0934  -4.0934  -3.9036  -3.9036  -3.7633  -3.7633
    -3.7102  -3.7102  -3.1420  -3.1419  -2.9002  -2.9002  -2.8397  -2.8397
    -2.6572  -2.6572  -2.5112  -2.5112  -2.3825  -2.3825  -2.2695  -2.2694
    -1.9642  -1.9641  -1.8000  -1.8000  -1.4242  -1.4242  -0.9990  -0.9990
    -0.8051  -0.8051  -0.1672  -0.1672   0.1387   0.1387   0.4641   0.4642
     0.8486   0.8487   1.3502   1.3502   1.3956   1.3957   1.4655   1.4656
     2.0940   2.0940   3.8160   3.8160   5.0215   5.0215   5.1993   5.1993
     5.8972   5.8973   6.0629   6.0630   6.5839   6.5839   6.8528   6.8528
     7.9768   7.9768   8.2463   8.2463   9.1425   9.1426   9.3167   9.3220
     9.3548

          k = 0.0000-1.7646-0.5196 ( 17312 PWs)   bands (ev):

   -18.2443 -18.2442 -18.1614 -18.1613 -17.6557 -17.6556 -17.6412 -17.6411
   -14.9564 -14.9563 -14.4308 -14.4308 -14.2240 -14.2240 -13.0350 -13.0349
   -12.6881 -12.6881 -12.4280 -12.4279 -12.0752 -12.0751 -11.9723 -11.9722
   -11.5033 -11.5032 -10.4165 -10.4165  -9.6802  -9.6801  -9.1350  -9.1350
    -8.9294  -8.9293  -8.8837  -8.8837  -8.2804  -8.2803  -8.0717  -8.0717
    -7.4969  -7.4968  -7.2868  -7.2867  -6.8755  -6.8755  -6.7827  -6.7827
    -6.2491  -6.2491  -5.5466  -5.5465  -4.9874  -4.9873  -4.7729  -4.7728
    -4.5988  -4.5988  -4.4099  -4.4098  -4.3762  -4.3761  -4.3280  -4.3280
    -4.1380  -4.1379  -4.0762  -4.0761  -4.0117  -4.0116  -3.7393  -3.7392
    -3.7356  -3.7356  -3.2295  -3.2294  -2.9068  -2.9067  -2.8443  -2.8442
    -2.6261  -2.6260  -2.5055  -2.5054  -2.3534  -2.3534  -2.2766  -2.2765
    -1.9749  -1.9749  -1.7826  -1.7825  -1.3267  -1.3267  -1.0935  -1.0935
    -0.8032  -0.8032  -0.1677  -0.1677   0.1374   0.1374   0.4642   0.4642
     0.8504   0.8504   1.3559   1.3559   1.3989   1.3990   1.4606   1.4607
     2.0908   2.0909   3.8167   3.8167   5.0266   5.0267   5.1909   5.1909
     5.9024   5.9025   6.0614   6.0615   6.5893   6.5893   6.8408   6.8409
     7.9786   7.9787   8.2427   8.2427   9.0038   9.0038   9.2478   9.2478
     9.5499

          k =-0.5000 0.0000-0.0921 ( 17144 PWs)   bands (ev):

   -18.3844 -18.2923 -18.2672 -18.1824 -17.7664 -17.7465 -17.6429 -17.6075
   -15.0599 -15.0416 -14.5571 -14.5094 -14.3439 -14.3152 -13.1207 -13.0342
   -12.7647 -12.7486 -12.5108 -12.5068 -12.0782 -12.0702 -12.0072 -11.9246
   -11.5312 -11.5236 -10.4095 -10.3554  -9.6303  -9.6270  -9.1893  -9.0943
    -9.0392  -8.9668  -8.8271  -8.8097  -8.3127  -8.2744  -8.1967  -7.9332
    -7.5367  -7.4183  -7.3669  -7.2372  -6.8897  -6.8727  -6.7140  -6.6803
    -6.2866  -6.1641  -5.5904  -5.4837  -4.8175  -4.7087  -4.6055  -4.6035
    -4.4999  -4.4745  -4.4476  -4.2537  -4.2500  -4.2413  -4.1593  -4.0169
    -3.9414  -3.7962  -3.7597  -3.7315  -3.6756  -3.6471  -3.6267  -3.6107
    -3.4045  -3.4000  -3.3860  -2.9913  -2.7144  -2.6068  -2.5530  -2.4983
    -2.2432  -2.2127  -2.1621  -2.1484  -2.0138  -2.0089  -1.8540  -1.8462
    -1.8359  -1.7544  -1.4325  -1.4196  -1.3975  -1.2438  -1.2248  -0.8959
    -0.7158  -0.6564   0.0969   0.1450   0.2918   0.3331   0.8163   0.8283
     0.8752   0.9086   1.1373   1.1915   1.3846   1.4483   1.4793   1.5067
     2.0891   2.1430   3.5669   3.5685   4.4995   4.7064   4.8844   4.9071
     5.9395   5.9498   5.9857   6.0148   6.8307   6.9086   6.9800   6.9813
     7.0398   7.1863   7.4828   7.6776   7.7476   7.8812   8.0796   8.0986
     8.1271

          k =-0.5000 0.0000-0.6117 ( 17144 PWs)   bands (ev):

   -18.3434 -18.3433 -18.2286 -18.2285 -17.7044 -17.7044 -17.6690 -17.6689
   -15.0503 -15.0503 -14.5347 -14.5347 -14.3276 -14.3276 -13.0739 -13.0739
   -12.7613 -12.7612 -12.5097 -12.5097 -12.0759 -12.0758 -11.9633 -11.9632
   -11.5304 -11.5303 -10.3885 -10.3884  -9.6280  -9.6279  -9.1012  -9.1011
    -8.9406  -8.9406  -8.9084  -8.9084  -8.2842  -8.2841  -8.0816  -8.0815
    -7.4863  -7.4862  -7.3117  -7.3116  -6.8686  -6.8686  -6.7216  -6.7215
    -6.2133  -6.2133  -5.5400  -5.5399  -4.7868  -4.7868  -4.5145  -4.5145
    -4.4258  -4.4257  -4.3667  -4.3666  -4.1871  -4.1871  -4.0717  -4.0716
    -4.0216  -4.0216  -3.7546  -3.7546  -3.6700  -3.6700  -3.6244  -3.6244
    -3.3956  -3.3955  -3.2495  -3.2495  -2.6280  -2.6279  -2.5292  -2.5292
    -2.2301  -2.2301  -2.1513  -2.1512  -2.0019  -2.0019  -1.8651  -1.8651
    -1.7678  -1.7678  -1.4221  -1.4221  -1.3153  -1.3152  -1.0608  -1.0607
    -0.6829  -0.6829   0.1214   0.1214   0.3123   0.3123   0.8194   0.8194
     0.8947   0.8947   1.1672   1.1672   1.4217   1.4218   1.4891   1.4892
     2.1160   2.1160   3.5674   3.5674   4.5963   4.5964   4.8992   4.8993
     5.9377   5.9378   6.0176   6.0176   6.8996   6.8996   6.9478   6.9478
     7.0753   7.0753   7.6250   7.6250   7.7586   7.7587   8.0385   8.0385
     8.5389

          k =-0.5000-1.7646-0.0921 ( 17272 PWs)   bands (ev):

   -18.2589 -18.2589 -18.1370 -18.1370 -17.7169 -17.7169 -17.5891 -17.5891
   -14.9568 -14.9568 -14.4295 -14.4294 -14.2264 -14.2263 -13.0354 -13.0354
   -12.6898 -12.6897 -12.4195 -12.4194 -12.0812 -12.0811 -11.9733 -11.9732
   -11.4994 -11.4994 -10.4102 -10.4102  -9.6768  -9.6768  -9.1394  -9.1394
    -9.0361  -9.0361  -8.8022  -8.8022  -8.2776  -8.2776  -8.0543  -8.0542
    -7.4917  -7.4917  -7.2972  -7.2972  -6.8539  -6.8539  -6.7604  -6.7603
    -6.2603  -6.2603  -5.5807  -5.5807  -4.9863  -4.9863  -4.7942  -4.7942
    -4.6131  -4.6131  -4.4315  -4.4315  -4.3729  -4.3729  -4.3207  -4.3206
    -4.2027  -4.2027  -4.0897  -4.0897  -3.9078  -3.9078  -3.7450  -3.7449
    -3.7117  -3.7116  -3.1339  -3.1339  -2.8928  -2.8928  -2.8483  -2.8483
    -2.6600  -2.6600  -2.5673  -2.5673  -2.3625  -2.3625  -2.2372  -2.2372
    -1.9877  -1.9876  -1.7927  -1.7926  -1.4393  -1.4392  -1.0047  -1.0047
    -0.7590  -0.7590  -0.2063  -0.2063   0.1542   0.1542   0.4720   0.4721
     0.8264   0.8264   1.3928   1.3929   1.4089   1.4089   1.4667   1.4668
     2.0420   2.0420   3.8069   3.8069   5.0420   5.0420   5.2606   5.2607
     5.8866   5.8866   6.0250   6.0250   6.5855   6.5855   6.8012   6.8013
     8.0110   8.0111   8.2357   8.2357   9.1368   9.1368   9.2935   9.2940
     9.4666

          k =-0.5000-1.7646-0.6117 ( 17304 PWs)   bands (ev):

   -18.2443 -18.2442 -18.1614 -18.1613 -17.6557 -17.6556 -17.6412 -17.6411
   -14.9566 -14.9566 -14.4288 -14.4288 -14.2260 -14.2260 -13.0348 -13.0347
   -12.6860 -12.6860 -12.4265 -12.4264 -12.0809 -12.0809 -11.9741 -11.9741
   -11.4994 -11.4994 -10.4139 -10.4138  -9.6766  -9.6765  -9.1458  -9.1458
    -8.9282  -8.9282  -8.8840  -8.8839  -8.2768  -8.2767  -8.0779  -8.0779
    -7.4946  -7.4946  -7.2878  -7.2878  -6.8936  -6.8935  -6.7337  -6.7336
    -6.2592  -6.2591  -5.5796  -5.5795  -4.9880  -4.9880  -4.7763  -4.7762
    -4.5827  -4.5826  -4.4168  -4.4167  -4.3921  -4.3921  -4.3043  -4.3042
    -4.1369  -4.1369  -4.0734  -4.0734  -4.0098  -4.0098  -3.7452  -3.7452
    -3.7183  -3.7183  -3.2258  -3.2258  -2.9070  -2.9069  -2.8487  -2.8487
    -2.6077  -2.6076  -2.5617  -2.5616  -2.3395  -2.3395  -2.2564  -2.2563
    -1.9856  -1.9856  -1.7799  -1.7799  -1.3550  -1.3550  -1.0957  -1.0957
    -0.7508  -0.7507  -0.2065  -0.2065   0.1553   0.1553   0.4715   0.4715
     0.8273   0.8274   1.3979   1.3980   1.4076   1.4076   1.4648   1.4649
     2.0410   2.0410   3.8065   3.8065   5.0426   5.0427   5.2608   5.2609
     5.9213   5.9214   5.9873   5.9873   6.5927   6.5927   6.7899   6.7900
     7.9942   7.9943   8.2748   8.2748   8.9302   8.9302   9.3895   9.3896
     9.5243

     the Fermi energy is     2.7676 ev

!    total energy              =   -1044.27353000 Ry
     total all-electron energy =     -4115.420070 Ry
     estimated scf accuracy    <       0.00000036 Ry
     smearing contrib. (-TS)   =      -0.00000000 Ry
     internal energy E=F+TS    =   -1044.27353000 Ry

     The total energy is F=E-TS. E is the sum of the following terms:
     one-electron contribution =    -713.18746921 Ry
     hartree contribution      =     446.72905976 Ry
     xc contribution           =    -258.54034940 Ry
     ewald contribution        =    -201.76833818 Ry
     DFT-D3 Dispersion         =      -0.44471577 Ry
     one-center paw contrib.   =    -317.06171720 Ry

     convergence has been achieved in  14 iterations

     Forces acting on atoms (cartesian axes, Ry/au):

     atom    1 type  1   force =     0.01397071   -0.01581037   -0.05344606
     atom    2 type  1   force =     0.01397107    0.01580774   -0.05343789
     atom    3 type  1   force =    -0.01397025    0.01581127    0.05344493
     atom    4 type  1   force =    -0.01396814   -0.01580532    0.05342904
     atom    5 type  2   force =    -0.08859843    0.07623461    0.36033261
     atom    6 type  2   force =    -0.08859829   -0.07623398    0.36033705
     atom    7 type  2   force =     0.08859763   -0.07623448   -0.36033480
     atom    8 type  2   force =     0.08859886    0.07623466   -0.36033468
     atom    9 type  3   force =     0.11147422   -0.08096668   -0.45135512
     atom   10 type  3   force =     0.11147428    0.08096670   -0.45135428
     atom   11 type  3   force =    -0.11147448    0.08096647    0.45135531
     atom   12 type  3   force =    -0.11147419   -0.08096678    0.45135456
     atom   13 type  4   force =     0.07706612   -0.06175814   -0.27685090
     atom   14 type  4   force =     0.07706624    0.06175778   -0.27684904
     atom   15 type  4   force =    -0.07706602    0.06175790    0.27685008
     atom   16 type  4   force =    -0.07706614   -0.06175801    0.27685129
     atom   17 type  3   force =    -0.08687918    0.06603486    0.32589662
     atom   18 type  3   force =    -0.08687962   -0.06603539    0.32589767
     atom   19 type  3   force =     0.08687916   -0.06603519   -0.32589700
     atom   20 type  3   force =     0.08687973    0.06603524   -0.32589727
     atom   21 type  4   force =     0.30436256   -0.17170924   -0.13739408
     atom   22 type  4   force =     0.30436139    0.17170868   -0.13739326
     atom   23 type  4   force =    -0.30436275    0.17170909    0.13739350
     atom   24 type  4   force =    -0.30436150   -0.17170891    0.13739415
     atom   25 type  3   force =    -0.29365162    0.15467207    0.06504695
     atom   26 type  3   force =    -0.29365220   -0.15467254    0.06504749
     atom   27 type  3   force =     0.29365152   -0.15467220   -0.06504708
     atom   28 type  3   force =     0.29365196    0.15467229   -0.06504687
     atom   29 type  4   force =     0.17110745   -0.05009134    0.32839229
     atom   30 type  4   force =     0.17110752    0.05009133    0.32839204
     atom   31 type  4   force =    -0.17110738    0.05009111   -0.32839234
     atom   32 type  4   force =    -0.17110757   -0.05009163   -0.32839175
     atom   33 type  3   force =    -0.20275837    0.07812597   -0.25988140
     atom   34 type  3   force =    -0.20275807   -0.07812607   -0.25988097
     atom   35 type  3   force =     0.20275826   -0.07812617    0.25988144
     atom   36 type  3   force =     0.20275805    0.07812589    0.25988136
     atom   37 type  4   force =    -0.09683265    0.04843778    0.24122404
     atom   38 type  4   force =    -0.09683423   -0.04843821    0.24122452
     atom   39 type  4   force =     0.09683384   -0.04843845   -0.24122434
     atom   40 type  4   force =     0.09683268    0.04843759   -0.24122364
     atom   41 type  3   force =     0.10242118   -0.05351435   -0.32288125
     atom   42 type  3   force =     0.10242063    0.05351412   -0.32288031
     atom   43 type  3   force =    -0.10242106    0.05351411    0.32288163
     atom   44 type  3   force =    -0.10242098   -0.05351431    0.32288082
     atom   45 type  4   force =    -0.00462089   -0.01871633    0.11795057
     atom   46 type  4   force =    -0.00461997    0.01871695    0.11795149
     atom   47 type  4   force =     0.00462092    0.01871586   -0.11795188
     atom   48 type  4   force =     0.00461914   -0.01871758   -0.11794912
     atom   49 type  4   force =     0.00251084    0.01607795   -0.09169634
     atom   50 type  4   force =     0.00251203   -0.01607717   -0.09169321
     atom   51 type  4   force =    -0.00251194   -0.01607756    0.09169523
     atom   52 type  4   force =    -0.00251056    0.01607794    0.09169545
     atom   53 type  4   force =    -0.11162938    0.07597495    0.11425276
     atom   54 type  4   force =    -0.11163071   -0.07597648    0.11425383
     atom   55 type  4   force =     0.11162920   -0.07597562   -0.11425343
     atom   56 type  4   force =     0.11163003    0.07597582   -0.11425165
     atom   57 type  4   force =     0.02544654   -0.03448602   -0.12836921
     atom   58 type  4   force =     0.02544509    0.03448532   -0.12836782
     atom   59 type  4   force =    -0.02544500    0.03448560    0.12836939
     atom   60 type  4   force =    -0.02544765   -0.03448624    0.12836827
     atom   61 type  4   force =    -0.04626156    0.03789643    0.13706640
     atom   62 type  4   force =    -0.04625858   -0.03789407    0.13705904
     atom   63 type  4   force =     0.04625938   -0.03789465   -0.13706176
     atom   64 type  4   force =     0.04626154    0.03789498   -0.13706354
     atom   65 type  4   force =     0.03732151   -0.00909247   -0.19233615
     atom   66 type  4   force =     0.03732183    0.00909287   -0.19233350
     atom   67 type  4   force =    -0.03732154    0.00909305    0.19233461
     atom   68 type  4   force =    -0.03732199   -0.00909269    0.19233551
     atom   69 type  3   force =    -0.08425033    0.04789200    0.33209410
     atom   70 type  3   force =    -0.08425021   -0.04789212    0.33209464
     atom   71 type  3   force =     0.08425030   -0.04789208   -0.33209456
     atom   72 type  3   force =     0.08425000    0.04789185   -0.33209421
     The non-local contrib.  to forces
     atom    1 type  1   force =     0.56358720   -0.54724267   -2.10416797
     atom    2 type  1   force =     0.56357915    0.54724312   -2.10414399
     atom    3 type  1   force =    -0.56358407    0.54724686    2.10416272
     atom    4 type  1   force =    -0.56357335   -0.54724127    2.10412971
     atom    5 type  2   force =    -0.04352342    0.07263011    0.25375631
     atom    6 type  2   force =    -0.04352491   -0.07262867    0.25375937
     atom    7 type  2   force =     0.04352344   -0.07262991   -0.25375828
     atom    8 type  2   force =     0.04352355    0.07262993   -0.25375444
     atom    9 type  3   force =    -0.04130753    0.03011088    0.16471897
     atom   10 type  3   force =    -0.04130776   -0.03011100    0.16471983
     atom   11 type  3   force =     0.04130754   -0.03011089   -0.16471907
     atom   12 type  3   force =     0.04130769    0.03011097   -0.16471951
     atom   13 type  4   force =     0.12111192   -0.09947290   -0.24774219
     atom   14 type  4   force =     0.12110975    0.09947217   -0.24773757
     atom   15 type  4   force =    -0.12111206    0.09947205    0.24773980
     atom   16 type  4   force =    -0.12110883   -0.09947219    0.24773958
     atom   17 type  3   force =     0.03263538   -0.02496997   -0.11698180
     atom   18 type  3   force =     0.03263540    0.02496998   -0.11698193
     atom   19 type  3   force =    -0.03263535    0.02496992    0.11698165
     atom   20 type  3   force =    -0.03263543   -0.02497001    0.11698203
     atom   21 type  4   force =     0.25217333   -0.15021257   -0.16634072
     atom   22 type  4   force =     0.25217370    0.15021266   -0.16634269
     atom   23 type  4   force =    -0.25217440    0.15021277    0.16634015
     atom   24 type  4   force =    -0.25217264   -0.15021281    0.16634377
     atom   25 type  3   force =     0.10606828   -0.05637861   -0.02419651
     atom   26 type  3   force =     0.10606850    0.05637872   -0.02419655
     atom   27 type  3   force =    -0.10606830    0.05637863    0.02419649
     atom   28 type  3   force =    -0.10606848   -0.05637871    0.02419657
     atom   29 type  4   force =     0.12829057   -0.04381591    0.28746249
     atom   30 type  4   force =     0.12828948    0.04381556    0.28746079
     atom   31 type  4   force =    -0.12829002    0.04381513   -0.28746414
     atom   32 type  4   force =    -0.12829007   -0.04381617   -0.28745970
     atom   33 type  3   force =     0.07531056   -0.02612671    0.09431859
     atom   34 type  3   force =     0.07531064    0.02612673    0.09431864
     atom   35 type  3   force =    -0.07531060    0.02612673   -0.09431865
     atom   36 type  3   force =    -0.07531058   -0.02612671   -0.09431858
     atom   37 type  4   force =    -0.01130205    0.02125592    0.30116157
     atom   38 type  4   force =    -0.01130307   -0.02125644    0.30116046
     atom   39 type  4   force =     0.01130202   -0.02125605   -0.30116225
     atom   40 type  4   force =     0.01130275    0.02125615   -0.30115863
     atom   41 type  3   force =    -0.03671248    0.01636200    0.11728346
     atom   42 type  3   force =    -0.03671257   -0.01636203    0.11728371
     atom   43 type  3   force =     0.03671252   -0.01636201   -0.11728350
     atom   44 type  3   force =     0.03671248    0.01636201   -0.11728352
     atom   45 type  4   force =     0.33350016   -0.19362825    0.05300746
     atom   46 type  4   force =     0.33350030    0.19362849    0.05300658
     atom   47 type  4   force =    -0.33350044    0.19362800   -0.05301030
     atom   48 type  4   force =    -0.33350081   -0.19362798   -0.05300206
     atom   49 type  4   force =     0.05638086    0.00769120   -0.14480897
     atom   50 type  4   force =     0.05638389   -0.00768988   -0.14480839
     atom   51 type  4   force =    -0.05638116   -0.00768948    0.14480880
     atom   52 type  4   force =    -0.05638287    0.00768995    0.14481065
     atom   53 type  4   force =    -0.34720791    0.20462152   -0.14183466
     atom   54 type  4   force =    -0.34720972   -0.20462094   -0.14183441
     atom   55 type  4   force =     0.34720608   -0.20462058    0.14183302
     atom   56 type  4   force =     0.34720901    0.20462092    0.14183840
     atom   57 type  4   force =     0.02468919   -0.04009070   -0.18388417
     atom   58 type  4   force =     0.02468938    0.04008751   -0.18388260
     atom   59 type  4   force =    -0.02469147    0.04009054    0.18388416
     atom   60 type  4   force =    -0.02468870   -0.04008690    0.18388390
     atom   61 type  4   force =    -0.03824235    0.04522808    0.22702293
     atom   62 type  4   force =    -0.03824034   -0.04522728    0.22703281
     atom   63 type  4   force =     0.03823788   -0.04522790   -0.22702103
     atom   64 type  4   force =     0.03824668    0.04523367   -0.22704768
     atom   65 type  4   force =     0.09722729   -0.03192418   -0.22080410
     atom   66 type  4   force =     0.09722724    0.03192497   -0.22079646
     atom   67 type  4   force =    -0.09722672    0.03192357    0.22080203
     atom   68 type  4   force =    -0.09722905   -0.03192555    0.22079664
     atom   69 type  3   force =     0.03132815   -0.01585306   -0.11850107
     atom   70 type  3   force =     0.03132822    0.01585307   -0.11850110
     atom   71 type  3   force =    -0.03132811    0.01585306    0.11850089
     atom   72 type  3   force =    -0.03132824   -0.01585309    0.11850128
     The ionic contribution  to forces
     atom    1 type  1   force =    -7.41195774    2.34556108    8.78736379
     atom    2 type  1   force =    -7.41195774   -2.34556109    8.78736379
     atom    3 type  1   force =     7.41195774   -2.34556109   -8.78736379
     atom    4 type  1   force =     7.41195774    2.34556109   -8.78736379
     atom    5 type  2   force =    -1.94022884   -0.29827271   -5.33725688
     atom    6 type  2   force =    -1.94022884    0.29827271   -5.33725688
     atom    7 type  2   force =     1.94022884    0.29827271    5.33725688
     atom    8 type  2   force =     1.94022884   -0.29827271    5.33725688
     atom    9 type  3   force =     0.56945920   -0.63997176   -4.18787250
     atom   10 type  3   force =     0.56945920    0.63997176   -4.18787250
     atom   11 type  3   force =    -0.56945920    0.63997176    4.18787250
     atom   12 type  3   force =    -0.56945920   -0.63997176    4.18787250
     atom   13 type  4   force =    -6.96446892    0.73847509    3.03660477
     atom   14 type  4   force =    -6.96446892   -0.73847509    3.03660477
     atom   15 type  4   force =     6.96446892   -0.73847509   -3.03660477
     atom   16 type  4   force =     6.96446892    0.73847509   -3.03660477
     atom   17 type  3   force =    -2.38475170    0.70110232    2.95355781
     atom   18 type  3   force =    -2.38475170   -0.70110232    2.95355781
     atom   19 type  3   force =     2.38475170   -0.70110232   -2.95355781
     atom   20 type  3   force =     2.38475170    0.70110232   -2.95355781
     atom   21 type  4   force =    -7.29599029    1.38099022    0.08059630
     atom   22 type  4   force =    -7.29599029   -1.38099022    0.08059630
     atom   23 type  4   force =     7.29599029   -1.38099022   -0.08059630
     atom   24 type  4   force =     7.29599029    1.38099022   -0.08059630
     atom   25 type  3   force =    -3.29910838    1.37693304    0.66019516
     atom   26 type  3   force =    -3.29910838   -1.37693304    0.66019516
     atom   27 type  3   force =     3.29910838   -1.37693304   -0.66019516
     atom   28 type  3   force =     3.29910838    1.37693304   -0.66019516
     atom   29 type  4   force =    -5.97170054    0.92091521   -3.53938114
     atom   30 type  4   force =    -5.97170054   -0.92091521   -3.53938114
     atom   31 type  4   force =     5.97170054   -0.92091521    3.53938114
     atom   32 type  4   force =     5.97170054    0.92091521    3.53938114
     atom   33 type  3   force =    -2.19620271    0.64402194   -2.55067710
     atom   34 type  3   force =    -2.19620271   -0.64402194   -2.55067710
     atom   35 type  3   force =     2.19620271   -0.64402194    2.55067710
     atom   36 type  3   force =     2.19620271    0.64402194    2.55067710
     atom   37 type  4   force =    -4.16193038   -0.08521265   -5.69162839
     atom   38 type  4   force =    -4.16193038    0.08521265   -5.69162839
     atom   39 type  4   force =     4.16193038    0.08521265    5.69162839
     atom   40 type  4   force =     4.16193038   -0.08521265    5.69162839
     atom   41 type  3   force =    -0.42366223   -0.30587433   -3.49515639
     atom   42 type  3   force =    -0.42366223    0.30587433   -3.49515639
     atom   43 type  3   force =     0.42366223    0.30587433    3.49515639
     atom   44 type  3   force =     0.42366223   -0.30587433    3.49515639
     atom   45 type  4   force =    -4.74687188    0.85227196   -2.55821617
     atom   46 type  4   force =    -4.74687188   -0.85227196   -2.55821617
     atom   47 type  4   force =     4.74687188   -0.85227196    2.55821617
     atom   48 type  4   force =     4.74687188    0.85227196    2.55821617
     atom   49 type  4   force =    -5.68155686   -0.07212173    0.56204831
     atom   50 type  4   force =    -5.68155686    0.07212173    0.56204830
     atom   51 type  4   force =     5.68155686    0.07212173   -0.56204831
     atom   52 type  4   force =     5.68155686   -0.07212173   -0.56204831
     atom   53 type  4   force =    -0.31110479   -0.45676541   -1.44909833
     atom   54 type  4   force =    -0.31110479    0.45676541   -1.44909833
     atom   55 type  4   force =     0.31110479    0.45676541    1.44909833
     atom   56 type  4   force =     0.31110478   -0.45676541    1.44909833
     atom   57 type  4   force =    -1.85858894    0.28102325    1.20374198
     atom   58 type  4   force =    -1.85858894   -0.28102325    1.20374198
     atom   59 type  4   force =     1.85858894   -0.28102325   -1.20374198
     atom   60 type  4   force =     1.85858894    0.28102325   -1.20374198
     atom   61 type  4   force =    -3.56542104   -0.41611268   -0.21196694
     atom   62 type  4   force =    -3.56542104    0.41611268   -0.21196694
     atom   63 type  4   force =     3.56542104    0.41611268    0.21196695
     atom   64 type  4   force =     3.56542104   -0.41611268    0.21196695
     atom   65 type  4   force =    -1.35346941    0.39578207    4.95100292
     atom   66 type  4   force =    -1.35346941   -0.39578207    4.95100291
     atom   67 type  4   force =     1.35346941   -0.39578207   -4.95100292
     atom   68 type  4   force =     1.35346941    0.39578207   -4.95100292
     atom   69 type  3   force =    -0.81807473    0.33518127    3.50818951
     atom   70 type  3   force =    -0.81807473   -0.33518127    3.50818952
     atom   71 type  3   force =     0.81807473   -0.33518127   -3.50818951
     atom   72 type  3   force =     0.81807473    0.33518127   -3.50818951
     The local contribution  to forces
     atom    1 type  1   force =     6.86682854   -1.81881943   -6.75360110
     atom    2 type  1   force =     6.86680947    1.81879697   -6.75350221
     atom    3 type  1   force =    -6.86682498    1.81881531    6.75358091
     atom    4 type  1   force =    -6.86680122   -1.81879367    6.75347851
     atom    5 type  2   force =     1.89340449    0.30395021    5.45317059
     atom    6 type  2   force =     1.89340314   -0.30395326    5.45316483
     atom    7 type  2   force =    -1.89340226   -0.30394813   -5.45317085
     atom    8 type  2   force =    -1.89340677    0.30395327   -5.45314914
     atom    9 type  3   force =    -0.41668019    0.52896792    3.57189409
     atom   10 type  3   force =    -0.41667924   -0.52896862    3.57189535
     atom   11 type  3   force =     0.41668042   -0.52896683   -3.57189013
     atom   12 type  3   force =     0.41667927    0.52896915   -3.57189460
     atom   13 type  4   force =     6.92367286   -0.70367587   -3.07205368
     atom   14 type  4   force =     6.92366763    0.70367570   -3.07204248
     atom   15 type  4   force =    -6.92367430    0.70367693    3.07205301
     atom   16 type  4   force =    -6.92366276   -0.70367432    3.07204207
     atom   17 type  3   force =     2.26504007   -0.61022220   -2.51075908
     atom   18 type  3   force =     2.26503922    0.61022160   -2.51075117
     atom   19 type  3   force =    -2.26504049    0.61022190    2.51075756
     atom   20 type  3   force =    -2.26503878   -0.61022171    2.51075022
     atom   21 type  4   force =     7.35405102   -1.40658177   -0.05650839
     atom   22 type  4   force =     7.35403974    1.40658030   -0.05650950
     atom   23 type  4   force =    -7.35405305    1.40658218    0.05650454
     atom   24 type  4   force =    -7.35403728   -1.40657948    0.05651423
     atom   25 type  3   force =     2.89936559   -1.16606116   -0.57084644
     atom   26 type  3   force =     2.89936240    1.16606010   -0.57084614
     atom   27 type  3   force =    -2.89936638    1.16606127    0.57084529
     atom   28 type  3   force =    -2.89936238   -1.16606034    0.57084731
     atom   29 type  4   force =     6.01708554   -0.92800835    3.58874308
     atom   30 type  4   force =     6.01708101    0.92801111    3.58872966
     atom   31 type  4   force =    -6.01708702    0.92800920   -3.58874430
     atom   32 type  4   force =    -6.01708012   -0.92800963   -3.58872750
     atom   33 type  3   force =     1.91825144   -0.53986396    2.19652418
     atom   34 type  3   force =     1.91825034    0.53986437    2.19652156
     atom   35 type  3   force =    -1.91825183    0.53986399   -2.19652441
     atom   36 type  3   force =    -1.91825061   -0.53986426   -2.19652127
     atom   37 type  4   force =     4.07540597    0.11301820    5.63871232
     atom   38 type  4   force =     4.07539292   -0.11301811    5.63870303
     atom   39 type  4   force =    -4.07540585   -0.11301832   -5.63871344
     atom   40 type  4   force =    -4.07539783    0.11301821   -5.63869755
     atom   41 type  3   force =     0.56262669    0.23604087    3.05502652
     atom   42 type  3   force =     0.56262194   -0.23604159    3.05502526
     atom   43 type  3   force =    -0.56262736   -0.23604060   -3.05502592
     atom   44 type  3   force =    -0.56262348    0.23604160   -3.05502444
     atom   45 type  4   force =     4.41443683   -0.68033179    2.62548501
     atom   46 type  4   force =     4.41442740    0.68033200    2.62547733
     atom   47 type  4   force =    -4.41443355    0.68033158   -2.62548864
     atom   48 type  4   force =    -4.41443178   -0.68033299   -2.62546253
     atom   49 type  4   force =     5.62826749    0.08003173   -0.51201425
     atom   50 type  4   force =     5.62825090   -0.08003344   -0.51200940
     atom   51 type  4   force =    -5.62826893   -0.08003118    0.51201013
     atom   52 type  4   force =    -5.62824075    0.08003962    0.51201471
     atom   53 type  4   force =     0.53947977    0.33228021    1.70480267
     atom   54 type  4   force =     0.53947818   -0.33228279    1.70479789
     atom   55 type  4   force =    -0.53947416   -0.33228061   -1.70480752
     atom   56 type  4   force =    -0.53948960    0.33227936   -1.70478433
     atom   57 type  4   force =     1.85969738   -0.27589056   -1.15307696
     atom   58 type  4   force =     1.85969737    0.27590082   -1.15305921
     atom   59 type  4   force =    -1.85968935    0.27589251    1.15307461
     atom   60 type  4   force =    -1.85971267   -0.27590479    1.15305853
     atom   61 type  4   force =     3.55740291    0.40872678    0.12311268
     atom   62 type  4   force =     3.55738553   -0.40873029    0.12315235
     atom   63 type  4   force =    -3.55739844   -0.40872190   -0.12310741
     atom   64 type  4   force =    -3.55737975    0.40873413   -0.12317668
     atom   65 type  4   force =     1.29466540   -0.37345964   -4.92888403
     atom   66 type  4   force =     1.29465426    0.37346179   -4.92886336
     atom   67 type  4   force =    -1.29466384    0.37346369    4.92888172
     atom   68 type  4   force =    -1.29465461   -0.37346049    4.92886500
     atom   69 type  3   force =     0.70249608   -0.27150286   -3.05774181
     atom   70 type  3   force =     0.70249083    0.27150278   -3.05773504
     atom   71 type  3   force =    -0.70249493    0.27150331    3.05774054
     atom   72 type  3   force =    -0.70248944   -0.27150242    3.05773468
     The core correction contribution to forces
     atom    1 type  1   force =    -0.00448174    0.00436017    0.01656882
     atom    2 type  1   force =    -0.00448167   -0.00436026    0.01656872
     atom    3 type  1   force =     0.00448171   -0.00436026   -0.01656889
     atom    4 type  1   force =     0.00448160    0.00436021   -0.01656851
     atom    5 type  2   force =     0.00189410   -0.00205598   -0.00907619
     atom    6 type  2   force =     0.00189413    0.00205594   -0.00907625
     atom    7 type  2   force =    -0.00189411    0.00205600    0.00907625
     atom    8 type  2   force =    -0.00189409   -0.00205595    0.00907616
     atom    9 type  3   force =     0.00000000    0.00000000    0.00000000
     atom   10 type  3   force =     0.00000000    0.00000000    0.00000000
     atom   11 type  3   force =     0.00000000    0.00000000    0.00000000
     atom   12 type  3   force =     0.00000000    0.00000000    0.00000000
     atom   13 type  4   force =    -0.00330134    0.00236382    0.00559052
     atom   14 type  4   force =    -0.00330127   -0.00236380    0.00559044
     atom   15 type  4   force =     0.00330132   -0.00236379   -0.00559046
     atom   16 type  4   force =     0.00330130    0.00236383   -0.00559049
     atom   17 type  3   force =     0.00000000    0.00000000    0.00000000
     atom   18 type  3   force =     0.00000000    0.00000000    0.00000000
     atom   19 type  3   force =     0.00000000    0.00000000    0.00000000
     atom   20 type  3   force =     0.00000000    0.00000000    0.00000000
     atom   21 type  4   force =    -0.00547333    0.00334876    0.00487192
     atom   22 type  4   force =    -0.00547337   -0.00334876    0.00487199
     atom   23 type  4   force =     0.00547334   -0.00334876   -0.00487196
     atom   24 type  4   force =     0.00547335    0.00334877   -0.00487197
     atom   25 type  3   force =     0.00000000    0.00000000    0.00000000
     atom   26 type  3   force =     0.00000000    0.00000000    0.00000000
     atom   27 type  3   force =     0.00000000    0.00000000    0.00000000
     atom   28 type  3   force =     0.00000000    0.00000000    0.00000000
     atom   29 type  4   force =    -0.00206994    0.00033045   -0.00766252
     atom   30 type  4   force =    -0.00206992   -0.00033043   -0.00766252
     atom   31 type  4   force =     0.00206992   -0.00033043    0.00766253
     atom   32 type  4   force =     0.00206994    0.00033045    0.00766251
     atom   33 type  3   force =     0.00000000    0.00000000    0.00000000
     atom   34 type  3   force =     0.00000000    0.00000000    0.00000000
     atom   35 type  3   force =     0.00000000    0.00000000    0.00000000
     atom   36 type  3   force =     0.00000000    0.00000000    0.00000000
     atom   37 type  4   force =     0.00045433   -0.00052017   -0.00638464
     atom   38 type  4   force =     0.00045433    0.00052018   -0.00638462
     atom   39 type  4   force =    -0.00045431    0.00052017    0.00638464
     atom   40 type  4   force =    -0.00045436   -0.00052018    0.00638460
     atom   41 type  3   force =     0.00000000    0.00000000    0.00000000
     atom   42 type  3   force =     0.00000000    0.00000000    0.00000000
     atom   43 type  3   force =     0.00000000    0.00000000    0.00000000
     atom   44 type  3   force =     0.00000000    0.00000000    0.00000000
     atom   45 type  4   force =    -0.00617449    0.00302627   -0.00170266
     atom   46 type  4   force =    -0.00617447   -0.00302626   -0.00170263
     atom   47 type  4   force =     0.00617450   -0.00302626    0.00170266
     atom   48 type  4   force =     0.00617445    0.00302624    0.00170261
     atom   49 type  4   force =    -0.00089753    0.00030016    0.00268330
     atom   50 type  4   force =    -0.00089762   -0.00030018    0.00268323
     atom   51 type  4   force =     0.00089752   -0.00030019   -0.00268329
     atom   52 type  4   force =     0.00089765    0.00030020   -0.00268328
     atom   53 type  4   force =     0.00765601   -0.00422494    0.00172311
     atom   54 type  4   force =     0.00765602    0.00422489    0.00172313
     atom   55 type  4   force =    -0.00765594    0.00422491   -0.00172314
     atom   56 type  4   force =    -0.00765604   -0.00422491   -0.00172313
     atom   57 type  4   force =     0.00036155   -0.00019456    0.00439235
     atom   58 type  4   force =     0.00036156    0.00019469    0.00439232
     atom   59 type  4   force =    -0.00036145    0.00019456   -0.00439235
     atom   60 type  4   force =    -0.00036164   -0.00019472   -0.00439236
     atom   61 type  4   force =     0.00012585   -0.00037199   -0.00174248
     atom   62 type  4   force =     0.00012580    0.00037200   -0.00174282
     atom   63 type  4   force =    -0.00012572    0.00037201    0.00174250
     atom   64 type  4   force =    -0.00012594   -0.00037217    0.00174311
     atom   65 type  4   force =    -0.00118897    0.00029920    0.00463523
     atom   66 type  4   force =    -0.00118897   -0.00029920    0.00463510
     atom   67 type  4   force =     0.00118897   -0.00029917   -0.00463520
     atom   68 type  4   force =     0.00118903    0.00029923   -0.00463510
     atom   69 type  3   force =     0.00000000    0.00000000    0.00000000
     atom   70 type  3   force =     0.00000000    0.00000000    0.00000000
     atom   71 type  3   force =     0.00000000    0.00000000    0.00000000
     atom   72 type  3   force =     0.00000000    0.00000000    0.00000000
     The Hubbard contrib.    to forces
     atom    1 type  1   force =     0.00000000    0.00000000    0.00000000
     atom    2 type  1   force =     0.00000000    0.00000000    0.00000000
     atom    3 type  1   force =     0.00000000    0.00000000    0.00000000
     atom    4 type  1   force =     0.00000000    0.00000000    0.00000000
     atom    5 type  2   force =     0.00000000    0.00000000    0.00000000
     atom    6 type  2   force =     0.00000000    0.00000000    0.00000000
     atom    7 type  2   force =     0.00000000    0.00000000    0.00000000
     atom    8 type  2   force =     0.00000000    0.00000000    0.00000000
     atom    9 type  3   force =     0.00000000    0.00000000    0.00000000
     atom   10 type  3   force =     0.00000000    0.00000000    0.00000000
     atom   11 type  3   force =     0.00000000    0.00000000    0.00000000
     atom   12 type  3   force =     0.00000000    0.00000000    0.00000000
     atom   13 type  4   force =     0.00000000    0.00000000    0.00000000
     atom   14 type  4   force =     0.00000000    0.00000000    0.00000000
     atom   15 type  4   force =     0.00000000    0.00000000    0.00000000
     atom   16 type  4   force =     0.00000000    0.00000000    0.00000000
     atom   17 type  3   force =     0.00000000    0.00000000    0.00000000
     atom   18 type  3   force =     0.00000000    0.00000000    0.00000000
     atom   19 type  3   force =     0.00000000    0.00000000    0.00000000
     atom   20 type  3   force =     0.00000000    0.00000000    0.00000000
     atom   21 type  4   force =     0.00000000    0.00000000    0.00000000
     atom   22 type  4   force =     0.00000000    0.00000000    0.00000000
     atom   23 type  4   force =     0.00000000    0.00000000    0.00000000
     atom   24 type  4   force =     0.00000000    0.00000000    0.00000000
     atom   25 type  3   force =     0.00000000    0.00000000    0.00000000
     atom   26 type  3   force =     0.00000000    0.00000000    0.00000000
     atom   27 type  3   force =     0.00000000    0.00000000    0.00000000
     atom   28 type  3   force =     0.00000000    0.00000000    0.00000000
     atom   29 type  4   force =     0.00000000    0.00000000    0.00000000
     atom   30 type  4   force =     0.00000000    0.00000000    0.00000000
     atom   31 type  4   force =     0.00000000    0.00000000    0.00000000
     atom   32 type  4   force =     0.00000000    0.00000000    0.00000000
     atom   33 type  3   force =     0.00000000    0.00000000    0.00000000
     atom   34 type  3   force =     0.00000000    0.00000000    0.00000000
     atom   35 type  3   force =     0.00000000    0.00000000    0.00000000
     atom   36 type  3   force =     0.00000000    0.00000000    0.00000000
     atom   37 type  4   force =     0.00000000    0.00000000    0.00000000
     atom   38 type  4   force =     0.00000000    0.00000000    0.00000000
     atom   39 type  4   force =     0.00000000    0.00000000    0.00000000
     atom   40 type  4   force =     0.00000000    0.00000000    0.00000000
     atom   41 type  3   force =     0.00000000    0.00000000    0.00000000
     atom   42 type  3   force =     0.00000000    0.00000000    0.00000000
     atom   43 type  3   force =     0.00000000    0.00000000    0.00000000
     atom   44 type  3   force =     0.00000000    0.00000000    0.00000000
     atom   45 type  4   force =     0.00000000    0.00000000    0.00000000
     atom   46 type  4   force =     0.00000000    0.00000000    0.00000000
     atom   47 type  4   force =     0.00000000    0.00000000    0.00000000
     atom   48 type  4   force =     0.00000000    0.00000000    0.00000000
     atom   49 type  4   force =     0.00000000    0.00000000    0.00000000
     atom   50 type  4   force =     0.00000000    0.00000000    0.00000000
     atom   51 type  4   force =     0.00000000    0.00000000    0.00000000
     atom   52 type  4   force =     0.00000000    0.00000000    0.00000000
     atom   53 type  4   force =     0.00000000    0.00000000    0.00000000
     atom   54 type  4   force =     0.00000000    0.00000000    0.00000000
     atom   55 type  4   force =     0.00000000    0.00000000    0.00000000
     atom   56 type  4   force =     0.00000000    0.00000000    0.00000000
     atom   57 type  4   force =     0.00000000    0.00000000    0.00000000
     atom   58 type  4   force =     0.00000000    0.00000000    0.00000000
     atom   59 type  4   force =     0.00000000    0.00000000    0.00000000
     atom   60 type  4   force =     0.00000000    0.00000000    0.00000000
     atom   61 type  4   force =     0.00000000    0.00000000    0.00000000
     atom   62 type  4   force =     0.00000000    0.00000000    0.00000000
     atom   63 type  4   force =     0.00000000    0.00000000    0.00000000
     atom   64 type  4   force =     0.00000000    0.00000000    0.00000000
     atom   65 type  4   force =     0.00000000    0.00000000    0.00000000
     atom   66 type  4   force =     0.00000000    0.00000000    0.00000000
     atom   67 type  4   force =     0.00000000    0.00000000    0.00000000
     atom   68 type  4   force =     0.00000000    0.00000000    0.00000000
     atom   69 type  3   force =     0.00000000    0.00000000    0.00000000
     atom   70 type  3   force =     0.00000000    0.00000000    0.00000000
     atom   71 type  3   force =     0.00000000    0.00000000    0.00000000
     atom   72 type  3   force =     0.00000000    0.00000000    0.00000000
     The SCF correction term to forces
     atom    1 type  1   force =    -0.00006273   -0.00002869   -0.00003657
     atom    2 type  1   force =    -0.00003531    0.00004837   -0.00015117
     atom    3 type  1   force =     0.00005660    0.00002982    0.00006072
     atom    4 type  1   force =     0.00002434   -0.00005083    0.00017986
     atom    5 type  2   force =    -0.00005513    0.00003949    0.00001943
     atom    6 type  2   force =    -0.00005218   -0.00003700    0.00002664
     atom    7 type  2   force =     0.00005217   -0.00004145   -0.00001969
     atom    8 type  2   force =     0.00005776    0.00003663   -0.00004503
     atom    9 type  3   force =    -0.00000581   -0.00000171   -0.00002075
     atom   10 type  3   force =    -0.00000649    0.00000274   -0.00002203
     atom   11 type  3   force =     0.00000540    0.00000063    0.00001685
     atom   12 type  3   force =     0.00000669   -0.00000311    0.00002101
     atom   13 type  4   force =    -0.00008131    0.00001010    0.00007312
     atom   14 type  4   force =    -0.00007385   -0.00000937    0.00005924
     atom   15 type  4   force =     0.00008309   -0.00001038   -0.00007117
     atom   16 type  4   force =     0.00006821    0.00000796   -0.00005877
     atom   17 type  3   force =    -0.00000875    0.00000140    0.00002652
     atom   18 type  3   force =    -0.00000835   -0.00000114    0.00001980
     atom   19 type  3   force =     0.00000918   -0.00000119   -0.00002547
     atom   20 type  3   force =     0.00000813    0.00000134   -0.00001877
     atom   21 type  4   force =    -0.00008884   -0.00000316   -0.00001599
     atom   22 type  4   force =    -0.00007904    0.00000420   -0.00001215
     atom   23 type  4   force =     0.00009181    0.00000261    0.00001964
     atom   24 type  4   force =     0.00007552   -0.00000488    0.00000699
     atom   25 type  3   force =    -0.00001906    0.00000193   -0.00000013
     atom   26 type  3   force =    -0.00001667   -0.00000125    0.00000015
     atom   27 type  3   force =     0.00001984   -0.00000199    0.00000095
     atom   28 type  3   force =     0.00001647    0.00000144   -0.00000095
     atom   29 type  4   force =    -0.00004819   -0.00000571   -0.00005654
     atom   30 type  4   force =    -0.00004252    0.00000347   -0.00004169
     atom   31 type  4   force =     0.00004929    0.00000560    0.00005912
     atom   32 type  4   force =     0.00004223   -0.00000445    0.00003850
     atom   33 type  3   force =    -0.00001023   -0.00000015   -0.00000922
     atom   34 type  3   force =    -0.00000891   -0.00000018   -0.00000623
     atom   35 type  3   force =     0.00001062    0.00000011    0.00000933
     atom   36 type  3   force =     0.00000917    0.00000007    0.00000603
     atom   37 type  4   force =     0.00001815   -0.00002012   -0.00004784
     atom   38 type  4   force =     0.00003064    0.00002031   -0.00003698
     atom   39 type  4   force =    -0.00001700    0.00001991    0.00004910
     atom   40 type  4   force =    -0.00002686   -0.00002054    0.00003033
     atom   41 type  3   force =     0.00000188   -0.00000317   -0.00000773
     atom   42 type  3   force =     0.00000616    0.00000390   -0.00000578
     atom   43 type  3   force =    -0.00000106    0.00000288    0.00000733
     atom   44 type  3   force =    -0.00000482   -0.00000386    0.00000505
     atom   45 type  4   force =     0.00006000   -0.00001784   -0.00006736
     atom   46 type  4   force =     0.00007018    0.00001821   -0.00005792
     atom   47 type  4   force =    -0.00006291    0.00001803    0.00007229
     atom   48 type  4   force =    -0.00006604   -0.00001813    0.00004075
     atom   49 type  4   force =     0.00009703   -0.00005737    0.00008800
     atom   50 type  4   force =     0.00011188    0.00005877    0.00008577
     atom   51 type  4   force =    -0.00009632    0.00005574   -0.00008505
     atom   52 type  4   force =    -0.00012153   -0.00006407   -0.00009129
     atom   53 type  4   force =    -0.00005039    0.00000813   -0.00007112
     atom   54 type  4   force =    -0.00004832   -0.00000741   -0.00006554
     atom   55 type  4   force =     0.00004643   -0.00000911    0.00007674
     atom   56 type  4   force =     0.00005987    0.00001044    0.00004994
     atom   57 type  4   force =    -0.00014061    0.00004397    0.00000991
     atom   58 type  4   force =    -0.00014224   -0.00005166   -0.00000798
     atom   59 type  4   force =     0.00013636   -0.00004598   -0.00000760
     atom   60 type  4   force =     0.00015447    0.00005433    0.00000761
     atom   61 type  4   force =    -0.00008171    0.00003303    0.00020002
     atom   62 type  4   force =    -0.00006332   -0.00002775    0.00014345
     atom   63 type  4   force =     0.00007948   -0.00003612   -0.00020281
     atom   64 type  4   force =     0.00005437    0.00001882   -0.00010928
     atom   65 type  4   force =     0.00002466   -0.00002591    0.00008397
     atom   66 type  4   force =     0.00003616    0.00002358    0.00005843
     atom   67 type  4   force =    -0.00002674    0.00002322   -0.00008139
     atom   68 type  4   force =    -0.00003415   -0.00002393   -0.00005848
     atom   69 type  3   force =    -0.00000595    0.00000015    0.00001542
     atom   70 type  3   force =    -0.00000065    0.00000001    0.00000922
     atom   71 type  3   force =     0.00000481   -0.00000047   -0.00001466
     atom   72 type  3   force =    -0.00000085   -0.00000041   -0.00000884

     DFT-D3 dispersion contribution to forces:
     atom    1 type  1   force =     0.00005721    0.00035926    0.00042685
     atom    2 type  1   force =     0.00005721   -0.00035926    0.00042685
     atom    3 type  1   force =    -0.00005721   -0.00035926   -0.00042685
     atom    4 type  1   force =    -0.00005721    0.00035926   -0.00042685
     atom    5 type  2   force =    -0.00008959   -0.00005641   -0.00028078
     atom    6 type  2   force =    -0.00008959    0.00005641   -0.00028078
     atom    7 type  2   force =     0.00008959    0.00005641    0.00028078
     atom    8 type  2   force =     0.00008959   -0.00005641    0.00028078
     atom    9 type  3   force =     0.00000860   -0.00007192   -0.00007504
     atom   10 type  3   force =     0.00000860    0.00007192   -0.00007504
     atom   11 type  3   force =    -0.00000860    0.00007192    0.00007504
     atom   12 type  3   force =    -0.00000860   -0.00007192    0.00007504
     atom   13 type  4   force =     0.00013295    0.00054172    0.00067645
     atom   14 type  4   force =     0.00013295   -0.00054172    0.00067645
     atom   15 type  4   force =    -0.00013295   -0.00054172   -0.00067645
     atom   16 type  4   force =    -0.00013295    0.00054172   -0.00067645
     atom   17 type  3   force =     0.00020585    0.00012340    0.00005304
     atom   18 type  3   force =     0.00020585   -0.00012340    0.00005304
     atom   19 type  3   force =    -0.00020585   -0.00012340   -0.00005304
     atom   20 type  3   force =    -0.00020585    0.00012340   -0.00005304
     atom   21 type  4   force =    -0.00030929    0.00074938    0.00000268
     atom   22 type  4   force =    -0.00030929   -0.00074938    0.00000268
     atom   23 type  4   force =     0.00030929   -0.00074938   -0.00000268
     atom   24 type  4   force =     0.00030929    0.00074938   -0.00000268
     atom   25 type  3   force =     0.00004199    0.00017697   -0.00010525
     atom   26 type  3   force =     0.00004199   -0.00017697   -0.00010525
     atom   27 type  3   force =    -0.00004199   -0.00017697    0.00010525
     atom   28 type  3   force =    -0.00004199    0.00017697    0.00010525
     atom   29 type  4   force =    -0.00044996    0.00049307   -0.00071319
     atom   30 type  4   force =    -0.00044996   -0.00049307   -0.00071319
     atom   31 type  4   force =     0.00044996   -0.00049307    0.00071319
     atom   32 type  4   force =     0.00044996    0.00049307    0.00071319
     atom   33 type  3   force =    -0.00010740    0.00009495   -0.00003796
     atom   34 type  3   force =    -0.00010740   -0.00009495   -0.00003796
     atom   35 type  3   force =     0.00010740   -0.00009495    0.00003796
     atom   36 type  3   force =     0.00010740    0.00009495    0.00003796
     atom   37 type  4   force =     0.00052137   -0.00008330   -0.00058910
     atom   38 type  4   force =     0.00052137    0.00008330   -0.00058910
     atom   39 type  4   force =    -0.00052137    0.00008330    0.00058910
     atom   40 type  4   force =    -0.00052137   -0.00008330    0.00058910
     atom   41 type  3   force =     0.00016736   -0.00003962   -0.00002722
     atom   42 type  3   force =     0.00016736    0.00003962   -0.00002722
     atom   43 type  3   force =    -0.00016736    0.00003962    0.00002722
     atom   44 type  3   force =    -0.00016736   -0.00003962    0.00002722
     atom   45 type  4   force =     0.00042853   -0.00003657   -0.00055583
     atom   46 type  4   force =     0.00042853    0.00003657   -0.00055583
     atom   47 type  4   force =    -0.00042853    0.00003657    0.00055583
     atom   48 type  4   force =    -0.00042853   -0.00003657    0.00055583
     atom   49 type  4   force =     0.00021988    0.00023407    0.00030716
     atom   50 type  4   force =     0.00021988   -0.00023407    0.00030716
     atom   51 type  4   force =    -0.00021988   -0.00023407   -0.00030716
     atom   52 type  4   force =    -0.00021988    0.00023407   -0.00030716
     atom   53 type  4   force =    -0.00040204    0.00005554   -0.00126902
     atom   54 type  4   force =    -0.00040204   -0.00005554   -0.00126902
     atom   55 type  4   force =     0.00040204   -0.00005554    0.00126902
     atom   56 type  4   force =     0.00040204    0.00005554    0.00126902
     atom   57 type  4   force =    -0.00057200    0.00062268    0.00044755
     atom   58 type  4   force =    -0.00057200   -0.00062268    0.00044755
     atom   59 type  4   force =     0.00057200   -0.00062268   -0.00044755
     atom   60 type  4   force =     0.00057200    0.00062268   -0.00044755
     atom   61 type  4   force =    -0.00004518    0.00039332    0.00044007
     atom   62 type  4   force =    -0.00004518   -0.00039332    0.00044007
     atom   63 type  4   force =     0.00004518   -0.00039332   -0.00044007
     atom   64 type  4   force =     0.00004518    0.00039332   -0.00044007
     atom   65 type  4   force =     0.00006258    0.00023609    0.00162975
     atom   66 type  4   force =     0.00006258   -0.00023609    0.00162975
     atom   67 type  4   force =    -0.00006258   -0.00023609   -0.00162975
     atom   68 type  4   force =    -0.00006258    0.00023609   -0.00162975
     atom   69 type  3   force =     0.00000616    0.00006661    0.00013193
     atom   70 type  3   force =     0.00000616   -0.00006661    0.00013193
     atom   71 type  3   force =    -0.00000616   -0.00006661   -0.00013193
     atom   72 type  3   force =    -0.00000616    0.00006661   -0.00013193

     Total force =     2.469311     Total SCF correction =     0.000783

     BFGS Geometry Optimization
     Energy error            =      0.0E+00 Ry
     Gradient error          =      4.5E-01 Ry/Bohr

     number of scf cycles    =   1
     number of bfgs steps    =   0

     energy             new  =   -1044.2735300044 Ry

     new trust radius        =       0.4719149739 bohr
     new conv_thr            =       0.0000010000 Ry


ATOMIC_POSITIONS (angstrom)
O             4.1641545935        1.6294155105        1.8762467273
O             2.9498949635        0.3110830959        8.4663173687
O             7.1043260069        2.2515849647       11.3038853084
O             8.3185869473        3.5699181869        4.7138105844
N             2.6778115533        0.9213286197       11.4135627481
N             3.8920714505        1.0191717141        4.8234987754
N             8.5906683812        2.9596714496        1.7665687307
N             7.3764092080        2.8618286444        8.3566351157
H             2.9936364631        0.6891108758       10.1642318476
H             4.2078963137        1.2513891304        3.5741659723
H             8.2748437560        3.1918890084        3.0159008897
H             7.0605840859        2.6296108268        9.6059668128
C            -0.0296200717        2.3657770015       12.8728318344
C             1.1846398176        3.4557228101        6.2827665003
C            11.2981004792        1.5152228728        0.3073003691
C            10.0838405913        0.4252770662        6.8973673288
H             2.0618592517        2.6212425421        0.8868202513
H             0.8475991983        3.2002571776        7.4768871288
[...]
     atom   60 type  4   force =     0.00000000    0.00000000    0.00000000
     atom   61 type  4   force =     0.00000000    0.00000000    0.00000000
     atom   62 type  4   force =     0.00000000    0.00000000    0.00000000
     atom   63 type  4   force =     0.00000000    0.00000000    0.00000000
     atom   64 type  4   force =     0.00000000    0.00000000    0.00000000
     atom   65 type  4   force =     0.00000000    0.00000000    0.00000000
     atom   66 type  4   force =     0.00000000    0.00000000    0.00000000
     atom   67 type  4   force =     0.00000000    0.00000000    0.00000000
     atom   68 type  4   force =     0.00000000    0.00000000    0.00000000
     atom   69 type  3   force =     0.00000000    0.00000000    0.00000000
     atom   70 type  3   force =     0.00000000    0.00000000    0.00000000
     atom   71 type  3   force =     0.00000000    0.00000000    0.00000000
     atom   72 type  3   force =     0.00000000    0.00000000    0.00000000
     The SCF correction term to forces
     atom    1 type  1   force =    -0.00000119    0.00000536   -0.00002698
     atom    2 type  1   force =    -0.00000222   -0.00000483   -0.00002524
     atom    3 type  1   force =     0.00000082   -0.00000543    0.00002561
     atom    4 type  1   force =     0.00000180    0.00000459    0.00002662
     atom    5 type  2   force =    -0.00000834   -0.00000623   -0.00001789
     atom    6 type  2   force =    -0.00000870    0.00000629   -0.00001658
     atom    7 type  2   force =     0.00000866    0.00000634    0.00001714
     atom    8 type  2   force =     0.00000830   -0.00000626    0.00001736
     atom    9 type  3   force =    -0.00000054    0.00000009    0.00000030
     atom   10 type  3   force =    -0.00000054   -0.00000006    0.00000025
     atom   11 type  3   force =     0.00000058   -0.00000006   -0.00000019
     atom   12 type  3   force =     0.00000047    0.00000007   -0.00000028
     atom   13 type  4   force =    -0.00000936   -0.00000129   -0.00000752
     atom   14 type  4   force =    -0.00000949    0.00000131   -0.00000667
     atom   15 type  4   force =     0.00000949    0.00000127    0.00000687
     atom   16 type  4   force =     0.00000953   -0.00000131    0.00000722
     atom   17 type  3   force =    -0.00000154   -0.00000072   -0.00000056
     atom   18 type  3   force =    -0.00000151    0.00000072   -0.00000036
     atom   19 type  3   force =     0.00000150    0.00000073    0.00000037
     atom   20 type  3   force =     0.00000156   -0.00000072    0.00000054
     atom   21 type  4   force =    -0.00000115    0.00000185   -0.00000292
     atom   22 type  4   force =    -0.00000111   -0.00000163   -0.00000199
     atom   23 type  4   force =     0.00000116   -0.00000171    0.00000239
     atom   24 type  4   force =     0.00000138    0.00000177    0.00000270
     atom   25 type  3   force =     0.00000143   -0.00000063   -0.00000092
     atom   26 type  3   force =     0.00000143    0.00000064   -0.00000073
     atom   27 type  3   force =    -0.00000142    0.00000063    0.00000079
     atom   28 type  3   force =    -0.00000137   -0.00000064    0.00000089
     atom   29 type  4   force =     0.00000144    0.00000898    0.00000032
     atom   30 type  4   force =     0.00000064   -0.00000905    0.00000123
     atom   31 type  4   force =    -0.00000110   -0.00000901   -0.00000072
     atom   32 type  4   force =    -0.00000090    0.00000895   -0.00000082
     atom   33 type  3   force =     0.00000107    0.00000110    0.00000116
     atom   34 type  3   force =     0.00000094   -0.00000111    0.00000126
     atom   35 type  3   force =    -0.00000101   -0.00000112   -0.00000116
     atom   36 type  3   force =    -0.00000095    0.00000110   -0.00000126
     atom   37 type  4   force =    -0.00000910    0.00000237   -0.00000038
     atom   38 type  4   force =    -0.00000989   -0.00000243    0.00000005
     atom   39 type  4   force =     0.00000961   -0.00000240    0.00000033
     atom   40 type  4   force =     0.00000947    0.00000230   -0.00000006
     atom   41 type  3   force =    -0.00000186    0.00000019    0.00000037
     atom   42 type  3   force =    -0.00000200   -0.00000019    0.00000031
     atom   43 type  3   force =     0.00000198   -0.00000019   -0.00000032
     atom   44 type  3   force =     0.00000189    0.00000017   -0.00000040
     atom   45 type  4   force =    -0.00000977    0.00000314   -0.00000091
     atom   46 type  4   force =    -0.00001052   -0.00000331    0.00000066
     atom   47 type  4   force =     0.00001036   -0.00000328    0.00000018
     atom   48 type  4   force =     0.00000999    0.00000315    0.00000024
     atom   49 type  4   force =    -0.00000531    0.00000214   -0.00000844
     atom   50 type  4   force =    -0.00000627   -0.00000256   -0.00000749
     atom   51 type  4   force =     0.00000569   -0.00000233    0.00000755
     atom   52 type  4   force =     0.00000568    0.00000221    0.00000828
     atom   53 type  4   force =    -0.00000082   -0.00000279    0.00000280
     atom   54 type  4   force =    -0.00000107    0.00000254    0.00000436
     atom   55 type  4   force =     0.00000071    0.00000266   -0.00000415
     atom   56 type  4   force =     0.00000087   -0.00000266   -0.00000298
     atom   57 type  4   force =    -0.00000200    0.00000014   -0.00000390
     atom   58 type  4   force =    -0.00000169    0.00000017   -0.00000215
     atom   59 type  4   force =     0.00000160   -0.00000004    0.00000199
     atom   60 type  4   force =     0.00000218    0.00000012    0.00000393
     atom   61 type  4   force =    -0.00000283    0.00000150    0.00000552
     atom   62 type  4   force =    -0.00000337   -0.00000162    0.00000688
     atom   63 type  4   force =     0.00000276   -0.00000165   -0.00000726
     atom   64 type  4   force =     0.00000327    0.00000148   -0.00000585
     atom   65 type  4   force =     0.00000080    0.00000413    0.00000382
     atom   66 type  4   force =     0.00000069   -0.00000400    0.00000534
     atom   67 type  4   force =    -0.00000111   -0.00000407   -0.00000525
     atom   68 type  4   force =    -0.00000065    0.00000410   -0.00000401
     atom   69 type  3   force =     0.00000000    0.00000079    0.00000081
     atom   70 type  3   force =    -0.00000004   -0.00000075    0.00000087
     atom   71 type  3   force =    -0.00000007   -0.00000076   -0.00000083
     atom   72 type  3   force =     0.00000009    0.00000080   -0.00000088

     DFT-D3 dispersion contribution to forces:
     atom    1 type  1   force =     0.00012323    0.00031865    0.00026691
     atom    2 type  1   force =     0.00012323   -0.00031865    0.00026692
     atom    3 type  1   force =    -0.00012323   -0.00031865   -0.00026690
     atom    4 type  1   force =    -0.00012323    0.00031865   -0.00026692
     atom    5 type  2   force =     0.00001069   -0.00004759   -0.00005114
     atom    6 type  2   force =     0.00001071    0.00004760   -0.00005116
     atom    7 type  2   force =    -0.00001071    0.00004760    0.00005114
     atom    8 type  2   force =    -0.00001070   -0.00004759    0.00005115
     atom    9 type  3   force =     0.00000187   -0.00005033    0.00008977
     atom   10 type  3   force =     0.00000187    0.00005033    0.00008978
     atom   11 type  3   force =    -0.00000187    0.00005033   -0.00008978
     atom   12 type  3   force =    -0.00000187   -0.00005033   -0.00008978
     atom   13 type  4   force =     0.00018129    0.00047131    0.00052537
     atom   14 type  4   force =     0.00018132   -0.00047129    0.00052536
     atom   15 type  4   force =    -0.00018129   -0.00047131   -0.00052536
     atom   16 type  4   force =    -0.00018129    0.00047131   -0.00052537
     atom   17 type  3   force =     0.00014529    0.00010649    0.00017020
     atom   18 type  3   force =     0.00014529   -0.00010648    0.00017018
     atom   19 type  3   force =    -0.00014529   -0.00010648   -0.00017019
     atom   20 type  3   force =    -0.00014529    0.00010648   -0.00017020
     atom   21 type  4   force =    -0.00026709    0.00065159   -0.00001483
     atom   22 type  4   force =    -0.00026709   -0.00065159   -0.00001483
     atom   23 type  4   force =     0.00026708   -0.00065158    0.00001483
     atom   24 type  4   force =     0.00026708    0.00065159    0.00001483
     atom   25 type  3   force =    -0.00008332    0.00018136   -0.00007192
     atom   26 type  3   force =    -0.00008333   -0.00018137   -0.00007192
     atom   27 type  3   force =     0.00008333   -0.00018136    0.00007192
     atom   28 type  3   force =     0.00008333    0.00018136    0.00007192
     atom   29 type  4   force =    -0.00030770    0.00047229   -0.00062729
     atom   30 type  4   force =    -0.00030768   -0.00047229   -0.00062728
     atom   31 type  4   force =     0.00030769   -0.00047229    0.00062728
     atom   32 type  4   force =     0.00030770    0.00047229    0.00062728
     atom   33 type  3   force =    -0.00013595    0.00012531   -0.00013251
     atom   34 type  3   force =    -0.00013594   -0.00012531   -0.00013251
     atom   35 type  3   force =     0.00013595   -0.00012531    0.00013252
     atom   36 type  3   force =     0.00013594    0.00012531    0.00013251
     atom   37 type  4   force =     0.00042388   -0.00007453   -0.00044579
     atom   38 type  4   force =     0.00042387    0.00007453   -0.00044582
     atom   39 type  4   force =    -0.00042388    0.00007453    0.00044580
     atom   40 type  4   force =    -0.00042387   -0.00007453    0.00044581
     atom   41 type  3   force =     0.00017754   -0.00007964   -0.00012754
     atom   42 type  3   force =     0.00017754    0.00007964   -0.00012754
     atom   43 type  3   force =    -0.00017754    0.00007964    0.00012754
     atom   44 type  3   force =    -0.00017753   -0.00007964    0.00012753
     atom   45 type  4   force =     0.00041374   -0.00009094   -0.00052271
     atom   46 type  4   force =     0.00041377    0.00009095   -0.00052260
     atom   47 type  4   force =    -0.00041373    0.00009093    0.00052271
     atom   48 type  4   force =    -0.00041379   -0.00009096    0.00052265
     atom   49 type  4   force =     0.00044850    0.00021221    0.00031023
     atom   50 type  4   force =     0.00044846   -0.00021223    0.00031021
     atom   51 type  4   force =    -0.00044849   -0.00021221   -0.00031022
     atom   52 type  4   force =    -0.00044849    0.00021221   -0.00031021
     atom   53 type  4   force =     0.00011588   -0.00015089   -0.00062182
     atom   54 type  4   force =     0.00011576    0.00015082   -0.00062178
     atom   55 type  4   force =    -0.00011585    0.00015088    0.00062184
     atom   56 type  4   force =    -0.00011580   -0.00015085    0.00062180
     atom   57 type  4   force =    -0.00019820    0.00032216    0.00027732
     atom   58 type  4   force =    -0.00019813   -0.00032211    0.00027732
     atom   59 type  4   force =     0.00019817   -0.00032214   -0.00027732
     atom   60 type  4   force =     0.00019817    0.00032214   -0.00027732
     atom   61 type  4   force =     0.00013020    0.00029598    0.00035915
     atom   62 type  4   force =     0.00013023   -0.00029596    0.00035903
     atom   63 type  4   force =    -0.00013021   -0.00029598   -0.00035914
     atom   64 type  4   force =    -0.00013022    0.00029597   -0.00035910
     atom   65 type  4   force =     0.00009186    0.00017052    0.00071752
     atom   66 type  4   force =     0.00009182   -0.00017055    0.00071753
     atom   67 type  4   force =    -0.00009185   -0.00017053   -0.00071754
     atom   68 type  4   force =    -0.00009184    0.00017054   -0.00071753
     atom   69 type  3   force =     0.00000458    0.00007069    0.00019021
     atom   70 type  3   force =     0.00000459   -0.00007069    0.00019018
     atom   71 type  3   force =    -0.00000458   -0.00007069   -0.00019020
     atom   72 type  3   force =    -0.00000458    0.00007069   -0.00019020

     Total force =     0.006267     Total SCF correction =     0.000085
     Energy error            =      6.3E-05 Ry
     Gradient error          =      9.4E-04 Ry/Bohr

     bfgs converged in  21 scf cycles and  19 bfgs steps
     (criteria: energy <  1.0E-04 Ry, force <  1.0E-03 Ry/Bohr)

     End of BFGS Geometry Optimization

     Final energy             =   -1045.5739820540 Ry

     File /scratch/calc/outdir/pwscf.bfgs deleted, as requested
Begin final coordinates

ATOMIC_POSITIONS (angstrom)
O             4.1346002716        1.6479170870        1.9184094147
O             2.9203509571        0.2925818954        8.5084596099
O             7.1338761989        2.2330782309       11.2617192588
O             8.3481368863        3.5884215796        4.6716668306
N             2.7205546469        0.9174226033       11.1812444793
N             3.9348120543        1.0230767727        4.5911686444
N             8.5479275049        2.9635772083        1.9988970603
N             7.3336653390        2.8579224216        8.5889597888
H             2.9431473543        0.7147680777       10.1861979779
H             4.1574066388        1.2257291239        3.5961248450
H             8.3253332287        3.1662307187        2.9939418619
H             7.1110732523        2.6552695689        9.5839977321
C            -0.0987564854        2.4147879205       13.0371400521
C             1.1155013403        3.4067109991        6.4470760543
C            11.3672340020        1.4662124630        0.1429915478
C            10.1529798257        0.4742902217        6.7330565431
H             2.0522369936        2.6002602509        0.8952972802
H             0.8379801869        3.2212432139        7.4853598142
H             9.2162400245        1.2807422692       12.2848394749
H            10.4305029372        0.6597599561        5.6947692386
C            -0.9275415429        2.7705597704       11.9916769936
C             0.2867225557        3.0509421732        5.4016069471
C            12.1960205508        1.1104398571        1.1884620231
C            10.9817600681        0.8300587411        7.7785223645
H            -1.8919237934        3.2409337337       12.1847123047
H            -0.6776636661        2.5805641163        5.5946475149
H            13.1604025969        0.6400645407        0.9954202176
H            11.9461454574        1.3004338786        7.5854858764
C            -0.5179372807        2.5279808881       10.6622292886
C             0.6963198588        3.2935155394        4.0721644315
C            11.7864163927        1.3530174064        2.5179020286
C            10.5721623729        0.5874834109        9.1079681267
H            -1.1640769051        2.8282818452        9.8366836555
H             0.0501853175        2.9932142098        3.2466177408
H            12.4325558630        1.0527136918        3.3434505461
H            11.2182968047        0.8877821228        9.9335144847
C             0.6892885095        1.9220603903       10.3905183399
C             1.9035532662        0.0184406878        3.8004484232
C            10.5791902093        1.9589387923        2.7896195545
C             9.3649271897        3.8625581448        9.3796816795
H             1.0126151099        1.7150301559        9.3702827589
H             2.2268746912        0.2254662432        2.7802122959
H            10.2558652420        2.1659664829        3.8098551581
H             9.0416061408        3.6555305553       10.3999148201
C             1.5353753583        1.5390742865       11.4545883467
C             2.7496357354        0.4014252028        4.8645197221
C             9.7331015414        2.3419262062        1.7255468995
C             8.5188490186        3.4795772130        8.3156075618
C             1.1463525036        1.7973298587       12.7977889322
C             2.3606182402        0.1431729148        6.2077155301
C            10.1221246111        2.0836710160        0.3823483144
C             8.9078648224        3.7378294752        6.9724128664
C             3.5633568212        0.4645142428       12.1651200297
C             4.7776234511        1.4759906648        5.5750477930
C             7.7051196718        3.4164893784        1.0150211400
C             6.4908609565        2.4050133205        7.6050736371
C             5.6702181493        0.6888376649        0.3597121546
C             4.4559553497        1.2516610977        6.9497646759
C             5.5982634050        3.1921619772       12.8204279490
C             6.8125237547        2.6293396591        6.2303575562
C             4.4371220228        1.4006595623        0.7214227263
C             3.2228605269        0.5398356620        7.3115105044
C             6.8313546349        2.4803401424       12.4587149313
C             8.0456208228        3.3411649664        5.8686294080
C             6.5320102043        0.2166325160        1.3493506613
C             5.3177555946        1.7238703031        7.9394129573
C             4.7364692719        3.6643682371       11.8307905673
C             5.9507274533        2.1571313404        5.2407116719
H             6.2737021071        0.3849315266        2.3950742920
H             5.0594464579        1.5555702359        8.9851275379
H             4.9947747915        3.4960694944       10.7850700087
H             6.2090373664        2.3254318743        4.1949914859
End final coordinates



     Writing all to output data dir /scratch/calc/outdir/pwscf.save/
 
     init_run     :      1.49s CPU      1.80s WALL (       1 calls)
     electrons    :    399.32s CPU    423.26s WALL (      21 calls)
     update_pot   :      9.93s CPU     10.15s WALL (      20 calls)
     forces       :     21.16s CPU     26.91s WALL (      21 calls)
     force_dftd3  :      7.66s CPU     12.02s WALL (      21 calls)

     Called by init_run:
     wfcinit      :      0.85s CPU      0.93s WALL (       1 calls)
     potinit      :      0.19s CPU      0.21s WALL (       1 calls)
     hinit0       :      0.27s CPU      0.47s WALL (       1 calls)

     Called by electrons:
     c_bands      :    335.18s CPU    351.62s WALL (     190 calls)
     sum_band     :     43.45s CPU     46.17s WALL (     190 calls)
     v_of_rho     :      2.88s CPU      3.18s WALL (     204 calls)
     newd         :      6.01s CPU      6.70s WALL (     204 calls)
     PAW_pot      :      9.88s CPU      9.94s WALL (     224 calls)
     mix_rho      :      0.38s CPU      0.43s WALL (     190 calls)
     energy_dftd3 :      3.29s CPU      6.48s WALL (      21 calls)

     Called by c_bands:
     init_us_2    :      2.94s CPU      3.11s WALL (    3376 calls)
     init_us_2:cp :      2.93s CPU      3.10s WALL (    3376 calls)
     cegterg      :    327.16s CPU    342.52s WALL (    1520 calls)

     Called by *egterg:
     cdiaghg      :    105.61s CPU    106.07s WALL (    6232 calls)
     h_psi        :    160.02s CPU    166.67s WALL (    6456 calls)
     s_psi        :     13.37s CPU     13.47s WALL (    6456 calls)
     g_psi        :      0.34s CPU      0.34s WALL (    4928 calls)

     Called by h_psi:
     h_psi:calbec :     18.96s CPU     20.92s WALL (    6456 calls)
     vloc_psi     :    126.62s CPU    131.07s WALL (    6456 calls)
     add_vuspsi   :     13.82s CPU     13.97s WALL (    6456 calls)

     General routines
     calbec       :     30.09s CPU     33.49s WALL (    8808 calls)
     fft          :      2.73s CPU      4.00s WALL (    2868 calls)
     ffts         :      0.10s CPU      0.11s WALL (     394 calls)
     fftw         :    135.38s CPU    140.55s WALL ( 1250972 calls)
     interpolate  :      0.23s CPU      0.27s WALL (     204 calls)
 
     Parallel routines
 
     PWSCF        :   7m16.22s CPU   7m48.83s WALL

 
   This run was terminated on:  22: 3:48   7Mar2024            

=------------------------------------------------------------------------------=
   JOB DONE.
=------------------------------------------------------------------------------=
