
     Program PWSCF v.7.3 starts on  9Feb2024 at 20: 0:32 

     This program is part of the open-source Quantum ESPRESSO suite
     for quantum simulation of materials; please cite
         "P. Giannozzi et al., J. Phys.:Condens. Matter 21 395502 (2009);
         "P. Giannozzi et al., J. Phys.:Condens. Matter 29 465901 (2017);
         "P. Giannozzi et al., J. Chem. Phys. 152 154105 (2020);
          URL http://www.quantum-espresso.org", 
     in publications or presentations arising from this work. More details at
     http://www.quantum-espresso.org/quote

     Parallel version (MPI & OpenMP), running on      36 processor cores
     Number of MPI processes:                36
     Threads/MPI process:                     1

     MPI processes distributed on     1 nodes
     556085 MiB available memory on the printing compute node when the environment starts
 
     Waiting for input...
     Reading input from standard input
Warning: card &CELL ignored
Warning: card / ignored

     Current dimensions of program PWSCF are:
     Max number of different atomic species (ntypx) = 10
     Max number of k-points (npk) =  40000
     Max angular momentum in pseudopotentials (lmaxx) =  4
     file Mo.pbe-spn-kjpaw_psl.1.0.0.UPF: wavefunction(s)  4S 4D renormalized
     file S.pbe-n-kjpaw_psl.1.0.0.UPF: wavefunction(s)  3S 3P renormalized
     file Pt.pbe-spfn-kjpaw_psl.1.0.0.UPF: wavefunction(s)  5P 4F renormalized
 
     R & G space division:  proc/nbgrp/npool/nimage =      36
     Subspace diagonalization in iterative solution of the eigenvalue problem:
     one sub-group per band group will be used
     scalapack distributed-memory algorithm (size of sub-group:  6*  6 procs)

 
     Parallelization info
     --------------------
     sticks:   dense  smooth     PW     G-vecs:    dense   smooth      PW
     Min         586     335     89               165416    71459    9765
     Max         587     337     90               165425    71461    9778
     Sum       21109   12085   3205              5955087  2572543  351657
 
     Using Slab Decomposition
 


     bravais-lattice index     =            0
     lattice parameter (alat)  =      23.8395  a.u.
     unit-cell volume          =   28182.8498 (a.u.)^3
     number of atoms/cell      =          147
     number of atomic types    =            3
     number of electrons       =      1344.00
     number of Kohn-Sham states=          806
     kinetic-energy cutoff     =      77.0000  Ry
     charge density cutoff     =     539.0000  Ry
     scf convergence threshold =      1.0E-06
     mixing beta               =       0.2000
     number of iterations used =            8  plain     mixing
     energy convergence thresh.=      1.0E-04
     force convergence thresh. =      1.0E-03
     Exchange-correlation= SLA  PW   PBX  PBC
                           (   1   4   3   4   0   0   0)
     nstep                     =         1000


     Effective Screening Medium Method
     =================================
     Boundary Conditions: Vacuum-Slab-Vacuum
     total charge in unit cell        =   0.0000
     grid points for fit at edges     =        4 
 

     celldm(1)=  23.839504  celldm(2)=   0.000000  celldm(3)=   0.000000
     celldm(4)=   0.000000  celldm(5)=   0.000000  celldm(6)=   0.000000

     crystal axes: (cart. coord. in units of alat)
               a(1) = (   1.000000   0.000000   0.000000 )  
               a(2) = (  -0.500001   0.866026   0.000000 )  
               a(3) = (   0.000000   0.000000   2.401941 )  

     reciprocal axes: (cart. coord. in units 2 pi/alat)
               b(1) = (  1.000000  0.577351  0.000000 )  
               b(2) = (  0.000000  1.154700  0.000000 )  
               b(3) = (  0.000000  0.000000  0.416330 )  


     PseudoPot. # 1 for Mo read from file:
     ./pseudo/Mo.pbe-spn-kjpaw_psl.1.0.0.UPF
     MD5 check sum: 317bf72632116215fd98f72de1686f13
     Pseudo is Projector augmented-wave + core cor, Zval = 14.0
     Generated using 'atomic' code by A. Dal Corso  v.7.2
     Shape of augmentation charge: PSQ
     Using radial grid of 1229 points,  6 beta functions with: 
                l(1) =   0
                l(2) =   0
                l(3) =   1
                l(4) =   1
                l(5) =   2
                l(6) =   2
     Q(r) pseudized with 0 coefficients 


     PseudoPot. # 2 for S  read from file:
     ./pseudo/S.pbe-n-kjpaw_psl.1.0.0.UPF
     MD5 check sum: 8b7b5302570d38d5e87fed6a1065abda
     Pseudo is Projector augmented-wave + core cor, Zval =  6.0
     Generated using 'atomic' code by A. Dal Corso  v.7.2
     Shape of augmentation charge: PSQ
     Using radial grid of 1151 points,  6 beta functions with: 
                l(1) =   0
                l(2) =   0
                l(3) =   1
                l(4) =   1
                l(5) =   2
                l(6) =   2
     Q(r) pseudized with 0 coefficients 


     PseudoPot. # 3 for Pt read from file:
     ./pseudo/Pt.pbe-spfn-kjpaw_psl.1.0.0.UPF
     MD5 check sum: 620096ebf4e6ebacc94de60fd67efcb5
     Pseudo is Projector augmented-wave + core cor, Zval = 32.0
     Generated using 'atomic' code by A. Dal Corso  v.7.2
     Shape of augmentation charge: PSQ
     Using radial grid of 1277 points,  8 beta functions with: 
                l(1) =   0
                l(2) =   0
                l(3) =   1
                l(4) =   1
                l(5) =   2
                l(6) =   2
                l(7) =   3
                l(8) =   3
     Q(r) pseudized with 0 coefficients 


     atomic species   valence    mass     pseudopotential
     Mo               14.00    95.95000     Mo( 1.00)
     S                 6.00    32.06000     S ( 1.00)
     Pt               32.00   195.08400     Pt( 1.00)

     No symmetry found



   Cartesian axes

     site n.     atom                  positions (alat units)
         1        Mo     tau(   1) = (   0.1245154   0.2145629   0.4838883  )
         2        Mo     tau(   2) = (   0.1250004   0.0721694  -0.4825273  )
         3        Mo     tau(   3) = (   0.0000425   0.1442456   0.0000619  )
         4        S      tau(   4) = (   0.0000004   0.0000006  -0.6064556  )
         5        S      tau(   5) = (   0.1250289   0.0721378  -0.1240905  )
         6        S      tau(   6) = (   0.0004348   0.1425943   0.3589312  )
         7        S      tau(   7) = (   0.0000004   0.0000005  -0.3584711  )
         8        S      tau(   8) = (   0.1250590   0.0720566   0.1242171  )
         9        S      tau(   9) = (  -0.0003812   0.1430770   0.6082257  )
        10        Mo     tau(  10) = (  -0.0007514   0.4316905   0.4830160  )
        11        Mo     tau(  11) = (   0.0000001   0.2886759  -0.4825273  )
        12        Mo     tau(  12) = (  -0.1249521   0.3607434   0.0000147  )
        13        S      tau(  13) = (  -0.1249999   0.2165071  -0.6064556  )
        14        S      tau(  14) = (   0.0000696   0.2885943  -0.1240368  )
        15        S      tau(  15) = (  -0.1243620   0.3589267   0.3580713  )
        16        S      tau(  16) = (  -0.1249998   0.2165070  -0.3584711  )
        17        S      tau(  17) = (   0.0000810   0.2885804   0.1243185  )
        18        S      tau(  18) = (  -0.1257647   0.3594678   0.6068568  )
        19        Mo     tau(  19) = (  -0.1258132   0.6483948   0.4805624  )
        20        Mo     tau(  20) = (  -0.1250002   0.5051824  -0.4825273  )
        21        Mo     tau(  21) = (  -0.2499883   0.5772682  -0.0000419  )
        22        S      tau(  22) = (  -0.2500002   0.4330136  -0.6064556  )
        23        S      tau(  23) = (  -0.1249379   0.5050979  -0.1240947  )
        24        S      tau(  24) = (  -0.2506625   0.5759186   0.3568926  )
        25        S      tau(  25) = (  -0.2500001   0.4330135  -0.3584711  )
        26        S      tau(  26) = (  -0.1250441   0.5050577   0.1241569  )
        27        S      tau(  27) = (  -0.2487337   0.5760113   0.6060824  )
        28        Mo     tau(  28) = (   0.2499313  -0.0010413   0.4821860  )
        29        Mo     tau(  29) = (  -0.2500004   0.7216889  -0.4825273  )
        30        Mo     tau(  30) = (  -0.3749657   0.7937917  -0.0000260  )
        31        S      tau(  31) = (  -0.3750004   0.6495201  -0.6064556  )
        32        S      tau(  32) = (  -0.2499441   0.7216334  -0.1241298  )
        33        S      tau(  33) = (  -0.3753987   0.7929794   0.3583883  )
        34        S      tau(  34) = (  -0.3750004   0.6495200  -0.3584711  )
        35        S      tau(  35) = (  -0.2499697   0.7216106   0.1241587  )
        36        S      tau(  36) = (  -0.3740548   0.7924718   0.6070428  )
        37        Mo     tau(  37) = (   0.3754903   0.2138312   0.4824355  )
        38        Mo     tau(  38) = (   0.3750004   0.0721694  -0.4825273  )
        39        Mo     tau(  39) = (   0.2500190   0.1443049   0.0000251  )
        40        S      tau(  40) = (   0.2500004   0.0000006  -0.6064556  )
        41        S      tau(  41) = (   0.3750395   0.0721655  -0.1240658  )
        42        S      tau(  42) = (   0.2492498   0.1434297   0.3583124  )
        43        S      tau(  43) = (   0.2500004   0.0000005  -0.3584711  )
        44        S      tau(  44) = (   0.3749990   0.0721134   0.1242290  )
        45        S      tau(  45) = (   0.2505186   0.1425747   0.6070242  )
        46        Mo     tau(  46) = (   0.2489619   0.4303408   0.4857216  )
        47        Mo     tau(  47) = (   0.2500001   0.2886759  -0.4825273  )
        48        Mo     tau(  48) = (   0.1250526   0.3607813   0.0000840  )
        49        S      tau(  49) = (   0.1250001   0.2165071  -0.6064556  )
        50        S      tau(  50) = (   0.2500419   0.2886606  -0.1240379  )
        51        S      tau(  51) = (   0.1261759   0.3597087   0.3613462  )
        52        S      tau(  52) = (   0.1250002   0.2165070  -0.3584711  )
        53        S      tau(  53) = (   0.2500376   0.2886120   0.1243390  )
        54        S      tau(  54) = (   0.1185564   0.3555008   0.6138384  )
        55        Mo     tau(  55) = (   0.1202279   0.6507949   0.4802728  )
        56        Mo     tau(  56) = (   0.1249998   0.5051824  -0.4825273  )
        57        Mo     tau(  57) = (   0.0000374   0.5772595   0.0000671  )
        58        S      tau(  58) = (  -0.0000002   0.4330136  -0.6064556  )
        59        S      tau(  59) = (   0.1250566   0.5051315  -0.1240039  )
        60        S      tau(  60) = (  -0.0017492   0.5751181   0.3561394  )
        61        S      tau(  61) = (  -0.0000001   0.4330135  -0.3584711  )
        62        S      tau(  62) = (   0.1250592   0.5050887   0.1243806  )
        63        S      tau(  63) = (  -0.0025886   0.5770810   0.6054654  )
        64        Mo     tau(  64) = (   0.4997787  -0.0005006   0.4806072  )
        65        Mo     tau(  65) = (  -0.0000004   0.7216889  -0.4825273  )
        66        Mo     tau(  66) = (  -0.1249578   0.7938077  -0.0000124  )
        67        S      tau(  67) = (  -0.1250004   0.6495201  -0.6064556  )
        68        S      tau(  68) = (   0.0000912   0.7216231  -0.1240278  )
        69        S      tau(  69) = (  -0.1257861   0.7933803   0.3568273  )
        70        S      tau(  70) = (  -0.1250004   0.6495200  -0.3584711  )
        71        S      tau(  71) = (  -0.0000101   0.7216131   0.1242707  )
        72        S      tau(  72) = (  -0.1247631   0.7926968   0.6053221  )
        73        Mo     tau(  73) = (   0.6254983   0.2150747   0.4816248  )
        74        Mo     tau(  74) = (   0.6250004   0.0721694  -0.4825273  )
        75        Mo     tau(  75) = (   0.5000176   0.1443256   0.0000522  )
        76        S      tau(  76) = (   0.5000004   0.0000006  -0.6064556  )
        77        S      tau(  77) = (   0.6250309   0.0721123  -0.1240107  )
        78        S      tau(  78) = (   0.5001073   0.1438670   0.3568675  )
        79        S      tau(  79) = (   0.5000004   0.0000005  -0.3584711  )
        80        S      tau(  80) = (   0.6250184   0.0721649   0.1242372  )
        81        S      tau(  81) = (   0.5008579   0.1421657   0.6061011  )
        82        Mo     tau(  82) = (   0.5020927   0.4305259   0.4835992  )
        83        Mo     tau(  83) = (   0.5000001   0.2886759  -0.4825273  )
        84        Mo     tau(  84) = (   0.3750096   0.3608300   0.0000853  )
        85        S      tau(  85) = (   0.3750001   0.2165071  -0.6064556  )
        86        S      tau(  86) = (   0.5000130   0.2886647  -0.1240153  )
        87        S      tau(  87) = (   0.3740918   0.3603366   0.3614179  )
        88        S      tau(  88) = (   0.3750002   0.2165070  -0.3584711  )
        89        S      tau(  89) = (   0.4999600   0.2886676   0.1243287  )
        90        S      tau(  90) = (   0.3826295   0.3540684   0.6107884  )
        91        Mo     tau(  91) = (   0.3754347   0.6495598   0.4856131  )
        92        Mo     tau(  92) = (   0.3749998   0.5051824  -0.4825273  )
        93        Mo     tau(  93) = (   0.2500442   0.5772815   0.0001210  )
        94        S      tau(  94) = (   0.2499998   0.4330136  -0.6064556  )
        95        S      tau(  95) = (   0.3750010   0.5051487  -0.1240235  )
        96        S      tau(  96) = (   0.2505704   0.5754266   0.3628441  )
        97        S      tau(  97) = (   0.2499999   0.4330135  -0.3584711  )
        98        S      tau(  98) = (   0.3750559   0.5051422   0.1243805  )
        99        S      tau(  99) = (   0.2381374   0.5825819   0.6067890  )
       100        Mo     tau( 100) = (   0.7497549  -0.0007739   0.4829754  )
       101        Mo     tau( 101) = (   0.2499996   0.7216889  -0.4825273  )
       102        Mo     tau( 102) = (   0.1250535   0.7937975   0.0001168  )
       103        S      tau( 103) = (   0.1249996   0.6495201  -0.6064556  )
       104        S      tau( 104) = (   0.2500248   0.7216238  -0.1239807  )
       105        S      tau( 105) = (   0.1250865   0.7943282   0.3561776  )
       106        S      tau( 106) = (   0.1249996   0.6495200  -0.3584711  )
       107        S      tau( 107) = (   0.2500804   0.7215701   0.1244010  )
       108        S      tau( 108) = (   0.1230625   0.7940424   0.6054764  )
       109        Mo     tau( 109) = (  -0.1247968   0.2149139   0.4827366  )
       110        Mo     tau( 110) = (   0.8750004   0.0721694  -0.4825273  )
       111        Mo     tau( 111) = (   0.7500535   0.1442576   0.0000659  )
       112        S      tau( 112) = (   0.7500004   0.0000006  -0.6064556  )
       113        S      tau( 113) = (   0.8750311   0.0720720  -0.1240212  )
       114        S      tau( 114) = (   0.7507437   0.1426622   0.3580001  )
       115        S      tau( 115) = (   0.7500004   0.0000005  -0.3584711  )
       116        S      tau( 116) = (   0.8750679   0.0720215   0.1243391  )
       117        S      tau( 117) = (   0.7495917   0.1435798   0.6069484  )
       118        Mo     tau( 118) = (  -0.2495513   0.4315827   0.4815648  )
       119        Mo     tau( 119) = (   0.7500001   0.2886759  -0.4825273  )
       120        Mo     tau( 120) = (   0.6250173   0.3607849   0.0000853  )
       121        S      tau( 121) = (   0.6250001   0.2165071  -0.6064556  )
       122        S      tau( 122) = (   0.7500100   0.2885948  -0.1240341  )
       123        S      tau( 123) = (   0.6253146   0.3594994   0.3574324  )
       124        S      tau( 124) = (   0.6250002   0.2165070  -0.3584711  )
       125        S      tau( 125) = (   0.7500616   0.2885920   0.1242759  )
       126        S      tau( 126) = (   0.6276913   0.3582815   0.6066892  )
       127        Mo     tau( 127) = (  -0.3734392   0.6486538   0.4825126  )
       128        Mo     tau( 128) = (   0.6249998   0.5051824  -0.4825273  )
       129        Mo     tau( 129) = (   0.5000108   0.5772931   0.0000391  )
       130        S      tau( 130) = (   0.4999998   0.4330136  -0.6064556  )
       131        S      tau( 131) = (   0.6249933   0.5050874  -0.1240675  )
       132        S      tau( 132) = (   0.4990505   0.5765481   0.3615193  )
       133        S      tau( 133) = (   0.4999999   0.4330135  -0.3584711  )
       134        S      tau( 134) = (   0.6249857   0.5051595   0.1242674  )
       135        S      tau( 135) = (   0.5084858   0.5722242   0.6106609  )
       136        Mo     tau( 136) = (   0.0003958  -0.0008070   0.4838665  )
       137        Mo     tau( 137) = (   0.4999996   0.7216889  -0.4825273  )
       138        Mo     tau( 138) = (   0.3750498   0.7937581   0.0000905  )
       139        S      tau( 139) = (   0.3749996   0.6495201  -0.6064556  )
       140        S      tau( 140) = (   0.5000109   0.7216246  -0.1240696  )
       141        S      tau( 141) = (   0.3755073   0.7912798   0.3612018  )
       142        S      tau( 142) = (   0.3749996   0.6495200  -0.3584711  )
       143        S      tau( 143) = (   0.5000873   0.7215932   0.1243026  )
       144        S      tau( 144) = (   0.3753273   0.8000111   0.6138078  )
       145        Pt     tau( 145) = (   0.2576892   0.4411371   0.7122167  )
       146        Pt     tau( 146) = (   0.3705587   0.6371970   0.7119237  )
       147        Pt     tau( 147) = (   0.1202506   0.6507959   0.7322841  )

     --------------------------------------------
     DFT-D3 Dispersion Correction (3-body terms):
     --------------------------------------------
       Reference C6 values for interpolation: 

         atom   Coordination number   C6
         S          0.000           268.01
         S          0.995           261.99
         S          1.990           251.62
         Mo         0.000          1691.79
         Mo         1.942          1004.01
         Mo        11.056           674.22
         Pt         0.000           782.29
         Pt         1.919           692.72
         Pt         6.667           673.75

       Values used:

         atom   Coordination number  R0_AB[au]  C6      C8
         Mo        10.221            3.547    674.22  77634.20
         Mo        10.189            3.547    674.22  77634.20
         Mo        10.201            3.547    674.22  77634.20
         S          3.753            3.128    251.62  12327.25
         S          3.858            3.128    251.62  12327.25
         S          3.859            3.128    251.62  12327.25
         S          3.858            3.128    251.62  12327.25
         S          3.859            3.128    251.62  12327.25
         S          3.815            3.128    251.62  12327.25
         Mo        10.217            3.547    674.22  77634.20
         Mo        10.189            3.547    674.22  77634.20
         Mo        10.200            3.547    674.22  77634.20
         S          3.753            3.128    251.62  12327.25
         S          3.858            3.128    251.62  12327.25
         S          3.858            3.128    251.62  12327.25
         S          3.858            3.128    251.62  12327.25
         S          3.854            3.128    251.62  12327.25
         S          3.808            3.128    251.62  12327.25
         Mo        10.282            3.547    674.22  77634.20
         Mo        10.189            3.547    674.22  77634.20
         Mo        10.200            3.547    674.22  77634.20
         S          3.753            3.128    251.62  12327.25
         S          3.858            3.128    251.62  12327.25
         S          3.855            3.128    251.62  12327.25
         S          3.858            3.128    251.62  12327.25
         S          3.864            3.128    251.62  12327.25
         S          3.819            3.128    251.62  12327.25
         Mo        10.240            3.547    674.22  77634.20
         Mo        10.189            3.547    674.22  77634.20
         Mo        10.201            3.547    674.22  77634.20
         S          3.753            3.128    251.62  12327.25
         S          3.857            3.128    251.62  12327.25
         S          3.867            3.128    251.62  12327.25
         S          3.858            3.128    251.62  12327.25
         S          3.862            3.128    251.62  12327.25
         S          3.762            3.128    251.62  12327.25
         Mo        10.206            3.547    674.22  77634.20
         Mo        10.189            3.547    674.22  77634.20
         Mo        10.201            3.547    674.22  77634.20
         S          3.753            3.128    251.62  12327.25
         S          3.858            3.128    251.62  12327.25
         S          3.865            3.128    251.62  12327.25
         S          3.858            3.128    251.62  12327.25
         S          3.862            3.128    251.62  12327.25
         S          3.762            3.128    251.62  12327.25
         Mo        10.829            3.547    674.22  77634.20
         Mo        10.189            3.547    674.22  77634.20
         Mo        10.202            3.547    674.22  77634.20
         S          3.753            3.128    251.62  12327.25
         S          3.858            3.128    251.62  12327.25
         S          3.845            3.128    251.62  12327.25
         S          3.858            3.128    251.62  12327.25
         S          3.853            3.128    251.62  12327.25
         S          4.635            3.128    251.62  12327.25
         Mo        10.612            3.547    674.22  77634.20
         Mo        10.189            3.547    674.22  77634.20
         Mo        10.200            3.547    674.22  77634.20
         S          3.753            3.128    251.62  12327.25
         S          3.858            3.128    251.62  12327.25
         S          3.838            3.128    251.62  12327.25
         S          3.858            3.128    251.62  12327.25
         S          3.851            3.128    251.62  12327.25
         S          4.785            3.128    251.62  12327.25
         Mo        10.281            3.547    674.22  77634.20
         Mo        10.189            3.547    674.22  77634.20
         Mo        10.199            3.547    674.22  77634.20
         S          3.753            3.128    251.62  12327.25
         S          3.858            3.128    251.62  12327.25
         S          3.856            3.128    251.62  12327.25
         S          3.858            3.128    251.62  12327.25
         S          3.862            3.128    251.62  12327.25
         S          3.804            3.128    251.62  12327.25
         Mo        10.246            3.547    674.22  77634.20
         Mo        10.189            3.547    674.22  77634.20
         Mo        10.200            3.547    674.22  77634.20
         S          3.753            3.128    251.62  12327.25
         S          3.858            3.128    251.62  12327.25
         S          3.854            3.128    251.62  12327.25
         S          3.858            3.128    251.62  12327.25
         S          3.863            3.128    251.62  12327.25
         S          3.818            3.128    251.62  12327.25
         Mo        10.140            3.547    674.22  77634.20
         Mo        10.189            3.547    674.22  77634.20
         Mo        10.202            3.547    674.22  77634.20
         S          3.753            3.128    251.62  12327.25
         S          3.858            3.128    251.62  12327.25
         S          3.856            3.128    251.62  12327.25
         S          3.858            3.128    251.62  12327.25
         S          3.857            3.128    251.62  12327.25
         S          4.671            3.128    251.62  12327.25
         Mo        10.827            3.547    674.22  77634.20
         Mo        10.189            3.547    674.22  77634.20
         Mo        10.202            3.547    674.22  77634.20
         S          3.753            3.128    251.62  12327.25
         S          3.858            3.128    251.62  12327.25
         S          3.874            3.128    251.62  12327.25
         S          3.858            3.128    251.62  12327.25
         S          3.848            3.128    251.62  12327.25
         S          6.645            3.128    251.62  12327.25
         Mo        10.218            3.547    674.21  77634.20
         Mo        10.189            3.547    674.22  77634.20
         Mo        10.200            3.547    674.22  77634.20
         S          3.753            3.128    251.62  12327.25
         S          3.858            3.128    251.62  12327.25
         S          3.838            3.128    251.62  12327.25
         S          3.858            3.128    251.62  12327.25
         S          3.851            3.128    251.62  12327.25
         S          4.785            3.128    251.62  12327.25
         Mo        10.229            3.547    674.22  77634.20
         Mo        10.189            3.547    674.22  77634.20
         Mo        10.200            3.547    674.22  77634.20
         S          3.753            3.128    251.62  12327.25
         S          3.858            3.128    251.62  12327.25
         S          3.859            3.128    251.62  12327.25
         S          3.858            3.128    251.62  12327.25
         S          3.854            3.128    251.62  12327.25
         S          3.807            3.128    251.62  12327.25
         Mo        10.244            3.547    674.22  77634.20
         Mo        10.189            3.547    674.22  77634.20
         Mo        10.201            3.547    674.22  77634.20
         S          3.753            3.128    251.62  12327.25
         S          3.858            3.128    251.62  12327.25
         S          3.846            3.128    251.62  12327.25
         S          3.858            3.128    251.62  12327.25
         S          3.859            3.128    251.62  12327.25
         S          3.836            3.128    251.62  12327.25
         Mo        10.204            3.547    674.22  77634.20
         Mo        10.189            3.547    674.22  77634.20
         Mo        10.202            3.547    674.22  77634.20
         S          3.753            3.128    251.62  12327.25
         S          3.858            3.128    251.62  12327.25
         S          3.858            3.128    251.62  12327.25
         S          3.858            3.128    251.62  12327.25
         S          3.858            3.128    251.62  12327.25
         S          4.672            3.128    251.62  12327.25
         Mo        10.222            3.547    674.22  77634.20
         Mo        10.189            3.547    674.22  77634.20
         Mo        10.202            3.547    674.22  77634.20
         S          3.753            3.128    251.62  12327.25
         S          3.858            3.128    251.62  12327.25
         S          3.843            3.128    251.62  12327.25
         S          3.858            3.128    251.62  12327.25
         S          3.853            3.128    251.62  12327.25
         S          4.636            3.128    251.62  12327.25
         Pt         4.853            3.168    673.75  70061.90
         Pt         4.857            3.168    673.75  70061.90
         Pt         3.994            3.168    692.72  72035.22

         Molecular C6 ( Ry / a.u.^6 ) =   8096183.53


     number of k points=     4  Gaussian smearing, width (Ry)=  0.0100
                       cart. coord. in units 2pi/alat
        k(    1) = (   0.0000000   0.0000000   0.0000000), wk =   0.5000000
        k(    2) = (   0.0000000  -0.5773499   0.0000000), wk =   0.5000000
        k(    3) = (  -0.5000000  -0.2886755   0.0000000), wk =   0.5000000
        k(    4) = (  -0.5000000  -0.8660254   0.0000000), wk =   0.5000000

     Dense  grid:  5955087 G-vectors     FFT dimensions: ( 180, 180, 432)

     Smooth grid:  2572543 G-vectors     FFT dimensions: ( 135, 135, 320)

     Estimated max dynamical RAM per process >       3.09 GB

     Estimated total dynamical RAM >     111.06 GB

     Initial potential from superposition of free atoms

     starting charge    1343.9542, renormalised to    1344.0000

     negative rho (up, down):  6.981E-04 0.000E+00
     Starting wfcs are  915 randomized atomic wfcs
     Checking if some PAW data can be deallocated... 

     total cpu time spent up to now is       99.3 secs

     Self-consistent Calculation

     iteration #  1     ecut=    77.00 Ry     beta= 0.20
     Davidson diagonalization with overlap
     ethr =  1.00E-02,  avg # of iterations =  2.0

     Threshold (ethr) on eigenvalues was too large:
     Diagonalizing with lowered threshold

     Davidson diagonalization with overlap
     ethr =  1.49E-04,  avg # of iterations = 13.0

     negative rho (up, down):  1.959E-04 0.000E+00

     total cpu time spent up to now is     1222.4 secs

     total energy              =  -28869.07571676 Ry
     estimated scf accuracy    <       5.04451446 Ry

     iteration #  2     ecut=    77.00 Ry     beta= 0.20
     Davidson diagonalization with overlap
     ethr =  3.75E-04,  avg # of iterations =  1.0

     negative rho (up, down):  3.133E-05 0.000E+00

     total cpu time spent up to now is     1425.8 secs

     total energy              =  -28868.14186792 Ry
     estimated scf accuracy    <       2.68338066 Ry

     iteration #  3     ecut=    77.00 Ry     beta= 0.20
     Davidson diagonalization with overlap
     ethr =  2.00E-04,  avg # of iterations = 14.5

     negative rho (up, down):  1.557E-05 0.000E+00

     total cpu time spent up to now is     1697.3 secs

     total energy              =  -28868.21910386 Ry
     estimated scf accuracy    <       0.90511040 Ry

     iteration #  4     ecut=    77.00 Ry     beta= 0.20
     Davidson diagonalization with overlap
     c_bands:  2 eigenvalues not converged
     ethr =  6.73E-05,  avg # of iterations = 16.2

     negative rho (up, down):  3.329E-05 0.000E+00

     total cpu time spent up to now is     2292.4 secs

     total energy              =  -28868.91839756 Ry
     estimated scf accuracy    <       0.81011671 Ry

     iteration #  5     ecut=    77.00 Ry     beta= 0.20
     Davidson diagonalization with overlap
     ethr =  6.03E-05,  avg # of iterations =  2.0

     negative rho (up, down):  5.175E-05 0.000E+00

     total cpu time spent up to now is     2515.7 secs

     total energy              =  -28868.96265450 Ry
     estimated scf accuracy    <       0.19239673 Ry

     iteration #  6     ecut=    77.00 Ry     beta= 0.20
     Davidson diagonalization with overlap
     c_bands:  3 eigenvalues not converged
     c_bands:  1 eigenvalues not converged
     ethr =  1.43E-05,  avg # of iterations = 23.5

     negative rho (up, down):  8.962E-05 0.000E+00

     total cpu time spent up to now is     3098.8 secs

     total energy              =  -28869.07617667 Ry
     estimated scf accuracy    <       0.10155701 Ry

     iteration #  7     ecut=    77.00 Ry     beta= 0.20
     Davidson diagonalization with overlap
     c_bands:  2 eigenvalues not converged
     c_bands:  4 eigenvalues not converged
     ethr =  7.56E-06,  avg # of iterations = 29.0

     negative rho (up, down):  2.431E-04 0.000E+00

     total cpu time spent up to now is     3599.9 secs

     total energy              =  -28869.09972709 Ry
     estimated scf accuracy    <       0.03969257 Ry

     iteration #  8     ecut=    77.00 Ry     beta= 0.20
     Davidson diagonalization with overlap
     c_bands:  4 eigenvalues not converged
     c_bands:  3 eigenvalues not converged
     ethr =  2.95E-06,  avg # of iterations = 33.5

     negative rho (up, down):  3.147E-04 0.000E+00

     total cpu time spent up to now is     4358.1 secs

     total energy              =  -28869.12779338 Ry
     estimated scf accuracy    <       0.01243346 Ry

     iteration #  9     ecut=    77.00 Ry     beta= 0.20
     Davidson diagonalization with overlap
     c_bands:  1 eigenvalues not converged
     c_bands:  5 eigenvalues not converged
     ethr =  9.25E-07,  avg # of iterations = 15.0

     negative rho (up, down):  3.965E-04 0.000E+00

     total cpu time spent up to now is     4759.3 secs

     total energy              =  -28869.13519572 Ry
     estimated scf accuracy    <       0.00338621 Ry

     iteration # 10     ecut=    77.00 Ry     beta= 0.20
     Davidson diagonalization with overlap
     c_bands:  1 eigenvalues not converged
     ethr =  2.52E-07,  avg # of iterations = 16.5

     negative rho (up, down):  4.278E-04 0.000E+00

     total cpu time spent up to now is     5404.0 secs

     total energy              =  -28869.13780329 Ry
     estimated scf accuracy    <       0.00843765 Ry

     iteration # 11     ecut=    77.00 Ry     beta= 0.20
     Davidson diagonalization with overlap
     ethr =  2.52E-07,  avg # of iterations =  8.5

     negative rho (up, down):  5.431E-04 0.000E+00

     total cpu time spent up to now is     5663.8 secs

     total energy              =  -28869.13762698 Ry
     estimated scf accuracy    <       0.00199704 Ry

     iteration # 12     ecut=    77.00 Ry     beta= 0.20
     Davidson diagonalization with overlap
     c_bands:  4 eigenvalues not converged
     ethr =  1.49E-07,  avg # of iterations = 16.8

     negative rho (up, down):  5.943E-04 0.000E+00

     total cpu time spent up to now is     6260.6 secs

     total energy              =  -28869.13943102 Ry
     estimated scf accuracy    <       0.00520808 Ry

     iteration # 13     ecut=    77.00 Ry     beta= 0.20
     Davidson diagonalization with overlap
     c_bands:  2 eigenvalues not converged
     ethr =  1.49E-07,  avg # of iterations =  5.8

     negative rho (up, down):  7.090E-04 0.000E+00

     total cpu time spent up to now is     6480.6 secs

     total energy              =  -28869.13770501 Ry
     estimated scf accuracy    <       0.00256407 Ry

     iteration # 14     ecut=    77.00 Ry     beta= 0.20
     Davidson diagonalization with overlap
     ethr =  1.49E-07,  avg # of iterations = 11.8

     negative rho (up, down):  7.739E-04 0.000E+00

     total cpu time spent up to now is     6920.4 secs

     total energy              =  -28869.13947900 Ry
     estimated scf accuracy    <       0.00132380 Ry

     iteration # 15     ecut=    77.00 Ry     beta= 0.20
     Davidson diagonalization with overlap
     ethr =  9.85E-08,  avg # of iterations =  1.2

     negative rho (up, down):  7.983E-04 0.000E+00

     total cpu time spent up to now is     7127.5 secs

     total energy              =  -28869.13921530 Ry
     estimated scf accuracy    <       0.00096306 Ry

     iteration # 16     ecut=    77.00 Ry     beta= 0.20
     Davidson diagonalization with overlap
     ethr =  7.17E-08,  avg # of iterations =  1.8

     negative rho (up, down):  8.233E-04 0.000E+00

     total cpu time spent up to now is     7343.8 secs

     total energy              =  -28869.13896641 Ry
     estimated scf accuracy    <       0.00041850 Ry

     iteration # 17     ecut=    77.00 Ry     beta= 0.20
     Davidson diagonalization with overlap
     ethr =  3.11E-08,  avg # of iterations = 12.0

     negative rho (up, down):  8.263E-04 0.000E+00

     total cpu time spent up to now is     7662.9 secs

     total energy              =  -28869.13913472 Ry
     estimated scf accuracy    <       0.00002655 Ry

     iteration # 18     ecut=    77.00 Ry     beta= 0.20
     Davidson diagonalization with overlap
     c_bands:  5 eigenvalues not converged
     c_bands:  1 eigenvalues not converged
     ethr =  1.98E-09,  avg # of iterations = 21.0

     negative rho (up, down):  8.306E-04 0.000E+00

     total cpu time spent up to now is     8616.4 secs

     total energy              =  -28869.13922148 Ry
     estimated scf accuracy    <       0.00003321 Ry

     iteration # 19     ecut=    77.00 Ry     beta= 0.20
     Davidson diagonalization with overlap
     ethr =  1.98E-09,  avg # of iterations =  1.2

     negative rho (up, down):  8.471E-04 0.000E+00

     total cpu time spent up to now is     8822.6 secs

     total energy              =  -28869.13920482 Ry
     estimated scf accuracy    <       0.00001892 Ry

     iteration # 20     ecut=    77.00 Ry     beta= 0.20
     Davidson diagonalization with overlap
     ethr =  1.41E-09,  avg # of iterations = 18.0

     negative rho (up, down):  8.517E-04 0.000E+00

     total cpu time spent up to now is     9338.6 secs

     total energy              =  -28869.13922109 Ry
     estimated scf accuracy    <       0.00003034 Ry

     iteration # 21     ecut=    77.00 Ry     beta= 0.20
     Davidson diagonalization with overlap
     ethr =  1.41E-09,  avg # of iterations =  1.0

     negative rho (up, down):  8.548E-04 0.000E+00

     total cpu time spent up to now is     9540.2 secs

     total energy              =  -28869.13920801 Ry
     estimated scf accuracy    <       0.00001958 Ry

     iteration # 22     ecut=    77.00 Ry     beta= 0.20
     Davidson diagonalization with overlap
     ethr =  1.41E-09,  avg # of iterations =  6.2

     negative rho (up, down):  8.653E-04 0.000E+00

     total cpu time spent up to now is     9820.9 secs

     End of self-consistent calculation

          k = 0.0000 0.0000 0.0000 (321495 PWs)   bands (ev):

  -103.1110-103.1055-102.4453 -71.4735 -71.4702 -71.4483 -71.4460 -71.4446
   -71.4427 -71.4091 -71.4050 -71.3943 -71.3902 -71.3684 -71.3640 -71.3629
   -71.3587 -70.8170 -70.7964 -70.7921 -70.7540 -70.7434 -70.7250 -70.7218
   -66.8117 -66.7906 -66.7906 -66.7906 -66.7906 -66.7906 -66.7906 -66.7695
   -66.7695 -66.7694 -66.7694 -66.7694 -66.7694 -66.7694 -66.7694 -66.7694
   -66.7458 -66.7252 -66.7250 -66.7248 -66.7245 -66.7243 -66.7242 -66.7043
   -66.7041 -66.7039 -66.7035 -66.7034 -66.7033 -66.7031 -66.7031 -66.7027
   -66.6717 -66.6567 -66.6543 -66.6513 -66.6454 -66.6364 -66.6258 -66.6226
   -66.6198 -66.6152 -66.6130 -66.6118 -66.6047 -66.6041 -66.6006 -66.5873
   -57.5020 -57.4479 -57.2733 -57.2620 -57.2318 -57.1808 -56.7808 -56.6181
   -56.5752 -41.1380 -41.1380 -41.1380 -41.0709 -41.0708 -41.0708 -41.0632
   -41.0632 -41.0632 -41.0632 -41.0632 -41.0632 -40.9963 -40.9963 -40.9961
   -40.9960 -40.9959 -40.9958 -40.9849 -40.9841 -40.9793 -40.9718 -40.9376
   -40.9376 -40.9376 -40.9376 -40.9376 -40.9376 -40.9304 -40.9304 -40.9304
   -40.9304 -40.9304 -40.9304 -40.9154 -40.9136 -40.9063 -40.9049 -40.9035
   -40.9028 -40.9028 -40.9028 -40.9028 -40.9028 -40.9028 -40.8954 -40.8903
   -40.8887 -40.8887 -40.8887 -40.8887 -40.8887 -40.8887 -40.8887 -40.8886
   -40.8886 -40.8709 -40.8708 -40.8708 -40.8705 -40.8705 -40.8704 -40.8669
   -40.8654 -40.8653 -40.8651 -40.8648 -40.8646 -40.8645 -40.8430 -40.8361
   -40.8361 -40.8360 -40.8359 -40.8356 -40.8356 -40.8266 -40.8250 -40.8250
   -40.8250 -40.8240 -40.8240 -40.8237 -40.8233 -40.8233 -40.8231 -40.8230
   -40.8229 -40.8226 -40.8042 -40.7985 -40.7952 -40.7936 -40.7881 -40.7869
   -40.7819 -40.7782 -40.7782 -40.7782 -40.7782 -40.7782 -40.7782 -40.7771
   -40.7741 -40.7699 -40.7685 -40.7615 -40.7582 -40.7582 -40.7581 -40.7565
   -40.7564 -40.7545 -40.7537 -40.7514 -40.7481 -40.7451 -40.7433 -40.7418
   -40.7390 -40.7328 -40.7313 -40.7309 -40.7309 -40.7293 -40.7116 -40.7116
   -40.7115 -40.7114 -40.7112 -40.7110 -40.6680 -40.6659 -40.6641 -40.6641
   -40.6631 -40.6229 -40.6219 -40.6193 -40.6160 -40.6110 -40.6022 -40.5673
   -40.5641 -20.8114 -20.2375 -20.0965 -19.9534 -19.4947 -19.4200 -19.3825
   -19.3801 -19.3755 -19.3711 -19.3649 -19.3570 -19.3129 -19.3062 -19.2632
   -19.2323 -19.2162 -19.2103 -19.1949 -19.1925 -19.1403 -19.0254 -18.9843
   -18.8645 -18.6732 -18.6698 -18.6542 -18.6526 -18.6346 -18.5809 -18.5710
   -18.5673 -18.5167 -18.5139 -18.5093 -18.5079 -18.4526 -18.4271 -18.3632
   -18.3533 -18.3399 -18.3384 -18.3259 -18.2893 -18.2707 -18.2706 -18.2702
   -18.2702 -18.2701 -18.2701 -18.2420 -18.2304 -18.2301 -18.2300 -18.2187
   -18.1942 -18.1933 -18.1873 -18.1862 -18.1850 -18.1843 -18.1581 -18.1560
   -18.1554 -18.1318 -18.1284 -18.0963 -18.0957 -18.0889 -18.0790 -18.0746
   -18.0738 -18.0718 -18.0551 -18.0527 -18.0490 -18.0449 -18.0438 -18.0235
   -18.0170 -18.0137 -18.0052 -17.9908 -17.9815 -17.9798 -17.9780 -17.9775
   -17.9528 -17.9488 -17.9452 -17.9277 -17.9089 -17.9039 -17.9017 -17.8933
   -17.8883 -12.7806 -12.6296 -12.6087 -12.0796 -11.9884 -11.8856 -11.8853
   -11.8830 -11.8056 -11.8036 -11.7973 -11.6778 -11.6305 -11.6214 -11.5321
   -11.5032 -11.3733 -11.3461 -11.3456 -11.3317 -11.3292 -11.3254 -11.3071
   -11.2765 -11.2629 -11.2570 -11.2557 -11.2553 -11.2510 -11.2444 -11.2167
   -11.1679 -11.1362 -11.1236 -11.1200 -11.1142 -11.1136 -11.1040 -11.0905
   -11.0620 -11.0554 -11.0541 -11.0317 -11.0236 -11.0185 -11.0090 -11.0020
   -10.9855 -10.9691 -10.9636 -10.9632 -10.9615 -10.9612 -10.9610 -10.9525
   -10.9377 -10.9334 -10.9325 -10.9321 -10.9258 -10.9171 -10.9148 -10.9140
   -10.9107 -10.9060 -10.8877 -10.8697 -10.8408 -10.8386 -10.8183 -10.7932
   -10.7804 -10.7797 -10.7449 -10.7429 -10.6961 -10.6127 -10.5067 -10.3750
   -10.2960 -10.2864 -10.1805 -10.1765 -10.1748 -10.0935 -10.0495 -10.0143
   -10.0083  -9.9510  -9.9241  -9.9233  -9.9119  -9.9103  -9.9008  -9.8772
    -9.8644  -9.8631  -9.8418  -9.8378  -9.8283  -9.8168  -9.8040  -9.7830
    -9.7756  -9.7704  -9.7586  -9.7551  -9.7518  -9.7486  -9.7301  -9.7288
    -9.7146  -9.7086  -9.7041  -9.7036  -9.7021  -9.7011  -9.6966  -9.6885
    -9.6565  -9.6204  -9.5993  -9.5885  -9.5815  -9.5692  -9.5674  -9.5619
    -9.5427  -9.5034  -9.5030  -9.5005  -9.4871  -9.4722  -9.4454  -9.4418
    -9.4323  -9.4110  -9.4070  -9.3868  -9.3781  -9.3558  -9.3486  -9.3432
    -9.3257  -9.3108  -9.2932  -9.2720  -9.2579  -9.2295  -9.1639  -9.1631
    -9.1559  -9.1543  -9.1492  -9.1492  -9.1483  -9.1352  -9.1207  -9.0763
    -9.0723  -9.0723  -9.0678  -9.0211  -9.0101  -9.0060  -8.9932  -8.9773
    -8.9626  -8.9472  -8.9374  -8.9316  -8.9266  -8.9237  -8.9221  -8.9147
    -8.9110  -8.8882  -8.8817  -8.8805  -8.8730  -8.8559  -8.8546  -8.8486
    -8.8441  -8.7830  -8.7206  -8.5801  -8.5764  -8.5604  -8.5604  -8.5321
    -8.4875  -8.4874  -8.4781  -8.4497  -8.4484  -8.4482  -8.4482  -8.4481
    -8.4477  -8.4427  -8.4241  -8.3855  -8.3757  -8.3745  -8.3708  -8.3707
    -8.3699  -8.3579  -8.3492  -8.3201  -8.2885  -8.1616  -8.1433  -8.0761
    -8.0663  -8.0644  -8.0422  -7.9635  -7.9137  -7.8718  -7.8335  -7.8090
    -7.7975  -7.7182  -7.7137  -7.7129  -7.7128  -7.7124  -7.7124  -7.7115
    -7.6898  -7.6889  -7.6676  -7.6673  -7.6668  -7.6665  -7.6663  -7.6661
    -7.6527  -7.6470  -7.6434  -7.6429  -7.6337  -7.6329  -7.6281  -7.6269
    -7.6105  -7.6096  -7.5974  -7.5921  -7.5918  -7.5891  -7.5876  -7.5815
    -7.5810  -7.5516  -7.5504  -7.5495  -7.5470  -7.5375  -7.5104  -7.4777
    -7.4655  -7.4500  -7.4392  -7.4316  -7.4315  -7.4026  -7.3796  -7.3613
    -7.3607  -7.3507  -7.3499  -7.2886  -7.2504  -7.2380  -7.1667  -7.1556
    -7.1182  -7.1022  -7.0685  -7.0496  -7.0356  -6.9748  -6.9270  -6.9268
    -6.9257  -6.8668  -6.8633  -6.8491  -6.7990  -6.7988  -6.7982  -6.7952
    -6.7689  -6.7659  -6.7652  -6.7464  -6.7194  -6.7097  -6.6951  -6.6754
    -6.6730  -6.6602  -6.6491  -6.6464  -6.6374  -6.6180  -6.6158  -6.6103
    -6.6040  -6.5941  -6.5847  -6.5592  -6.5580  -6.5527  -6.5327  -6.5226
    -6.5202  -6.4797  -6.4797  -6.4796  -6.4796  -6.4796  -6.4795  -6.4768
    -6.4657  -6.4634  -6.4242  -6.4058  -6.4038  -6.4010  -6.4004  -6.4002
    -6.3998  -6.3864  -6.3851  -6.3464  -6.3252  -6.2392  -6.1500  -6.1128
    -5.9944  -5.7321  -5.6175  -5.6068  -5.5109  -5.4449  -5.2601  -5.2114
    -4.3445  -4.2289  -4.0334  -3.9641  -3.9638  -3.9590  -3.9454  -3.9398
    -3.9393  -3.9319  -3.9316  -3.9296  -3.9132  -3.8938  -3.8586  -3.7376
    -3.7337  -3.7283  -3.7270  -3.7173  -3.7137  -3.6975  -3.6962  -3.6900
    -3.6203  -3.6202  -3.6200  -3.6068  -3.6041  -3.6018  -3.6007  -3.6003
    -3.5989  -3.5788  -3.5736  -3.5562  -3.5531  -3.5528  -3.5526  -3.5367
    -3.5216  -3.5205  -3.5044  -3.5017  -3.4977  -3.4931  -3.4878  -3.4869
    -3.4821  -3.4694  -3.4632  -3.4534  -3.4507  -3.4429  -3.4239  -3.3997
    -3.3968  -3.3855  -3.3656  -3.3516  -3.3066  -3.3041  -3.2817  -3.1741
    -3.1621  -3.1545  -3.1540  -3.1494  -3.1484  -3.1472  -3.1369  -3.0906
    -3.0827  -3.0826  -3.0818  -3.0815  -3.0811  -3.0809  -3.0800  -3.0733
    -3.0716  -3.0614  -3.0557  -3.0486  -3.0373  -3.0279  -3.0194  -3.0183
    -3.0149  -3.0116  -3.0076  -3.0067  -2.9975  -2.9963  -2.9895  -2.9845
    -2.9567  -2.9539  -2.9532  -2.9465  -2.9431  -2.9346  -2.8957  -2.8930
    -2.8793  -2.8777  -2.8765  -2.8724  -2.8709  -2.8690  -2.8663  -2.8267
    -2.8210  -2.8158  -2.7935  -2.7691  -2.7604  -2.7482  -2.7398  -2.7224
    -2.7039  -2.7019  -2.6857  -2.6762  -2.6617  -2.6598  -2.6493  -2.6404
    -2.6321  -2.6140  -2.6046  -2.5813  -2.5711  -2.5669

          k = 0.0000-0.5773 0.0000 (321564 PWs)   bands (ev):

  -103.1110-103.1055-102.4453 -71.4735 -71.4702 -71.4484 -71.4460 -71.4446
   -71.4427 -71.4091 -71.4050 -71.3943 -71.3902 -71.3684 -71.3640 -71.3629
   -71.3587 -70.8170 -70.7964 -70.7921 -70.7540 -70.7435 -70.7250 -70.7218
   -66.8056 -66.8055 -66.7950 -66.7950 -66.7800 -66.7800 -66.7800 -66.7800
   -66.7757 -66.7756 -66.7694 -66.7694 -66.7694 -66.7694 -66.7650 -66.7650
   -66.7398 -66.7394 -66.7291 -66.7290 -66.7143 -66.7142 -66.7141 -66.7139
   -66.7099 -66.7095 -66.7037 -66.7037 -66.7034 -66.7031 -66.6991 -66.6990
   -66.6708 -66.6585 -66.6548 -66.6503 -66.6460 -66.6355 -66.6253 -66.6227
   -66.6191 -66.6156 -66.6134 -66.6096 -66.6087 -66.6029 -66.6003 -66.5873
   -57.5020 -57.4479 -57.2733 -57.2620 -57.2318 -57.1808 -56.7808 -56.6181
   -56.5752 -41.1066 -41.1066 -41.1066 -41.1065 -41.0800 -41.0799 -41.0680
   -41.0680 -41.0397 -41.0396 -41.0394 -41.0391 -41.0176 -41.0176 -41.0176
   -41.0176 -41.0130 -41.0127 -41.0009 -41.0008 -40.9631 -40.9597 -40.9597
   -40.9537 -40.9506 -40.9506 -40.9505 -40.9505 -40.9497 -40.9497 -40.9468
   -40.9422 -40.9390 -40.9390 -40.9352 -40.9251 -40.9096 -40.9096 -40.9096
   -40.9096 -40.9063 -40.9009 -40.9009 -40.8944 -40.8942 -40.8941 -40.8887
   -40.8887 -40.8887 -40.8887 -40.8887 -40.8886 -40.8828 -40.8827 -40.8801
   -40.8800 -40.8736 -40.8735 -40.8669 -40.8599 -40.8579 -40.8579 -40.8579
   -40.8579 -40.8566 -40.8538 -40.8491 -40.8449 -40.8443 -40.8442 -40.8442
   -40.8440 -40.8357 -40.8353 -40.8235 -40.8235 -40.8234 -40.8234 -40.8234
   -40.8234 -40.8233 -40.8229 -40.8229 -40.8218 -40.8217 -40.8156 -40.8147
   -40.8146 -40.8113 -40.8113 -40.8007 -40.7934 -40.7922 -40.7921 -40.7913
   -40.7912 -40.7909 -40.7908 -40.7904 -40.7829 -40.7785 -40.7753 -40.7753
   -40.7709 -40.7673 -40.7611 -40.7571 -40.7566 -40.7566 -40.7565 -40.7565
   -40.7551 -40.7516 -40.7477 -40.7448 -40.7448 -40.7447 -40.7443 -40.7412
   -40.7375 -40.7349 -40.7255 -40.7251 -40.7240 -40.7087 -40.7085 -40.7084
   -40.7049 -40.6950 -40.6903 -40.6782 -40.6779 -40.6663 -40.6650 -40.6615
   -40.6593 -40.6529 -40.6416 -40.6377 -40.6204 -40.6102 -40.6068 -40.5845
   -40.5765 -20.8008 -20.0098 -20.0010 -19.9196 -19.8615 -19.7968 -19.7264
   -19.6032 -19.5669 -19.5448 -19.4358 -19.3972 -19.3047 -18.9763 -18.9573
   -18.9341 -18.8997 -18.8637 -18.8610 -18.8564 -18.8539 -18.8373 -18.7841
   -18.7636 -18.7442 -18.7404 -18.7350 -18.7268 -18.7021 -18.6780 -18.6523
   -18.6152 -18.6127 -18.5908 -18.5779 -18.5643 -18.5526 -18.5217 -18.5082
   -18.4802 -18.4474 -18.4209 -18.4139 -18.4035 -18.3748 -18.3541 -18.3289
   -18.3076 -18.2986 -18.2864 -18.2655 -18.2508 -18.2507 -18.2506 -18.2506
   -18.2298 -18.2235 -18.2153 -18.1867 -18.1833 -18.1730 -18.1708 -18.1692
   -18.1659 -18.1534 -18.1352 -18.1223 -18.1181 -18.1055 -18.0901 -18.0742
   -18.0722 -18.0696 -18.0615 -18.0475 -18.0406 -18.0170 -18.0095 -17.9981
   -17.9875 -17.9874 -17.9835 -17.9559 -17.9455 -17.9337 -17.9281 -17.9280
   -17.9166 -17.9126 -17.9098 -17.9038 -17.9012 -17.8685 -17.8681 -17.8100
   -17.8067 -12.7567 -12.5918 -12.5712 -11.9153 -11.8132 -11.7602 -11.6858
   -11.6719 -11.5991 -11.5962 -11.5959 -11.5940 -11.5757 -11.5697 -11.5360
   -11.5081 -11.5045 -11.4990 -11.4918 -11.4797 -11.4503 -11.4425 -11.4237
   -11.4087 -11.3977 -11.3864 -11.3804 -11.3804 -11.3532 -11.3372 -11.3343
   -11.3272 -11.2923 -11.2823 -11.2754 -11.2656 -11.2315 -11.2187 -11.1663
   -11.1326 -11.1153 -11.0962 -11.0930 -11.0738 -11.0498 -11.0385 -11.0356
   -11.0302 -11.0022 -10.9890 -10.9864 -10.9805 -10.9627 -10.9545 -10.9541
   -10.9525 -10.9497 -10.9472 -10.9403 -10.9081 -10.8950 -10.8868 -10.8808
   -10.8786 -10.8695 -10.7925 -10.7523 -10.7218 -10.6647 -10.6222 -10.6093
   -10.5767 -10.5218 -10.4811 -10.4780 -10.4219 -10.3430 -10.2936 -10.2565
   -10.2479 -10.2428 -10.2299 -10.1875 -10.1656 -10.1534 -10.1406 -10.0971
   -10.0824 -10.0681 -10.0629 -10.0586 -10.0540 -10.0472 -10.0330 -10.0322
   -10.0160 -10.0082 -10.0053  -9.9440  -9.9382  -9.9311  -9.8877  -9.8851
    -9.8627  -9.8610  -9.8410  -9.8362  -9.8316  -9.8286  -9.8214  -9.8059
    -9.7895  -9.7823  -9.7682  -9.7502  -9.7324  -9.7281  -9.7002  -9.6946
    -9.6725  -9.6653  -9.6545  -9.6366  -9.6260  -9.6097  -9.5948  -9.5765
    -9.5437  -9.5034  -9.4751  -9.4316  -9.4165  -9.3464  -9.3377  -9.3196
    -9.3169  -9.3039  -9.2963  -9.2795  -9.2612  -9.2498  -9.2420  -9.2390
    -9.2121  -9.2084  -9.1851  -9.1802  -9.1719  -9.1625  -9.1578  -9.1397
    -9.1289  -9.1133  -9.1004  -9.0962  -9.0792  -9.0774  -9.0696  -9.0674
    -9.0555  -9.0540  -9.0427  -9.0362  -9.0102  -9.0018  -8.9860  -8.9830
    -8.9794  -8.9772  -8.9698  -8.9632  -8.9626  -8.9598  -8.9552  -8.9457
    -8.9300  -8.9196  -8.8985  -8.8880  -8.8843  -8.8659  -8.8472  -8.8320
    -8.7447  -8.7313  -8.7082  -8.6572  -8.6358  -8.6353  -8.6086  -8.5720
    -8.5647  -8.5473  -8.5328  -8.4291  -8.3456  -8.3303  -8.3168  -8.3167
    -8.2884  -8.2794  -8.2441  -8.2437  -8.2168  -8.1692  -8.1245  -8.1224
    -8.0702  -8.0550  -8.0492  -8.0011  -7.9874  -7.9820  -7.9798  -7.9778
    -7.9729  -7.9721  -7.9701  -7.9700  -7.9620  -7.9327  -7.9268  -7.9257
    -7.9241  -7.9228  -7.9188  -7.9070  -7.8989  -7.8971  -7.8873  -7.8758
    -7.8692  -7.8677  -7.8545  -7.8488  -7.8465  -7.8451  -7.8297  -7.8205
    -7.8155  -7.8043  -7.7940  -7.7856  -7.7849  -7.7845  -7.7810  -7.7578
    -7.7530  -7.7396  -7.7184  -7.7144  -7.7108  -7.6946  -7.6813  -7.6695
    -7.6546  -7.6371  -7.6176  -7.5984  -7.5455  -7.5119  -7.4969  -7.4630
    -7.4166  -7.3975  -7.3653  -7.3567  -7.3499  -7.3442  -7.2779  -7.2530
    -7.2450  -7.2357  -7.1910  -7.1865  -7.1497  -7.1341  -7.1310  -7.1280
    -7.1096  -7.1010  -7.0887  -7.0714  -7.0442  -7.0270  -7.0192  -7.0110
    -6.9916  -6.9655  -6.9369  -6.9266  -6.9077  -6.8754  -6.8477  -6.8249
    -6.8037  -6.7938  -6.7823  -6.7819  -6.7819  -6.7817  -6.7749  -6.7585
    -6.7232  -6.7159  -6.7135  -6.7115  -6.7092  -6.6896  -6.6724  -6.6560
    -6.6222  -6.6048  -6.5750  -6.5712  -6.5074  -6.4798  -6.4502  -6.4500
    -6.4498  -6.4493  -6.4327  -6.3867  -6.3850  -6.3708  -6.3664  -6.3661
    -6.3650  -6.3490  -6.3465  -6.3401  -6.2934  -6.2187  -6.1757  -6.1437
    -6.1239  -6.1018  -6.1017  -6.0569  -6.0243  -6.0205  -5.9201  -5.8670
    -5.8074  -5.7318  -5.6912  -5.6388  -5.5863  -5.4628  -5.4152  -5.2375
    -4.3467  -4.2673  -4.1583  -4.1446  -4.1180  -4.0791  -4.0172  -4.0171
    -3.9985  -3.9788  -3.9627  -3.9521  -3.9519  -3.9086  -3.9008  -3.8849
    -3.8508  -3.8124  -3.7687  -3.7469  -3.7339  -3.7212  -3.7183  -3.7164
    -3.7132  -3.7028  -3.7023  -3.6755  -3.6431  -3.6319  -3.6251  -3.6244
    -3.6196  -3.6021  -3.5996  -3.5948  -3.5892  -3.5818  -3.5681  -3.5534
    -3.5190  -3.5062  -3.4897  -3.4824  -3.4749  -3.4699  -3.4688  -3.4432
    -3.4426  -3.4382  -3.4329  -3.4258  -3.4060  -3.3958  -3.3938  -3.3935
    -3.3924  -3.3831  -3.3691  -3.3575  -3.3531  -3.3467  -3.3312  -3.3301
    -3.3231  -3.3195  -3.3129  -3.3025  -3.3020  -3.2795  -3.2568  -3.2442
    -3.2309  -3.2185  -3.1904  -3.1886  -3.1699  -3.1546  -3.1513  -3.1468
    -3.1351  -3.1308  -3.1302  -3.1297  -3.1257  -3.0975  -3.0828  -3.0815
    -3.0759  -3.0692  -3.0637  -3.0556  -3.0450  -3.0370  -3.0296  -3.0223
    -3.0183  -3.0080  -3.0041  -2.9943  -2.9784  -2.9724  -2.9642  -2.9506
    -2.9419  -2.9273  -2.9213  -2.9004  -2.8670  -2.8571  -2.8367  -2.8311
    -2.8125  -2.7837  -2.7761  -2.7678  -2.7599  -2.7533  -2.7041  -2.6912
    -2.6839  -2.6443  -2.6356  -2.6221  -2.6110  -2.6018  -2.5836  -2.5049
    -2.4867  -2.4797  -2.4233  -2.4166  -2.3441  -2.3064

          k =-0.5000-0.2887 0.0000 (321564 PWs)   bands (ev):

  -103.1110-103.1055-102.4453 -71.4735 -71.4702 -71.4483 -71.4460 -71.4447
   -71.4427 -71.4091 -71.4050 -71.3943 -71.3902 -71.3684 -71.3640 -71.3629
   -71.3587 -70.8170 -70.7964 -70.7921 -70.7540 -70.7435 -70.7250 -70.7218
   -66.8055 -66.8055 -66.7950 -66.7950 -66.7800 -66.7800 -66.7800 -66.7800
   -66.7756 -66.7756 -66.7694 -66.7694 -66.7694 -66.7694 -66.7650 -66.7650
   -66.7398 -66.7394 -66.7291 -66.7290 -66.7143 -66.7142 -66.7140 -66.7139
   -66.7099 -66.7095 -66.7038 -66.7036 -66.7035 -66.7031 -66.6991 -66.6990
   -66.6708 -66.6585 -66.6548 -66.6503 -66.6460 -66.6355 -66.6253 -66.6227
   -66.6191 -66.6157 -66.6134 -66.6096 -66.6086 -66.6030 -66.6002 -66.5873
   -57.5020 -57.4479 -57.2733 -57.2620 -57.2318 -57.1808 -56.7808 -56.6181
   -56.5752 -41.1066 -41.1066 -41.1066 -41.1066 -41.0799 -41.0799 -41.0680
   -41.0680 -41.0397 -41.0395 -41.0394 -41.0391 -41.0176 -41.0176 -41.0176
   -41.0176 -41.0130 -41.0127 -41.0010 -41.0008 -40.9634 -40.9597 -40.9597
   -40.9538 -40.9506 -40.9506 -40.9505 -40.9505 -40.9497 -40.9497 -40.9467
   -40.9420 -40.9390 -40.9390 -40.9350 -40.9250 -40.9096 -40.9096 -40.9096
   -40.9096 -40.9062 -40.9009 -40.9009 -40.8944 -40.8944 -40.8941 -40.8887
   -40.8887 -40.8887 -40.8887 -40.8887 -40.8887 -40.8828 -40.8827 -40.8801
   -40.8800 -40.8736 -40.8735 -40.8669 -40.8599 -40.8579 -40.8579 -40.8579
   -40.8579 -40.8566 -40.8537 -40.8493 -40.8450 -40.8443 -40.8442 -40.8442
   -40.8440 -40.8357 -40.8353 -40.8236 -40.8234 -40.8234 -40.8234 -40.8234
   -40.8234 -40.8234 -40.8230 -40.8229 -40.8218 -40.8217 -40.8155 -40.8147
   -40.8146 -40.8113 -40.8113 -40.8007 -40.7936 -40.7921 -40.7921 -40.7913
   -40.7912 -40.7909 -40.7908 -40.7904 -40.7828 -40.7785 -40.7753 -40.7753
   -40.7708 -40.7674 -40.7612 -40.7569 -40.7566 -40.7566 -40.7565 -40.7565
   -40.7549 -40.7517 -40.7477 -40.7448 -40.7448 -40.7447 -40.7443 -40.7413
   -40.7377 -40.7349 -40.7255 -40.7252 -40.7240 -40.7087 -40.7085 -40.7084
   -40.7044 -40.6949 -40.6907 -40.6782 -40.6778 -40.6663 -40.6651 -40.6617
   -40.6592 -40.6527 -40.6413 -40.6374 -40.6207 -40.6107 -40.6068 -40.5843
   -40.5765 -20.8008 -20.0099 -20.0010 -19.9200 -19.8612 -19.7971 -19.7253
   -19.6035 -19.5670 -19.5449 -19.4360 -19.3972 -19.3048 -18.9757 -18.9578
   -18.9350 -18.8998 -18.8637 -18.8610 -18.8564 -18.8539 -18.8373 -18.7839
   -18.7624 -18.7441 -18.7404 -18.7350 -18.7269 -18.7026 -18.6779 -18.6523
   -18.6150 -18.6127 -18.5910 -18.5777 -18.5642 -18.5527 -18.5213 -18.5079
   -18.4800 -18.4477 -18.4213 -18.4132 -18.4032 -18.3743 -18.3540 -18.3289
   -18.3076 -18.2985 -18.2861 -18.2654 -18.2509 -18.2508 -18.2507 -18.2506
   -18.2296 -18.2239 -18.2152 -18.1870 -18.1840 -18.1740 -18.1713 -18.1696
   -18.1660 -18.1535 -18.1354 -18.1218 -18.1178 -18.1058 -18.0910 -18.0746
   -18.0723 -18.0700 -18.0619 -18.0476 -18.0412 -18.0164 -18.0099 -17.9984
   -17.9874 -17.9874 -17.9838 -17.9554 -17.9446 -17.9321 -17.9276 -17.9274
   -17.9159 -17.9118 -17.9094 -17.9036 -17.9012 -17.8674 -17.8672 -17.8121
   -17.8085 -12.7567 -12.5920 -12.5707 -11.9159 -11.8132 -11.7606 -11.6844
   -11.6727 -11.5993 -11.5962 -11.5958 -11.5940 -11.5755 -11.5697 -11.5366
   -11.5079 -11.5044 -11.4990 -11.4913 -11.4794 -11.4501 -11.4428 -11.4232
   -11.4082 -11.3985 -11.3862 -11.3804 -11.3804 -11.3532 -11.3368 -11.3342
   -11.3264 -11.2923 -11.2824 -11.2754 -11.2656 -11.2312 -11.2184 -11.1681
   -11.1325 -11.1152 -11.0967 -11.0933 -11.0738 -11.0489 -11.0384 -11.0353
   -11.0303 -11.0014 -10.9890 -10.9861 -10.9810 -10.9631 -10.9547 -10.9543
   -10.9526 -10.9501 -10.9473 -10.9411 -10.9092 -10.8953 -10.8871 -10.8806
   -10.8783 -10.8687 -10.7928 -10.7522 -10.7219 -10.6647 -10.6215 -10.6089
   -10.5769 -10.5229 -10.4806 -10.4781 -10.4213 -10.3438 -10.2915 -10.2564
   -10.2480 -10.2430 -10.2298 -10.1870 -10.1652 -10.1536 -10.1410 -10.0976
   -10.0828 -10.0687 -10.0640 -10.0592 -10.0545 -10.0472 -10.0325 -10.0297
   -10.0149 -10.0075 -10.0050  -9.9439  -9.9392  -9.9321  -9.8890  -9.8851
    -9.8610  -9.8592  -9.8408  -9.8365  -9.8318  -9.8285  -9.8208  -9.8055
    -9.7899  -9.7814  -9.7701  -9.7496  -9.7332  -9.7302  -9.7009  -9.6949
    -9.6723  -9.6673  -9.6547  -9.6366  -9.6262  -9.6096  -9.5946  -9.5762
    -9.5431  -9.5039  -9.4753  -9.4340  -9.4168  -9.3442  -9.3377  -9.3195
    -9.3181  -9.3033  -9.2957  -9.2788  -9.2612  -9.2492  -9.2420  -9.2391
    -9.2115  -9.2076  -9.1834  -9.1796  -9.1716  -9.1626  -9.1584  -9.1394
    -9.1278  -9.1125  -9.1000  -9.0954  -9.0786  -9.0767  -9.0690  -9.0666
    -9.0554  -9.0533  -9.0425  -9.0362  -9.0105  -9.0014  -8.9873  -8.9829
    -8.9794  -8.9778  -8.9706  -8.9632  -8.9626  -8.9599  -8.9559  -8.9463
    -8.9306  -8.9205  -8.8982  -8.8882  -8.8847  -8.8654  -8.8485  -8.8323
    -8.7461  -8.7310  -8.7082  -8.6554  -8.6358  -8.6354  -8.6092  -8.5719
    -8.5654  -8.5474  -8.5338  -8.4302  -8.3474  -8.3315  -8.3168  -8.3168
    -8.2874  -8.2787  -8.2441  -8.2437  -8.2177  -8.1680  -8.1258  -8.1223
    -8.0699  -8.0549  -8.0490  -7.9995  -7.9876  -7.9825  -7.9804  -7.9756
    -7.9708  -7.9702  -7.9700  -7.9699  -7.9593  -7.9335  -7.9270  -7.9254
    -7.9241  -7.9228  -7.9190  -7.9064  -7.8990  -7.8970  -7.8875  -7.8773
    -7.8695  -7.8687  -7.8544  -7.8484  -7.8463  -7.8447  -7.8297  -7.8213
    -7.8161  -7.8041  -7.7943  -7.7856  -7.7849  -7.7844  -7.7810  -7.7599
    -7.7534  -7.7415  -7.7186  -7.7151  -7.7111  -7.6960  -7.6818  -7.6658
    -7.6526  -7.6362  -7.6148  -7.5945  -7.5462  -7.5116  -7.4988  -7.4659
    -7.4169  -7.3978  -7.3661  -7.3579  -7.3501  -7.3451  -7.2772  -7.2525
    -7.2447  -7.2349  -7.1913  -7.1879  -7.1503  -7.1341  -7.1310  -7.1279
    -7.1105  -7.1011  -7.0888  -7.0708  -7.0443  -7.0270  -7.0189  -7.0106
    -6.9920  -6.9648  -6.9367  -6.9272  -6.9074  -6.8758  -6.8471  -6.8256
    -6.8035  -6.7946  -6.7824  -6.7819  -6.7819  -6.7818  -6.7756  -6.7607
    -6.7250  -6.7163  -6.7137  -6.7116  -6.7088  -6.6898  -6.6722  -6.6555
    -6.6221  -6.6042  -6.5750  -6.5712  -6.5078  -6.4790  -6.4503  -6.4500
    -6.4497  -6.4492  -6.4321  -6.3865  -6.3852  -6.3711  -6.3662  -6.3659
    -6.3647  -6.3485  -6.3432  -6.3368  -6.2936  -6.2179  -6.1757  -6.1442
    -6.1232  -6.1017  -6.1017  -6.0567  -6.0242  -6.0208  -5.9214  -5.8665
    -5.8078  -5.7325  -5.6929  -5.6388  -5.5867  -5.4628  -5.4154  -5.2380
    -4.3467  -4.2674  -4.1579  -4.1442  -4.1177  -4.0792  -4.0171  -4.0171
    -3.9983  -3.9792  -3.9624  -3.9519  -3.9518  -3.9094  -3.9006  -3.8853
    -3.8501  -3.8124  -3.7688  -3.7480  -3.7338  -3.7209  -3.7178  -3.7165
    -3.7134  -3.7028  -3.7024  -3.6757  -3.6430  -3.6313  -3.6258  -3.6242
    -3.6196  -3.6012  -3.5996  -3.5941  -3.5887  -3.5825  -3.5671  -3.5530
    -3.5194  -3.5067  -3.4900  -3.4831  -3.4748  -3.4703  -3.4693  -3.4427
    -3.4418  -3.4378  -3.4330  -3.4254  -3.4056  -3.3956  -3.3935  -3.3934
    -3.3921  -3.3834  -3.3677  -3.3579  -3.3536  -3.3469  -3.3315  -3.3298
    -3.3228  -3.3198  -3.3136  -3.3023  -3.3017  -3.2785  -3.2563  -3.2431
    -3.2312  -3.2182  -3.1900  -3.1881  -3.1699  -3.1545  -3.1516  -3.1466
    -3.1343  -3.1307  -3.1303  -3.1296  -3.1253  -3.0967  -3.0831  -3.0818
    -3.0763  -3.0699  -3.0650  -3.0563  -3.0458  -3.0371  -3.0304  -3.0216
    -3.0188  -3.0087  -3.0038  -2.9935  -2.9783  -2.9716  -2.9642  -2.9516
    -2.9403  -2.9287  -2.9232  -2.8988  -2.8669  -2.8554  -2.8362  -2.8305
    -2.8134  -2.7836  -2.7756  -2.7678  -2.7602  -2.7524  -2.7022  -2.6911
    -2.6833  -2.6454  -2.6370  -2.6221  -2.6131  -2.6040  -2.5825  -2.5033
    -2.4885  -2.4824  -2.4298  -2.4185  -2.3598  -2.3162

          k =-0.5000-0.8660 0.0000 (321564 PWs)   bands (ev):

  -103.1110-103.1055-102.4453 -71.4735 -71.4702 -71.4484 -71.4460 -71.4447
   -71.4427 -71.4091 -71.4050 -71.3943 -71.3902 -71.3684 -71.3640 -71.3629
   -71.3587 -70.8170 -70.7964 -70.7921 -70.7540 -70.7435 -70.7250 -70.7218
   -66.8055 -66.8055 -66.7950 -66.7950 -66.7800 -66.7800 -66.7800 -66.7800
   -66.7756 -66.7756 -66.7694 -66.7694 -66.7694 -66.7694 -66.7650 -66.7650
   -66.7399 -66.7393 -66.7291 -66.7290 -66.7143 -66.7142 -66.7140 -66.7139
   -66.7100 -66.7094 -66.7039 -66.7039 -66.7034 -66.7027 -66.6991 -66.6990
   -66.6706 -66.6597 -66.6523 -66.6516 -66.6458 -66.6359 -66.6253 -66.6228
   -66.6193 -66.6155 -66.6132 -66.6092 -66.6068 -66.6062 -66.5992 -66.5873
   -57.5020 -57.4479 -57.2733 -57.2620 -57.2318 -57.1808 -56.7808 -56.6181
   -56.5752 -41.1066 -41.1066 -41.1066 -41.1066 -41.0799 -41.0799 -41.0680
   -41.0680 -41.0398 -41.0398 -41.0392 -41.0389 -41.0176 -41.0176 -41.0176
   -41.0176 -41.0131 -41.0126 -41.0009 -41.0009 -40.9656 -40.9597 -40.9597
   -40.9591 -40.9506 -40.9506 -40.9505 -40.9505 -40.9497 -40.9497 -40.9481
   -40.9390 -40.9390 -40.9388 -40.9236 -40.9215 -40.9096 -40.9096 -40.9096
   -40.9096 -40.9067 -40.9009 -40.9009 -40.8991 -40.8945 -40.8940 -40.8887
   -40.8887 -40.8887 -40.8887 -40.8887 -40.8887 -40.8828 -40.8827 -40.8801
   -40.8800 -40.8736 -40.8735 -40.8675 -40.8610 -40.8595 -40.8579 -40.8579
   -40.8579 -40.8579 -40.8532 -40.8530 -40.8444 -40.8443 -40.8440 -40.8440
   -40.8431 -40.8358 -40.8352 -40.8280 -40.8238 -40.8236 -40.8234 -40.8234
   -40.8234 -40.8234 -40.8232 -40.8226 -40.8218 -40.8217 -40.8147 -40.8147
   -40.8130 -40.8113 -40.8113 -40.7949 -40.7929 -40.7922 -40.7922 -40.7921
   -40.7915 -40.7913 -40.7910 -40.7904 -40.7858 -40.7815 -40.7753 -40.7753
   -40.7702 -40.7651 -40.7601 -40.7594 -40.7566 -40.7566 -40.7565 -40.7565
   -40.7538 -40.7485 -40.7474 -40.7449 -40.7448 -40.7448 -40.7448 -40.7442
   -40.7356 -40.7340 -40.7257 -40.7252 -40.7250 -40.7085 -40.7084 -40.7068
   -40.6984 -40.6969 -40.6932 -40.6783 -40.6777 -40.6700 -40.6636 -40.6616
   -40.6574 -40.6515 -40.6388 -40.6341 -40.6292 -40.6117 -40.6086 -40.5878
   -40.5707 -20.8002 -20.0134 -20.0004 -19.9338 -19.8578 -19.8044 -19.7054
   -19.5875 -19.5674 -19.5301 -19.4429 -19.3917 -19.3340 -19.0211 -18.9519
   -18.9304 -18.8742 -18.8643 -18.8610 -18.8567 -18.8454 -18.8382 -18.7941
   -18.7545 -18.7387 -18.7375 -18.7334 -18.7300 -18.7085 -18.6763 -18.6468
   -18.6150 -18.6125 -18.5928 -18.5876 -18.5579 -18.5442 -18.5218 -18.5072
   -18.4632 -18.4494 -18.4322 -18.4257 -18.4074 -18.3648 -18.3531 -18.3218
   -18.3167 -18.3025 -18.2750 -18.2644 -18.2511 -18.2508 -18.2507 -18.2505
   -18.2321 -18.2268 -18.2118 -18.1862 -18.1860 -18.1763 -18.1708 -18.1697
   -18.1663 -18.1523 -18.1366 -18.1190 -18.1159 -18.1047 -18.0938 -18.0765
   -18.0723 -18.0718 -18.0623 -18.0505 -18.0420 -18.0198 -18.0119 -17.9981
   -17.9874 -17.9874 -17.9863 -17.9521 -17.9507 -17.9283 -17.9278 -17.9270
   -17.9187 -17.9114 -17.9100 -17.9034 -17.8924 -17.8681 -17.8671 -17.8141
   -17.8062 -12.7439 -12.5975 -12.5849 -11.8972 -11.8226 -11.7531 -11.6875
   -11.6617 -11.6028 -11.5989 -11.5956 -11.5944 -11.5810 -11.5683 -11.5497
   -11.5199 -11.5020 -11.5014 -11.4947 -11.4531 -11.4457 -11.4448 -11.4228
   -11.4136 -11.4054 -11.3914 -11.3804 -11.3804 -11.3558 -11.3352 -11.3335
   -11.3074 -11.3025 -11.2788 -11.2756 -11.2666 -11.2600 -11.1812 -11.1580
   -11.1393 -11.1083 -11.1068 -11.0975 -11.0881 -11.0539 -11.0401 -11.0381
   -11.0316 -11.0074 -11.0043 -10.9813 -10.9651 -10.9594 -10.9540 -10.9538
   -10.9528 -10.9479 -10.9378 -10.9375 -10.9206 -10.8992 -10.8877 -10.8873
   -10.8812 -10.8775 -10.7702 -10.7333 -10.7041 -10.6746 -10.6248 -10.6096
   -10.5569 -10.5223 -10.4811 -10.4629 -10.4137 -10.3754 -10.3157 -10.2632
   -10.2503 -10.2388 -10.2324 -10.1919 -10.1790 -10.1434 -10.1260 -10.0953
   -10.0944 -10.0609 -10.0588 -10.0550 -10.0498 -10.0405 -10.0313 -10.0252
   -10.0117 -10.0091 -10.0005  -9.9487  -9.9366  -9.9339  -9.8870  -9.8797
    -9.8637  -9.8604  -9.8430  -9.8419  -9.8301  -9.8256  -9.8207  -9.8048
    -9.7938  -9.7911  -9.7563  -9.7527  -9.7358  -9.7325  -9.6998  -9.6834
    -9.6727  -9.6601  -9.6567  -9.6320  -9.6229  -9.6056  -9.5955  -9.5892
    -9.5558  -9.5263  -9.4671  -9.4400  -9.4291  -9.3482  -9.3383  -9.3240
    -9.3116  -9.3071  -9.3047  -9.2794  -9.2730  -9.2492  -9.2474  -9.2405
    -9.2224  -9.2059  -9.1798  -9.1761  -9.1649  -9.1572  -9.1525  -9.1509
    -9.1331  -9.1281  -9.1011  -9.0977  -9.0770  -9.0753  -9.0743  -9.0678
    -9.0554  -9.0515  -9.0402  -9.0134  -9.0048  -9.0020  -8.9867  -8.9827
    -8.9797  -8.9788  -8.9755  -8.9632  -8.9626  -8.9623  -8.9508  -8.9409
    -8.9180  -8.9149  -8.8976  -8.8907  -8.8866  -8.8700  -8.8539  -8.8203
    -8.7635  -8.7404  -8.7001  -8.6521  -8.6358  -8.6350  -8.5956  -8.5592
    -8.5587  -8.5414  -8.4935  -8.4247  -8.3995  -8.3515  -8.3168  -8.3168
    -8.2925  -8.2573  -8.2448  -8.2435  -8.2164  -8.1760  -8.1629  -8.1253
    -8.0755  -8.0547  -8.0522  -7.9938  -7.9878  -7.9860  -7.9785  -7.9736
    -7.9714  -7.9701  -7.9700  -7.9693  -7.9580  -7.9347  -7.9247  -7.9243
    -7.9228  -7.9223  -7.9014  -7.9005  -7.8947  -7.8872  -7.8731  -7.8717
    -7.8648  -7.8642  -7.8507  -7.8472  -7.8453  -7.8434  -7.8304  -7.8191
    -7.8126  -7.8083  -7.7971  -7.7866  -7.7849  -7.7847  -7.7836  -7.7597
    -7.7521  -7.7428  -7.7173  -7.7115  -7.7084  -7.6885  -7.6724  -7.6636
    -7.6457  -7.6409  -7.6108  -7.5878  -7.5677  -7.5402  -7.4673  -7.4457
    -7.4121  -7.3820  -7.3563  -7.3502  -7.3499  -7.3255  -7.3025  -7.2914
    -7.2508  -7.2284  -7.1922  -7.1917  -7.1666  -7.1603  -7.1351  -7.1322
    -7.1260  -7.1002  -7.0980  -7.0675  -7.0333  -7.0276  -7.0257  -6.9992
    -6.9656  -6.9581  -6.9438  -6.9296  -6.9230  -6.8600  -6.8459  -6.8386
    -6.8087  -6.8021  -6.7857  -6.7820  -6.7819  -6.7817  -6.7815  -6.7464
    -6.7432  -6.7201  -6.7129  -6.7126  -6.7120  -6.6877  -6.6871  -6.6726
    -6.6330  -6.5802  -6.5790  -6.5660  -6.5057  -6.4730  -6.4505  -6.4500
    -6.4498  -6.4496  -6.3945  -6.3937  -6.3747  -6.3727  -6.3692  -6.3654
    -6.3650  -6.3629  -6.3458  -6.3336  -6.2821  -6.2450  -6.1825  -6.1603
    -6.1193  -6.1017  -6.1017  -6.0271  -6.0241  -5.9852  -5.9314  -5.8564
    -5.8102  -5.7216  -5.6989  -5.6441  -5.5756  -5.4708  -5.4159  -5.2475
    -4.3268  -4.2824  -4.1673  -4.1398  -4.1187  -4.0768  -4.0266  -4.0172
    -4.0171  -3.9780  -3.9651  -3.9520  -3.9516  -3.9016  -3.9011  -3.8870
    -3.8489  -3.8163  -3.7855  -3.7429  -3.7371  -3.7233  -3.7202  -3.7142
    -3.7092  -3.7027  -3.7022  -3.6813  -3.6400  -3.6274  -3.6261  -3.6218
    -3.6190  -3.6044  -3.6024  -3.5966  -3.5864  -3.5775  -3.5625  -3.5463
    -3.5292  -3.5081  -3.4941  -3.4928  -3.4701  -3.4694  -3.4633  -3.4416
    -3.4395  -3.4346  -3.4279  -3.4161  -3.4047  -3.3948  -3.3944  -3.3934
    -3.3922  -3.3748  -3.3712  -3.3631  -3.3527  -3.3458  -3.3433  -3.3289
    -3.3210  -3.3188  -3.3122  -3.3025  -3.2936  -3.2777  -3.2574  -3.2379
    -3.2352  -3.2190  -3.1904  -3.1865  -3.1673  -3.1608  -3.1508  -3.1496
    -3.1310  -3.1307  -3.1295  -3.1293  -3.1185  -3.0973  -3.0880  -3.0817
    -3.0803  -3.0741  -3.0709  -3.0523  -3.0472  -3.0403  -3.0389  -3.0178
    -3.0125  -3.0115  -3.0015  -2.9981  -2.9942  -2.9682  -2.9673  -2.9447
    -2.9336  -2.9223  -2.9190  -2.8785  -2.8615  -2.8578  -2.8319  -2.8310
    -2.7982  -2.7864  -2.7732  -2.7677  -2.7602  -2.7482  -2.7246  -2.7003
    -2.6825  -2.6519  -2.6402  -2.6211  -2.6190  -2.6131  -2.5736  -2.5044
    -2.4813  -2.4629  -2.4435  -2.4217  -2.4163  -2.3039

     the Fermi energy is    -4.7854 ev

!    total energy              =  -28869.13920815 Ry
     total all-electron energy =   -575847.067778 Ry
     estimated scf accuracy    <       0.00000062 Ry
     smearing contrib. (-TS)   =      -0.00000029 Ry
     internal energy E=F+TS    =  -28869.13920786 Ry

     The total energy is F=E-TS. E is the sum of the following terms:
     one-electron contribution =  539467.21050810 Ry
     hartree contribution      = -269956.52052915 Ry
     xc contribution           =   -1654.93236120 Ry
     ewald contribution        = -279605.41174561 Ry
     DFT-D3 Dispersion         =      -4.06786384 Ry
     one-center paw contrib.   =  -17115.41721616 Ry

     convergence has been achieved in  22 iterations

     negative rho (up, down):  8.653E-04 0.000E+00

     Forces acting on atoms (cartesian axes, Ry/au):

     atom    1 type  1   force =     0.00102244    0.00036277   -0.00003489
     atom    2 type  1   force =     0.00001821   -0.00001459    0.00187737
     atom    3 type  1   force =    -0.00001273   -0.00001529    0.00001861
     atom    4 type  2   force =    -0.00000237    0.00000676   -0.00287180
     atom    5 type  2   force =    -0.00003886   -0.00003113    0.00043081
     atom    6 type  2   force =    -0.00048193    0.00062166    0.00015021
     atom    7 type  2   force =    -0.00000217   -0.00000174    0.00112626
     atom    8 type  2   force =     0.00002193   -0.00004595   -0.00037407
     atom    9 type  2   force =    -0.00083481    0.00061037   -0.00010260
     atom   10 type  1   force =    -0.00333680   -0.00379291   -0.00058545
     atom   11 type  1   force =    -0.00000396    0.00001331    0.00186820
     atom   12 type  1   force =     0.00000912   -0.00008890    0.00007758
     atom   13 type  2   force =    -0.00000179   -0.00000039   -0.00287026
     atom   14 type  2   force =     0.00000465   -0.00002023    0.00043425
     atom   15 type  2   force =     0.00068952    0.00055330    0.00001665
     atom   16 type  2   force =     0.00000254   -0.00000497    0.00114041
     atom   17 type  2   force =     0.00000781   -0.00001607   -0.00034306
     atom   18 type  2   force =    -0.00070989   -0.00028613   -0.00072195
     atom   19 type  1   force =    -0.00308085   -0.00063874   -0.00326930
     atom   20 type  1   force =     0.00002985    0.00001162    0.00187184
     atom   21 type  1   force =    -0.00006663    0.00003408    0.00002151
     atom   22 type  2   force =     0.00000031    0.00000437   -0.00287315
     atom   23 type  2   force =     0.00000095   -0.00002895    0.00048538
     atom   24 type  2   force =     0.00004064    0.00018575   -0.00010335
     atom   25 type  2   force =     0.00000268   -0.00000127    0.00112705
     atom   26 type  2   force =    -0.00003987    0.00001190   -0.00029218
     atom   27 type  2   force =     0.00034573   -0.00032112    0.00109348
     atom   28 type  1   force =    -0.00074683    0.00008050    0.00043038
     atom   29 type  1   force =     0.00000556    0.00002076    0.00187816
     atom   30 type  1   force =    -0.00002455   -0.00005814   -0.00000915
     atom   31 type  2   force =    -0.00000193    0.00001025   -0.00286181
     atom   32 type  2   force =    -0.00003498   -0.00000569    0.00045091
     atom   33 type  2   force =    -0.00043308    0.00011337   -0.00034218
     atom   34 type  2   force =    -0.00000464    0.00000298    0.00112405
     atom   35 type  2   force =    -0.00007809   -0.00001476   -0.00037540
     atom   36 type  2   force =     0.00018729    0.00031726    0.00013596
     atom   37 type  1   force =    -0.00067450    0.00090886    0.00016940
     atom   38 type  1   force =    -0.00000333   -0.00001487    0.00187080
     atom   39 type  1   force =     0.00003388   -0.00007085   -0.00006851
     atom   40 type  2   force =    -0.00000553    0.00000583   -0.00288255
     atom   41 type  2   force =     0.00002017   -0.00009045    0.00036670
     atom   42 type  2   force =     0.00060022    0.00035152    0.00012517
     atom   43 type  2   force =    -0.00000172    0.00000173    0.00111892
     atom   44 type  2   force =    -0.00002953   -0.00002786   -0.00048165
     atom   45 type  2   force =     0.00010602   -0.00064284   -0.00004780
     atom   46 type  1   force =     0.00229823   -0.00071739    0.00675527
     atom   47 type  1   force =    -0.00000397    0.00000255    0.00186749
     atom   48 type  1   force =    -0.00002419   -0.00004425    0.00004604
     atom   49 type  2   force =    -0.00000451    0.00000095   -0.00287699
     atom   50 type  2   force =    -0.00005829   -0.00001764    0.00041012
     atom   51 type  2   force =    -0.00156203   -0.00183857   -0.00144001
     atom   52 type  2   force =     0.00000416    0.00000399    0.00112397
     atom   53 type  2   force =     0.00003277   -0.00007064   -0.00040456
     atom   54 type  2   force =     0.00074662   -0.00174435   -0.00747137
     atom   55 type  1   force =     0.00305788   -0.00112175   -0.03064039
     atom   56 type  1   force =    -0.00001592    0.00001175    0.00186937
     atom   57 type  1   force =     0.00003930   -0.00000781    0.00004729
     atom   58 type  2   force =     0.00000023    0.00000726   -0.00287209
     atom   59 type  2   force =    -0.00001243   -0.00003215    0.00047312
     atom   60 type  2   force =    -0.00075204   -0.00054745    0.00396485
     atom   61 type  2   force =     0.00000913   -0.00000068    0.00111550
     atom   62 type  2   force =     0.00001797   -0.00000754   -0.00043891
     atom   63 type  2   force =    -0.01641970   -0.00338370    0.01876090
     atom   64 type  1   force =    -0.00125054    0.00287352   -0.00333882
     atom   65 type  1   force =     0.00001909   -0.00000435    0.00187067
     atom   66 type  1   force =    -0.00006470   -0.00001167    0.00003811
     atom   67 type  2   force =     0.00000316    0.00000388   -0.00285904
     atom   68 type  2   force =    -0.00002606   -0.00001091    0.00045273
     atom   69 type  2   force =    -0.00076136   -0.00003222   -0.00109481
     atom   70 type  2   force =     0.00001237    0.00000501    0.00111440
     atom   71 type  2   force =    -0.00001668    0.00000146   -0.00030044
     atom   72 type  2   force =     0.00086520   -0.00068848   -0.00128982
     atom   73 type  1   force =    -0.00085262   -0.00082898   -0.00022421
     atom   74 type  1   force =     0.00000452   -0.00002954    0.00187541
     atom   75 type  1   force =    -0.00003684   -0.00006534   -0.00005822
     atom   76 type  2   force =    -0.00000040    0.00000095   -0.00285411
     atom   77 type  2   force =     0.00001869   -0.00004718    0.00040889
     atom   78 type  2   force =    -0.00076476    0.00000534    0.00034745
     atom   79 type  2   force =     0.00000189   -0.00000533    0.00111628
     atom   80 type  2   force =     0.00000002   -0.00002343   -0.00036769
     atom   81 type  2   force =     0.00016445   -0.00006669    0.00081559
     atom   82 type  1   force =    -0.00122311    0.00097189    0.00071317
     atom   83 type  1   force =    -0.00000959   -0.00001177    0.00186772
     atom   84 type  1   force =    -0.00001410   -0.00006531   -0.00004307
     atom   85 type  2   force =    -0.00000338   -0.00000027   -0.00286053
     atom   86 type  2   force =     0.00000027   -0.00003487    0.00038725
     atom   87 type  2   force =    -0.00001665   -0.00090715   -0.00001003
     atom   88 type  2   force =    -0.00000016    0.00000247    0.00111672
     atom   89 type  2   force =    -0.00000211   -0.00003170   -0.00048217
     atom   90 type  2   force =     0.00247662   -0.00140213   -0.00003258
     atom   91 type  1   force =     0.00267100   -0.00087459    0.00691920
     atom   92 type  1   force =    -0.00000853    0.00001164    0.00187088
     atom   93 type  1   force =    -0.00003475    0.00001445    0.00002242
     atom   94 type  2   force =    -0.00000622    0.00000335   -0.00285632
     atom   95 type  2   force =    -0.00003382   -0.00002438    0.00038643
     atom   96 type  2   force =    -0.00035000    0.00070995    0.00216166
     atom   97 type  2   force =    -0.00000657    0.00000276    0.00111296
     atom   98 type  2   force =    -0.00002561   -0.00005909   -0.00040656
     atom   99 type  2   force =     0.01007516   -0.00494355   -0.01485484
     atom  100 type  1   force =     0.00140809    0.00487417   -0.00054353
     atom  101 type  1   force =    -0.00001688    0.00001474    0.00186988
     atom  102 type  1   force =     0.00003340   -0.00005814    0.00000428
     atom  103 type  2   force =    -0.00000820    0.00000748   -0.00283950
     atom  104 type  2   force =     0.00001220   -0.00003525    0.00045489
     atom  105 type  2   force =    -0.00001296    0.00125866    0.00395787
     atom  106 type  2   force =    -0.00000070    0.00000294    0.00109981
     atom  107 type  2   force =    -0.00001789    0.00000648   -0.00042980
     atom  108 type  2   force =    -0.00575233    0.01627158    0.01841781
     atom  109 type  1   force =     0.00002881    0.00036585    0.00060499
     atom  110 type  1   force =    -0.00001847   -0.00000569    0.00186331
     atom  111 type  1   force =     0.00005701   -0.00002833    0.00001405
     atom  112 type  2   force =    -0.00000206    0.00000264   -0.00286521
     atom  113 type  2   force =     0.00002898   -0.00001965    0.00046331
     atom  114 type  2   force =     0.00018896   -0.00055245    0.00038676
     atom  115 type  2   force =    -0.00000261   -0.00000640    0.00112844
     atom  116 type  2   force =     0.00001432   -0.00000570   -0.00037382
     atom  117 type  2   force =     0.00018387    0.00085728   -0.00107068
     atom  118 type  1   force =     0.00024193    0.00091134   -0.00010478
     atom  119 type  1   force =     0.00001354   -0.00001344    0.00187080
     atom  120 type  1   force =     0.00001750   -0.00002146   -0.00002432
     atom  121 type  2   force =    -0.00000218   -0.00000090   -0.00286980
     atom  122 type  2   force =     0.00002930   -0.00003188    0.00041218
     atom  123 type  2   force =    -0.00010910    0.00001839    0.00011216
     atom  124 type  2   force =    -0.00000335   -0.00000848    0.00112949
     atom  125 type  2   force =    -0.00003678   -0.00002533   -0.00038709
     atom  126 type  2   force =    -0.00005303   -0.00072381   -0.00042729
     atom  127 type  1   force =    -0.00170761   -0.00017729    0.00026468
     atom  128 type  1   force =    -0.00000051    0.00001234    0.00186735
     atom  129 type  1   force =    -0.00000875    0.00002546    0.00000097
     atom  130 type  2   force =    -0.00000640    0.00000578   -0.00286704
     atom  131 type  2   force =    -0.00001245    0.00000632    0.00040611
     atom  132 type  2   force =    -0.00004207    0.00030207   -0.00044056
     atom  133 type  2   force =    -0.00001308    0.00000517    0.00111745
     atom  134 type  2   force =    -0.00002703   -0.00000660   -0.00042831
     atom  135 type  2   force =     0.00237282   -0.00107782    0.00036091
     atom  136 type  1   force =     0.00017265   -0.00062571   -0.00009506
     atom  137 type  1   force =    -0.00000267    0.00000495    0.00187146
     atom  138 type  1   force =    -0.00000191    0.00001113    0.00004558
     atom  139 type  2   force =    -0.00000197    0.00000730   -0.00285715
     atom  140 type  2   force =    -0.00004060   -0.00000221    0.00041485
     atom  141 type  2   force =     0.00071811    0.00203387   -0.00076016
     atom  142 type  2   force =    -0.00000751    0.00000649    0.00111680
     atom  143 type  2   force =     0.00000891    0.00000329   -0.00038973
     atom  144 type  2   force =     0.00178887    0.00043040   -0.00768772
     atom  145 type  3   force =    -0.01359359    0.01273676    0.01467900
     atom  146 type  3   force =    -0.01825165    0.00450191    0.01490388
     atom  147 type  3   force =     0.04177982   -0.02418372   -0.01641721

     Total force =     0.082029     Total SCF correction =     0.008535
     SCF correction compared to forces is large: reduce conv_thr to get better values

     BFGS Geometry Optimization
     Energy error            =      0.0E+00 Ry
[...]
     atom   72 type  2   force =     0.00022314   -0.00008867   -0.00008662
     atom   73 type  1   force =     0.00002877   -0.00005398   -0.00012357
     atom   74 type  1   force =    -0.00000022   -0.00000491    0.00190786
     atom   75 type  1   force =    -0.00000299   -0.00001358    0.00000896
     atom   76 type  2   force =     0.00000019   -0.00000038   -0.00328098
     atom   77 type  2   force =    -0.00004260   -0.00002875    0.00003727
     atom   78 type  2   force =    -0.00023299    0.00032237   -0.00002500
     atom   79 type  2   force =     0.00000040   -0.00001577    0.00152704
     atom   80 type  2   force =     0.00002294   -0.00002470   -0.00002648
     atom   81 type  2   force =     0.00006465    0.00032855   -0.00006410
     atom   82 type  1   force =     0.00003523    0.00001000   -0.00015198
     atom   83 type  1   force =    -0.00000096   -0.00000474    0.00190780
     atom   84 type  1   force =    -0.00001279   -0.00002274    0.00006174
     atom   85 type  2   force =     0.00000085   -0.00000099   -0.00328054
     atom   86 type  2   force =    -0.00001532    0.00000348    0.00005618
     atom   87 type  2   force =     0.00044610    0.00024231   -0.00028319
     atom   88 type  2   force =    -0.00000877   -0.00000919    0.00152070
     atom   89 type  2   force =     0.00000242   -0.00002310   -0.00008128
     atom   90 type  2   force =     0.00035243   -0.00010997   -0.00045018
     atom   91 type  1   force =     0.00007916    0.00006891   -0.00024564
     atom   92 type  1   force =    -0.00000174   -0.00000278    0.00190024
     atom   93 type  1   force =     0.00001521   -0.00003497    0.00002634
     atom   94 type  2   force =     0.00000044   -0.00000098   -0.00328160
     atom   95 type  2   force =     0.00003499   -0.00004509    0.00009209
     atom   96 type  2   force =    -0.00037618    0.00023704   -0.00014985
     atom   97 type  2   force =    -0.00000579   -0.00000972    0.00152306
     atom   98 type  2   force =    -0.00006098    0.00001000    0.00006110
     atom   99 type  2   force =    -0.00005579    0.00008541   -0.00043131
     atom  100 type  1   force =     0.00023159   -0.00019863    0.00008301
     atom  101 type  1   force =     0.00000010   -0.00000256    0.00189896
     atom  102 type  1   force =    -0.00000818   -0.00002055   -0.00000243
     atom  103 type  2   force =    -0.00000018   -0.00000047   -0.00328127
     atom  104 type  2   force =    -0.00000425   -0.00004019    0.00005227
     atom  105 type  2   force =    -0.00001964   -0.00019600    0.00041245
     atom  106 type  2   force =     0.00000301   -0.00001100    0.00153393
     atom  107 type  2   force =    -0.00001315   -0.00004557   -0.00003943
     atom  108 type  2   force =    -0.00028946    0.00045671    0.00029884
     atom  109 type  1   force =     0.00008837   -0.00003318   -0.00000555
     atom  110 type  1   force =     0.00000118   -0.00000394    0.00190340
     atom  111 type  1   force =    -0.00001256   -0.00003416   -0.00007364
     atom  112 type  2   force =    -0.00000003   -0.00000029   -0.00328140
     atom  113 type  2   force =     0.00002979   -0.00004880    0.00002412
     atom  114 type  2   force =     0.00013296   -0.00055690    0.00022250
     atom  115 type  2   force =     0.00000600   -0.00001845    0.00152780
     atom  116 type  2   force =    -0.00005118   -0.00002025   -0.00007758
     atom  117 type  2   force =     0.00001228   -0.00019373   -0.00026174
     atom  118 type  1   force =     0.00008368    0.00005272   -0.00012429
     atom  119 type  1   force =     0.00000135   -0.00000411    0.00190910
     atom  120 type  1   force =    -0.00001347   -0.00001509   -0.00000087
     atom  121 type  2   force =     0.00000039   -0.00000062   -0.00328055
     atom  122 type  2   force =    -0.00004999    0.00000185    0.00002174
     atom  123 type  2   force =    -0.00020097    0.00013130    0.00019348
     atom  124 type  2   force =     0.00000156   -0.00001400    0.00152519
     atom  125 type  2   force =     0.00004764   -0.00005187   -0.00007915
     atom  126 type  2   force =    -0.00004580    0.00004486   -0.00021637
     atom  127 type  1   force =    -0.00014488   -0.00006816   -0.00009707
     atom  128 type  1   force =     0.00000063   -0.00000225    0.00190773
     atom  129 type  1   force =    -0.00000652   -0.00001757    0.00006457
     atom  130 type  2   force =     0.00000082   -0.00000104   -0.00328069
     atom  131 type  2   force =    -0.00003073   -0.00002185    0.00005462
     atom  132 type  2   force =    -0.00000081   -0.00046963   -0.00027395
     atom  133 type  2   force =    -0.00001039   -0.00000362    0.00151987
     atom  134 type  2   force =     0.00000447   -0.00002365   -0.00007977
     atom  135 type  2   force =     0.00025924   -0.00020803   -0.00042005
     atom  136 type  1   force =    -0.00002985   -0.00008198   -0.00011486
     atom  137 type  1   force =     0.00000002   -0.00000088    0.00189865
     atom  138 type  1   force =     0.00000211   -0.00002183    0.00001654
     atom  139 type  2   force =     0.00000053   -0.00000071   -0.00328159
     atom  140 type  2   force =     0.00001067   -0.00001283    0.00007204
     atom  141 type  2   force =     0.00007640    0.00001824   -0.00044289
     atom  142 type  2   force =    -0.00000273   -0.00000423    0.00152307
     atom  143 type  2   force =    -0.00000869    0.00000428   -0.00001706
     atom  144 type  2   force =     0.00024798    0.00024626   -0.00005832
     atom  145 type  3   force =    -0.00009497    0.00016593    0.00071138
     atom  146 type  3   force =    -0.00013299    0.00008958    0.00063179
     atom  147 type  3   force =    -0.00052258    0.00036344   -0.00080400

     Total force =     0.002948     Total SCF correction =     0.000428
     SCF correction compared to forces is large: reduce conv_thr to get better values
     Energy error            =      1.6E-05 Ry
     Gradient error          =      8.0E-04 Ry/Bohr

     bfgs converged in  20 scf cycles and  19 bfgs steps
     (criteria: energy <  1.0E-04 Ry, force <  1.0E-03 Ry/Bohr)

     End of BFGS Geometry Optimization

     Final energy             =  -28869.1730471596 Ry

     File ./outdir/pwscf.bfgs deleted, as requested
Begin final coordinates

ATOMIC_POSITIONS (angstrom)
Mo               1.5628071158        2.7048002029        6.0927517906
Mo               1.5769197498        0.9104407117       -6.0872367793    0   0   0
Mo               0.0003233783        1.8191739156        0.0010039491
S                0.0000044503        0.0000077495       -7.6506323570    0   0   0
S                1.5770379620        0.9089618620       -1.5649308936
S               -0.0053063255        1.8089819981        4.5165094876
S                0.0000053241        0.0000068460       -4.5222282367    0   0   0
S                1.5774765728        0.9084240940        1.5679894718
S               -0.0101500518        1.8115383192        7.6698400367
Mo              -0.0175039879        5.4446038806        6.0971139790
Mo               0.0000011799        3.6417399547       -6.0872367793    0   0   0
Mo              -1.5770118518        4.5504056445        0.0007489241
S               -1.5769141197        2.7313069925       -7.6506323570    0   0   0
S                0.0004915445        3.6403923207       -1.5642064666
S               -1.5844794653        4.5376430174        4.5210414762
S               -1.5769132459        2.7313060890       -4.5222282367    0   0   0
S               -0.0002420355        3.6397831249        1.5684017805
S               -1.5937185309        4.5332006126        7.6607781396
Mo              -1.5928558435        8.1774356945        6.0846506302
Mo              -1.5769173901        6.3730391977       -6.0872367793    0   0   0
Mo              -3.1539818864        7.2819659306       -0.0002207365
S               -3.1538326896        5.4626062355       -7.6506323570    0   0   0
S               -1.5761345544        6.3714870903       -1.5647282434
S               -3.1591838623        7.2694715308        4.5157852039
S               -3.1538318159        5.4626053320       -4.5222282367    0   0   0
S               -1.5781986688        6.3711284350        1.5673156095
S               -3.1485821454        7.2672376055        7.6675571807
Mo               3.1500747917       -0.0130053921        6.0855187152
Mo              -3.1538359601        9.1043384407       -6.0872367793    0   0   0
Mo              -4.7307442348       10.0131129534        0.0006259129
S               -4.7307512596        8.1939054785       -7.6506323570    0   0   0
S               -3.1536728907        9.1031479910       -1.5653505840
S               -4.7326845179       10.0027016962        4.5203908570
S               -4.7307503859        8.1939045750       -4.5222282367    0   0   0
S               -3.1539467810        9.1025131745        1.5674674969
S               -4.7277623259       10.0062546451        7.6570355525
Mo               4.7370048399        2.7018758892        6.0951676767
Mo               4.7307503218        0.9104407117       -6.0872367793    0   0   0
Mo               3.1539585393        1.8193591505        0.0006746790
S                3.1538350223        0.0000077495       -7.6506323570    0   0   0
S                4.7306207270        0.9087060650       -1.5653131257
S                3.1502706278        1.8059314398        4.5203293833
S                3.1538358961        0.0000068460       -4.5222282367    0   0   0
S                4.7308285371        0.9088516454        1.5674964390
S                3.1495494775        1.7996527340        7.6570463185
Mo               3.1487761117        5.3904934815        6.0838211829
Mo               3.1538317519        3.6417399547       -6.0872367793    0   0   0
Mo               1.5770445383        4.5507038050        0.0020011052
S                1.5769164523        2.7313069925       -7.6506323570    0   0   0
S                3.1534534459        3.6406346811       -1.5644211411
S                1.5632325068        4.5239974076        4.5345333052
S                1.5769173261        2.7313060890       -4.5222282367    0   0   0
S                3.1544943993        3.6399570001        1.5688550336
S                1.5077777222        4.4852578436        7.7111968583
Mo               1.5181492197        8.2127687931        6.0457807093
Mo               1.5769131819        6.3730391977       -6.0872367793    0   0   0
Mo               0.0000967452        7.2817519993        0.0020009031
S               -0.0000021176        5.4626062355       -7.6506323570    0   0   0
S                1.5772528721        6.3717603707       -1.5630923706
S               -0.0319307118        7.2595897373        4.5128641663
S               -0.0000012439        5.4626053320       -4.5222282367    0   0   0
S                1.5768300707        6.3711543671        1.5704209721
S               -0.0509855517        7.2592866121        7.6884375934
Mo               6.3008419349       -0.0007517878        6.0846022958
Mo              -0.0000053881        9.1043384407       -6.0872367793    0   0   0
Mo              -1.5768297428       10.0131432738        0.0007618567
S               -1.5769206876        8.1939054785       -7.6506323570    0   0   0
S                0.0006466376        9.1025157254       -1.5637560520
S               -1.5847517649       10.0041987697        4.5155548011
S               -1.5769198139        8.1939045750       -4.5222282367    0   0   0
S               -0.0003436714        9.1028432643        1.5693012220
S               -1.5830984579       10.0030622988        7.6497560323
Mo               7.8797739549        2.7174456342        6.0889655363
Mo               7.8845808939        0.9104407117       -6.0872367793    0   0   0
Mo               6.3075781929        1.8193903666       -0.0001721306
S                6.3076655943        0.0000077495       -7.6506323570    0   0   0
S                7.8850794802        0.9083768284       -1.5647135555
S                6.3041744425        1.8098509643        4.5156682333
S                6.3076664681        0.0000068460       -4.5222282367    0   0   0
S                7.8841948838        0.9099508046        1.5673618737
S                6.3111779486        1.8014731623        7.6675689686
Mo               6.3177767901        5.4416519079        6.1076773244
Mo               6.3076623239        3.6417399547       -6.0872367793    0   0   0
Mo               4.7308502126        4.5506864641        0.0006387224
S                4.7307470244        2.7313069925       -7.6506323570    0   0   0
S                6.3074236108        3.6403628430       -1.5656075101
S                4.7389174650        4.5230693073        4.5399678058
S                4.7307478981        2.7313060890       -4.5222282367    0   0   0
S                6.3078629178        3.6399983825        1.5671677429
S                4.7940186177        4.4799070639        7.7172243480
Mo               4.7775371392        8.2117753017        6.0835260419
Mo               4.7307437539        6.3730391977       -6.0872367793    0   0   0
Mo               3.1539593150        7.2818617219        0.0028389321
S                3.1538284544        5.4626062355       -7.6506323570    0   0   0
S                4.7299237695        6.3720455985       -1.5642802108
S                3.1631429304        7.2629967967        4.5481537869
S                3.1538293281        5.4626053320       -4.5222282367    0   0   0
S                4.7319569382        6.3706983465        1.5690441155
S                3.1257447189        7.2846546911        7.4929391901
Mo               9.4552152114        0.0015348809        6.0970670256
Mo               3.1538251839        9.1043384407       -6.0872367793    0   0   0
Mo               1.5771147676       10.0132288462        0.0020061421
S                1.5769098844        8.1939054785       -7.6506323570    0   0   0
S                3.1538421906        9.1025277535       -1.5631159184
S                1.5686377496       10.0318994585        4.5127487167
S                1.5769107581        8.1939045750       -4.5222282367    0   0   0
S                3.1540004061        9.1028679088        1.5703901402
S                1.5591383192       10.0480668437        7.6884412331
Mo              -1.5806882415        2.7184061444        6.0888988837
Mo              11.0384114659        0.9104407117       -6.0872367793    0   0   0
Mo               9.4616499985        1.8195301744        0.0007414699
S                9.4614961663        0.0000077495       -7.6506323570    0   0   0
S               11.0386045889        0.9085976598       -1.5642301282
S                9.4573382023        1.8122918312        4.5210456021
S                9.4614970401        0.0000068460       -4.5222282367    0   0   0
S               11.0385470648        0.9091364746        1.5683661737
S                9.4563771377        1.8221582933        7.6607898930
Mo              -3.1573413908        5.4509622855        6.0889703469
Mo               9.4614928959        3.6417399547       -6.0872367793    0   0   0
Mo               7.8846069032        4.5505950246       -0.0001813424
S                7.8845775964        2.7313069925       -7.6506323570    0   0   0
S                9.4619687819        3.6400359569       -1.5651561270
S                7.8798605910        4.5398863835        4.5240118963
S                7.8845784701        2.7313060890       -4.5222282367    0   0   0
S                9.4608646641        3.6404208649        1.5679782897
S                7.8993146132        4.5284637314        7.6639924981
Mo              -4.7153441981        8.1804627382        6.0952024407
Mo               7.8845743259        6.3730391977       -6.0872367793    0   0   0
Mo               6.3076378487        7.2818199970        0.0005742029
S                6.3076590264        5.4626062355       -7.6506323570    0   0   0
S                7.8843684301        6.3717295631       -1.5656475874
S                6.3240417801        7.2683661416        4.5398210527
S                6.3076599001        5.4626053320       -4.5222282367    0   0   0
S                7.8846745764        6.3712129821        1.5671179809
S                6.3882771353        7.2421704468        7.7170099297
Mo               0.0026984637        0.0028188880        6.0927301591
Mo               6.3076557559        9.1043384407       -6.0872367793    0   0   0
Mo               4.7307362796       10.0131183830        0.0019386075
S                4.7307404564        8.1939054785       -7.6506323570    0   0   0
S                6.3071543835        9.1030773359       -1.5644909494
S                4.7352225893       10.0184821974        4.5342851478
S                4.7307413301        8.1939045750       -4.5222282367    0   0   0
S                6.3080452210        9.1021596244        1.5687784941
S                4.7408353058       10.0847771247        7.7110043891
Pt               3.1716824325        5.6243766762        9.0294055823
Pt               4.5854310459        8.0734232006        9.0305609483
Pt               1.7856019775        8.0570987997        9.1213067796
End final coordinates



     Writing all to output data dir ./outdir/pwscf.save/ :
     XML data file, charge density, pseudopotentials, collected wavefunctions
 
     init_run     :     96.44s CPU     98.63s WALL (       1 calls)
     electrons    :  96501.54s CPU  97906.92s WALL (      20 calls)
     update_pot   :     34.54s CPU     35.44s WALL (      19 calls)
     forces       :   1434.09s CPU   1464.55s WALL (      20 calls)
     force_dftd3  :      7.45s CPU      7.95s WALL (      20 calls)

     Called by init_run:
     wfcinit      :     78.56s CPU     79.76s WALL (       1 calls)
     potinit      :      1.64s CPU      1.74s WALL (       1 calls)
     hinit0       :      9.19s CPU      9.26s WALL (       1 calls)

     Called by electrons:
     c_bands      :  84662.75s CPU  85554.21s WALL (     279 calls)
     sum_band     :  10154.69s CPU  10424.87s WALL (     279 calls)
     v_of_rho     :     81.00s CPU     91.26s WALL (     286 calls)
     newd         :   1256.88s CPU   1483.03s WALL (     286 calls)
     PAW_pot      :    396.32s CPU    398.73s WALL (     305 calls)
     mix_rho      :     22.19s CPU     25.09s WALL (     279 calls)
     energy_dftd3 :      4.26s CPU      4.29s WALL (      20 calls)

     Called by c_bands:
     init_us_2    :    393.15s CPU    394.90s WALL (    2392 calls)
     init_us_2:cp :    393.13s CPU    394.88s WALL (    2392 calls)
     cegterg      :  83060.53s CPU  83944.76s WALL (    1136 calls)

     Called by *egterg:
     cdiaghg      :   4625.81s CPU   4823.08s WALL (   14040 calls)
     h_psi        :  42580.40s CPU  42860.85s WALL (   14180 calls)
     s_psi        :   8729.24s CPU   8769.91s WALL (   14180 calls)
     g_psi        :     96.01s CPU     96.43s WALL (   13040 calls)

     Called by h_psi:
     h_psi:calbec :   8786.74s CPU   8823.21s WALL (   14180 calls)
     vloc_psi     :  24852.08s CPU  24985.04s WALL (   14180 calls)
     add_vuspsi   :   8734.50s CPU   8777.50s WALL (   14180 calls)

     General routines
     calbec       :  12394.89s CPU  12447.45s WALL (   15692 calls)
     fft          :     61.31s CPU     70.20s WALL (    3930 calls)
     ffts         :      4.18s CPU      4.31s WALL (     565 calls)
     fftw         :  18633.31s CPU  18731.09s WALL ( 6481692 calls)
     interpolate  :      6.76s CPU      7.42s WALL (     286 calls)
 
     Parallel routines
 
     PWSCF        :   1d 3h22m CPU   1d 3h47m WALL

 
   This run was terminated on:  23:48:15  10Feb2024            

=------------------------------------------------------------------------------=
   JOB DONE.
=------------------------------------------------------------------------------=
