
     Program PWSCF v.7.2 starts on 17Aug2023 at 22: 8: 0 

     This program is part of the open-source Quantum ESPRESSO suite
     for quantum simulation of materials; please cite
         "P. Giannozzi et al., J. Phys.:Condens. Matter 21 395502 (2009);
         "P. Giannozzi et al., J. Phys.:Condens. Matter 29 465901 (2017);
         "P. Giannozzi et al., J. Chem. Phys. 152 154105 (2020);
          URL http://www.quantum-espresso.org", 
     in publications or presentations arising from this work. More details at
     http://www.quantum-espresso.org/quote

     Parallel version (MPI), running on    36 processors

     MPI processes distributed on     1 nodes
     769779 MiB available memory on the printing compute node when the environment starts
 
     Waiting for input...
     Reading input from standard input
Warning: card &CELL ignored
Warning: card / ignored

     Current dimensions of program PWSCF are:
     Max number of different atomic species (ntypx) = 10
     Max number of k-points (npk) =  40000
     Max angular momentum in pseudopotentials (lmaxx) =  4
     file Mo.pbe-spn-kjpaw_psl.1.0.0.UPF: wavefunction(s)  4S 4D renormalized
     file S.pbe-n-kjpaw_psl.1.0.0.UPF: wavefunction(s)  3S 3P renormalized
     file H.pbe-kjpaw_psl.1.0.0.UPF: wavefunction(s)  1S renormalized
 
     R & G space division:  proc/nbgrp/npool/nimage =      36
     Subspace diagonalization in iterative solution of the eigenvalue problem:
     one sub-group per band group will be used
     custom distributed-memory algorithm (size of sub-group:  6*  6 procs)

 
     Parallelization info
     --------------------
     sticks:   dense  smooth     PW     G-vecs:    dense   smooth      PW
     Min         586     335     89               165416    71459    9765
     Max         587     337     90               165425    71461    9778
     Sum       21109   12085   3205              5955087  2572543  351657
 
     Using Slab Decomposition
 


     bravais-lattice index     =            0
     lattice parameter (alat)  =      23.8395  a.u.
     unit-cell volume          =   28182.8498 (a.u.)^3
     number of atoms/cell      =          145
     number of atomic types    =            3
     number of electrons       =      1249.00
     number of Kohn-Sham states=          750
     kinetic-energy cutoff     =      77.0000  Ry
     charge density cutoff     =     539.0000  Ry
     scf convergence threshold =      1.0E-06
     mixing beta               =       0.2000
     number of iterations used =            8  plain     mixing
     Exchange-correlation= SLA  PW   PBX  PBC
                           (   1   4   3   4   0   0   0)

     Effective Screening Medium Method
     =================================
     Boundary Conditions: Vacuum-Slab-Vacuum
     total charge in unit cell        =   0.0000
     grid points for fit at edges     =        4 
 

     celldm(1)=  23.839504  celldm(2)=   0.000000  celldm(3)=   0.000000
     celldm(4)=   0.000000  celldm(5)=   0.000000  celldm(6)=   0.000000

     crystal axes: (cart. coord. in units of alat)
               a(1) = (   1.000000   0.000000   0.000000 )  
               a(2) = (  -0.500001   0.866026   0.000000 )  
               a(3) = (   0.000000   0.000000   2.401941 )  

     reciprocal axes: (cart. coord. in units 2 pi/alat)
               b(1) = (  1.000000  0.577351  0.000000 )  
               b(2) = (  0.000000  1.154700  0.000000 )  
               b(3) = (  0.000000  0.000000  0.416330 )  


     PseudoPot. # 1 for Mo read from file:
     ./pseudo/Mo.pbe-spn-kjpaw_psl.1.0.0.UPF
     MD5 check sum: 317bf72632116215fd98f72de1686f13
     Pseudo is Projector augmented-wave + core cor, Zval = 14.0
     Generated using 'atomic' code by A. Dal Corso  v.7.2
     Shape of augmentation charge: PSQ
     Using radial grid of 1229 points,  6 beta functions with: 
                l(1) =   0
                l(2) =   0
                l(3) =   1
                l(4) =   1
                l(5) =   2
                l(6) =   2
     Q(r) pseudized with 0 coefficients 


     PseudoPot. # 2 for S  read from file:
     ./pseudo/S.pbe-n-kjpaw_psl.1.0.0.UPF
     MD5 check sum: 8b7b5302570d38d5e87fed6a1065abda
     Pseudo is Projector augmented-wave + core cor, Zval =  6.0
     Generated using 'atomic' code by A. Dal Corso  v.7.2
     Shape of augmentation charge: PSQ
     Using radial grid of 1151 points,  6 beta functions with: 
                l(1) =   0
                l(2) =   0
                l(3) =   1
                l(4) =   1
                l(5) =   2
                l(6) =   2
     Q(r) pseudized with 0 coefficients 


     PseudoPot. # 3 for H  read from file:
     ./pseudo/H.pbe-kjpaw_psl.1.0.0.UPF
     MD5 check sum: b3cb3c48ee3b58cc53e4d592112d0ca6
     Pseudo is Projector augmented-wave, Zval =  1.0
     Generated using 'atomic' code by A. Dal Corso  v.7.2
     Shape of augmentation charge: PSQ
     Using radial grid of  929 points,  2 beta functions with: 
                l(1) =   0
                l(2) =   0
     Q(r) pseudized with 0 coefficients 


     atomic species   valence    mass     pseudopotential
        Mo            14.00    95.95000     Mo( 1.00)
        S              6.00    32.06000     S ( 1.00)
        H              1.00     1.00800     H ( 1.00)

     No symmetry found



   Cartesian axes

     site n.     atom                  positions (alat units)
         1           Mo  tau(   1) = (   0.1238047   0.2170940   0.4813901  )
         2           Mo  tau(   2) = (   0.1250004   0.0721694  -0.4825273  )
         3           Mo  tau(   3) = (  -0.0000392   0.1446684  -0.0005420  )
         4           S   tau(   4) = (   0.0000004   0.0000006  -0.6064556  )
         5           S   tau(   5) = (   0.1249505   0.0725480  -0.1246790  )
         6           S   tau(   6) = (  -0.0006644   0.1449367   0.3568275  )
         7           S   tau(   7) = (   0.0000004   0.0000005  -0.3584711  )
         8           S   tau(   8) = (   0.1249978   0.0725204   0.1236292  )
         9           S   tau(   9) = (  -0.0012427   0.1446955   0.6054507  )
        10           Mo  tau(  10) = (  -0.0011602   0.4337303   0.4810549  )
        11           Mo  tau(  11) = (   0.0000001   0.2886759  -0.4825273  )
        12           Mo  tau(  12) = (  -0.1250022   0.3611765  -0.0005233  )
        13           S   tau(  13) = (  -0.1249999   0.2165071  -0.6064556  )
        14           S   tau(  14) = (  -0.0000417   0.2889953  -0.1246206  )
        15           S   tau(  15) = (  -0.1252605   0.3612493   0.3563144  )
        16           S   tau(  16) = (  -0.1249998   0.2165070  -0.3584711  )
        17           S   tau(  17) = (   0.0000569   0.2890167   0.1236870  )
        18           S   tau(  18) = (  -0.1262744   0.3613467   0.6051318  )
        19           Mo  tau(  19) = (  -0.1255697   0.6503062   0.4809169  )
        20           Mo  tau(  20) = (  -0.1250002   0.5051824  -0.4825273  )
        21           Mo  tau(  21) = (  -0.2500260   0.5776757  -0.0005610  )
        22           S   tau(  22) = (  -0.2500002   0.4330136  -0.6064556  )
        23           S   tau(  23) = (  -0.1250512   0.5054621  -0.1246522  )
        24           S   tau(  24) = (  -0.2502419   0.5782468   0.3564101  )
        25           S   tau(  25) = (  -0.2500001   0.4330135  -0.3584711  )
        26           S   tau(  26) = (  -0.1249823   0.5055549   0.1236379  )
        27           S   tau(  27) = (  -0.2506428   0.5777913   0.6046272  )
        28           Mo  tau(  28) = (   0.2490946   0.0004229   0.4811609  )
        29           Mo  tau(  29) = (  -0.2500004   0.7216889  -0.4825273  )
        30           Mo  tau(  30) = (  -0.3750143   0.7942118  -0.0006597  )
        31           S   tau(  31) = (  -0.3750004   0.6495201  -0.6064556  )
        32           S   tau(  32) = (  -0.2500225   0.7219768  -0.1247054  )
        33           S   tau(  33) = (  -0.3754354   0.7949589   0.3565457  )
        34           S   tau(  34) = (  -0.3750004   0.6495200  -0.3584711  )
        35           S   tau(  35) = (  -0.2500244   0.7220782   0.1235684  )
        36           S   tau(  36) = (  -0.3758898   0.7941401   0.6053899  )
        37           Mo  tau(  37) = (   0.3732829   0.2171920   0.4839737  )
        38           Mo  tau(  38) = (   0.3750004   0.0721694  -0.4825273  )
        39           Mo  tau(  39) = (   0.2499682   0.1447177  -0.0006237  )
        40           S   tau(  40) = (   0.2500004   0.0000006  -0.6064556  )
        41           S   tau(  41) = (   0.3750129   0.0725611  -0.1246596  )
        42           S   tau(  42) = (   0.2497841   0.1455797   0.3578383  )
        43           S   tau(  43) = (   0.2500004   0.0000005  -0.3584711  )
        44           S   tau(  44) = (   0.3749221   0.0724857   0.1236323  )
        45           S   tau(  45) = (   0.2477227   0.1439824   0.6062734  )
        46           Mo  tau(  46) = (   0.2486540   0.4332032   0.4841598  )
        47           Mo  tau(  47) = (   0.2500001   0.2886759  -0.4825273  )
        48           Mo  tau(  48) = (   0.1250101   0.3611682  -0.0006158  )
        49           S   tau(  49) = (   0.1250001   0.2165071  -0.6064556  )
        50           S   tau(  50) = (   0.2499888   0.2890168  -0.1247309  )
        51           S   tau(  51) = (   0.1250739   0.3620702   0.3578445  )
        52           S   tau(  52) = (   0.1250002   0.2165070  -0.3584711  )
        53           S   tau(  53) = (   0.2499573   0.2890131   0.1236023  )
        54           S   tau(  54) = (   0.1224185   0.3610013   0.6063335  )
        55           Mo  tau(  55) = (   0.1241670   0.6500804   0.4819126  )
        56           Mo  tau(  56) = (   0.1249998   0.5051824  -0.4825273  )
        57           Mo  tau(  57) = (  -0.0000286   0.5776900  -0.0006548  )
        58           S   tau(  58) = (  -0.0000002   0.4330136  -0.6064556  )
        59           S   tau(  59) = (   0.1249847   0.5054880  -0.1247120  )
        60           S   tau(  60) = (  -0.0003466   0.5781911   0.3570182  )
        61           S   tau(  61) = (  -0.0000001   0.4330135  -0.3584711  )
        62           S   tau(  62) = (   0.1249733   0.5055544   0.1235816  )
        63           S   tau(  63) = (  -0.0013405   0.5779630   0.6057294  )
        64           Mo  tau(  64) = (   0.4990682   0.0007609   0.4818567  )
        65           Mo  tau(  65) = (  -0.0000004   0.7216889  -0.4825273  )
        66           Mo  tau(  66) = (  -0.1250275   0.7942005  -0.0006584  )
        67           S   tau(  67) = (  -0.1250004   0.6495201  -0.6064556  )
        68           S   tau(  68) = (  -0.0000172   0.7220302  -0.1247360  )
        69           S   tau(  69) = (  -0.1254760   0.7949324   0.3571585  )
        70           S   tau(  70) = (  -0.1250004   0.6495200  -0.3584711  )
        71           S   tau(  71) = (  -0.0000598   0.7220211   0.1235662  )
        72           S   tau(  72) = (  -0.1260604   0.7941968   0.6057883  )
        73           Mo  tau(  73) = (   0.6238498   0.2178206   0.4813334  )
        74           Mo  tau(  74) = (   0.6250004   0.0721694  -0.4825273  )
        75           Mo  tau(  75) = (   0.4999607   0.1446908  -0.0004781  )
        76           S   tau(  76) = (   0.5000004   0.0000006  -0.6064556  )
        77           S   tau(  77) = (   0.6249485   0.0725316  -0.1246090  )
        78           S   tau(  78) = (   0.4983786   0.1454684   0.3582378  )
        79           S   tau(  79) = (   0.5000004   0.0000005  -0.3584711  )
        80           S   tau(  80) = (   0.6249258   0.0724512   0.1237178  )
        81           S   tau(  81) = (   0.4999676   0.1446031   0.6065781  )
        82           Mo  tau(  82) = (   0.5012806   0.4348096   0.4774366  )
        83           Mo  tau(  83) = (   0.5000001   0.2886759  -0.4825273  )
        84           Mo  tau(  84) = (   0.3749316   0.3611646  -0.0005637  )
        85           S   tau(  85) = (   0.3750001   0.2165071  -0.6064556  )
        86           S   tau(  86) = (   0.5000007   0.2890092  -0.1245532  )
        87           S   tau(  87) = (   0.3735946   0.3615164   0.3596722  )
        88           S   tau(  88) = (   0.3750002   0.2165070  -0.3584711  )
        89           S   tau(  89) = (   0.4998486   0.2890543   0.1238061  )
        90           S   tau(  90) = (   0.3658792   0.3567998   0.6164387  )
        91           Mo  tau(  91) = (   0.3749271   0.6493894   0.4815223  )
        92           Mo  tau(  92) = (   0.3749998   0.5051824  -0.4825273  )
        93           Mo  tau(  93) = (   0.2499836   0.5776685  -0.0006099  )
        94           S   tau(  94) = (   0.2499998   0.4330136  -0.6064556  )
        95           S   tau(  95) = (   0.3750048   0.5054723  -0.1246669  )
        96           S   tau(  96) = (   0.2492941   0.5773653   0.3584386  )
        97           S   tau(  97) = (   0.2499999   0.4330135  -0.3584711  )
        98           S   tau(  98) = (   0.3749548   0.5055023   0.1236900  )
        99           S   tau(  99) = (   0.2493193   0.5791249   0.6067841  )
       100           Mo  tau( 100) = (   0.7493680   0.0005706   0.4814871  )
       101           Mo  tau( 101) = (   0.2499996   0.7216889  -0.4825273  )
       102           Mo  tau( 102) = (   0.1249617   0.7941806  -0.0005992  )
       103           S   tau( 103) = (   0.1249996   0.6495201  -0.6064556  )
       104           S   tau( 104) = (   0.2499648   0.7220055  -0.1246914  )
       105           S   tau( 105) = (   0.1241728   0.7944897   0.3577611  )
       106           S   tau( 106) = (   0.1249996   0.6495200  -0.3584711  )
       107           S   tau( 107) = (   0.2499545   0.7219790   0.1236286  )
       108           S   tau( 108) = (   0.1243678   0.7946177   0.6059670  )
       109           Mo  tau( 109) = (  -0.1258042   0.2171148   0.4808505  )
       110           Mo  tau( 110) = (   0.8750004   0.0721694  -0.4825273  )
       111           Mo  tau( 111) = (   0.7499567   0.1446350  -0.0005156  )
       112           S   tau( 112) = (   0.7500004   0.0000006  -0.6064556  )
       113           S   tau( 113) = (   0.8749511   0.0725191  -0.1246390  )
       114           S   tau( 114) = (   0.7487528   0.1448147   0.3572895  )
       115           S   tau( 115) = (   0.7500004   0.0000005  -0.3584711  )
       116           S   tau( 116) = (   0.8749604   0.0724405   0.1236745  )
       117           S   tau( 117) = (   0.7491789   0.1453206   0.6054488  )
       118           Mo  tau( 118) = (  -0.2502693   0.4335435   0.4801618  )
       119           Mo  tau( 119) = (   0.7500001   0.2886759  -0.4825273  )
       120           Mo  tau( 120) = (   0.6249552   0.3611799  -0.0004536  )
       121           S   tau( 121) = (   0.6250001   0.2165071  -0.6064556  )
       122           S   tau( 122) = (   0.7499534   0.2890043  -0.1245466  )
       123           S   tau( 123) = (   0.6250455   0.3614257   0.3554205  )
       124           S   tau( 124) = (   0.6250002   0.2165070  -0.3584711  )
       125           S   tau( 125) = (   0.7500170   0.2889715   0.1236593  )
       126           S   tau( 126) = (   0.6240101   0.3624668   0.6044833  )
       127           Mo  tau( 127) = (  -0.3753559   0.6505470   0.4803966  )
       128           Mo  tau( 128) = (   0.6249998   0.5051824  -0.4825273  )
       129           Mo  tau( 129) = (   0.4999848   0.5776737  -0.0005935  )
       130           S   tau( 130) = (   0.4999998   0.4330136  -0.6064556  )
       131           S   tau( 131) = (   0.6249922   0.5054442  -0.1246115  )
       132           S   tau( 132) = (   0.4999797   0.5787086   0.3555309  )
       133           S   tau( 133) = (   0.4999999   0.4330135  -0.3584711  )
       134           S   tau( 134) = (   0.6249497   0.5055601   0.1236835  )
       135           S   tau( 135) = (   0.5003102   0.5770545   0.6046954  )
       136           Mo  tau( 136) = (  -0.0006062   0.0005193   0.4809716  )
       137           Mo  tau( 137) = (   0.4999996   0.7216889  -0.4825273  )
       138           Mo  tau( 138) = (   0.3749565   0.7941797  -0.0006235  )
       139           S   tau( 139) = (   0.3749996   0.6495201  -0.6064556  )
       140           S   tau( 140) = (   0.4999798   0.7219993  -0.1247175  )
       141           S   tau( 141) = (   0.3741130   0.7939167   0.3573986  )
       142           S   tau( 142) = (   0.3749996   0.6495200  -0.3584711  )
       143           S   tau( 143) = (   0.4999885   0.7220785   0.1235166  )
       144           S   tau( 144) = (   0.3747363   0.7941195   0.6055386  )
       145           H   tau( 145) = (   0.2953832   0.3160988   0.6936579  )

     --------------------------------------------
     DFT-D3 Dispersion Correction (3-body terms):
     --------------------------------------------
       Reference C6 values for interpolation: 

         atom   Coordination number   C6
         H          0.912             6.05
         H          0.000            15.18
         S          0.000           268.01
         S          0.995           261.99
         S          1.990           251.62
         Mo         0.000          1691.79
         Mo         1.942          1004.01
         Mo        11.056           674.22

       Values used:

         atom   Coordination number  R0_AB[au]  C6      C8
         Mo        10.209            3.547    674.22  77634.20
         Mo        10.189            3.547    674.22  77634.20
         Mo        10.201            3.547    674.22  77634.20
         S          3.753            3.128    251.62  12327.25
         S          3.860            3.128    251.62  12327.25
         S          3.850            3.128    251.62  12327.25
         S          3.860            3.128    251.62  12327.25
         S          3.861            3.128    251.62  12327.25
         S          3.760            3.128    251.62  12327.25
         Mo        10.205            3.547    674.22  77634.20
         Mo        10.189            3.547    674.22  77634.20
         Mo        10.200            3.547    674.22  77634.20
         S          3.753            3.128    251.62  12327.25
         S          3.861            3.128    251.62  12327.25
         S          3.856            3.128    251.62  12327.25
         S          3.860            3.128    251.62  12327.25
         S          3.860            3.128    251.62  12327.25
         S          3.760            3.128    251.62  12327.25
         Mo        10.201            3.547    674.22  77634.20
         Mo        10.189            3.547    674.22  77634.20
         Mo        10.201            3.547    674.22  77634.20
         S          3.753            3.128    251.62  12327.25
         S          3.861            3.128    251.62  12327.25
         S          3.863            3.128    251.62  12327.25
         S          3.860            3.128    251.62  12327.25
         S          3.862            3.128    251.62  12327.25
         S          3.768            3.128    251.62  12327.25
         Mo        10.204            3.547    674.22  77634.20
         Mo        10.189            3.547    674.22  77634.20
         Mo        10.200            3.547    674.22  77634.20
         S          3.753            3.128    251.62  12327.25
         S          3.860            3.128    251.62  12327.25
         S          3.859            3.128    251.62  12327.25
         S          3.860            3.128    251.62  12327.25
         S          3.863            3.128    251.62  12327.25
         S          3.757            3.128    251.62  12327.25
         Mo        10.152            3.547    674.22  77634.20
         Mo        10.189            3.547    674.22  77634.20
         Mo        10.203            3.547    674.22  77634.20
         S          3.753            3.128    251.62  12327.25
         S          3.860            3.128    251.62  12327.25
         S          3.866            3.128    251.62  12327.25
         S          3.860            3.128    251.62  12327.25
         S          3.860            3.128    251.62  12327.25
         S          3.796            3.128    251.62  12327.25
         Mo        10.155            3.547    674.22  77634.20
         Mo        10.189            3.547    674.22  77634.20
         Mo        10.203            3.547    674.22  77634.20
         S          3.753            3.128    251.62  12327.25
         S          3.861            3.128    251.62  12327.25
         S          3.866            3.128    251.62  12327.25
         S          3.860            3.128    251.62  12327.25
         S          3.858            3.128    251.62  12327.25
         S          3.795            3.128    251.62  12327.25
         Mo        10.173            3.547    674.22  77634.20
         Mo        10.189            3.547    674.22  77634.20
         Mo        10.201            3.547    674.22  77634.20
         S          3.753            3.128    251.62  12327.25
         S          3.860            3.128    251.62  12327.25
         S          3.860            3.128    251.62  12327.25
         S          3.860            3.128    251.62  12327.25
         S          3.860            3.128    251.62  12327.25
         S          3.749            3.128    251.62  12327.25
         Mo        10.172            3.547    674.22  77634.20
         Mo        10.189            3.547    674.22  77634.20
         Mo        10.201            3.547    674.22  77634.20
         S          3.753            3.128    251.62  12327.25
         S          3.860            3.128    251.62  12327.25
         S          3.861            3.128    251.62  12327.25
         S          3.861            3.128    251.62  12327.25
         S          3.861            3.128    251.62  12327.25
         S          3.748            3.128    251.62  12327.25
         Mo        10.162            3.547    674.22  77634.20
         Mo        10.189            3.547    674.22  77634.20
         Mo        10.201            3.547    674.22  77634.20
         S          3.753            3.128    251.62  12327.25
         S          3.861            3.128    251.62  12327.25
         S          3.860            3.128    251.62  12327.25
         S          3.860            3.128    251.62  12327.25
         S          3.857            3.128    251.62  12327.25
         S          3.732            3.128    251.62  12327.25
         Mo        10.108            3.547    674.22  77634.20
         Mo        10.189            3.547    674.22  77634.20
         Mo        10.203            3.547    674.22  77634.20
         S          3.753            3.128    251.62  12327.25
         S          3.861            3.128    251.62  12327.25
         S          3.827            3.128    251.62  12327.25
         S          3.860            3.128    251.62  12327.25
         S          3.857            3.128    251.62  12327.25
         S          4.598            3.128    251.62  12327.25
         Mo        10.164            3.547    674.22  77634.20
         Mo        10.189            3.547    674.22  77634.20
         Mo        10.201            3.547    674.22  77634.20
         S          3.753            3.128    251.62  12327.25
         S          3.860            3.128    251.62  12327.25
         S          3.863            3.128    251.62  12327.25
         S          3.861            3.128    251.62  12327.25
         S          3.858            3.128    251.62  12327.25
         S          3.731            3.128    251.62  12327.25
         Mo        10.155            3.547    674.22  77634.20
         Mo        10.189            3.547    674.22  77634.20
         Mo        10.201            3.547    674.22  77634.20
         S          3.753            3.128    251.62  12327.25
         S          3.860            3.128    251.62  12327.25
         S          3.857            3.128    251.62  12327.25
         S          3.861            3.128    251.62  12327.25
         S          3.858            3.128    251.62  12327.25
         S          3.750            3.128    251.62  12327.25
         Mo        10.191            3.547    674.22  77634.20
         Mo        10.189            3.547    674.22  77634.20
         Mo        10.201            3.547    674.22  77634.20
         S          3.753            3.128    251.62  12327.25
         S          3.860            3.128    251.62  12327.25
         S          3.855            3.128    251.62  12327.25
         S          3.860            3.128    251.62  12327.25
         S          3.859            3.128    251.62  12327.25
         S          3.751            3.128    251.62  12327.25
         Mo        10.223            3.547    674.22  77634.20
         Mo        10.189            3.547    674.22  77634.20
         Mo        10.201            3.547    674.22  77634.20
         S          3.753            3.128    251.62  12327.25
         S          3.862            3.128    251.62  12327.25
         S          3.852            3.128    251.62  12327.25
         S          3.860            3.128    251.62  12327.25
         S          3.862            3.128    251.62  12327.25
         S          3.724            3.128    251.62  12327.25
         Mo        10.225            3.547    674.22  77634.20
         Mo        10.189            3.547    674.22  77634.20
         Mo        10.201            3.547    674.22  77634.20
         S          3.753            3.128    251.62  12327.25
         S          3.861            3.128    251.62  12327.25
         S          3.853            3.128    251.62  12327.25
         S          3.860            3.128    251.62  12327.25
         S          3.864            3.128    251.62  12327.25
         S          3.721            3.128    251.62  12327.25
         Mo        10.192            3.547    674.22  77634.20
         Mo        10.189            3.547    674.22  77634.20
         Mo        10.201            3.547    674.22  77634.20
         S          3.753            3.128    251.62  12327.25
         S          3.860            3.128    251.62  12327.25
         S          3.856            3.128    251.62  12327.25
         S          3.860            3.128    251.62  12327.25
         S          3.864            3.128    251.62  12327.25
         S          3.750            3.128    251.62  12327.25
         H          1.020            2.062      6.16     74.51

         Molecular C6 ( Ry / a.u.^6 ) =   7671399.65


     number of k points=     4  Gaussian smearing, width (Ry)=  0.0100
                       cart. coord. in units 2pi/alat
        k(    1) = (   0.0000000   0.0000000   0.0000000), wk =   0.5000000
        k(    2) = (   0.0000000  -0.5773499   0.0000000), wk =   0.5000000
        k(    3) = (  -0.5000000  -0.8660254   0.0000000), wk =   0.5000000
        k(    4) = (   0.5000000   0.2886755   0.0000000), wk =   0.5000000

     Dense  grid:  5955087 G-vectors     FFT dimensions: ( 180, 180, 432)

     Smooth grid:  2572543 G-vectors     FFT dimensions: ( 135, 135, 320)

     Estimated max dynamical RAM per process >       2.12 GB

     Estimated total dynamical RAM >      76.22 GB

     Initial potential from superposition of free atoms

     starting charge    1248.9546, renormalised to    1249.0000

     negative rho (up, down):  7.237E-04 0.000E+00
     Starting wfcs are  865 randomized atomic wfcs
     Checking if some PAW data can be deallocated... 

     total cpu time spent up to now is      101.1 secs

     Self-consistent Calculation

     iteration #  1     ecut=    77.00 Ry     beta= 0.20
     Davidson diagonalization with overlap
     ethr =  1.00E-02,  avg # of iterations =  2.0

     Threshold (ethr) on eigenvalues was too large:
     Diagonalizing with lowered threshold

     Davidson diagonalization with overlap
     c_bands:  1 eigenvalues not converged
     c_bands:  1 eigenvalues not converged
     c_bands:  1 eigenvalues not converged
     c_bands:  1 eigenvalues not converged
     ethr =  1.17E-04,  avg # of iterations = 20.0

     negative rho (up, down):  2.253E-04 0.000E+00

     total cpu time spent up to now is     1451.0 secs

     total energy              =  -23846.29557812 Ry
     estimated scf accuracy    <       5.22759859 Ry

     iteration #  2     ecut=    77.00 Ry     beta= 0.20
     Davidson diagonalization with overlap
     ethr =  4.19E-04,  avg # of iterations =  1.0

     negative rho (up, down):  4.279E-05 0.000E+00

     total cpu time spent up to now is     1647.4 secs

     total energy              =  -23845.29894055 Ry
     estimated scf accuracy    <       2.59355134 Ry

     iteration #  3     ecut=    77.00 Ry     beta= 0.20
     Davidson diagonalization with overlap
     ethr =  2.08E-04,  avg # of iterations =  5.2

     negative rho (up, down):  2.605E-05 0.000E+00

     total cpu time spent up to now is     1870.2 secs

     total energy              =  -23845.09955914 Ry
     estimated scf accuracy    <       0.66105548 Ry

     iteration #  4     ecut=    77.00 Ry     beta= 0.20
     Davidson diagonalization with overlap
     c_bands:  2 eigenvalues not converged
     c_bands:  1 eigenvalues not converged
     c_bands:  2 eigenvalues not converged
     c_bands:  2 eigenvalues not converged
     ethr =  5.29E-05,  avg # of iterations = 20.0

     negative rho (up, down):  2.502E-05 0.000E+00

     total cpu time spent up to now is     2748.6 secs

     total energy              =  -23846.50797783 Ry
     estimated scf accuracy    <       2.76897590 Ry

     iteration #  5     ecut=    77.00 Ry     beta= 0.20
     Davidson diagonalization with overlap
     ethr =  5.29E-05,  avg # of iterations =  2.0

     negative rho (up, down):  6.811E-06 0.000E+00

     total cpu time spent up to now is     2966.0 secs

     total energy              =  -23847.68928061 Ry
     estimated scf accuracy    <       1.66823005 Ry

     iteration #  6     ecut=    77.00 Ry     beta= 0.20
     Davidson diagonalization with overlap
     ethr =  5.29E-05,  avg # of iterations =  6.8

     negative rho (up, down):  9.353E-05 0.000E+00

     total cpu time spent up to now is     3200.9 secs

     total energy              =  -23845.63522921 Ry
     estimated scf accuracy    <       3.56571423 Ry

     iteration #  7     ecut=    77.00 Ry     beta= 0.20
     Davidson diagonalization with overlap
     ethr =  5.29E-05,  avg # of iterations = 14.2

     negative rho (up, down):  2.374E-04 0.000E+00

     total cpu time spent up to now is     3607.2 secs

     total energy              =  -23846.10158079 Ry
     estimated scf accuracy    <       0.09214531 Ry

     iteration #  8     ecut=    77.00 Ry     beta= 0.20
     Davidson diagonalization with overlap
     c_bands:  1 eigenvalues not converged
     ethr =  7.38E-06,  avg # of iterations = 35.2

     negative rho (up, down):  2.346E-04 0.000E+00

     total cpu time spent up to now is     5119.1 secs

     total energy              =  -23846.43235358 Ry
     estimated scf accuracy    <       0.73938820 Ry

     iteration #  9     ecut=    77.00 Ry     beta= 0.20
     Davidson diagonalization with overlap
     ethr =  7.38E-06,  avg # of iterations =  1.0

     negative rho (up, down):  2.466E-04 0.000E+00

     total cpu time spent up to now is     5315.7 secs

     total energy              =  -23846.40890288 Ry
     estimated scf accuracy    <       0.62174119 Ry

     iteration # 10     ecut=    77.00 Ry     beta= 0.20
     Davidson diagonalization with overlap
     ethr =  7.38E-06,  avg # of iterations =  1.0

     negative rho (up, down):  4.836E-04 0.000E+00

     total cpu time spent up to now is     5512.1 secs

     total energy              =  -23846.04249563 Ry
     estimated scf accuracy    <       0.57393721 Ry

     iteration # 11     ecut=    77.00 Ry     beta= 0.20
     Davidson diagonalization with overlap
     c_bands:  1 eigenvalues not converged
     c_bands:  5 eigenvalues not converged
     ethr =  7.38E-06,  avg # of iterations = 28.8

     negative rho (up, down):  5.505E-04 0.000E+00

     total cpu time spent up to now is     6233.8 secs

     total energy              =  -23846.30264160 Ry
     estimated scf accuracy    <       0.06596340 Ry

     iteration # 12     ecut=    77.00 Ry     beta= 0.20
     Davidson diagonalization with overlap
     c_bands:  1 eigenvalues not converged
     ethr =  5.28E-06,  avg # of iterations = 13.8

     negative rho (up, down):  5.915E-04 0.000E+00

     total cpu time spent up to now is     6527.9 secs

     total energy              =  -23846.29486549 Ry
     estimated scf accuracy    <       0.07183229 Ry

     iteration # 13     ecut=    77.00 Ry     beta= 0.20
     Davidson diagonalization with overlap
     ethr =  5.28E-06,  avg # of iterations =  1.2

     negative rho (up, down):  7.416E-04 0.000E+00

     total cpu time spent up to now is     6728.9 secs

     total energy              =  -23846.27092328 Ry
     estimated scf accuracy    <       0.05575648 Ry

     iteration # 14     ecut=    77.00 Ry     beta= 0.20
     Davidson diagonalization with overlap
     ethr =  4.46E-06,  avg # of iterations =  1.5

     negative rho (up, down):  7.645E-04 0.000E+00

     total cpu time spent up to now is     6935.3 secs

     total energy              =  -23846.26515223 Ry
     estimated scf accuracy    <       0.01765771 Ry

     iteration # 15     ecut=    77.00 Ry     beta= 0.20
     Davidson diagonalization with overlap
     c_bands:  3 eigenvalues not converged
     c_bands:  2 eigenvalues not converged
     ethr =  1.41E-06,  avg # of iterations = 25.2

     negative rho (up, down):  7.708E-04 0.000E+00

     total cpu time spent up to now is     7374.1 secs

     total energy              =  -23846.26981544 Ry
     estimated scf accuracy    <       0.00225336 Ry

     iteration # 16     ecut=    77.00 Ry     beta= 0.20
     Davidson diagonalization with overlap
     c_bands:  2 eigenvalues not converged
     ethr =  1.80E-07,  avg # of iterations = 21.0

     negative rho (up, down):  7.689E-04 0.000E+00

     total cpu time spent up to now is     8026.1 secs

     total energy              =  -23846.27468040 Ry
     estimated scf accuracy    <       0.00053437 Ry

     iteration # 17     ecut=    77.00 Ry     beta= 0.20
     Davidson diagonalization with overlap
     ethr =  4.28E-08,  avg # of iterations = 16.8

     negative rho (up, down):  7.683E-04 0.000E+00

     total cpu time spent up to now is     8505.5 secs

     total energy              =  -23846.27516457 Ry
     estimated scf accuracy    <       0.00072306 Ry

     iteration # 18     ecut=    77.00 Ry     beta= 0.20
     Davidson diagonalization with overlap
     ethr =  4.28E-08,  avg # of iterations =  1.0

     negative rho (up, down):  7.603E-04 0.000E+00

     total cpu time spent up to now is     8702.1 secs

     total energy              =  -23846.27531313 Ry
     estimated scf accuracy    <       0.00073611 Ry

     iteration # 19     ecut=    77.00 Ry     beta= 0.20
     Davidson diagonalization with overlap
     ethr =  4.28E-08,  avg # of iterations =  3.2

     negative rho (up, down):  7.301E-04 0.000E+00

     total cpu time spent up to now is     8920.0 secs

     total energy              =  -23846.27612880 Ry
     estimated scf accuracy    <       0.00089210 Ry

     iteration # 20     ecut=    77.00 Ry     beta= 0.20
     Davidson diagonalization with overlap
     ethr =  4.28E-08,  avg # of iterations = 16.0

     negative rho (up, down):  7.802E-04 0.000E+00

     total cpu time spent up to now is     9372.4 secs

     total energy              =  -23846.27502979 Ry
     estimated scf accuracy    <       0.00511024 Ry

     iteration # 21     ecut=    77.00 Ry     beta= 0.20
     Davidson diagonalization with overlap
     ethr =  4.28E-08,  avg # of iterations = 13.5

     negative rho (up, down):  7.780E-04 0.000E+00

     total cpu time spent up to now is     9735.1 secs

     total energy              =  -23846.27456118 Ry
     estimated scf accuracy    <       0.00164222 Ry

     iteration # 22     ecut=    77.00 Ry     beta= 0.20
     Davidson diagonalization with overlap
     ethr =  4.28E-08,  avg # of iterations = 10.0

     negative rho (up, down):  7.629E-04 0.000E+00

     total cpu time spent up to now is    10149.5 secs

     total energy              =  -23846.27488347 Ry
     estimated scf accuracy    <       0.00029848 Ry

     iteration # 23     ecut=    77.00 Ry     beta= 0.20
     Davidson diagonalization with overlap
     ethr =  2.39E-08,  avg # of iterations = 13.5

     negative rho (up, down):  8.524E-04 0.000E+00

     total cpu time spent up to now is    10642.5 secs

     total energy              =  -23846.27585508 Ry
     estimated scf accuracy    <       0.00108151 Ry

     iteration # 24     ecut=    77.00 Ry     beta= 0.20
     Davidson diagonalization with overlap
     ethr =  2.39E-08,  avg # of iterations = 14.0

     negative rho (up, down):  8.900E-04 0.000E+00

     total cpu time spent up to now is    11058.5 secs

     total energy              =  -23846.27564834 Ry
     estimated scf accuracy    <       0.00311605 Ry

     iteration # 25     ecut=    77.00 Ry     beta= 0.20
     Davidson diagonalization with overlap
     ethr =  2.39E-08,  avg # of iterations =  4.5

     negative rho (up, down):  8.962E-04 0.000E+00

     total cpu time spent up to now is    11281.5 secs

     total energy              =  -23846.27474289 Ry
     estimated scf accuracy    <       0.00223529 Ry

     iteration # 26     ecut=    77.00 Ry     beta= 0.20
     Davidson diagonalization with overlap
     ethr =  2.39E-08,  avg # of iterations = 14.0

     negative rho (up, down):  8.941E-04 0.000E+00

     total cpu time spent up to now is    11684.4 secs

     total energy              =  -23846.27495071 Ry
     estimated scf accuracy    <       0.00029761 Ry

     iteration # 27     ecut=    77.00 Ry     beta= 0.20
     Davidson diagonalization with overlap
     ethr =  2.38E-08,  avg # of iterations =  1.0

     negative rho (up, down):  8.809E-04 0.000E+00

     total cpu time spent up to now is    11880.9 secs

     total energy              =  -23846.27485627 Ry
     estimated scf accuracy    <       0.00024638 Ry

     iteration # 28     ecut=    77.00 Ry     beta= 0.20
     Davidson diagonalization with overlap
     ethr =  1.97E-08,  avg # of iterations =  7.0

     negative rho (up, down):  8.684E-04 0.000E+00

     total cpu time spent up to now is    12136.6 secs

     total energy              =  -23846.27488991 Ry
     estimated scf accuracy    <       0.00003698 Ry

     iteration # 29     ecut=    77.00 Ry     beta= 0.20
     Davidson diagonalization with overlap
     ethr =  2.96E-09,  avg # of iterations = 19.5

     negative rho (up, down):  8.688E-04 0.000E+00

     total cpu time spent up to now is    13149.5 secs

     total energy              =  -23846.27502239 Ry
     estimated scf accuracy    <       0.00046438 Ry

     iteration # 30     ecut=    77.00 Ry     beta= 0.20
     Davidson diagonalization with overlap
     ethr =  2.96E-09,  avg # of iterations =  5.0

     negative rho (up, down):  8.687E-04 0.000E+00

     total cpu time spent up to now is    13476.8 secs

     total energy              =  -23846.27493799 Ry
     estimated scf accuracy    <       0.00020768 Ry

     iteration # 31     ecut=    77.00 Ry     beta= 0.20
     Davidson diagonalization with overlap
     ethr =  2.96E-09,  avg # of iterations = 12.8

     negative rho (up, down):  8.758E-04 0.000E+00

     total cpu time spent up to now is    13974.7 secs

     End of self-consistent calculation

          k = 0.0000 0.0000 0.0000 (321495 PWs)   bands (ev):

   -66.7667 -66.7457 -66.7456 -66.7456 -66.7456 -66.7456 -66.7456 -66.7245
   -66.7245 -66.7245 -66.7244 -66.7244 -66.7244 -66.7244 -66.7244 -66.7243
   -66.7007 -66.6801 -66.6800 -66.6799 -66.6794 -66.6793 -66.6790 -66.6590
   -66.6589 -66.6589 -66.6587 -66.6586 -66.6585 -66.6583 -66.6574 -66.6574
   -66.6509 -66.6382 -66.6339 -66.6281 -66.6271 -66.6231 -66.6170 -66.6155
   -66.6107 -66.6095 -66.6067 -66.6040 -66.6010 -66.5920 -66.5842 -66.4468
   -41.0931 -41.0931 -41.0931 -41.0262 -41.0261 -41.0257 -41.0183 -41.0183
   -41.0183 -41.0183 -41.0182 -41.0182 -40.9784 -40.9656 -40.9633 -40.9516
   -40.9516 -40.9513 -40.9510 -40.9510 -40.9509 -40.9268 -40.9009 -40.9002
   -40.8984 -40.8951 -40.8927 -40.8927 -40.8927 -40.8927 -40.8927 -40.8927
   -40.8854 -40.8854 -40.8854 -40.8854 -40.8854 -40.8854 -40.8773 -40.8663
   -40.8614 -40.8579 -40.8579 -40.8578 -40.8578 -40.8578 -40.8578 -40.8438
   -40.8437 -40.8437 -40.8437 -40.8437 -40.8437 -40.8436 -40.8436 -40.8436
   -40.8262 -40.8260 -40.8259 -40.8257 -40.8255 -40.8255 -40.8206 -40.8204
   -40.8203 -40.8198 -40.8196 -40.8195 -40.8091 -40.7913 -40.7913 -40.7912
   -40.7908 -40.7908 -40.7907 -40.7830 -40.7801 -40.7801 -40.7800 -40.7790
   -40.7789 -40.7789 -40.7789 -40.7787 -40.7785 -40.7784 -40.7781 -40.7775
   -40.7774 -40.7769 -40.7731 -40.7720 -40.7676 -40.7651 -40.7636 -40.7631
   -40.7628 -40.7566 -40.7496 -40.7430 -40.7417 -40.7352 -40.7333 -40.7333
   -40.7333 -40.7332 -40.7332 -40.7332 -40.7332 -40.7295 -40.7290 -40.7257
   -40.7256 -40.7240 -40.7205 -40.7159 -40.7133 -40.7133 -40.7132 -40.7071
   -40.7068 -40.7048 -40.6860 -40.6859 -40.6669 -40.6668 -40.6668 -40.6663
   -40.6662 -40.6661 -40.6545 -40.6523 -40.6495 -40.6192 -40.6192 -40.6156
   -40.6126 -40.6124 -40.6053 -40.5991 -40.5842 -40.5787 -40.5160 -40.4931
   -20.2035 -20.1018 -19.9809 -19.5363 -19.3344 -19.3342 -19.3338 -19.3335
   -19.3335 -19.3263 -19.2240 -19.2222 -19.2191 -19.2175 -19.2158 -19.1803
   -19.1000 -19.0982 -19.0895 -19.0846 -19.0809 -18.9495 -18.8195 -18.6868
   -18.5524 -18.5372 -18.5371 -18.5347 -18.5342 -18.5335 -18.4879 -18.3863
   -18.3859 -18.3782 -18.3774 -18.3770 -18.3155 -18.2519 -18.2504 -18.2419
   -18.2400 -18.2395 -18.2281 -18.2281 -18.2278 -18.2277 -18.2276 -18.2275
   -18.1875 -18.1874 -18.1868 -18.1652 -18.1533 -18.1517 -18.1515 -18.1498
   -18.1494 -18.1336 -18.1187 -18.1176 -18.1158 -18.0829 -18.0693 -18.0672
   -18.0636 -18.0597 -18.0506 -18.0449 -18.0420 -18.0281 -18.0149 -18.0115
   -18.0040 -17.9998 -17.9980 -17.9971 -17.9952 -17.9888 -17.9655 -17.9526
   -17.9514 -17.9380 -17.9295 -17.9244 -17.9221 -17.9220 -17.9172 -17.8967
   -17.8823 -17.8789 -17.8594 -17.8536 -17.8465 -17.8414 -17.8395 -17.8355
   -12.4418 -11.9984 -11.8446 -11.8444 -11.8431 -11.7700 -11.7695 -11.7630
   -11.6747 -11.6709 -11.6406 -11.5335 -11.2938 -11.2935 -11.2934 -11.2928
   -11.2917 -11.2729 -11.2186 -11.2173 -11.2169 -11.2166 -11.2157 -11.2149
   -11.1763 -11.1038 -11.0924 -11.0915 -11.0890 -11.0853 -11.0800 -11.0088
   -11.0023 -11.0003 -10.9979 -10.9975 -10.9922 -10.9879 -10.9803 -10.9791
   -10.9752 -10.9626 -10.9239 -10.9189 -10.9183 -10.9181 -10.9178 -10.9174
   -10.9107 -10.8928 -10.8921 -10.8912 -10.8741 -10.8701 -10.8697 -10.8685
   -10.8657 -10.8645 -10.8209 -10.8183 -10.8147 -10.8129 -10.8113 -10.8101
   -10.8037 -10.7627 -10.7594 -10.6952 -10.6872 -10.6809 -10.6776 -10.6755
   -10.6743 -10.6698 -10.6582 -10.3381 -10.1380 -10.1361 -10.1342  -9.9985
    -9.9889  -9.9743  -9.8674  -9.8634  -9.8625  -9.8610  -9.8588  -9.8573
    -9.8455  -9.8340  -9.7973  -9.7669  -9.7659  -9.7654  -9.7642  -9.7640
    -9.7550  -9.7102  -9.7086  -9.7076  -9.7057  -9.7045  -9.7032  -9.6650
    -9.6646  -9.6640  -9.6636  -9.6633  -9.6613  -9.6322  -9.6179  -9.6172
    -9.6151  -9.6117  -9.6041  -9.5935  -9.5883  -9.5789  -9.5773  -9.5715
    -9.5235  -9.5162  -9.5149  -9.5138  -9.5119  -9.5103  -9.4250  -9.4022
    -9.3904  -9.3882  -9.3847  -9.3828  -9.3555  -9.2987  -9.2852  -9.2802
    -9.2745  -9.2743  -9.2621  -9.2599  -9.2579  -9.2547  -9.2502  -9.2482
    -9.1154  -9.1148  -9.1054  -9.1054  -9.1053  -9.0930  -9.0912  -9.0889
    -9.0857  -9.0338  -9.0326  -9.0323  -8.9833  -8.9686  -8.9568  -8.9473
    -8.9409  -8.9286  -8.9269  -8.9242  -8.9231  -8.8858  -8.8833  -8.8828
    -8.8819  -8.8807  -8.8803  -8.8325  -8.8108  -8.8065  -8.8031  -8.8017
    -8.8005  -8.7908  -8.7791  -8.7479  -8.7472  -8.7200  -8.6986  -8.5177
    -8.5158  -8.5158  -8.4443  -8.4443  -8.4042  -8.4042  -8.4041  -8.4041
    -8.4041  -8.4041  -8.3776  -8.3630  -8.3356  -8.3349  -8.3342  -8.3334
    -8.3321  -8.3321  -8.2962  -8.2788  -8.2674  -8.2624  -8.2505  -8.2475
    -8.2000  -8.0547  -8.0530  -8.0234  -7.8208  -7.8189  -7.7882  -7.7218
    -7.6686  -7.6686  -7.6685  -7.6685  -7.6685  -7.6684  -7.6251  -7.6244
    -7.6239  -7.6237  -7.6232  -7.6231  -7.6090  -7.5984  -7.5973  -7.5959
    -7.5958  -7.5951  -7.5929  -7.5902  -7.5648  -7.5555  -7.5544  -7.5530
    -7.5520  -7.5506  -7.5470  -7.5352  -7.5332  -7.5310  -7.5187  -7.5182
    -7.5081  -7.5066  -7.5051  -7.5036  -7.5026  -7.5006  -7.4978  -7.4767
    -7.4670  -7.4640  -7.4577  -7.4447  -7.3872  -7.3871  -7.3198  -7.3195
    -7.3071  -7.2682  -7.2600  -7.2466  -7.2408  -7.2400  -7.2389  -7.2276
    -7.0302  -6.9360  -6.9338  -6.9291  -6.9194  -6.9158  -6.9040  -6.8929
    -6.8917  -6.8913  -6.8046  -6.7924  -6.7878  -6.7148  -6.7051  -6.7033
    -6.6949  -6.6942  -6.6940  -6.6934  -6.6869  -6.6824  -6.6118  -6.6074
    -6.6066  -6.5947  -6.5852  -6.5850  -6.5842  -6.5837  -6.5805  -6.5358
    -6.5225  -6.5162  -6.5156  -6.5114  -6.5086  -6.5040  -6.5003  -6.4821
    -6.4461  -6.4351  -6.4351  -6.4350  -6.4350  -6.4350  -6.4350  -6.4242
    -6.4178  -6.3638  -6.3590  -6.3588  -6.3584  -6.3577  -6.3574  -6.3412
    -6.3018  -6.2934  -6.2916  -6.2875  -6.2581  -6.2173  -5.5860  -5.2361
    -4.6995  -3.9281  -3.9267  -3.9202  -3.9194  -3.9180  -3.9026  -3.8885
    -3.8867  -3.8860  -3.8854  -3.8847  -3.8712  -3.7050  -3.6947  -3.6710
    -3.6695  -3.6672  -3.6628  -3.6605  -3.6599  -3.6553  -3.6525  -3.6513
    -3.5870  -3.5756  -3.5754  -3.5754  -3.5634  -3.5606  -3.5602  -3.5598
    -3.5595  -3.5527  -3.5093  -3.5093  -3.5090  -3.4967  -3.4660  -3.4646
    -3.4631  -3.4597  -3.4586  -3.4546  -3.4507  -3.4476  -3.4456  -3.4411
    -3.4381  -3.4353  -3.4298  -3.4090  -3.3863  -3.3631  -3.3611  -3.3582
    -3.3519  -3.3493  -3.3319  -3.3253  -3.3237  -3.3228  -3.3216  -3.1350
    -3.1104  -3.1100  -3.1069  -3.1056  -3.1048  -3.0403  -3.0395  -3.0362
    -3.0358  -3.0356  -3.0352  -3.0349  -3.0340  -3.0162  -3.0148  -3.0113
    -2.9983  -2.9951  -2.9884  -2.9841  -2.9833  -2.9820  -2.9767  -2.9731
    -2.9702  -2.9690  -2.9667  -2.9663  -2.9526  -2.9485  -2.9310  -2.9254
    -2.8906  -2.8727  -2.8691  -2.8587  -2.8563  -2.8520  -2.8442  -2.8436
    -2.8134  -2.8117  -2.8099  -2.8084  -2.8072  -2.8011  -2.7948  -2.7889
    -2.7406  -2.7348  -2.7259  -2.7244  -2.7233  -2.7117  -2.7067  -2.6972
    -2.5791  -2.5526  -2.5461  -2.5456  -2.5381  -2.5282

          k = 0.0000-0.5773 0.0000 (321564 PWs)   bands (ev):

   -66.7606 -66.7605 -66.7500 -66.7500 -66.7350 -66.7350 -66.7350 -66.7350
   -66.7307 -66.7306 -66.7245 -66.7244 -66.7244 -66.7244 -66.7200 -66.7200
   -66.6947 -66.6943 -66.6840 -66.6840 -66.6693 -66.6693 -66.6688 -66.6688
   -66.6649 -66.6644 -66.6587 -66.6586 -66.6585 -66.6578 -66.6540 -66.6539
   -66.6476 -66.6445 -66.6326 -66.6302 -66.6251 -66.6192 -66.6164 -66.6149
   -66.6121 -66.6109 -66.6067 -66.6054 -66.5999 -66.5922 -66.5841 -66.4468
   -41.0617 -41.0617 -41.0616 -41.0616 -41.0350 -41.0350 -41.0231 -41.0231
   -40.9948 -40.9948 -40.9947 -40.9941 -40.9727 -40.9727 -40.9727 -40.9727
   -40.9681 -40.9678 -40.9560 -40.9560 -40.9472 -40.9446 -40.9407 -40.9182
   -40.9162 -40.9147 -40.9147 -40.9123 -40.9058 -40.9057 -40.9057 -40.9056
   -40.9047 -40.9047 -40.8976 -40.8940 -40.8940 -40.8872 -40.8646 -40.8646
   -40.8646 -40.8646 -40.8559 -40.8559 -40.8517 -40.8495 -40.8491 -40.8458
   -40.8437 -40.8437 -40.8437 -40.8437 -40.8437 -40.8436 -40.8407 -40.8379
   -40.8378 -40.8351 -40.8351 -40.8286 -40.8286 -40.8255 -40.8130 -40.8130
   -40.8130 -40.8129 -40.8002 -40.7995 -40.7995 -40.7990 -40.7989 -40.7956
   -40.7908 -40.7903 -40.7787 -40.7785 -40.7785 -40.7785 -40.7785 -40.7785
   -40.7784 -40.7780 -40.7777 -40.7769 -40.7768 -40.7742 -40.7707 -40.7697
   -40.7697 -40.7688 -40.7664 -40.7664 -40.7531 -40.7476 -40.7472 -40.7472
   -40.7465 -40.7464 -40.7464 -40.7461 -40.7458 -40.7447 -40.7374 -40.7350
   -40.7303 -40.7303 -40.7288 -40.7259 -40.7224 -40.7178 -40.7163 -40.7140
   -40.7118 -40.7117 -40.7116 -40.7116 -40.7054 -40.6999 -40.6998 -40.6998
   -40.6994 -40.6976 -40.6915 -40.6868 -40.6832 -40.6807 -40.6802 -40.6636
   -40.6635 -40.6595 -40.6527 -40.6488 -40.6439 -40.6387 -40.6334 -40.6329
   -40.6287 -40.6243 -40.6180 -40.6039 -40.5907 -40.5815 -40.5262 -40.4965
   -19.9783 -19.9638 -19.9156 -19.8405 -19.7767 -19.7051 -19.5353 -19.5290
   -19.4716 -19.4105 -19.3525 -19.2785 -19.0639 -18.8294 -18.8213 -18.8210
   -18.8208 -18.8206 -18.8098 -18.7223 -18.7200 -18.7181 -18.7061 -18.6409
   -18.6329 -18.6257 -18.6182 -18.6102 -18.6029 -18.5981 -18.5730 -18.5726
   -18.5340 -18.4829 -18.4798 -18.4726 -18.4646 -18.4578 -18.4066 -18.3770
   -18.3431 -18.3137 -18.2989 -18.2948 -18.2935 -18.2920 -18.2383 -18.2083
   -18.2082 -18.2081 -18.2080 -18.1877 -18.1850 -18.1737 -18.1718 -18.1679
   -18.1391 -18.1359 -18.1350 -18.1339 -18.1241 -18.0869 -18.0813 -18.0701
   -18.0651 -18.0589 -18.0560 -18.0542 -18.0516 -18.0479 -18.0182 -18.0069
   -18.0033 -18.0013 -17.9956 -17.9875 -17.9505 -17.9436 -17.9436 -17.9396
   -17.9353 -17.9337 -17.8872 -17.8846 -17.8840 -17.8688 -17.8682 -17.8670
   -17.8603 -17.8556 -17.8297 -17.8278 -17.8060 -17.7915 -17.7617 -17.7482
   -12.4185 -11.7545 -11.7380 -11.5562 -11.5560 -11.5559 -11.5551 -11.5317
   -11.5304 -11.4742 -11.4723 -11.4712 -11.4670 -11.4196 -11.4168 -11.3806
   -11.3751 -11.3707 -11.3667 -11.3633 -11.3619 -11.3576 -11.3365 -11.3365
   -11.3211 -11.2967 -11.2919 -11.2919 -11.2523 -11.2341 -11.2333 -11.2325
   -11.2290 -11.2018 -11.1685 -11.0570 -11.0520 -11.0497 -11.0443 -11.0215
   -10.9944 -10.9933 -10.9878 -10.9438 -10.9377 -10.9298 -10.9164 -10.9112
   -10.9111 -10.9108 -10.9083 -10.8837 -10.8763 -10.8733 -10.8572 -10.8492
   -10.8484 -10.8467 -10.8461 -10.8317 -10.8055 -10.7624 -10.7438 -10.7393
   -10.6545 -10.6226 -10.5730 -10.5711 -10.4572 -10.4481 -10.4168 -10.3196
   -10.2820 -10.2043 -10.2019 -10.2012 -10.1997 -10.1079 -10.1043 -10.1006
   -10.0936 -10.0193 -10.0173 -10.0163 -10.0148  -9.9937  -9.9859  -9.9800
    -9.9770  -9.9716  -9.9701  -9.9683  -9.9394  -9.8760  -9.8670  -9.8648
    -9.8553  -9.8250  -9.8240  -9.8184  -9.8099  -9.7899  -9.7870  -9.7863
    -9.7796  -9.7294  -9.7148  -9.7107  -9.7058  -9.7003  -9.6974  -9.6899
    -9.6859  -9.6850  -9.6746  -9.6654  -9.6077  -9.6069  -9.5868  -9.5482
    -9.5481  -9.5449  -9.5412  -9.5340  -9.4884  -9.4841  -9.4056  -9.3673
    -9.3214  -9.3204  -9.2598  -9.2209  -9.2176  -9.2130  -9.2082  -9.2072
    -9.2050  -9.2033  -9.1944  -9.1832  -9.1365  -9.1044  -9.0868  -9.0823
    -9.0754  -9.0669  -9.0597  -9.0489  -9.0361  -9.0318  -9.0249  -9.0105
    -9.0102  -9.0095  -8.9976  -8.9951  -8.9849  -8.9787  -8.9778  -8.9739
    -8.9577  -8.9525  -8.9366  -8.9335  -8.9190  -8.9189  -8.9053  -8.8965
    -8.8880  -8.8847  -8.8791  -8.8638  -8.8596  -8.8480  -8.8460  -8.8391
    -8.8226  -8.8112  -8.8027  -8.7948  -8.7737  -8.7560  -8.5922  -8.5919
    -8.5612  -8.5167  -8.5131  -8.4766  -8.4670  -8.4473  -8.2811  -8.2723
    -8.2722  -8.2017  -8.2010  -8.1596  -8.1475  -8.1354  -8.1021  -8.0132
    -8.0119  -7.9537  -7.9522  -7.9490  -7.9460  -7.9280  -7.9265  -7.9258
    -7.9258  -7.9230  -7.9169  -7.8812  -7.8811  -7.8802  -7.8800  -7.8638
    -7.8578  -7.8568  -7.8541  -7.8489  -7.8423  -7.8406  -7.8257  -7.8184
    -7.8074  -7.8066  -7.8028  -7.7999  -7.7862  -7.7799  -7.7749  -7.7731
    -7.7705  -7.7531  -7.7469  -7.7406  -7.7406  -7.7267  -7.7237  -7.7180
    -7.7096  -7.7024  -7.6861  -7.6752  -7.6718  -7.6709  -7.6679  -7.6583
    -7.6510  -7.6397  -7.6075  -7.5937  -7.5704  -7.5304  -7.5282  -7.5213
    -7.4623  -7.4101  -7.3265  -7.3210  -7.3196  -7.3193  -7.2527  -7.2011
    -7.1959  -7.1940  -7.1898  -7.1884  -7.1018  -7.0934  -7.0923  -7.0499
    -7.0370  -7.0330  -7.0196  -7.0180  -7.0121  -7.0073  -7.0053  -6.9957
    -6.9336  -6.9157  -6.9083  -6.9073  -6.8590  -6.8479  -6.7907  -6.7876
    -6.7376  -6.7376  -6.7375  -6.7375  -6.7051  -6.6962  -6.6728  -6.6709
    -6.6707  -6.6691  -6.6542  -6.6195  -6.6095  -6.6005  -6.5925  -6.5885
    -6.5811  -6.5736  -6.4907  -6.4774  -6.4065  -6.4063  -6.4061  -6.4061
    -6.3404  -6.3380  -6.3346  -6.3303  -6.3285  -6.3274  -6.2953  -6.2885
    -6.2709  -6.2616  -6.2544  -6.2499  -6.2439  -6.2377  -6.0571  -6.0571
    -5.9855  -5.9824  -5.9477  -5.9129  -5.8208  -5.8132  -5.6382  -5.6312
    -4.6992  -4.0985  -4.0962  -4.0956  -4.0775  -3.9726  -3.9724  -3.9563
    -3.9490  -3.9084  -3.9080  -3.8619  -3.8458  -3.8448  -3.8399  -3.8326
    -3.8125  -3.7604  -3.7298  -3.6769  -3.6753  -3.6746  -3.6725  -3.6590
    -3.6587  -3.6267  -3.6177  -3.6130  -3.6013  -3.5850  -3.5841  -3.5803
    -3.5620  -3.5542  -3.5535  -3.5489  -3.5455  -3.5430  -3.5232  -3.5067
    -3.4795  -3.4484  -3.4449  -3.4354  -3.4276  -3.4266  -3.4145  -3.4007
    -3.3965  -3.3911  -3.3866  -3.3603  -3.3526  -3.3492  -3.3490  -3.3485
    -3.3413  -3.3375  -3.3253  -3.3207  -3.3152  -3.2992  -3.2896  -3.2848
    -3.2815  -3.2786  -3.2730  -3.2705  -3.2294  -3.2214  -3.1995  -3.1918
    -3.1863  -3.1837  -3.1481  -3.1477  -3.1104  -3.1077  -3.1062  -3.1011
    -3.0865  -3.0860  -3.0860  -3.0856  -3.0769  -3.0547  -3.0386  -3.0354
    -3.0292  -3.0285  -3.0204  -2.9998  -2.9959  -2.9907  -2.9826  -2.9737
    -2.9606  -2.9501  -2.9381  -2.9349  -2.9306  -2.9252  -2.9050  -2.8964
    -2.8860  -2.8740  -2.8732  -2.8661  -2.7981  -2.7692  -2.7294  -2.7239
    -2.7185  -2.7036  -2.7024  -2.6955  -2.6600  -2.6432  -2.6047  -2.5772
    -2.5678  -2.5641  -2.5609  -2.5556  -2.4472  -2.4050

          k =-0.5000-0.8660 0.0000 (321564 PWs)   bands (ev):

   -66.7605 -66.7605 -66.7500 -66.7500 -66.7350 -66.7350 -66.7350 -66.7350
   -66.7306 -66.7306 -66.7244 -66.7244 -66.7244 -66.7244 -66.7200 -66.7200
   -66.6948 -66.6943 -66.6840 -66.6840 -66.6693 -66.6692 -66.6688 -66.6688
   -66.6649 -66.6644 -66.6588 -66.6587 -66.6585 -66.6577 -66.6540 -66.6539
   -66.6476 -66.6445 -66.6326 -66.6303 -66.6251 -66.6192 -66.6165 -66.6149
   -66.6120 -66.6111 -66.6067 -66.6053 -66.5999 -66.5922 -66.5841 -66.4468
   -41.0617 -41.0617 -41.0616 -41.0616 -41.0350 -41.0350 -41.0231 -41.0231
   -40.9949 -40.9948 -40.9947 -40.9941 -40.9727 -40.9727 -40.9727 -40.9727
   -40.9682 -40.9678 -40.9560 -40.9560 -40.9472 -40.9446 -40.9406 -40.9182
   -40.9161 -40.9147 -40.9147 -40.9124 -40.9058 -40.9057 -40.9057 -40.9056
   -40.9047 -40.9047 -40.8977 -40.8940 -40.8940 -40.8873 -40.8646 -40.8646
   -40.8646 -40.8646 -40.8559 -40.8559 -40.8518 -40.8495 -40.8491 -40.8458
   -40.8437 -40.8437 -40.8437 -40.8437 -40.8437 -40.8437 -40.8406 -40.8380
   -40.8378 -40.8351 -40.8351 -40.8286 -40.8286 -40.8254 -40.8130 -40.8130
   -40.8130 -40.8129 -40.8002 -40.7995 -40.7995 -40.7990 -40.7989 -40.7956
   -40.7908 -40.7903 -40.7787 -40.7786 -40.7785 -40.7785 -40.7785 -40.7785
   -40.7784 -40.7779 -40.7776 -40.7770 -40.7768 -40.7742 -40.7707 -40.7697
   -40.7697 -40.7688 -40.7664 -40.7664 -40.7530 -40.7477 -40.7472 -40.7472
   -40.7466 -40.7465 -40.7464 -40.7460 -40.7457 -40.7447 -40.7374 -40.7348
   -40.7303 -40.7303 -40.7288 -40.7258 -40.7224 -40.7178 -40.7164 -40.7139
   -40.7118 -40.7117 -40.7116 -40.7116 -40.7054 -40.6999 -40.6999 -40.6998
   -40.6994 -40.6974 -40.6919 -40.6868 -40.6831 -40.6807 -40.6802 -40.6636
   -40.6635 -40.6596 -40.6528 -40.6484 -40.6442 -40.6384 -40.6334 -40.6329
   -40.6292 -40.6242 -40.6179 -40.6036 -40.5909 -40.5815 -40.5262 -40.4965
   -19.9784 -19.9638 -19.9157 -19.8404 -19.7767 -19.7049 -19.5353 -19.5290
   -19.4716 -19.4106 -19.3525 -19.2788 -19.0635 -18.8294 -18.8213 -18.8210
   -18.8208 -18.8206 -18.8098 -18.7221 -18.7200 -18.7184 -18.7061 -18.6410
   -18.6327 -18.6256 -18.6179 -18.6101 -18.6030 -18.5985 -18.5732 -18.5730
   -18.5341 -18.4834 -18.4799 -18.4721 -18.4649 -18.4580 -18.4071 -18.3768
   -18.3429 -18.3139 -18.2990 -18.2948 -18.2936 -18.2919 -18.2379 -18.2081
   -18.2080 -18.2077 -18.2076 -18.1879 -18.1851 -18.1736 -18.1717 -18.1679
   -18.1387 -18.1349 -18.1348 -18.1337 -18.1239 -18.0869 -18.0813 -18.0699
   -18.0646 -18.0589 -18.0560 -18.0543 -18.0510 -18.0484 -18.0180 -18.0070
   -18.0035 -18.0015 -17.9956 -17.9871 -17.9505 -17.9441 -17.9441 -17.9393
   -17.9358 -17.9342 -17.8883 -17.8850 -17.8845 -17.8691 -17.8686 -17.8678
   -17.8608 -17.8554 -17.8298 -17.8282 -17.8050 -17.7905 -17.7610 -17.7478
   -12.4184 -11.7545 -11.7381 -11.5562 -11.5560 -11.5556 -11.5550 -11.5318
   -11.5306 -11.4743 -11.4723 -11.4712 -11.4672 -11.4196 -11.4167 -11.3814
   -11.3752 -11.3709 -11.3667 -11.3632 -11.3620 -11.3576 -11.3366 -11.3366
   -11.3211 -11.2961 -11.2920 -11.2918 -11.2511 -11.2341 -11.2334 -11.2326
   -11.2290 -11.2023 -11.1691 -11.0568 -11.0521 -11.0497 -11.0442 -11.0217
   -10.9946 -10.9934 -10.9880 -10.9435 -10.9372 -10.9292 -10.9164 -10.9109
   -10.9107 -10.9105 -10.9082 -10.8835 -10.8764 -10.8727 -10.8569 -10.8488
   -10.8485 -10.8468 -10.8462 -10.8314 -10.8055 -10.7638 -10.7445 -10.7396
   -10.6542 -10.6227 -10.5735 -10.5720 -10.4576 -10.4486 -10.4168 -10.3191
   -10.2803 -10.2042 -10.2020 -10.2011 -10.1996 -10.1079 -10.1045 -10.1007
   -10.0936 -10.0173 -10.0160 -10.0154 -10.0133  -9.9943  -9.9863  -9.9820
    -9.9791  -9.9733  -9.9718  -9.9700  -9.9393  -9.8743  -9.8669  -9.8630
    -9.8557  -9.8268  -9.8249  -9.8191  -9.8113  -9.7890  -9.7865  -9.7861
    -9.7791  -9.7289  -9.7155  -9.7108  -9.7059  -9.7012  -9.6964  -9.6886
    -9.6866  -9.6837  -9.6725  -9.6621  -9.6078  -9.6069  -9.5871  -9.5485
    -9.5481  -9.5450  -9.5416  -9.5348  -9.4888  -9.4839  -9.4056  -9.3673
    -9.3209  -9.3196  -9.2595  -9.2206  -9.2178  -9.2130  -9.2087  -9.2073
    -9.2050  -9.2031  -9.1952  -9.1840  -9.1368  -9.1040  -9.0869  -9.0829
    -9.0756  -9.0667  -9.0595  -9.0492  -9.0367  -9.0323  -9.0248  -9.0104
    -9.0102  -9.0092  -8.9999  -8.9957  -8.9849  -8.9794  -8.9781  -8.9754
    -8.9577  -8.9519  -8.9367  -8.9338  -8.9190  -8.9189  -8.9054  -8.8960
    -8.8882  -8.8842  -8.8783  -8.8636  -8.8592  -8.8482  -8.8458  -8.8392
    -8.8209  -8.8091  -8.8019  -8.7948  -8.7728  -8.7577  -8.5921  -8.5918
    -8.5605  -8.5163  -8.5129  -8.4765  -8.4668  -8.4471  -8.2814  -8.2723
    -8.2722  -8.2018  -8.2010  -8.1590  -8.1483  -8.1354  -8.1028  -8.0135
    -8.0123  -7.9526  -7.9509  -7.9475  -7.9456  -7.9289  -7.9274  -7.9267
    -7.9257  -7.9257  -7.9203  -7.8813  -7.8812  -7.8803  -7.8801  -7.8629
    -7.8579  -7.8567  -7.8537  -7.8488  -7.8422  -7.8398  -7.8257  -7.8176
    -7.8077  -7.8069  -7.8025  -7.8004  -7.7846  -7.7780  -7.7747  -7.7734
    -7.7709  -7.7533  -7.7474  -7.7406  -7.7406  -7.7275  -7.7235  -7.7180
    -7.7105  -7.7039  -7.6857  -7.6736  -7.6719  -7.6700  -7.6691  -7.6580
    -7.6505  -7.6388  -7.6074  -7.5955  -7.5708  -7.5332  -7.5309  -7.5243
    -7.4601  -7.4048  -7.3239  -7.3199  -7.3193  -7.3178  -7.2532  -7.2017
    -7.1962  -7.1951  -7.1893  -7.1883  -7.1023  -7.0934  -7.0925  -7.0493
    -7.0366  -7.0343  -7.0184  -7.0170  -7.0128  -7.0072  -7.0054  -6.9960
    -6.9341  -6.9153  -6.9087  -6.9077  -6.8587  -6.8470  -6.7897  -6.7871
    -6.7376  -6.7375  -6.7373  -6.7373  -6.7034  -6.6944  -6.6726  -6.6709
    -6.6706  -6.6691  -6.6545  -6.6202  -6.6098  -6.6005  -6.5927  -6.5890
    -6.5808  -6.5740  -6.4905  -6.4773  -6.4063  -6.4061  -6.4061  -6.4060
    -6.3412  -6.3389  -6.3346  -6.3302  -6.3284  -6.3274  -6.2965  -6.2903
    -6.2721  -6.2617  -6.2544  -6.2506  -6.2439  -6.2393  -6.0573  -6.0572
    -5.9858  -5.9825  -5.9473  -5.9124  -5.8204  -5.8124  -5.6375  -5.6294
    -4.6989  -4.0986  -4.0964  -4.0957  -4.0777  -3.9726  -3.9722  -3.9555
    -3.9486  -3.9082  -3.9078  -3.8619  -3.8460  -3.8451  -3.8402  -3.8327
    -3.8121  -3.7601  -3.7288  -3.6764  -3.6750  -3.6742  -3.6722  -3.6589
    -3.6586  -3.6275  -3.6167  -3.6127  -3.6008  -3.5845  -3.5831  -3.5801
    -3.5610  -3.5544  -3.5532  -3.5486  -3.5449  -3.5423  -3.5232  -3.5059
    -3.4794  -3.4477  -3.4432  -3.4347  -3.4272  -3.4265  -3.4154  -3.4016
    -3.3971  -3.3907  -3.3859  -3.3602  -3.3527  -3.3492  -3.3489  -3.3486
    -3.3411  -3.3381  -3.3254  -3.3215  -3.3149  -3.2991  -3.2900  -3.2846
    -3.2811  -3.2791  -3.2722  -3.2694  -3.2295  -3.2215  -3.1999  -3.1912
    -3.1865  -3.1835  -3.1486  -3.1480  -3.1103  -3.1067  -3.1057  -3.1006
    -3.0854  -3.0849  -3.0846  -3.0842  -3.0773  -3.0555  -3.0384  -3.0344
    -3.0280  -3.0259  -3.0201  -2.9997  -2.9953  -2.9901  -2.9824  -2.9732
    -2.9606  -2.9491  -2.9385  -2.9355  -2.9314  -2.9261  -2.9056  -2.8969
    -2.8857  -2.8737  -2.8732  -2.8657  -2.8010  -2.7716  -2.7302  -2.7243
    -2.7194  -2.7039  -2.7027  -2.6963  -2.6598  -2.6432  -2.6043  -2.5760
    -2.5667  -2.5635  -2.5592  -2.5544  -2.4521  -2.4232

          k = 0.5000 0.2887 0.0000 (321564 PWs)   bands (ev):

   -66.7606 -66.7605 -66.7500 -66.7500 -66.7350 -66.7350 -66.7350 -66.7350
   -66.7307 -66.7306 -66.7245 -66.7244 -66.7244 -66.7244 -66.7200 -66.7200
   -66.6948 -66.6943 -66.6840 -66.6839 -66.6694 -66.6692 -66.6688 -66.6687
   -66.6649 -66.6644 -66.6588 -66.6586 -66.6586 -66.6577 -66.6540 -66.6539
   -66.6482 -66.6429 -66.6355 -66.6290 -66.6224 -66.6203 -66.6188 -66.6143
   -66.6109 -66.6097 -66.6089 -66.6040 -66.6007 -66.5920 -66.5841 -66.4468
   -41.0617 -41.0617 -41.0616 -41.0616 -41.0350 -41.0350 -41.0231 -41.0231
   -40.9949 -40.9948 -40.9947 -40.9940 -40.9727 -40.9727 -40.9727 -40.9726
   -40.9682 -40.9678 -40.9561 -40.9560 -40.9531 -40.9456 -40.9347 -40.9179
   -40.9158 -40.9147 -40.9147 -40.9119 -40.9058 -40.9057 -40.9057 -40.9056
   -40.9047 -40.9047 -40.9014 -40.8940 -40.8940 -40.8795 -40.8646 -40.8646
   -40.8646 -40.8646 -40.8567 -40.8559 -40.8559 -40.8495 -40.8491 -40.8481
   -40.8437 -40.8437 -40.8437 -40.8437 -40.8437 -40.8436 -40.8380 -40.8377
   -40.8376 -40.8351 -40.8350 -40.8287 -40.8286 -40.8191 -40.8130 -40.8130
   -40.8129 -40.8129 -40.8020 -40.7997 -40.7994 -40.7989 -40.7989 -40.7916
   -40.7908 -40.7904 -40.7831 -40.7787 -40.7786 -40.7785 -40.7785 -40.7785
   -40.7784 -40.7784 -40.7784 -40.7777 -40.7770 -40.7767 -40.7708 -40.7700
   -40.7698 -40.7696 -40.7664 -40.7664 -40.7495 -40.7489 -40.7472 -40.7472
   -40.7465 -40.7464 -40.7464 -40.7460 -40.7457 -40.7446 -40.7340 -40.7335
   -40.7305 -40.7303 -40.7303 -40.7303 -40.7243 -40.7221 -40.7145 -40.7122
   -40.7119 -40.7117 -40.7116 -40.7115 -40.7058 -40.6999 -40.6998 -40.6998
   -40.6994 -40.6966 -40.6897 -40.6847 -40.6807 -40.6807 -40.6802 -40.6637
   -40.6635 -40.6625 -40.6568 -40.6490 -40.6449 -40.6420 -40.6334 -40.6328
   -40.6227 -40.6196 -40.6185 -40.6034 -40.5965 -40.5793 -40.5194 -40.5021
   -19.9795 -19.9637 -19.9173 -19.8389 -19.7763 -19.7011 -19.5352 -19.5292
   -19.4721 -19.4123 -19.3536 -19.2813 -19.0607 -18.8301 -18.8214 -18.8212
   -18.8207 -18.8205 -18.8096 -18.7216 -18.7195 -18.7178 -18.7062 -18.6421
   -18.6308 -18.6264 -18.6194 -18.6047 -18.6027 -18.5995 -18.5733 -18.5729
   -18.5342 -18.4847 -18.4817 -18.4695 -18.4650 -18.4602 -18.4101 -18.3744
   -18.3482 -18.3155 -18.2992 -18.2934 -18.2927 -18.2926 -18.2335 -18.2083
   -18.2081 -18.2078 -18.2075 -18.1880 -18.1833 -18.1730 -18.1700 -18.1691
   -18.1374 -18.1371 -18.1359 -18.1323 -18.1224 -18.0871 -18.0773 -18.0755
   -18.0619 -18.0591 -18.0558 -18.0543 -18.0526 -18.0456 -18.0169 -18.0107
   -18.0033 -17.9992 -17.9959 -17.9846 -17.9524 -17.9452 -17.9440 -17.9440
   -17.9368 -17.9302 -17.8921 -17.8849 -17.8842 -17.8779 -17.8684 -17.8681
   -17.8616 -17.8454 -17.8288 -17.8281 -17.8039 -17.7934 -17.7585 -17.7484
   -12.4160 -11.7553 -11.7372 -11.5563 -11.5558 -11.5557 -11.5551 -11.5319
   -11.5313 -11.4739 -11.4721 -11.4719 -11.4682 -11.4214 -11.4160 -11.3837
   -11.3798 -11.3724 -11.3668 -11.3644 -11.3620 -11.3542 -11.3366 -11.3366
   -11.3199 -11.2921 -11.2918 -11.2863 -11.2747 -11.2338 -11.2333 -11.2326
   -11.2290 -11.2062 -11.1629 -11.0564 -11.0508 -11.0487 -11.0404 -11.0221
   -10.9954 -10.9936 -10.9860 -10.9413 -10.9323 -10.9318 -10.9128 -10.9114
   -10.9107 -10.9104 -10.9077 -10.8897 -10.8739 -10.8720 -10.8523 -10.8513
   -10.8479 -10.8469 -10.8397 -10.8338 -10.7758 -10.7600 -10.7386 -10.7277
   -10.6871 -10.6270 -10.5747 -10.5724 -10.5325 -10.4489 -10.4258 -10.2913
   -10.2063 -10.2052 -10.2021 -10.2020 -10.1418 -10.1128 -10.1056 -10.1018
   -10.1003 -10.0230 -10.0170 -10.0143 -10.0128 -10.0010  -9.9969  -9.9829
    -9.9809  -9.9786  -9.9749  -9.9716  -9.9667  -9.8787  -9.8658  -9.8641
    -9.8538  -9.8287  -9.8230  -9.8205  -9.8000  -9.7899  -9.7889  -9.7868
    -9.7821  -9.7317  -9.7157  -9.7111  -9.7050  -9.7024  -9.6945  -9.6908
    -9.6901  -9.6857  -9.6753  -9.6643  -9.6078  -9.6069  -9.5846  -9.5494
    -9.5490  -9.5466  -9.5455  -9.5365  -9.4885  -9.4716  -9.4153  -9.3697
    -9.3329  -9.3181  -9.2792  -9.2218  -9.2158  -9.2133  -9.2077  -9.2056
    -9.2045  -9.2033  -9.1915  -9.1866  -9.1332  -9.1060  -9.0852  -9.0839
    -9.0781  -9.0678  -9.0531  -9.0382  -9.0331  -9.0323  -9.0236  -9.0195
    -9.0102  -9.0096  -8.9966  -8.9929  -8.9878  -8.9849  -8.9812  -8.9737
    -8.9597  -8.9511  -8.9393  -8.9330  -8.9190  -8.9189  -8.9126  -8.8972
    -8.8876  -8.8872  -8.8786  -8.8758  -8.8562  -8.8503  -8.8488  -8.8456
    -8.8154  -8.8014  -8.8004  -8.7885  -8.7804  -8.7590  -8.5918  -8.5918
    -8.5456  -8.5131  -8.5120  -8.4718  -8.4438  -8.4363  -8.2723  -8.2722
    -8.2614  -8.2017  -8.2010  -8.1524  -8.1395  -8.1029  -8.1007  -8.0135
    -8.0125  -7.9570  -7.9513  -7.9475  -7.9450  -7.9322  -7.9271  -7.9270
    -7.9257  -7.9257  -7.9254  -7.8915  -7.8806  -7.8803  -7.8802  -7.8775
    -7.8665  -7.8573  -7.8567  -7.8470  -7.8416  -7.8406  -7.8367  -7.8111
    -7.8076  -7.8074  -7.8042  -7.7886  -7.7865  -7.7788  -7.7774  -7.7762
    -7.7686  -7.7612  -7.7445  -7.7407  -7.7406  -7.7279  -7.7219  -7.7194
    -7.7102  -7.7063  -7.6980  -7.6792  -7.6748  -7.6711  -7.6689  -7.6652
    -7.6515  -7.6466  -7.6151  -7.5973  -7.5793  -7.5478  -7.5275  -7.5146
    -7.4336  -7.4044  -7.3216  -7.3199  -7.3183  -7.3172  -7.2459  -7.1968
    -7.1957  -7.1933  -7.1882  -7.1868  -7.1091  -7.0937  -7.0931  -7.0463
    -7.0362  -7.0326  -7.0197  -7.0185  -7.0083  -7.0031  -7.0019  -6.9944
    -6.9261  -6.9094  -6.9072  -6.9064  -6.8893  -6.8496  -6.7952  -6.7824
    -6.7377  -6.7376  -6.7374  -6.7373  -6.7187  -6.6950  -6.6738  -6.6722
    -6.6700  -6.6692  -6.6564  -6.6151  -6.6114  -6.5933  -6.5917  -6.5878
    -6.5830  -6.5788  -6.4953  -6.4806  -6.4065  -6.4063  -6.4060  -6.4059
    -6.3456  -6.3396  -6.3395  -6.3307  -6.3288  -6.3268  -6.3042  -6.2773
    -6.2696  -6.2674  -6.2619  -6.2443  -6.2421  -6.2251  -6.0572  -6.0572
    -5.9839  -5.9819  -5.9277  -5.9162  -5.8258  -5.8080  -5.6424  -5.6258
    -4.7140  -4.1002  -4.0992  -4.0938  -4.0766  -3.9726  -3.9721  -3.9584
    -3.9510  -3.9080  -3.9072  -3.8609  -3.8530  -3.8441  -3.8377  -3.8324
    -3.7843  -3.7690  -3.7331  -3.6782  -3.6765  -3.6747  -3.6730  -3.6591
    -3.6588  -3.6282  -3.6191  -3.6124  -3.5901  -3.5897  -3.5840  -3.5789
    -3.5559  -3.5549  -3.5541  -3.5486  -3.5460  -3.5428  -3.5236  -3.5061
    -3.4955  -3.4528  -3.4427  -3.4397  -3.4364  -3.4264  -3.4261  -3.3985
    -3.3956  -3.3899  -3.3864  -3.3503  -3.3492  -3.3489  -3.3488  -3.3481
    -3.3400  -3.3229  -3.3213  -3.3195  -3.3026  -3.2991  -3.2866  -3.2850
    -3.2839  -3.2779  -3.2774  -3.2667  -3.2449  -3.2058  -3.1957  -3.1938
    -3.1908  -3.1811  -3.1490  -3.1481  -3.1186  -3.1063  -3.1038  -3.0933
    -3.0861  -3.0858  -3.0852  -3.0847  -3.0715  -3.0566  -3.0371  -3.0349
    -3.0313  -3.0149  -3.0096  -2.9986  -2.9939  -2.9922  -2.9832  -2.9744
    -2.9692  -2.9609  -2.9511  -2.9375  -2.9355  -2.9255  -2.9064  -2.8906
    -2.8879  -2.8873  -2.8732  -2.8697  -2.7905  -2.7758  -2.7256  -2.7237
    -2.7098  -2.7051  -2.7024  -2.6946  -2.6471  -2.6392  -2.5825  -2.5705
    -2.5660  -2.5625  -2.5611  -2.5270  -2.4315  -2.4042

     the Fermi energy is    -4.7029 ev

!    total energy              =  -23846.27499315 Ry
     total all-electron energy =   -465366.125125 Ry
     estimated scf accuracy    <       0.00000096 Ry
     smearing contrib. (-TS)   =      -0.00562939 Ry
     internal energy E=F+TS    =  -23846.26936376 Ry

     The total energy is F=E-TS. E is the sum of the following terms:
     one-electron contribution =  439761.69999986 Ry
     hartree contribution      = -219985.10951595 Ry
     xc contribution           =   -1428.62742446 Ry
     ewald contribution        = -226847.69340169 Ry
     DFT-D3 Dispersion         =      -3.95163625 Ry
     one-center paw contrib.   =  -15342.58738526 Ry

     convergence has been achieved in  31 iterations

     negative rho (up, down):  8.758E-04 0.000E+00

     Forces acting on atoms (cartesian axes, Ry/au):

     atom    1 type  1   force =     0.00006715   -0.00027651    0.00032009
     atom    2 type  1   force =     0.00002573    0.00004876    0.00182788
     atom    3 type  1   force =     0.00001380   -0.00001192   -0.00002268
     atom    4 type  2   force =    -0.00000155   -0.00000070   -0.00274427
     atom    5 type  2   force =    -0.00000510   -0.00003330    0.00056259
     atom    6 type  2   force =    -0.00022005   -0.00009939    0.00045560
     atom    7 type  2   force =    -0.00000039    0.00003766    0.00088107
     atom    8 type  2   force =     0.00001298    0.00001354   -0.00062978
     atom    9 type  2   force =    -0.00027114   -0.00001560   -0.00042313
     atom   10 type  1   force =    -0.00033677    0.00010262   -0.00064980
     atom   11 type  1   force =     0.00006028   -0.00000647    0.00182832
     atom   12 type  1   force =     0.00002144   -0.00005200   -0.00008420
     atom   13 type  2   force =    -0.00000361   -0.00000530   -0.00274607
     atom   14 type  2   force =    -0.00002343   -0.00001376    0.00050199
     atom   15 type  2   force =     0.00030518    0.00032428    0.00087117
     atom   16 type  2   force =    -0.00000523    0.00002845    0.00088903
     atom   17 type  2   force =    -0.00004922    0.00001011   -0.00063477
     atom   18 type  2   force =     0.00011148    0.00000350   -0.00011340
     atom   19 type  1   force =    -0.00000457    0.00003688    0.00004215
     atom   20 type  1   force =     0.00005698    0.00004276    0.00183873
     atom   21 type  1   force =     0.00005570    0.00005861   -0.00003607
     atom   22 type  2   force =     0.00000606   -0.00001001   -0.00276616
     atom   23 type  2   force =    -0.00000400    0.00005156    0.00054197
     atom   24 type  2   force =    -0.00004903   -0.00006444    0.00030110
     atom   25 type  2   force =     0.00001131    0.00002076    0.00088307
     atom   26 type  2   force =    -0.00001649   -0.00003197   -0.00064655
     atom   27 type  2   force =    -0.00004107    0.00025903   -0.00039220
     atom   28 type  1   force =     0.00009310   -0.00019159   -0.00020828
     atom   29 type  1   force =     0.00004887    0.00004471    0.00184011
     atom   30 type  1   force =    -0.00003084    0.00004946    0.00004520
     atom   31 type  2   force =    -0.00000588    0.00000274   -0.00276665
     atom   32 type  2   force =     0.00000336    0.00003094    0.00058506
     atom   33 type  2   force =    -0.00023332   -0.00001915    0.00033102
     atom   34 type  2   force =     0.00000428    0.00001767    0.00088722
     atom   35 type  2   force =    -0.00001648    0.00000090   -0.00055789
     atom   36 type  2   force =    -0.00025003   -0.00006621   -0.00053752
     atom   37 type  1   force =    -0.00003695   -0.00061344    0.00047975
     atom   38 type  1   force =    -0.00001433    0.00000448    0.00183197
     atom   39 type  1   force =    -0.00004552    0.00002275    0.00000665
     atom   40 type  2   force =     0.00000427    0.00000628   -0.00273139
     atom   41 type  2   force =    -0.00001877   -0.00005179    0.00057403
     atom   42 type  2   force =     0.00033423    0.00020176    0.00053430
     atom   43 type  2   force =     0.00000333    0.00003528    0.00088784
     atom   44 type  2   force =    -0.00004789    0.00000852   -0.00060673
     atom   45 type  2   force =     0.00024097   -0.00056356   -0.00022606
     atom   46 type  1   force =    -0.00033985   -0.00029616    0.00002679
     atom   47 type  1   force =    -0.00005788   -0.00004241    0.00182884
     atom   48 type  1   force =    -0.00000863   -0.00004183   -0.00000427
     atom   49 type  2   force =     0.00000374   -0.00000097   -0.00271804
     atom   50 type  2   force =    -0.00002212    0.00000600    0.00060485
     atom   51 type  2   force =    -0.00007304   -0.00050169    0.00064755
     atom   52 type  2   force =    -0.00000691    0.00003106    0.00085233
     atom   53 type  2   force =    -0.00002322    0.00003122   -0.00058665
     atom   54 type  2   force =    -0.00047890    0.00014885   -0.00029090
     atom   55 type  1   force =     0.00024566   -0.00013534   -0.00007804
     atom   56 type  1   force =    -0.00002788    0.00000607    0.00180868
     atom   57 type  1   force =    -0.00001794   -0.00000413    0.00008532
     atom   58 type  2   force =     0.00001374   -0.00000234   -0.00274059
     atom   59 type  2   force =     0.00000486    0.00005939    0.00062540
     atom   60 type  2   force =     0.00033621   -0.00031579    0.00107690
     atom   61 type  2   force =    -0.00000078    0.00002215    0.00088273
     atom   62 type  2   force =    -0.00003639   -0.00010564   -0.00054957
     atom   63 type  2   force =     0.00048708   -0.00004535   -0.00037803
     atom   64 type  1   force =    -0.00009532   -0.00000509   -0.00001241
     atom   65 type  1   force =     0.00001066   -0.00000113    0.00185157
     atom   66 type  1   force =    -0.00002682   -0.00002054    0.00008071
     atom   67 type  2   force =     0.00001135    0.00000027   -0.00272655
     atom   68 type  2   force =     0.00000781   -0.00001470    0.00065228
     atom   69 type  2   force =    -0.00002033    0.00007107    0.00031829
     atom   70 type  2   force =     0.00001131    0.00001654    0.00086141
     atom   71 type  2   force =     0.00001487    0.00001489   -0.00055457
     atom   72 type  2   force =     0.00025727   -0.00000821   -0.00063093
     atom   73 type  1   force =     0.00016125    0.00029497   -0.00004225
     atom   74 type  1   force =     0.00000521   -0.00004881    0.00182983
     atom   75 type  1   force =    -0.00008356   -0.00003054   -0.00000960
     atom   76 type  2   force =     0.00000223   -0.00000359   -0.00274954
     atom   77 type  2   force =    -0.00001801    0.00000510    0.00060436
     atom   78 type  2   force =     0.00001373   -0.00021747    0.00053015
     atom   79 type  2   force =     0.00000790    0.00002587    0.00086752
     atom   80 type  2   force =    -0.00003249    0.00000913   -0.00056786
     atom   81 type  2   force =     0.00026499    0.00023642   -0.00053258
     atom   82 type  1   force =     0.00100803    0.00038817   -0.00022337
     atom   83 type  1   force =    -0.00003746   -0.00004690    0.00180101
     atom   84 type  1   force =    -0.00006789   -0.00002208    0.00007534
     atom   85 type  2   force =    -0.00000844   -0.00001159   -0.00274060
     atom   86 type  2   force =    -0.00000387   -0.00002658    0.00051450
     atom   87 type  2   force =     0.00011299   -0.00078199    0.00061882
     atom   88 type  2   force =     0.00000167    0.00001885    0.00087451
     atom   89 type  2   force =     0.00001169    0.00001114   -0.00068833
     atom   90 type  2   force =     0.00060910    0.00027229   -0.00054756
     atom   91 type  1   force =    -0.00017094    0.00026105   -0.00012415
     atom   92 type  1   force =    -0.00004569    0.00000430    0.00179037
     atom   93 type  1   force =    -0.00004339    0.00000156    0.00015119
     atom   94 type  2   force =    -0.00000777   -0.00000189   -0.00274362
     atom   95 type  2   force =    -0.00005448    0.00007928    0.00062504
     atom   96 type  2   force =    -0.00006500   -0.00047002    0.00020330
     atom   97 type  2   force =    -0.00001231    0.00002377    0.00086669
     atom   98 type  2   force =    -0.00002558   -0.00012587   -0.00056044
     atom   99 type  2   force =    -0.00000999   -0.00003003   -0.00074755
     atom  100 type  1   force =     0.00006465    0.00013167   -0.00012767
     atom  101 type  1   force =    -0.00005815    0.00003428    0.00181658
     atom  102 type  1   force =     0.00001674    0.00000491    0.00014309
     atom  103 type  2   force =     0.00000115   -0.00000118   -0.00274977
     atom  104 type  2   force =    -0.00003680   -0.00000687    0.00060262
     atom  105 type  2   force =    -0.00007663   -0.00013902    0.00031515
     atom  106 type  2   force =    -0.00000908    0.00002815    0.00085216
     atom  107 type  2   force =    -0.00005729    0.00004265   -0.00054738
     atom  108 type  2   force =    -0.00013259    0.00008611   -0.00054237
     atom  109 type  1   force =     0.00000245    0.00001242    0.00003913
     atom  110 type  1   force =    -0.00001460    0.00001079    0.00181952
     atom  111 type  1   force =     0.00006977   -0.00001017    0.00001100
     atom  112 type  2   force =    -0.00000881   -0.00000734   -0.00274267
     atom  113 type  2   force =    -0.00001148    0.00001385    0.00060805
     atom  114 type  2   force =     0.00006368   -0.00003501    0.00029158
     atom  115 type  2   force =    -0.00002083    0.00003007    0.00089046
     atom  116 type  2   force =     0.00001884    0.00005366   -0.00059286
     atom  117 type  2   force =    -0.00005780    0.00025705   -0.00060402
     atom  118 type  1   force =    -0.00024999    0.00039980    0.00013589
     atom  119 type  1   force =     0.00004287   -0.00003341    0.00181824
     atom  120 type  1   force =     0.00001456   -0.00005155   -0.00010666
     atom  121 type  2   force =     0.00000190   -0.00001118   -0.00275559
     atom  122 type  2   force =    -0.00000305   -0.00004980    0.00046117
     atom  123 type  2   force =     0.00022041    0.00042917    0.00036585
     atom  124 type  2   force =     0.00000329    0.00000892    0.00088569
     atom  125 type  2   force =     0.00001433   -0.00000114   -0.00060576
     atom  126 type  2   force =    -0.00017825    0.00015822   -0.00021669
     atom  127 type  1   force =    -0.00005769   -0.00033919   -0.00009828
     atom  128 type  1   force =     0.00001264    0.00002760    0.00180959
     atom  129 type  1   force =    -0.00005868    0.00003180    0.00005234
     atom  130 type  2   force =    -0.00000950   -0.00000159   -0.00276242
     atom  131 type  2   force =    -0.00002582    0.00005077    0.00053673
     atom  132 type  2   force =    -0.00014507   -0.00001752    0.00048599
     atom  133 type  2   force =    -0.00000778    0.00001549    0.00090573
     atom  134 type  2   force =    -0.00000767   -0.00001513   -0.00060179
     atom  135 type  2   force =    -0.00037159    0.00006928   -0.00047086
     atom  136 type  1   force =    -0.00020255    0.00013080    0.00004050
     atom  137 type  1   force =     0.00000497    0.00004942    0.00182821
     atom  138 type  1   force =    -0.00003570    0.00009372    0.00010196
     atom  139 type  2   force =    -0.00000973   -0.00000422   -0.00275324
     atom  140 type  2   force =    -0.00005692    0.00000956    0.00064421
     atom  141 type  2   force =     0.00010926    0.00029755    0.00027701
     atom  142 type  2   force =    -0.00001333    0.00002350    0.00086229
     atom  143 type  2   force =    -0.00003417    0.00004968   -0.00054662
     atom  144 type  2   force =    -0.00006936    0.00024769   -0.00052933
[...]
     atom   65 type  1   force =    -0.00004015   -0.00000019   -0.00000696
     atom   66 type  1   force =    -0.00003880   -0.00005107   -0.00008907
     atom   67 type  2   force =    -0.00005423   -0.00002573   -0.00004746
     atom   68 type  2   force =    -0.00000322    0.00002242   -0.00011916
     atom   69 type  2   force =    -0.00005310   -0.00016699    0.00007488
     atom   70 type  2   force =    -0.00005652   -0.00001431    0.00003076
     atom   71 type  2   force =    -0.00004788    0.00000001    0.00012928
     atom   72 type  2   force =    -0.00006589   -0.00009523    0.00012823
     atom   73 type  1   force =    -0.00010027    0.00001629    0.00015074
     atom   74 type  1   force =     0.00003603    0.00015554    0.00000982
     atom   75 type  1   force =     0.00012679    0.00003411   -0.00007209
     atom   76 type  2   force =     0.00000897   -0.00000235   -0.00002313
     atom   77 type  2   force =     0.00001364    0.00002275   -0.00009207
     atom   78 type  2   force =     0.00007129    0.00013078    0.00013209
     atom   79 type  2   force =     0.00000136    0.00000314    0.00004407
     atom   80 type  2   force =     0.00001368    0.00006661    0.00008632
     atom   81 type  2   force =     0.00017850   -0.00010143    0.00007468
     atom   82 type  1   force =    -0.00017749   -0.00005979   -0.00079502
     atom   83 type  1   force =     0.00014303    0.00019716    0.00007130
     atom   84 type  1   force =     0.00023722    0.00007241   -0.00021261
     atom   85 type  2   force =     0.00004150    0.00003913   -0.00003135
     atom   86 type  2   force =     0.00002722    0.00006390   -0.00010701
     atom   87 type  2   force =     0.00009510    0.00005562    0.00005690
     atom   88 type  2   force =     0.00004884    0.00005020    0.00004870
     atom   89 type  2   force =     0.00008949    0.00003541    0.00009638
     atom   90 type  2   force =    -0.00004781   -0.00000616   -0.00001860
     atom   91 type  1   force =     0.00013389   -0.00010415    0.00011609
     atom   92 type  1   force =     0.00021548    0.00005333    0.00009983
     atom   93 type  1   force =     0.00010235    0.00005925   -0.00007872
     atom   94 type  2   force =     0.00004720    0.00001335   -0.00001808
     atom   95 type  2   force =     0.00008072    0.00000308   -0.00013738
     atom   96 type  2   force =     0.00017312   -0.00000730    0.00008967
     atom   97 type  2   force =     0.00006846    0.00003384    0.00003333
     atom   98 type  2   force =     0.00009827    0.00006260    0.00011904
     atom   99 type  2   force =     0.00001938    0.00018027    0.00012657
     atom  100 type  1   force =    -0.00025321   -0.00006979    0.00030444
     atom  101 type  1   force =     0.00019510   -0.00004054    0.00004682
     atom  102 type  1   force =    -0.00006098    0.00006713   -0.00015588
     atom  103 type  2   force =     0.00001168    0.00000859   -0.00001648
     atom  104 type  2   force =     0.00004410    0.00000864   -0.00016889
     atom  105 type  2   force =    -0.00001349    0.00000896    0.00012281
     atom  106 type  2   force =     0.00003823   -0.00000005    0.00005646
     atom  107 type  2   force =     0.00007937   -0.00000346    0.00013601
     atom  108 type  2   force =     0.00002167    0.00003779    0.00012695
     atom  109 type  1   force =    -0.00006773    0.00026590    0.00023020
     atom  110 type  1   force =     0.00000688   -0.00003993    0.00003194
     atom  111 type  1   force =    -0.00022902    0.00004991   -0.00005246
     atom  112 type  2   force =     0.00003978    0.00000572   -0.00001072
     atom  113 type  2   force =    -0.00002372   -0.00003066   -0.00017810
     atom  114 type  2   force =    -0.00006369    0.00007639    0.00005193
     atom  115 type  2   force =     0.00005350   -0.00000866    0.00003076
     atom  116 type  2   force =    -0.00001764   -0.00002416    0.00012848
     atom  117 type  2   force =    -0.00005773    0.00004246    0.00015708
     atom  118 type  1   force =     0.00043383   -0.00033383    0.00034771
     atom  119 type  1   force =    -0.00012868    0.00015341    0.00005275
     atom  120 type  1   force =    -0.00001288    0.00018523   -0.00000874
     atom  121 type  2   force =     0.00000856    0.00004457    0.00003309
     atom  122 type  2   force =    -0.00005811    0.00003490   -0.00009784
     atom  123 type  2   force =    -0.00008370   -0.00009223    0.00011603
     atom  124 type  2   force =     0.00000580    0.00006783    0.00000009
     atom  125 type  2   force =    -0.00007362    0.00004196    0.00010192
     atom  126 type  2   force =     0.00028089   -0.00012677    0.00006212
     atom  127 type  1   force =    -0.00013452    0.00064285    0.00038189
     atom  128 type  1   force =    -0.00002767   -0.00001427    0.00007024
     atom  129 type  1   force =     0.00018586   -0.00008373   -0.00000221
     atom  130 type  2   force =     0.00005569    0.00002968    0.00006382
     atom  131 type  2   force =    -0.00002109   -0.00000921   -0.00002448
     atom  132 type  2   force =    -0.00011728   -0.00000254    0.00011633
     atom  133 type  2   force =     0.00004991    0.00002929   -0.00003279
     atom  134 type  2   force =     0.00001522    0.00002009   -0.00003326
     atom  135 type  2   force =     0.00003751    0.00032788    0.00005500
     atom  136 type  1   force =     0.00031946   -0.00023613    0.00018558
     atom  137 type  1   force =     0.00003153   -0.00015758    0.00006020
     atom  138 type  1   force =     0.00002817   -0.00018761   -0.00007287
     atom  139 type  2   force =     0.00005229    0.00000769    0.00004519
     atom  140 type  2   force =     0.00000124   -0.00004853   -0.00009009
     atom  141 type  2   force =     0.00006396   -0.00010002    0.00003282
     atom  142 type  2   force =     0.00004899   -0.00000757    0.00000445
     atom  143 type  2   force =     0.00001223   -0.00007186    0.00009857
     atom  144 type  2   force =     0.00003694   -0.00007062    0.00018199
     atom  145 type  3   force =    -0.00004644   -0.00002451    0.00007714

     DFT-D3 dispersion contribution to forces:
     atom    1 type  1   force =     0.00008426    0.00004881   -0.00248700
     atom    2 type  1   force =     0.00000014   -0.00000003    0.00261756
     atom    3 type  1   force =    -0.00000176   -0.00000073   -0.00003287
     atom    4 type  2   force =    -0.00000001   -0.00000004    0.00441397
     atom    5 type  2   force =     0.00000099   -0.00000125   -0.00005300
     atom    6 type  2   force =     0.00000375    0.00000370   -0.00019574
     atom    7 type  2   force =     0.00000017    0.00000019    0.00024299
     atom    8 type  2   force =    -0.00000191   -0.00000695    0.00008959
     atom    9 type  2   force =     0.00008861    0.00005027   -0.00438820
     atom   10 type  1   force =     0.00005449   -0.00003150   -0.00259105
     atom   11 type  1   force =     0.00000055    0.00000006    0.00261726
     atom   12 type  1   force =    -0.00000626    0.00000235   -0.00002081
     atom   13 type  2   force =    -0.00000000   -0.00000003    0.00441380
     atom   14 type  2   force =     0.00000085    0.00000006   -0.00005298
     atom   15 type  2   force =    -0.00001127    0.00001421   -0.00020446
     atom   16 type  2   force =     0.00000053    0.00000050    0.00024303
     atom   17 type  2   force =    -0.00000859    0.00000336    0.00009025
     atom   18 type  2   force =     0.00003386    0.00000299   -0.00440985
     atom   19 type  1   force =    -0.00001154   -0.00000818   -0.00265003
     atom   20 type  1   force =     0.00000033    0.00000040    0.00261722
     atom   21 type  1   force =    -0.00000589   -0.00000418   -0.00001187
     atom   22 type  2   force =     0.00000000   -0.00000002    0.00441380
     atom   23 type  2   force =     0.00000095    0.00000054   -0.00005173
     atom   24 type  2   force =     0.00000790    0.00000226   -0.00021904
     atom   25 type  2   force =     0.00000021    0.00000098    0.00024282
     atom   26 type  2   force =    -0.00001729   -0.00000338    0.00010013
     atom   27 type  2   force =     0.00002468    0.00001895   -0.00440760
     atom   28 type  1   force =    -0.00000070    0.00005917   -0.00259159
     atom   29 type  1   force =     0.00000007    0.00000012    0.00261755
     atom   30 type  1   force =    -0.00000073   -0.00000700   -0.00002443
     atom   31 type  2   force =    -0.00000002   -0.00000001    0.00441396
     atom   32 type  2   force =    -0.00000012    0.00000068   -0.00005197
     atom   33 type  2   force =     0.00000512   -0.00001510   -0.00020510
     atom   34 type  2   force =     0.00000000    0.00000034    0.00024297
     atom   35 type  2   force =    -0.00001011   -0.00001282    0.00010110
     atom   36 type  2   force =     0.00001818    0.00002722   -0.00441380
     atom   37 type  1   force =    -0.00005607    0.00006173   -0.00252936
     atom   38 type  1   force =    -0.00000027   -0.00000014    0.00261743
     atom   39 type  1   force =    -0.00000370   -0.00000581   -0.00004379
     atom   40 type  2   force =     0.00000001   -0.00000002    0.00441399
     atom   41 type  2   force =    -0.00000170   -0.00000179   -0.00005464
     atom   42 type  2   force =    -0.00002742   -0.00000768   -0.00016634
     atom   43 type  2   force =     0.00000003    0.00000044    0.00024368
     atom   44 type  2   force =    -0.00000572   -0.00000957    0.00008210
     atom   45 type  2   force =     0.00000066    0.00003785   -0.00436254
     atom   46 type  1   force =     0.00002560   -0.00007506   -0.00253025
     atom   47 type  1   force =    -0.00000020    0.00000005    0.00261771
     atom   48 type  1   force =    -0.00000672   -0.00000058   -0.00004337
     atom   49 type  2   force =     0.00000003   -0.00000001    0.00441399
     atom   50 type  2   force =    -0.00000090   -0.00000078   -0.00005592
     atom   51 type  2   force =    -0.00002485   -0.00002313   -0.00016625
     atom   52 type  2   force =     0.00000019    0.00000077    0.00024313
     atom   53 type  2   force =    -0.00000421   -0.00000183    0.00008194
     atom   54 type  2   force =     0.00003471   -0.00001881   -0.00436340
     atom   55 type  1   force =    -0.00001079   -0.00002985   -0.00262939
     atom   56 type  1   force =     0.00000015    0.00000007    0.00261792
     atom   57 type  1   force =    -0.00000729   -0.00000204   -0.00003509
     atom   58 type  2   force =     0.00000003    0.00000002    0.00441395
     atom   59 type  2   force =    -0.00000062   -0.00000038   -0.00005490
     atom   60 type  2   force =    -0.00002420   -0.00000669   -0.00020463
     atom   61 type  2   force =     0.00000066    0.00000073    0.00024327
     atom   62 type  2   force =    -0.00001262    0.00000059    0.00008252
     atom   63 type  2   force =     0.00003492   -0.00002578   -0.00440553
     atom   64 type  1   force =    -0.00003260    0.00000600   -0.00263001
     atom   65 type  1   force =    -0.00000000   -0.00000021    0.00261773
     atom   66 type  1   force =    -0.00000496   -0.00000558   -0.00003508
     atom   67 type  2   force =     0.00000006    0.00000001    0.00441403
     atom   68 type  2   force =    -0.00000046   -0.00000105   -0.00005379
     atom   69 type  2   force =    -0.00001516   -0.00001861   -0.00020547
     atom   70 type  2   force =     0.00000034    0.00000031    0.00024301
     atom   71 type  2   force =    -0.00001151   -0.00000479    0.00008602
     atom   72 type  2   force =    -0.00000720    0.00004236   -0.00440584
     atom   73 type  1   force =    -0.00005619    0.00001675   -0.00260428
     atom   74 type  1   force =    -0.00000015   -0.00000053    0.00261681
     atom   75 type  1   force =     0.00000396    0.00000181   -0.00004101
     atom   76 type  2   force =     0.00000001   -0.00000005    0.00441396
     atom   77 type  2   force =     0.00000024   -0.00000138   -0.00005440
     atom   78 type  2   force =     0.00002006   -0.00002468   -0.00022162
     atom   79 type  2   force =    -0.00000023   -0.00000020    0.00024280
     atom   80 type  2   force =    -0.00000119    0.00000933    0.00009076
     atom   81 type  2   force =    -0.00016697    0.00010750   -0.00435703
     atom   82 type  1   force =    -0.00010486   -0.00005935   -0.00249316
     atom   83 type  1   force =    -0.00000054   -0.00000001    0.00261679
     atom   84 type  1   force =     0.00000699    0.00000380   -0.00004462
     atom   85 type  2   force =    -0.00000002   -0.00000002    0.00441393
     atom   86 type  2   force =    -0.00000055    0.00000022   -0.00005322
     atom   87 type  2   force =     0.00000181   -0.00000419   -0.00009010
     atom   88 type  2   force =    -0.00000042    0.00000062    0.00024315
     atom   89 type  2   force =     0.00001037    0.00001199    0.00009021
     atom   90 type  2   force =     0.00008700    0.00005080   -0.00457742
     atom   91 type  1   force =    -0.00001236   -0.00005581   -0.00260409
     atom   92 type  1   force =    -0.00000038    0.00000016    0.00261758
     atom   93 type  1   force =     0.00000312    0.00000200   -0.00004445
     atom   94 type  2   force =    -0.00000001    0.00000000    0.00441402
     atom   95 type  2   force =     0.00000012    0.00000031   -0.00005356
     atom   96 type  2   force =    -0.00001247    0.00002680   -0.00022118
     atom   97 type  2   force =    -0.00000028    0.00000070    0.00024298
     atom   98 type  2   force =     0.00001484    0.00000308    0.00009094
     atom   99 type  2   force =     0.00001024   -0.00020169   -0.00436024
     atom  100 type  1   force =     0.00000751    0.00000593   -0.00265356
     atom  101 type  1   force =    -0.00000010   -0.00000029    0.00261764
     atom  102 type  1   force =    -0.00000113   -0.00000053   -0.00004352
     atom  103 type  2   force =    -0.00000000   -0.00000001    0.00441406
     atom  104 type  2   force =     0.00000034   -0.00000096   -0.00005464
     atom  105 type  2   force =     0.00000100   -0.00000015   -0.00021071
     atom  106 type  2   force =    -0.00000001    0.00000004    0.00024281
     atom  107 type  2   force =     0.00000458   -0.00000171    0.00009071
     atom  108 type  2   force =    -0.00000640   -0.00000630   -0.00441229
     atom  109 type  1   force =     0.00002698    0.00000576   -0.00264099
     atom  110 type  1   force =     0.00000032   -0.00000040    0.00261693
     atom  111 type  1   force =     0.00000223    0.00000696   -0.00003082
     atom  112 type  2   force =    -0.00000002   -0.00000006    0.00441391
     atom  113 type  2   force =     0.00000112   -0.00000097   -0.00005331
     atom  114 type  2   force =     0.00001863    0.00001063   -0.00021646
     atom  115 type  2   force =    -0.00000019   -0.00000045    0.00024300
     atom  116 type  2   force =     0.00000326    0.00000483    0.00009376
     atom  117 type  2   force =     0.00001182   -0.00001095   -0.00440600
     atom  118 type  1   force =     0.00005999    0.00001061   -0.00265379
     atom  119 type  1   force =     0.00000018    0.00000009    0.00261631
     atom  120 type  1   force =     0.00000655    0.00000759   -0.00001947
     atom  121 type  2   force =     0.00000002   -0.00000003    0.00441374
     atom  122 type  2   force =     0.00000063    0.00000005   -0.00005206
     atom  123 type  2   force =     0.00004772    0.00001184   -0.00024180
     atom  124 type  2   force =    -0.00000038    0.00000027    0.00024297
     atom  125 type  2   force =     0.00000327    0.00001192    0.00009204
     atom  126 type  2   force =    -0.00013367   -0.00003706   -0.00436279
     atom  127 type  1   force =     0.00004084    0.00004415   -0.00265430
     atom  128 type  1   force =    -0.00000004    0.00000048    0.00261699
     atom  129 type  1   force =     0.00001032    0.00000114   -0.00002328
     atom  130 type  2   force =    -0.00000001    0.00000001    0.00441385
     atom  131 type  2   force =    -0.00000034    0.00000113   -0.00004977
     atom  132 type  2   force =     0.00003187    0.00003278   -0.00024179
     atom  133 type  2   force =    -0.00000065    0.00000068    0.00024319
     atom  134 type  2   force =     0.00001360    0.00000604    0.00009602
     atom  135 type  2   force =    -0.00010138   -0.00009421   -0.00436632
     atom  136 type  1   force =     0.00001846    0.00001774   -0.00264128
     atom  137 type  1   force =     0.00000000    0.00000001    0.00261748
     atom  138 type  1   force =     0.00000691   -0.00000126   -0.00003407
     atom  139 type  2   force =     0.00000003   -0.00000002    0.00441400
     atom  140 type  2   force =     0.00000064   -0.00000049   -0.00005224
     atom  141 type  2   force =     0.00001765    0.00001216   -0.00021639
     atom  142 type  2   force =    -0.00000049    0.00000014    0.00024290
     atom  143 type  2   force =     0.00001212   -0.00000117    0.00009179
     atom  144 type  2   force =    -0.00000276    0.00001366   -0.00440722
     atom  145 type  3   force =     0.00000922    0.00000567   -0.00124051

     Total force =     0.014616     Total SCF correction =     0.002579
     SCF correction compared to forces is large: reduce conv_thr to get better values

     Writing all to output data dir ./outdir/pwscf.save/
 
     init_run     :     98.82s CPU    100.84s WALL (       1 calls)
     electrons    :  13750.24s CPU  13874.16s WALL (       1 calls)
     forces       :     62.36s CPU     64.12s WALL (       1 calls)
     force_dftd3  :      0.43s CPU      0.46s WALL (       1 calls)

     Called by init_run:
     wfcinit      :     81.40s CPU     82.56s WALL (       1 calls)
     potinit      :      1.77s CPU      1.80s WALL (       1 calls)
     hinit0       :     10.97s CPU     11.00s WALL (       1 calls)

     Called by electrons:
     c_bands      :  12598.76s CPU  12667.16s WALL (      32 calls)
     sum_band     :   1066.58s CPU   1097.65s WALL (      32 calls)
     v_of_rho     :     12.77s CPU     12.87s WALL (      32 calls)
     newd         :     48.24s CPU     72.96s WALL (      32 calls)
     PAW_pot      :     17.81s CPU     17.82s WALL (      32 calls)
     mix_rho      :      3.68s CPU      3.70s WALL (      32 calls)
     energy_dftd3 :      0.20s CPU      0.20s WALL (       1 calls)

     Called by c_bands:
     init_us_2    :     46.95s CPU     47.08s WALL (     264 calls)
     init_us_2:cp :     46.95s CPU     47.08s WALL (     264 calls)
     cegterg      :  12430.81s CPU  12498.95s WALL (     140 calls)

     Called by *egterg:
     cdiaghg      :    662.25s CPU    664.14s WALL (    1543 calls)
     h_psi        :   6727.54s CPU   6748.87s WALL (    1551 calls)
     s_psi        :   1298.34s CPU   1298.49s WALL (    1551 calls)
     g_psi        :     16.37s CPU     16.40s WALL (    1407 calls)

     Called by h_psi:
     h_psi:calbec :   1297.82s CPU   1298.10s WALL (    1551 calls)
     vloc_psi     :   4100.03s CPU   4109.55s WALL (    1551 calls)
     add_vuspsi   :   1309.17s CPU   1309.28s WALL (    1551 calls)

     General routines
     calbec       :   1636.36s CPU   1636.70s WALL (    1695 calls)
     fft          :     11.55s CPU     11.75s WALL (     426 calls)
     ffts         :      0.55s CPU      0.57s WALL (      64 calls)
     fftw         :   3122.99s CPU   3128.51s WALL (  876968 calls)
     interpolate  :      1.27s CPU      1.28s WALL (      32 calls)
 
     Parallel routines
 
     PWSCF        :      3h51m CPU      3h54m WALL

 
   This run was terminated on:   2: 2:17  18Aug2023            

=------------------------------------------------------------------------------=
   JOB DONE.
=------------------------------------------------------------------------------=
Application 11052204 resources: utime ~501344s, stime ~4683s, Rss ~2370912, inblocks ~0, outblocks ~30837944
