
     Program PWSCF v.7.3 starts on 18Apr2024 at  6:45:35 

     This program is part of the open-source Quantum ESPRESSO suite
     for quantum simulation of materials; please cite
         "P. Giannozzi et al., J. Phys.:Condens. Matter 21 395502 (2009);
         "P. Giannozzi et al., J. Phys.:Condens. Matter 29 465901 (2017);
         "P. Giannozzi et al., J. Chem. Phys. 152 154105 (2020);
          URL http://www.quantum-espresso.org", 
     in publications or presentations arising from this work. More details at
     http://www.quantum-espresso.org/quote

     Parallel version (MPI & OpenMP), running on      36 processor cores
     Number of MPI processes:                36
     Threads/MPI process:                     1

     MPI processes distributed on     1 nodes
     547762 MiB available memory on the printing compute node when the environment starts
 
     Waiting for input...
     Reading input from standard input
Warning: card &CELL ignored
Warning: card / ignored

     Current dimensions of program PWSCF are:
     Max number of different atomic species (ntypx) = 10
     Max number of k-points (npk) =  40000
     Max angular momentum in pseudopotentials (lmaxx) =  4
     file Mo.pbe-spn-kjpaw_psl.1.0.0.UPF: wavefunction(s)  4S 4D renormalized
     file S.pbe-n-kjpaw_psl.1.0.0.UPF: wavefunction(s)  3S 3P renormalized
     file Pt.pbe-spfn-kjpaw_psl.1.0.0.UPF: wavefunction(s)  5P 4F renormalized
     file Pd.pbe-spn-kjpaw_psl.1.0.0.UPF: wavefunction(s)  4S 5S 4D renormalized
 
     R & G space division:  proc/nbgrp/npool/nimage =      36
     Subspace diagonalization in iterative solution of the eigenvalue problem:
     one sub-group per band group will be used
     scalapack distributed-memory algorithm (size of sub-group:  6*  6 procs)

 
     Parallelization info
     --------------------
     sticks:   dense  smooth     PW     G-vecs:    dense   smooth      PW
     Min         586     335     89               165416    71459    9765
     Max         587     337     90               165425    71461    9778
     Sum       21109   12085   3205              5955087  2572543  351657
 
     Using Slab Decomposition
 


     bravais-lattice index     =            0
     lattice parameter (alat)  =      23.8395  a.u.
     unit-cell volume          =   28182.8498 (a.u.)^3
     number of atoms/cell      =          147
     number of atomic types    =            4
     number of electrons       =      1330.00
     number of Kohn-Sham states=          798
     kinetic-energy cutoff     =      77.0000  Ry
     charge density cutoff     =     539.0000  Ry
     scf convergence threshold =      1.0E-06
     mixing beta               =       0.2000
     number of iterations used =            8  plain     mixing
     energy convergence thresh.=      1.0E-04
     force convergence thresh. =      1.0E-03
     Exchange-correlation= SLA  PW   PBX  PBC
                           (   1   4   3   4   0   0   0)
     nstep                     =         1000


     Effective Screening Medium Method
     =================================
     Boundary Conditions: Vacuum-Slab-Vacuum
     total charge in unit cell        =   0.0000
     grid points for fit at edges     =        4 
 

     celldm(1)=  23.839504  celldm(2)=   0.000000  celldm(3)=   0.000000
     celldm(4)=   0.000000  celldm(5)=   0.000000  celldm(6)=   0.000000

     crystal axes: (cart. coord. in units of alat)
               a(1) = (   1.000000   0.000000   0.000000 )  
               a(2) = (  -0.500001   0.866026   0.000000 )  
               a(3) = (   0.000000   0.000000   2.401941 )  

     reciprocal axes: (cart. coord. in units 2 pi/alat)
               b(1) = (  1.000000  0.577351  0.000000 )  
               b(2) = (  0.000000  1.154700  0.000000 )  
               b(3) = (  0.000000  0.000000  0.416330 )  


     PseudoPot. # 1 for Mo read from file:
     ./pseudo/Mo.pbe-spn-kjpaw_psl.1.0.0.UPF
     MD5 check sum: 317bf72632116215fd98f72de1686f13
     Pseudo is Projector augmented-wave + core cor, Zval = 14.0
     Generated using 'atomic' code by A. Dal Corso  v.7.2
     Shape of augmentation charge: PSQ
     Using radial grid of 1229 points,  6 beta functions with: 
                l(1) =   0
                l(2) =   0
                l(3) =   1
                l(4) =   1
                l(5) =   2
                l(6) =   2
     Q(r) pseudized with 0 coefficients 


     PseudoPot. # 2 for S  read from file:
     ./pseudo/S.pbe-n-kjpaw_psl.1.0.0.UPF
     MD5 check sum: 8b7b5302570d38d5e87fed6a1065abda
     Pseudo is Projector augmented-wave + core cor, Zval =  6.0
     Generated using 'atomic' code by A. Dal Corso  v.7.2
     Shape of augmentation charge: PSQ
     Using radial grid of 1151 points,  6 beta functions with: 
                l(1) =   0
                l(2) =   0
                l(3) =   1
                l(4) =   1
                l(5) =   2
                l(6) =   2
     Q(r) pseudized with 0 coefficients 


     PseudoPot. # 3 for Pt read from file:
     ./pseudo/Pt.pbe-spfn-kjpaw_psl.1.0.0.UPF
     MD5 check sum: 620096ebf4e6ebacc94de60fd67efcb5
     Pseudo is Projector augmented-wave + core cor, Zval = 32.0
     Generated using 'atomic' code by A. Dal Corso  v.7.2
     Shape of augmentation charge: PSQ
     Using radial grid of 1277 points,  8 beta functions with: 
                l(1) =   0
                l(2) =   0
                l(3) =   1
                l(4) =   1
                l(5) =   2
                l(6) =   2
                l(7) =   3
                l(8) =   3
     Q(r) pseudized with 0 coefficients 


     PseudoPot. # 4 for Pd read from file:
     ./pseudo/Pd.pbe-spn-kjpaw_psl.1.0.0.UPF
     MD5 check sum: a60571a671f2502b8a6a4569d20a6edb
     Pseudo is Projector augmented-wave + core cor, Zval = 18.0
     Generated using 'atomic' code by A. Dal Corso  v.7.2
     Shape of augmentation charge: PSQ
     Using radial grid of 1235 points,  6 beta functions with: 
                l(1) =   0
                l(2) =   0
                l(3) =   1
                l(4) =   1
                l(5) =   2
                l(6) =   2
     Q(r) pseudized with 0 coefficients 


     atomic species   valence    mass     pseudopotential
     Mo               14.00    95.95000     Mo( 1.00)
     S                 6.00    32.06000     S ( 1.00)
     Pt               32.00   195.08400     Pt( 1.00)
     Pd               18.00   106.42000     Pd( 1.00)

     No symmetry found



   Cartesian axes

     site n.     atom                  positions (alat units)
         1        Mo     tau(   1) = (   0.1246074   0.2157200   0.4826345  )
         2        Mo     tau(   2) = (   0.1250004   0.0721694  -0.4825273  )
         3        Mo     tau(   3) = (   0.0000068   0.1443549  -0.0000406  )
         4        S      tau(   4) = (   0.0000004   0.0000006  -0.6064556  )
         5        S      tau(   5) = (   0.1249873   0.0722031  -0.1241756  )
         6        S      tau(   6) = (   0.0000973   0.1450650   0.3573519  )
         7        S      tau(   7) = (   0.0000004   0.0000005  -0.3584711  )
         8        S      tau(   8) = (   0.1249847   0.0720950   0.1240801  )
         9        S      tau(   9) = (  -0.0005301   0.1434694   0.6062599  )
        10        Mo     tau(  10) = (  -0.0009156   0.4330317   0.4832560  )
        11        Mo     tau(  11) = (   0.0000001   0.2886759  -0.4825273  )
        12        Mo     tau(  12) = (  -0.1249829   0.3608507   0.0000027  )
        13        S      tau(  13) = (  -0.1249999   0.2165071  -0.6064556  )
        14        S      tau(  14) = (   0.0000128   0.2886930  -0.1241006  )
        15        S      tau(  15) = (  -0.1248837   0.3612581   0.3580377  )
        16        S      tau(  16) = (  -0.1249998   0.2165070  -0.3584711  )
        17        S      tau(  17) = (   0.0000764   0.2887257   0.1242499  )
        18        S      tau(  18) = (  -0.1253220   0.3603286   0.6073134  )
        19        Mo     tau(  19) = (  -0.1249684   0.6493789   0.4818062  )
        20        Mo     tau(  20) = (  -0.1250002   0.5051824  -0.4825273  )
        21        Mo     tau(  21) = (  -0.2500040   0.5773207  -0.0001409  )
        22        S      tau(  22) = (  -0.2500002   0.4330136  -0.6064556  )
        23        S      tau(  23) = (  -0.1249903   0.5051158  -0.1241917  )
        24        S      tau(  24) = (  -0.2499555   0.5769406   0.3578597  )
        25        S      tau(  25) = (  -0.2500001   0.4330135  -0.3584711  )
        26        S      tau(  26) = (  -0.1249930   0.5052458   0.1241101  )
        27        S      tau(  27) = (  -0.2497899   0.5778453   0.6063597  )
        28        Mo     tau(  28) = (   0.2497834  -0.0005160   0.4806710  )
        29        Mo     tau(  29) = (  -0.2500004   0.7216889  -0.4825273  )
        30        Mo     tau(  30) = (  -0.3750188   0.7938286  -0.0001549  )
        31        S      tau(  31) = (  -0.3750004   0.6495201  -0.6064556  )
        32        S      tau(  32) = (  -0.2500074   0.7216649  -0.1242513  )
        33        S      tau(  33) = (  -0.3752234   0.7935039   0.3566636  )
        34        S      tau(  34) = (  -0.3750004   0.6495200  -0.3584711  )
        35        S      tau(  35) = (  -0.2499996   0.7216607   0.1240200  )
        36        S      tau(  36) = (  -0.3746819   0.7948899   0.6057341  )
        37        Mo     tau(  37) = (   0.3750034   0.2123618   0.4807886  )
        38        Mo     tau(  38) = (   0.3750004   0.0721694  -0.4825273  )
        39        Mo     tau(  39) = (   0.2499981   0.1443415  -0.0000413  )
        40        S      tau(  40) = (   0.2500004   0.0000006  -0.6064556  )
        41        S      tau(  41) = (   0.3750280   0.0722231  -0.1241519  )
        42        S      tau(  42) = (   0.2489233   0.1437373   0.3564531  )
        43        S      tau(  43) = (   0.2500004   0.0000005  -0.3584711  )
        44        S      tau(  44) = (   0.3749877   0.0720947   0.1241383  )
        45        S      tau(  45) = (   0.2497122   0.1423104   0.6055821  )
        46        Mo     tau(  46) = (   0.2490774   0.4329018   0.4862977  )
        47        Mo     tau(  47) = (   0.2500001   0.2886759  -0.4825273  )
        48        Mo     tau(  48) = (   0.1250319   0.3608540  -0.0000126  )
        49        S      tau(  49) = (   0.1250001   0.2165071  -0.6064556  )
        50        S      tau(  50) = (   0.2500259   0.2886851  -0.1240979  )
        51        S      tau(  51) = (   0.1263042   0.3620125   0.3614359  )
        52        S      tau(  52) = (   0.1250002   0.2165070  -0.3584711  )
        53        S      tau(  53) = (   0.2500168   0.2886898   0.1242904  )
        54        S      tau(  54) = (   0.1173694   0.3566575   0.6132890  )
        55        Mo     tau(  55) = (   0.1240062   0.6506471   0.4823696  )
        56        Mo     tau(  56) = (   0.1249998   0.5051824  -0.4825273  )
        57        Mo     tau(  57) = (   0.0000191   0.5773226  -0.0001255  )
        58        S      tau(  58) = (  -0.0000002   0.4330136  -0.6064556  )
        59        S      tau(  59) = (   0.1250359   0.5051398  -0.1241676  )
        60        S      tau(  60) = (   0.0000697   0.5768181   0.3580317  )
        61        S      tau(  61) = (  -0.0000001   0.4330135  -0.3584711  )
        62        S      tau(  62) = (   0.1250059   0.5052001   0.1242069  )
        63        S      tau(  63) = (  -0.0003304   0.5778980   0.6066479  )
        64        Mo     tau(  64) = (   0.5003257  -0.0004925   0.4803774  )
        65        Mo     tau(  65) = (  -0.0000004   0.7216889  -0.4825273  )
        66        Mo     tau(  66) = (  -0.1249927   0.7938427  -0.0001655  )
        67        S      tau(  67) = (  -0.1250004   0.6495201  -0.6064556  )
        68        S      tau(  68) = (   0.0000418   0.7216760  -0.1242215  )
        69        S      tau(  69) = (  -0.1250504   0.7929751   0.3566577  )
        70        S      tau(  70) = (  -0.1250004   0.6495200  -0.3584711  )
        71        S      tau(  71) = (  -0.0000163   0.7216479   0.1240623  )
        72        S      tau(  72) = (  -0.1248984   0.7939509   0.6051552  )
        73        Mo     tau(  73) = (   0.6254010   0.2160480   0.4824065  )
        74        Mo     tau(  74) = (   0.6250004   0.0721694  -0.4825273  )
        75        Mo     tau(  75) = (   0.5000167   0.1443371   0.0000092  )
        76        S      tau(  76) = (   0.5000004   0.0000006  -0.6064556  )
        77        S      tau(  77) = (   0.6250207   0.0721868  -0.1241145  )
        78        S      tau(  78) = (   0.5010641   0.1438734   0.3562763  )
        79        S      tau(  79) = (   0.5000004   0.0000005  -0.3584711  )
        80        S      tau(  80) = (   0.6250414   0.0720927   0.1241409  )
        81        S      tau(  81) = (   0.5005473   0.1420509   0.6053992  )
        82        Mo     tau(  82) = (   0.5016373   0.4329758   0.4857863  )
        83        Mo     tau(  83) = (   0.5000001   0.2886759  -0.4825273  )
        84        Mo     tau(  84) = (   0.3750027   0.3608467   0.0000234  )
        85        S      tau(  85) = (   0.3750001   0.2165071  -0.6064556  )
        86        S      tau(  86) = (   0.5000046   0.2886693  -0.1240592  )
        87        S      tau(  87) = (   0.3745963   0.3620572   0.3631324  )
        88        S      tau(  88) = (   0.3750002   0.2165070  -0.3584711  )
        89        S      tau(  89) = (   0.4999634   0.2887051   0.1243131  )
        90        S      tau(  90) = (   0.3781068   0.3490112   0.6089630  )
        91        Mo     tau(  91) = (   0.3753335   0.6518408   0.4830502  )
        92        Mo     tau(  92) = (   0.3749998   0.5051824  -0.4825273  )
        93        Mo     tau(  93) = (   0.2500203   0.5772987  -0.0000555  )
        94        S      tau(  94) = (   0.2499998   0.4330136  -0.6064556  )
        95        S      tau(  95) = (   0.3750008   0.5051221  -0.1241383  )
        96        S      tau(  96) = (   0.2501878   0.5758780   0.3616377  )
        97        S      tau(  97) = (   0.2499999   0.4330135  -0.3584711  )
        98        S      tau(  98) = (   0.3750015   0.5051839   0.1242620  )
        99        S      tau(  99) = (   0.2495016   0.5878580   0.6113208  )
       100        Mo     tau( 100) = (   0.7500199   0.0003818   0.4811571  )
       101        Mo     tau( 101) = (   0.2499996   0.7216889  -0.4825273  )
       102        Mo     tau( 102) = (   0.1250316   0.7938162  -0.0000875  )
       103        S      tau( 103) = (   0.1249996   0.6495201  -0.6064556  )
       104        S      tau( 104) = (   0.2500359   0.7216507  -0.1241461  )
       105        S      tau( 105) = (   0.1254554   0.7934228   0.3566219  )
       106        S      tau( 106) = (   0.1249996   0.6495200  -0.3584711  )
       107        S      tau( 107) = (   0.2500086   0.7215741   0.1241838  )
       108        S      tau( 108) = (   0.1244907   0.7952297   0.6057917  )
       109        Mo     tau( 109) = (  -0.1249741   0.2166510   0.4819241  )
       110        Mo     tau( 110) = (   0.8750004   0.0721694  -0.4825273  )
       111        Mo     tau( 111) = (   0.7500133   0.1443436  -0.0000073  )
       112        S      tau( 112) = (   0.7500004   0.0000006  -0.6064556  )
       113        S      tau( 113) = (   0.8749956   0.0721731  -0.1241058  )
       114        S      tau( 114) = (   0.7500203   0.1449522   0.3574598  )
       115        S      tau( 115) = (   0.7500004   0.0000005  -0.3584711  )
       116        S      tau( 116) = (   0.8750238   0.0721604   0.1241841  )
       117        S      tau( 117) = (   0.7504201   0.1437382   0.6062629  )
       118        Mo     tau( 118) = (  -0.2493495   0.4328575   0.4828262  )
       119        Mo     tau( 119) = (   0.7500001   0.2886759  -0.4825273  )
       120        Mo     tau( 120) = (   0.6249856   0.3608477   0.0000279  )
       121        S      tau( 121) = (   0.6250001   0.2165071  -0.6064556  )
       122        S      tau( 122) = (   0.7499958   0.2886820  -0.1240679  )
       123        S      tau( 123) = (   0.6241512   0.3616755   0.3603414  )
       124        S      tau( 124) = (   0.6250002   0.2165070  -0.3584711  )
       125        S      tau( 125) = (   0.7499862   0.2887159   0.1242658  )
       126        S      tau( 126) = (   0.6305969   0.3581080   0.6112211  )
       127        Mo     tau( 127) = (  -0.3742668   0.6505223   0.4820597  )
       128        Mo     tau( 128) = (   0.6249998   0.5051824  -0.4825273  )
       129        Mo     tau( 129) = (   0.4999851   0.5773046  -0.0000631  )
       130        S      tau( 130) = (   0.4999998   0.4330136  -0.6064556  )
       131        S      tau( 131) = (   0.6249723   0.5051139  -0.1241565  )
       132        S      tau( 132) = (   0.4998783   0.5762956   0.3606843  )
       133        S      tau( 133) = (   0.4999999   0.4330135  -0.3584711  )
       134        S      tau( 134) = (   0.6250095   0.5052263   0.1241915  )
       135        S      tau( 135) = (   0.5006407   0.5846211   0.6091832  )
       136        Mo     tau( 136) = (   0.0000410   0.0004185   0.4809769  )
       137        Mo     tau( 137) = (   0.4999996   0.7216889  -0.4825273  )
       138        Mo     tau( 138) = (   0.3750036   0.7938273  -0.0000272  )
       139        S      tau( 139) = (   0.3749996   0.6495201  -0.6064556  )
       140        S      tau( 140) = (   0.4999499   0.7216482  -0.1241729  )
       141        S      tau( 141) = (   0.3750006   0.7941054   0.3569117  )
       142        S      tau( 142) = (   0.3749996   0.6495200  -0.3584711  )
       143        S      tau( 143) = (   0.5000314   0.7216102   0.1241515  )
       144        S      tau( 144) = (   0.3752329   0.7966920   0.6062052  )
       145        Pt     tau( 145) = (   0.2580795   0.4348292   0.7095693  )
       146        Pd     tau( 146) = (   0.4899479   0.4358638   0.7204770  )
       147        Pt     tau( 147) = (   0.4899597   0.4358985   0.9107179  )

     --------------------------------------------
     DFT-D3 Dispersion Correction (3-body terms):
     --------------------------------------------
       Reference C6 values for interpolation: 

         atom   Coordination number   C6
         S          0.000           268.01
         S          0.995           261.99
         S          1.990           251.62
         Mo         0.000          1691.79
         Mo         1.942          1004.01
         Mo        11.056           674.22
         Pd         0.000          1217.01
         Pd         1.863           573.90
         Pd         5.710           531.75
         Pt         0.000           782.29
         Pt         1.919           692.72
         Pt         6.667           673.75

       Values used:

         atom   Coordination number  R0_AB[au]  C6      C8
         Mo        10.200            3.547    674.22  77634.20
         Mo        10.189            3.547    674.22  77634.20
         Mo        10.200            3.547    674.22  77634.20
         S          3.753            3.128    251.62  12327.25
         S          3.858            3.128    251.62  12327.25
         S          3.854            3.128    251.62  12327.25
         S          3.858            3.128    251.62  12327.25
         S          3.864            3.128    251.62  12327.25
         S          3.814            3.128    251.62  12327.25
         Mo        10.207            3.547    674.22  77634.20
         Mo        10.189            3.547    674.22  77634.20
         Mo        10.201            3.547    674.22  77634.20
         S          3.753            3.128    251.62  12327.25
         S          3.859            3.128    251.62  12327.25
         S          3.853            3.128    251.62  12327.25
         S          3.858            3.128    251.62  12327.25
         S          3.855            3.128    251.62  12327.25
         S          3.817            3.128    251.62  12327.25
         Mo        10.231            3.547    674.22  77634.20
         Mo        10.189            3.547    674.22  77634.20
         Mo        10.201            3.547    674.22  77634.20
         S          3.753            3.128    251.62  12327.25
         S          3.858            3.128    251.62  12327.25
         S          3.865            3.128    251.62  12327.25
         S          3.859            3.128    251.62  12327.25
         S          3.860            3.128    251.62  12327.25
         S          3.762            3.128    251.62  12327.25
         Mo        10.258            3.547    674.22  77634.20
         Mo        10.189            3.547    674.22  77634.20
         Mo        10.200            3.547    674.22  77634.20
         S          3.753            3.128    251.62  12327.25
         S          3.857            3.128    251.62  12327.25
         S          3.856            3.128    251.62  12327.25
         S          3.859            3.128    251.62  12327.25
         S          3.864            3.128    251.62  12327.25
         S          3.803            3.128    251.62  12327.25
         Mo        10.158            3.547    674.22  77634.20
         Mo        10.189            3.547    674.22  77634.20
         Mo        10.200            3.547    674.22  77634.20
         S          3.753            3.128    251.62  12327.25
         S          3.858            3.128    251.62  12327.25
         S          3.842            3.128    251.62  12327.25
         S          3.859            3.128    251.62  12327.25
         S          3.863            3.128    251.62  12327.25
         S          3.812            3.128    251.62  12327.25
         Mo        10.847            3.547    674.22  77634.20
         Mo        10.189            3.547    674.22  77634.20
         Mo        10.202            3.547    674.22  77634.20
         S          3.753            3.128    251.62  12327.25
         S          3.859            3.128    251.62  12327.25
         S          3.851            3.128    251.62  12327.25
         S          3.858            3.128    251.62  12327.25
         S          3.851            3.128    251.62  12327.25
         S          4.635            3.128    251.62  12327.25
         Mo        10.195            3.547    674.22  77634.20
         Mo        10.189            3.547    674.22  77634.20
         Mo        10.201            3.547    674.22  77634.20
         S          3.753            3.128    251.62  12327.25
         S          3.859            3.128    251.62  12327.25
         S          3.864            3.128    251.62  12327.25
         S          3.859            3.128    251.62  12327.25
         S          3.853            3.128    251.62  12327.25
         S          3.758            3.128    251.62  12327.25
         Mo        10.259            3.547    674.22  77634.20
         Mo        10.189            3.547    674.22  77634.20
         Mo        10.200            3.547    674.22  77634.20
         S          3.753            3.128    251.62  12327.25
         S          3.858            3.128    251.62  12327.25
         S          3.858            3.128    251.62  12327.25
         S          3.859            3.128    251.62  12327.25
         S          3.863            3.128    251.62  12327.25
         S          3.783            3.128    251.62  12327.25
         Mo        10.209            3.547    674.22  77634.20
         Mo        10.189            3.547    674.22  77634.20
         Mo        10.200            3.547    674.22  77634.20
         S          3.753            3.128    251.62  12327.25
         S          3.859            3.128    251.62  12327.25
         S          3.839            3.128    251.62  12327.25
         S          3.859            3.128    251.62  12327.25
         S          3.863            3.128    251.62  12327.25
         S          3.836            3.128    251.62  12327.25
         Mo        10.709            3.547    674.22  77634.20
         Mo        10.189            3.547    674.22  77634.20
         Mo        10.202            3.547    674.22  77634.20
         S          3.753            3.128    251.62  12327.25
         S          3.859            3.128    251.62  12327.25
         S          3.873            3.128    251.62  12327.25
         S          3.858            3.128    251.62  12327.25
         S          3.851            3.128    251.62  12327.25
         S          5.642            3.128    251.62  12327.25
         Mo        10.151            3.547    674.22  77634.20
         Mo        10.189            3.547    674.22  77634.20
         Mo        10.203            3.547    674.22  77634.20
         S          3.753            3.128    251.62  12327.25
         S          3.859            3.128    251.62  12327.25
         S          3.861            3.128    251.62  12327.25
         S          3.859            3.128    251.62  12327.25
         S          3.849            3.128    251.62  12327.25
         S          4.667            3.128    251.62  12327.25
         Mo        10.241            3.547    674.22  77634.20
         Mo        10.189            3.547    674.22  77634.20
         Mo        10.200            3.547    674.22  77634.20
         S          3.753            3.128    251.62  12327.25
         S          3.858            3.128    251.62  12327.25
         S          3.852            3.128    251.62  12327.25
         S          3.859            3.128    251.62  12327.25
         S          3.858            3.128    251.62  12327.25
         S          3.820            3.128    251.62  12327.25
         Mo        10.231            3.547    674.22  77634.20
         Mo        10.189            3.547    674.22  77634.20
         Mo        10.200            3.547    674.22  77634.20
         S          3.753            3.128    251.62  12327.25
         S          3.858            3.128    251.62  12327.25
         S          3.857            3.128    251.62  12327.25
         S          3.858            3.128    251.62  12327.25
         S          3.861            3.128    251.62  12327.25
         S          3.803            3.128    251.62  12327.25
         Mo        10.222            3.547    674.22  77634.20
         Mo        10.189            3.547    674.22  77634.20
         Mo        10.201            3.547    674.22  77634.20
         S          3.753            3.128    251.62  12327.25
         S          3.859            3.128    251.62  12327.25
         S          3.849            3.128    251.62  12327.25
         S          3.858            3.128    251.62  12327.25
         S          3.855            3.128    251.62  12327.25
         S          4.621            3.128    251.62  12327.25
         Mo        10.207            3.547    674.22  77634.20
         Mo        10.189            3.547    674.22  77634.20
         Mo        10.202            3.547    674.22  77634.20
         S          3.753            3.128    251.62  12327.25
         S          3.858            3.128    251.62  12327.25
         S          3.862            3.128    251.62  12327.25
         S          3.858            3.128    251.62  12327.25
         S          3.855            3.128    251.62  12327.25
         S          4.667            3.128    251.62  12327.25
         Mo        10.248            3.547    674.22  77634.20
         Mo        10.189            3.547    674.22  77634.20
         Mo        10.201            3.547    674.22  77634.20
         S          3.753            3.128    251.62  12327.25
         S          3.858            3.128    251.62  12327.25
         S          3.844            3.128    251.62  12327.25
         S          3.859            3.128    251.62  12327.25
         S          3.859            3.128    251.62  12327.25
         S          3.836            3.128    251.62  12327.25
         Pt         4.479            3.168    673.76  70063.50
         Pd         5.089            3.168    531.75  48720.73
         Pt         1.025            3.168    715.57  74410.93

         Molecular C6 ( Ry / a.u.^6 ) =   8081956.98


     number of k points=     4  Gaussian smearing, width (Ry)=  0.0100
                       cart. coord. in units 2pi/alat
        k(    1) = (   0.0000000   0.0000000   0.0000000), wk =   0.5000000
        k(    2) = (   0.0000000  -0.5773499   0.0000000), wk =   0.5000000
        k(    3) = (  -0.5000000  -0.2886755   0.0000000), wk =   0.5000000
        k(    4) = (  -0.5000000  -0.8660254   0.0000000), wk =   0.5000000

     Dense  grid:  5955087 G-vectors     FFT dimensions: ( 180, 180, 432)

     Smooth grid:  2572543 G-vectors     FFT dimensions: ( 135, 135, 320)

     Estimated max dynamical RAM per process >       3.09 GB

     Estimated total dynamical RAM >     111.14 GB

     Atomic positions and unit cell read from directory:
     ./outdir/pwscf.save/
     Atomic positions from file used, from input discarded
 

     The initial density is read from file :
     ./outdir/pwscf.save/charge-density


     negative rho (up, down):  8.660E-04 0.000E+00
     Cannot read wfcs: file not found
     Starting wfcs are  908 randomized atomic wfcs
     Checking if some PAW data can be deallocated... 

     total cpu time spent up to now is      102.5 secs

     Self-consistent Calculation

     iteration #  1     ecut=    77.00 Ry     beta= 0.20
     Davidson diagonalization with overlap
     c_bands:  1 eigenvalues not converged
     c_bands:  5 eigenvalues not converged
     c_bands:  4 eigenvalues not converged
     c_bands:  6 eigenvalues not converged
     ethr =  1.00E-05,  avg # of iterations =105.0

     negative rho (up, down):  8.088E-04 0.000E+00

     total cpu time spent up to now is     5546.1 secs

     total energy              =  -27706.83032098 Ry
     estimated scf accuracy    <       8.68840554 Ry

     iteration #  2     ecut=    77.00 Ry     beta= 0.20
     Davidson diagonalization with overlap
     ethr =  6.53E-04,  avg # of iterations =  6.8

     negative rho (up, down):  7.692E-04 0.000E+00

     total cpu time spent up to now is     5787.1 secs

     total energy              =  -27706.50103038 Ry
     estimated scf accuracy    <       4.42432574 Ry

     iteration #  3     ecut=    77.00 Ry     beta= 0.20
     Davidson diagonalization with overlap
     ethr =  3.33E-04,  avg # of iterations =  8.5

     negative rho (up, down):  7.303E-04 0.000E+00

     total cpu time spent up to now is     6030.9 secs

     total energy              =  -27706.27490345 Ry
     estimated scf accuracy    <       2.03355637 Ry

     iteration #  4     ecut=    77.00 Ry     beta= 0.20
     Davidson diagonalization with overlap
     c_bands:  4 eigenvalues not converged
     c_bands:  3 eigenvalues not converged
     c_bands:  1 eigenvalues not converged
     ethr =  1.53E-04,  avg # of iterations = 17.8

     negative rho (up, down):  7.205E-04 0.000E+00

     total cpu time spent up to now is     6304.3 secs

     total energy              =  -27706.18675896 Ry
     estimated scf accuracy    <       3.13077076 Ry

     iteration #  5     ecut=    77.00 Ry     beta= 0.20
     Davidson diagonalization with overlap
     c_bands:  1 eigenvalues not converged
     c_bands:  1 eigenvalues not converged
     c_bands:  1 eigenvalues not converged
     ethr =  1.53E-04,  avg # of iterations = 15.5

     negative rho (up, down):  7.108E-04 0.000E+00

     total cpu time spent up to now is     6551.6 secs

     total energy              =  -27706.40183914 Ry
     estimated scf accuracy    <       0.72989751 Ry

     iteration #  6     ecut=    77.00 Ry     beta= 0.20
     Davidson diagonalization with overlap
     ethr =  5.49E-05,  avg # of iterations = 11.8

     negative rho (up, down):  7.140E-04 0.000E+00

     total cpu time spent up to now is     6802.5 secs

     total energy              =  -27706.44748578 Ry
     estimated scf accuracy    <       0.19046131 Ry

     iteration #  7     ecut=    77.00 Ry     beta= 0.20
     Davidson diagonalization with overlap
     c_bands:  3 eigenvalues not converged
     c_bands:  1 eigenvalues not converged
     c_bands:  2 eigenvalues not converged
     ethr =  1.43E-05,  avg # of iterations = 18.0

     negative rho (up, down):  7.158E-04 0.000E+00

     total cpu time spent up to now is     7085.6 secs

     total energy              =  -27706.44941981 Ry
     estimated scf accuracy    <       0.16947961 Ry

     iteration #  8     ecut=    77.00 Ry     beta= 0.20
     Davidson diagonalization with overlap
     c_bands:  1 eigenvalues not converged
     c_bands:  1 eigenvalues not converged
     c_bands:  2 eigenvalues not converged
     ethr =  1.27E-05,  avg # of iterations = 18.2

     negative rho (up, down):  7.276E-04 0.000E+00

     total cpu time spent up to now is     7347.9 secs

     total energy              =  -27706.44475968 Ry
     estimated scf accuracy    <       0.03493842 Ry

     iteration #  9     ecut=    77.00 Ry     beta= 0.20
     Davidson diagonalization with overlap
     c_bands:  3 eigenvalues not converged
     c_bands:  3 eigenvalues not converged
     c_bands:  4 eigenvalues not converged
     ethr =  2.63E-06,  avg # of iterations = 40.0

     negative rho (up, down):  7.377E-04 0.000E+00

     total cpu time spent up to now is     7970.4 secs

     total energy              =  -27706.45853959 Ry
     estimated scf accuracy    <       0.01397722 Ry

     iteration # 10     ecut=    77.00 Ry     beta= 0.20
     Davidson diagonalization with overlap
     c_bands:  3 eigenvalues not converged
     c_bands:  2 eigenvalues not converged
     c_bands:  3 eigenvalues not converged
     ethr =  1.05E-06,  avg # of iterations = 18.5

     negative rho (up, down):  7.606E-04 0.000E+00

     total cpu time spent up to now is     8247.1 secs

     total energy              =  -27706.45681989 Ry
     estimated scf accuracy    <       0.00678539 Ry

     iteration # 11     ecut=    77.00 Ry     beta= 0.20
     Davidson diagonalization with overlap
     c_bands:  1 eigenvalues not converged
     c_bands:  2 eigenvalues not converged
     c_bands:  3 eigenvalues not converged
     ethr =  5.10E-07,  avg # of iterations = 18.2

     negative rho (up, down):  7.740E-04 0.000E+00

     total cpu time spent up to now is     8616.0 secs

     total energy              =  -27706.45886604 Ry
     estimated scf accuracy    <       0.00371894 Ry

     iteration # 12     ecut=    77.00 Ry     beta= 0.20
     Davidson diagonalization with overlap
     c_bands:  1 eigenvalues not converged
     c_bands:  2 eigenvalues not converged
     c_bands:  1 eigenvalues not converged
     ethr =  2.80E-07,  avg # of iterations = 17.2

     negative rho (up, down):  7.929E-04 0.000E+00

     total cpu time spent up to now is     8913.3 secs

     total energy              =  -27706.45918177 Ry
     estimated scf accuracy    <       0.00119529 Ry

     iteration # 13     ecut=    77.00 Ry     beta= 0.20
     Davidson diagonalization with overlap
     c_bands:  1 eigenvalues not converged
     ethr =  8.99E-08,  avg # of iterations = 18.0

     negative rho (up, down):  8.064E-04 0.000E+00

     total cpu time spent up to now is     9397.3 secs

     total energy              =  -27706.46032144 Ry
     estimated scf accuracy    <       0.00196383 Ry

     iteration # 14     ecut=    77.00 Ry     beta= 0.20
     Davidson diagonalization with overlap
     ethr =  8.99E-08,  avg # of iterations = 10.0

     negative rho (up, down):  8.235E-04 0.000E+00

     total cpu time spent up to now is     9642.3 secs

     total energy              =  -27706.46010979 Ry
     estimated scf accuracy    <       0.00067966 Ry

     iteration # 15     ecut=    77.00 Ry     beta= 0.20
     Davidson diagonalization with overlap
     ethr =  5.11E-08,  avg # of iterations = 13.0

     negative rho (up, down):  8.367E-04 0.000E+00

     total cpu time spent up to now is     9951.8 secs

     total energy              =  -27706.46035468 Ry
     estimated scf accuracy    <       0.00021660 Ry

     iteration # 16     ecut=    77.00 Ry     beta= 0.20
     Davidson diagonalization with overlap
     ethr =  1.63E-08,  avg # of iterations = 11.0

     negative rho (up, down):  8.491E-04 0.000E+00

     total cpu time spent up to now is    10272.3 secs

     total energy              =  -27706.46038566 Ry
     estimated scf accuracy    <       0.00016951 Ry

     iteration # 17     ecut=    77.00 Ry     beta= 0.20
     Davidson diagonalization with overlap
     ethr =  1.27E-08,  avg # of iterations = 11.5

     negative rho (up, down):  8.556E-04 0.000E+00

     total cpu time spent up to now is    10529.8 secs

     total energy              =  -27706.46039912 Ry
     estimated scf accuracy    <       0.00003511 Ry

     iteration # 18     ecut=    77.00 Ry     beta= 0.20
     Davidson diagonalization with overlap
     ethr =  2.64E-09,  avg # of iterations = 16.5

     negative rho (up, down):  8.564E-04 0.000E+00

     total cpu time spent up to now is    11184.7 secs

     total energy              =  -27706.46045827 Ry
     estimated scf accuracy    <       0.00000940 Ry

     iteration # 19     ecut=    77.00 Ry     beta= 0.20
     Davidson diagonalization with overlap
     c_bands:  2 eigenvalues not converged
     ethr =  7.07E-10,  avg # of iterations = 17.8

     negative rho (up, down):  8.570E-04 0.000E+00

     total cpu time spent up to now is    11721.1 secs

     total energy              =  -27706.46046692 Ry
     estimated scf accuracy    <       0.00000504 Ry

     iteration # 20     ecut=    77.00 Ry     beta= 0.20
     Davidson diagonalization with overlap
     ethr =  3.79E-10,  avg # of iterations =  9.8

     negative rho (up, down):  8.599E-04 0.000E+00

     total cpu time spent up to now is    11978.8 secs

     total energy              =  -27706.46046491 Ry
     estimated scf accuracy    <       0.00000384 Ry

     iteration # 21     ecut=    77.00 Ry     beta= 0.20
     Davidson diagonalization with overlap
     ethr =  2.89E-10,  avg # of iterations = 11.5

     negative rho (up, down):  8.636E-04 0.000E+00

     total cpu time spent up to now is    12339.7 secs

     total energy              =  -27706.46046491 Ry
     estimated scf accuracy    <       0.00000154 Ry

     iteration # 22     ecut=    77.00 Ry     beta= 0.20
     Davidson diagonalization with overlap
     ethr =  1.16E-10,  avg # of iterations = 10.0

     negative rho (up, down):  8.662E-04 0.000E+00

     total cpu time spent up to now is    12688.5 secs

     End of self-consistent calculation

          k = 0.0000 0.0000 0.0000 (321495 PWs)   bands (ev):

  -103.3509-101.3722 -89.3105 -71.7927 -71.7855 -71.7051 -71.6406 -71.6283
   -71.6030 -71.5989 -69.8547 -69.8515 -69.7469 -69.7410 -69.7069 -69.6514
   -69.6505 -66.8640 -66.8430 -66.8429 -66.8429 -66.8429 -66.8429 -66.8429
   -66.8218 -66.8218 -66.8218 -66.8217 -66.8217 -66.8217 -66.8217 -66.8217
   -66.8217 -66.7981 -66.7776 -66.7774 -66.7773 -66.7766 -66.7765 -66.7764
   -66.7680 -66.7566 -66.7564 -66.7563 -66.7562 -66.7560 -66.7557 -66.7553
   -66.7551 -66.7544 -66.7289 -66.7198 -66.7140 -66.7133 -66.7025 -66.7005
   -66.6995 -66.6898 -66.6896 -66.6774 -66.6727 -66.6680 -66.6488 -66.6441
   -66.6370 -57.7248 -57.6197 -57.2396 -55.8999 -55.5799 -55.1962 -55.1852
   -55.1508 -54.8260 -41.1905 -41.1905 -41.1905 -41.1235 -41.1233 -41.1231
   -41.1157 -41.1157 -41.1156 -41.1156 -41.1156 -41.1156 -41.0627 -41.0575
   -41.0490 -41.0488 -41.0486 -41.0484 -41.0483 -41.0481 -41.0448 -41.0241
   -40.9907 -40.9901 -40.9901 -40.9901 -40.9901 -40.9901 -40.9901 -40.9827
   -40.9827 -40.9827 -40.9827 -40.9826 -40.9826 -40.9821 -40.9696 -40.9679
   -40.9628 -40.9587 -40.9552 -40.9552 -40.9552 -40.9552 -40.9552 -40.9552
   -40.9536 -40.9410 -40.9410 -40.9410 -40.9410 -40.9410 -40.9410 -40.9409
   -40.9409 -40.9409 -40.9345 -40.9235 -40.9234 -40.9233 -40.9229 -40.9228
   -40.9228 -40.9179 -40.9176 -40.9175 -40.9169 -40.9168 -40.9167 -40.9084
   -40.8990 -40.8887 -40.8886 -40.8885 -40.8881 -40.8881 -40.8880 -40.8783
   -40.8774 -40.8774 -40.8774 -40.8764 -40.8762 -40.8761 -40.8760 -40.8759
   -40.8756 -40.8751 -40.8750 -40.8743 -40.8708 -40.8603 -40.8595 -40.8518
   -40.8461 -40.8446 -40.8415 -40.8391 -40.8350 -40.8330 -40.8306 -40.8306
   -40.8306 -40.8306 -40.8306 -40.8306 -40.8280 -40.8200 -40.8178 -40.8151
   -40.8127 -40.8107 -40.8106 -40.8104 -40.8103 -40.8049 -40.8029 -40.8003
   -40.7927 -40.7900 -40.7884 -40.7834 -40.7833 -40.7833 -40.7735 -40.7643
   -40.7641 -40.7640 -40.7635 -40.7635 -40.7634 -40.7403 -40.7308 -40.7250
   -40.7166 -40.7165 -40.6947 -40.6915 -40.6831 -40.6800 -40.6690 -40.6597
   -40.6318 -40.6189 -20.3681 -20.2781 -20.1199 -19.8434 -19.4404 -19.4317
   -19.4308 -19.4298 -19.4287 -19.4226 -19.3858 -19.3508 -19.3313 -19.3226
   -19.3126 -19.2779 -19.2542 -19.2400 -19.2203 -19.2062 -19.1843 -19.0517
   -18.9287 -18.8606 -18.7130 -18.6872 -18.6648 -18.6436 -18.6378 -18.6309
   -18.6094 -18.5645 -18.5415 -18.5172 -18.5114 -18.4771 -18.4502 -18.4119
   -18.3899 -18.3842 -18.3762 -18.3396 -18.3296 -18.3246 -18.3239 -18.3238
   -18.3234 -18.3233 -18.3225 -18.3180 -18.2836 -18.2833 -18.2832 -18.2481
   -18.2472 -18.2436 -18.2421 -18.2373 -18.2358 -18.2184 -18.2116 -18.2090
   -18.1998 -18.1759 -18.1591 -18.1555 -18.1428 -18.1403 -18.1355 -18.1285
   -18.1226 -18.1222 -18.1137 -18.0981 -18.0971 -18.0936 -18.0927 -18.0877
   -18.0723 -18.0621 -18.0592 -18.0537 -18.0380 -18.0281 -18.0251 -18.0222
   -18.0196 -18.0023 -17.9969 -17.9914 -17.9816 -17.9572 -17.9478 -17.9427
   -17.9375 -17.9328 -12.4547 -12.2339 -12.0896 -11.9708 -11.9405 -11.9377
   -11.9304 -11.8988 -11.8538 -11.8461 -11.8429 -11.6400 -11.5601 -11.4700
   -11.4248 -11.3936 -11.3867 -11.3857 -11.3795 -11.3684 -11.3494 -11.3234
   -11.3121 -11.3117 -11.3094 -11.3068 -11.3002 -11.2741 -11.2587 -11.2245
   -11.1860 -11.1776 -11.1686 -11.1620 -11.1543 -11.1469 -11.1158 -11.1044
   -11.0954 -11.0919 -11.0908 -11.0859 -11.0625 -11.0567 -11.0467 -11.0245
   -11.0203 -11.0164 -11.0146 -11.0144 -11.0129 -11.0072 -11.0023 -10.9952
   -10.9859 -10.9855 -10.9828 -10.9688 -10.9682 -10.9650 -10.9629 -10.9596
   -10.9554 -10.9520 -10.9077 -10.9072 -10.9006 -10.8792 -10.8582 -10.8340
   -10.8075 -10.8016 -10.7840 -10.7787 -10.7747 -10.6630 -10.5355 -10.4221
   -10.2426 -10.2313 -10.2293 -10.1963 -10.0919 -10.0734 -10.0651 -10.0603
    -9.9806  -9.9767  -9.9621  -9.9574  -9.9538  -9.9355  -9.9277  -9.9190
    -9.8989  -9.8805  -9.8767  -9.8619  -9.8613  -9.8456  -9.8372  -9.8126
    -9.8066  -9.8057  -9.7998  -9.7973  -9.7850  -9.7721  -9.7613  -9.7588
    -9.7584  -9.7575  -9.7558  -9.7533  -9.7525  -9.7299  -9.7181  -9.7027
    -9.6993  -9.6871  -9.6508  -9.6415  -9.6314  -9.6205  -9.6175  -9.6115
    -9.5977  -9.5564  -9.5357  -9.5231  -9.5197  -9.5086  -9.4996  -9.4794
    -9.4774  -9.4431  -9.4358  -9.4064  -9.4003  -9.3911  -9.3805  -9.3726
    -9.3639  -9.3589  -9.3106  -9.3074  -9.2865  -9.2518  -9.2291  -9.2037
    -9.2023  -9.2021  -9.2016  -9.1989  -9.1962  -9.1812  -9.1697  -9.1323
    -9.1246  -9.1241  -9.1185  -9.0699  -9.0679  -9.0417  -9.0324  -9.0215
    -9.0001  -8.9928  -8.9831  -8.9816  -8.9777  -8.9754  -8.9741  -8.9694
    -8.9450  -8.9349  -8.9294  -8.9240  -8.9061  -8.9028  -8.8992  -8.8857
    -8.8809  -8.8741  -8.7142  -8.6434  -8.6132  -8.6132  -8.5642  -8.5408
    -8.5405  -8.5370  -8.5038  -8.5011  -8.5011  -8.5010  -8.5010  -8.5009
    -8.4977  -8.4616  -8.4548  -8.4319  -8.4281  -8.4263  -8.4242  -8.4235
    -8.4226  -8.3902  -8.3564  -8.3552  -8.3184  -8.2040  -8.1871  -8.1476
    -8.1143  -8.1013  -8.0946  -8.0182  -7.9094  -7.8936  -7.8840  -7.8476
    -7.7936  -7.7658  -7.7657  -7.7657  -7.7655  -7.7653  -7.7648  -7.7309
    -7.7228  -7.7198  -7.7192  -7.7191  -7.7189  -7.7185  -7.7152  -7.6978
    -7.6933  -7.6906  -7.6886  -7.6877  -7.6821  -7.6807  -7.6699  -7.6622
    -7.6571  -7.6480  -7.6453  -7.6435  -7.6417  -7.6371  -7.6354  -7.6182
    -7.6073  -7.6001  -7.5984  -7.5960  -7.5946  -7.5796  -7.5738  -7.5580
    -7.5154  -7.4859  -7.4844  -7.4843  -7.4717  -7.4597  -7.4180  -7.4150
    -7.4097  -7.3923  -7.3788  -7.3669  -7.3330  -7.2965  -7.2500  -7.2265
    -7.2111  -7.1019  -7.0973  -7.0772  -7.0460  -7.0216  -7.0143  -6.9921
    -6.9850  -6.9819  -6.9656  -6.9173  -6.8855  -6.8824  -6.8524  -6.8144
    -6.8141  -6.8092  -6.8067  -6.8002  -6.7929  -6.7900  -6.7757  -6.7319
    -6.7187  -6.7107  -6.7037  -6.6987  -6.6916  -6.6886  -6.6813  -6.6713
    -6.6526  -6.6436  -6.6339  -6.6240  -6.6106  -6.6059  -6.6041  -6.5990
    -6.5773  -6.5462  -6.5382  -6.5323  -6.5323  -6.5323  -6.5323  -6.5323
    -6.5322  -6.5229  -6.4698  -6.4576  -6.4562  -6.4552  -6.4545  -6.4540
    -6.4465  -6.4252  -6.4059  -6.3928  -6.3822  -6.3642  -6.2756  -6.1405
    -6.0562  -5.8286  -5.7452  -5.5678  -5.4565  -5.3032  -5.1582  -5.1172
    -5.0496  -4.7850  -4.0291  -4.0229  -4.0187  -4.0153  -4.0120  -4.0006
    -3.9886  -3.9861  -3.9853  -3.9822  -3.9805  -3.9705  -3.8398  -3.7998
    -3.7931  -3.7852  -3.7742  -3.7648  -3.7625  -3.7537  -3.7505  -3.7478
    -3.7407  -3.6835  -3.6730  -3.6730  -3.6729  -3.6648  -3.6560  -3.6544
    -3.6538  -3.6534  -3.6529  -3.6197  -3.6059  -3.6056  -3.6040  -3.5838
    -3.5702  -3.5651  -3.5608  -3.5585  -3.5536  -3.5487  -3.5432  -3.5396
    -3.5346  -3.5287  -3.5229  -3.5175  -3.5021  -3.4920  -3.4857  -3.4542
    -3.4465  -3.4415  -3.4337  -3.4264  -3.4115  -3.3936  -3.3798  -3.3726
    -3.3369  -3.2079  -3.2074  -3.2069  -3.2020  -3.2014  -3.1576  -3.1402
    -3.1359  -3.1355  -3.1353  -3.1352  -3.1351  -3.1349  -3.1332  -3.1229
    -3.1200  -3.1148  -3.1094  -3.1023  -3.0978  -3.0785  -3.0749  -3.0717
    -3.0690  -3.0638  -3.0627  -3.0619  -3.0609  -3.0522  -3.0495  -3.0413
    -3.0369  -3.0250  -2.9997  -2.9910  -2.9846  -2.9679  -2.9548  -2.9473
    -2.9469  -2.9399  -2.9312  -2.9279  -2.9269  -2.9258  -2.9218  -2.9169
    -2.8806  -2.8695  -2.8626  -2.8413  -2.8369  -2.8155  -2.8092  -2.7907
    -2.7840  -2.7726  -2.7558  -2.7531  -2.7521  -2.7468  -2.7446  -2.7099
    -2.7027  -2.6928  -2.6847  -2.6643  -2.6560  -2.6438

          k = 0.0000-0.5773 0.0000 (321564 PWs)   bands (ev):

  -103.3509-101.3722 -89.3105 -71.7927 -71.7855 -71.7051 -71.6406 -71.6283
   -71.6030 -71.5989 -69.8547 -69.8515 -69.7469 -69.7410 -69.7069 -69.6514
   -69.6505 -66.8579 -66.8578 -66.8473 -66.8473 -66.8323 -66.8323 -66.8323
   -66.8323 -66.8280 -66.8279 -66.8218 -66.8217 -66.8217 -66.8217 -66.8173
   -66.8173 -66.7924 -66.7915 -66.7814 -66.7813 -66.7679 -66.7669 -66.7667
   -66.7660 -66.7660 -66.7625 -66.7615 -66.7563 -66.7563 -66.7561 -66.7544
   -66.7514 -66.7513 -66.7280 -66.7219 -66.7145 -66.7121 -66.7023 -66.7006
   -66.6990 -66.6898 -66.6896 -66.6772 -66.6727 -66.6684 -66.6487 -66.6443
   -66.6370 -57.7248 -57.6197 -57.2396 -55.8999 -55.5799 -55.1962 -55.1852
   -55.1508 -54.8260 -41.1591 -41.1590 -41.1590 -41.1590 -41.1324 -41.1324
   -41.1205 -41.1205 -41.0924 -41.0923 -41.0920 -41.0909 -41.0700 -41.0700
   -41.0700 -41.0700 -41.0657 -41.0649 -41.0534 -41.0533 -41.0482 -41.0366
   -41.0164 -41.0120 -41.0120 -41.0031 -41.0030 -41.0029 -41.0029 -41.0021
   -41.0021 -40.9949 -40.9921 -40.9913 -40.9913 -40.9852 -40.9783 -40.9682
   -40.9619 -40.9619 -40.9618 -40.9618 -40.9532 -40.9532 -40.9470 -40.9461
   -40.9411 -40.9411 -40.9410 -40.9409 -40.9409 -40.9409 -40.9386 -40.9352
   -40.9351 -40.9345 -40.9323 -40.9323 -40.9259 -40.9258 -40.9246 -40.9212
   -40.9160 -40.9104 -40.9103 -40.9103 -40.9103 -40.9063 -40.8987 -40.8970
   -40.8968 -40.8961 -40.8960 -40.8883 -40.8873 -40.8762 -40.8762 -40.8761
   -40.8759 -40.8758 -40.8758 -40.8758 -40.8758 -40.8744 -40.8742 -40.8741
   -40.8670 -40.8669 -40.8638 -40.8637 -40.8616 -40.8593 -40.8541 -40.8446
   -40.8446 -40.8441 -40.8440 -40.8439 -40.8434 -40.8425 -40.8357 -40.8327
   -40.8277 -40.8277 -40.8256 -40.8171 -40.8135 -40.8121 -40.8091 -40.8090
   -40.8090 -40.8089 -40.8068 -40.8051 -40.7974 -40.7972 -40.7972 -40.7965
   -40.7925 -40.7921 -40.7850 -40.7829 -40.7783 -40.7772 -40.7749 -40.7728
   -40.7609 -40.7608 -40.7561 -40.7454 -40.7383 -40.7366 -40.7309 -40.7299
   -40.7294 -40.7253 -40.7150 -40.7049 -40.6980 -40.6874 -40.6749 -40.6692
   -40.6501 -40.6239 -20.2939 -20.0597 -20.0494 -19.9438 -19.8935 -19.8186
   -19.6810 -19.6279 -19.6129 -19.5432 -19.4679 -19.4270 -19.2433 -18.9590
   -18.9351 -18.9248 -18.9172 -18.9161 -18.9132 -18.8908 -18.8354 -18.8329
   -18.8211 -18.7893 -18.7788 -18.7758 -18.7499 -18.7235 -18.7169 -18.7139
   -18.6701 -18.6679 -18.6437 -18.6212 -18.6012 -18.5905 -18.5778 -18.5688
   -18.5409 -18.5055 -18.4696 -18.4606 -18.4255 -18.4071 -18.3962 -18.3937
   -18.3665 -18.3355 -18.3140 -18.3044 -18.3041 -18.3039 -18.3036 -18.2980
   -18.2859 -18.2757 -18.2567 -18.2322 -18.2310 -18.2288 -18.2256 -18.2214
   -18.2135 -18.1913 -18.1853 -18.1688 -18.1601 -18.1539 -18.1524 -18.1415
   -18.1277 -18.1144 -18.1132 -18.1035 -18.0952 -18.0842 -18.0656 -18.0479
   -18.0405 -18.0405 -18.0400 -18.0321 -17.9992 -17.9814 -17.9803 -17.9800
   -17.9694 -17.9642 -17.9638 -17.9553 -17.9279 -17.9251 -17.9170 -17.9125
   -17.8690 -17.8557 -12.4161 -12.1668 -11.8675 -11.8519 -11.7421 -11.7207
   -11.6518 -11.6514 -11.6486 -11.6479 -11.6268 -11.6167 -11.5768 -11.5719
   -11.5664 -11.5521 -11.5472 -11.5225 -11.4892 -11.4845 -11.4733 -11.4686
   -11.4580 -11.4515 -11.4333 -11.4333 -11.4199 -11.3941 -11.3874 -11.3866
   -11.3660 -11.3300 -11.3265 -11.3263 -11.3032 -11.2214 -11.1947 -11.1767
   -11.1617 -11.1384 -11.1298 -11.1270 -11.0939 -11.0915 -11.0862 -11.0840
   -11.0575 -11.0471 -11.0331 -11.0208 -11.0147 -11.0079 -11.0069 -11.0066
   -11.0056 -11.0037 -10.9749 -10.9600 -10.9501 -10.9425 -10.9405 -10.9309
   -10.9115 -10.8836 -10.8485 -10.8036 -10.7573 -10.7376 -10.6722 -10.6667
   -10.6454 -10.5533 -10.5285 -10.4222 -10.3369 -10.3080 -10.3050 -10.2950
   -10.2837 -10.2671 -10.2482 -10.2192 -10.2084 -10.1767 -10.1552 -10.1414
   -10.1189 -10.1136 -10.1073 -10.1056 -10.0977 -10.0856 -10.0772 -10.0678
   -10.0603 -10.0507 -10.0024  -9.9789  -9.9675  -9.9596  -9.9296  -9.9224
    -9.9065  -9.8962  -9.8928  -9.8893  -9.8786  -9.8739  -9.8470  -9.8413
    -9.8325  -9.8208  -9.8090  -9.7920  -9.7857  -9.7704  -9.7658  -9.7231
    -9.7066  -9.7052  -9.6896  -9.6631  -9.6464  -9.6448  -9.6269  -9.6015
    -9.5225  -9.5060  -9.4744  -9.4537  -9.4263  -9.4101  -9.3896  -9.3743
    -9.3640  -9.3557  -9.3222  -9.3134  -9.3049  -9.3047  -9.2952  -9.2858
    -9.2803  -9.2609  -9.2278  -9.2148  -9.2089  -9.1987  -9.1762  -9.1684
    -9.1554  -9.1473  -9.1439  -9.1300  -9.1218  -9.1171  -9.1126  -9.1078
    -9.1074  -9.0976  -9.0793  -9.0676  -9.0600  -9.0502  -9.0424  -9.0340
    -9.0319  -9.0298  -9.0160  -9.0155  -9.0098  -9.0011  -8.9891  -8.9863
    -8.9682  -8.9584  -8.9464  -8.9380  -8.9259  -8.9106  -8.9028  -8.8868
    -8.8729  -8.7427  -8.7262  -8.6881  -8.6878  -8.6701  -8.6088  -8.6018
    -8.5827  -8.5668  -8.5168  -8.4671  -8.4079  -8.3697  -8.3696  -8.3663
    -8.3013  -8.2983  -8.2965  -8.2733  -8.2314  -8.2048  -8.1548  -8.1371
    -8.1095  -8.1087  -8.0692  -8.0419  -8.0376  -8.0283  -8.0258  -8.0238
    -8.0229  -8.0229  -8.0177  -8.0149  -8.0060  -7.9778  -7.9765  -7.9763
    -7.9754  -7.9621  -7.9530  -7.9517  -7.9398  -7.9356  -7.9324  -7.9194
    -7.9098  -7.9038  -7.9004  -7.8960  -7.8922  -7.8800  -7.8671  -7.8640
    -7.8559  -7.8400  -7.8378  -7.8377  -7.8364  -7.8249  -7.8143  -7.8005
    -7.7984  -7.7920  -7.7681  -7.7654  -7.7647  -7.7466  -7.7225  -7.7191
    -7.7104  -7.7000  -7.6449  -7.6342  -7.6040  -7.5991  -7.5446  -7.5261
    -7.4645  -7.4398  -7.4183  -7.4074  -7.3989  -7.3910  -7.3647  -7.3254
    -7.2921  -7.2769  -7.2417  -7.2262  -7.2002  -7.1958  -7.1889  -7.1868
    -7.1736  -7.1515  -7.1273  -7.1171  -7.1130  -7.1075  -7.0846  -7.0804
    -7.0510  -7.0303  -7.0101  -7.0035  -6.9978  -6.9676  -6.9385  -6.9029
    -6.8767  -6.8447  -6.8347  -6.8346  -6.8345  -6.8341  -6.8310  -6.7981
    -6.7790  -6.7686  -6.7667  -6.7653  -6.7620  -6.7531  -6.7407  -6.7036
    -6.6934  -6.6860  -6.6537  -6.6174  -6.5800  -6.5652  -6.5035  -6.5032
    -6.5031  -6.5024  -6.4525  -6.4384  -6.4373  -6.4257  -6.4227  -6.4190
    -6.4141  -6.3839  -6.3830  -6.3714  -6.3597  -6.3307  -6.3225  -6.1609
    -6.1544  -6.1544  -6.1225  -6.0781  -6.0771  -6.0161  -5.9839  -5.9667
    -5.9084  -5.8067  -5.7572  -5.7316  -5.5352  -5.3787  -5.1589  -5.1201
    -5.0513  -4.7586  -4.1938  -4.1927  -4.1864  -4.1778  -4.0700  -4.0700
    -4.0565  -4.0467  -4.0056  -4.0051  -3.9728  -3.9584  -3.9550  -3.9404
    -3.9215  -3.9050  -3.8636  -3.8390  -3.7878  -3.7736  -3.7702  -3.7688
    -3.7566  -3.7554  -3.7443  -3.7381  -3.7095  -3.6956  -3.6814  -3.6770
    -3.6678  -3.6656  -3.6634  -3.6571  -3.6464  -3.6438  -3.6326  -3.6315
    -3.6074  -3.5810  -3.5501  -3.5398  -3.5364  -3.5231  -3.5224  -3.5111
    -3.4984  -3.4924  -3.4891  -3.4835  -3.4743  -3.4475  -3.4467  -3.4465
    -3.4458  -3.4426  -3.4265  -3.4232  -3.4170  -3.4093  -3.4057  -3.3908
    -3.3808  -3.3722  -3.3620  -3.3559  -3.3555  -3.3433  -3.3100  -3.3017
    -3.2959  -3.2902  -3.2812  -3.2624  -3.2434  -3.2406  -3.2132  -3.2038
    -3.2028  -3.1885  -3.1836  -3.1831  -3.1826  -3.1770  -3.1507  -3.1469
    -3.1352  -3.1335  -3.1264  -3.1165  -3.1119  -3.0992  -3.0963  -3.0864
    -3.0806  -3.0669  -3.0601  -3.0554  -3.0447  -3.0361  -3.0297  -3.0140
    -3.0113  -2.9897  -2.9744  -2.9734  -2.9685  -2.9279  -2.9064  -2.9009
    -2.8773  -2.8673  -2.8245  -2.8200  -2.8172  -2.8138  -2.8072  -2.8024
    -2.7428  -2.7359  -2.6889  -2.6807  -2.6715  -2.6701  -2.6580  -2.6396
    -2.5428  -2.5237  -2.4877  -2.4656  -2.4542  -2.4222

          k =-0.5000-0.2887 0.0000 (321564 PWs)   bands (ev):

  -103.3509-101.3722 -89.3105 -71.7927 -71.7855 -71.7051 -71.6406 -71.6283
   -71.6030 -71.5989 -69.8547 -69.8515 -69.7469 -69.7410 -69.7069 -69.6514
   -69.6505 -66.8579 -66.8578 -66.8473 -66.8473 -66.8323 -66.8323 -66.8323
   -66.8323 -66.8280 -66.8279 -66.8217 -66.8217 -66.8217 -66.8217 -66.8173
   -66.8173 -66.7919 -66.7919 -66.7814 -66.7813 -66.7679 -66.7665 -66.7665
   -66.7665 -66.7663 -66.7621 -66.7620 -66.7559 -66.7558 -66.7558 -66.7557
   -66.7513 -66.7513 -66.7289 -66.7198 -66.7169 -66.7086 -66.7063 -66.7011
   -66.6955 -66.6916 -66.6893 -66.6774 -66.6728 -66.6681 -66.6483 -66.6448
   -66.6369 -57.7248 -57.6197 -57.2396 -55.8999 -55.5799 -55.1962 -55.1852
   -55.1508 -54.8260 -41.1590 -41.1590 -41.1590 -41.1590 -41.1324 -41.1324
   -41.1205 -41.1205 -41.0919 -41.0919 -41.0919 -41.0918 -41.0700 -41.0700
   -41.0700 -41.0700 -41.0653 -41.0653 -41.0533 -41.0533 -41.0360 -41.0351
   -41.0174 -41.0131 -41.0120 -41.0120 -41.0071 -41.0030 -41.0030 -41.0030
   -41.0029 -41.0021 -41.0021 -40.9918 -40.9913 -40.9913 -40.9736 -40.9619
   -40.9619 -40.9618 -40.9618 -40.9532 -40.9532 -40.9523 -40.9466 -40.9465
   -40.9411 -40.9411 -40.9410 -40.9410 -40.9409 -40.9409 -40.9377 -40.9353
   -40.9351 -40.9323 -40.9323 -40.9274 -40.9259 -40.9258 -40.9232 -40.9172
   -40.9105 -40.9103 -40.9103 -40.9103 -40.9103 -40.9063 -40.8986 -40.8966
   -40.8965 -40.8965 -40.8964 -40.8879 -40.8878 -40.8758 -40.8758 -40.8758
   -40.8758 -40.8757 -40.8756 -40.8756 -40.8755 -40.8752 -40.8742 -40.8741
   -40.8670 -40.8669 -40.8655 -40.8638 -40.8638 -40.8610 -40.8523 -40.8479
   -40.8446 -40.8446 -40.8436 -40.8435 -40.8435 -40.8433 -40.8404 -40.8310
   -40.8277 -40.8277 -40.8264 -40.8180 -40.8147 -40.8091 -40.8090 -40.8090
   -40.8089 -40.8073 -40.8056 -40.8027 -40.7972 -40.7972 -40.7970 -40.7969
   -40.7946 -40.7912 -40.7872 -40.7863 -40.7778 -40.7777 -40.7768 -40.7733
   -40.7627 -40.7609 -40.7608 -40.7539 -40.7394 -40.7352 -40.7305 -40.7304
   -40.7286 -40.7225 -40.7111 -40.7044 -40.6999 -40.6813 -40.6758 -40.6526
   -40.6460 -40.6405 -20.2909 -20.0604 -20.0496 -19.9522 -19.8940 -19.8317
   -19.6608 -19.6266 -19.6102 -19.5335 -19.4677 -19.4195 -19.2642 -18.9698
   -18.9476 -18.9181 -18.9168 -18.9161 -18.9133 -18.8804 -18.8466 -18.8350
   -18.8091 -18.7918 -18.7861 -18.7664 -18.7472 -18.7268 -18.7231 -18.7115
   -18.6697 -18.6682 -18.6346 -18.6339 -18.6072 -18.5823 -18.5750 -18.5668
   -18.5532 -18.4798 -18.4728 -18.4486 -18.4291 -18.4107 -18.3996 -18.3930
   -18.3623 -18.3302 -18.3272 -18.3041 -18.3038 -18.3037 -18.3036 -18.2984
   -18.2813 -18.2791 -18.2435 -18.2392 -18.2304 -18.2258 -18.2252 -18.2171
   -18.2113 -18.2024 -18.1790 -18.1708 -18.1611 -18.1555 -18.1500 -18.1395
   -18.1198 -18.1177 -18.1162 -18.1056 -18.0970 -18.0876 -18.0586 -18.0564
   -18.0434 -18.0406 -18.0406 -18.0332 -17.9969 -17.9935 -17.9813 -17.9807
   -17.9792 -17.9654 -17.9645 -17.9547 -17.9289 -17.9232 -17.9157 -17.9008
   -17.8607 -17.8573 -12.4051 -12.1309 -11.8815 -11.8514 -11.7989 -11.7525
   -11.6546 -11.6514 -11.6494 -11.6471 -11.6282 -11.6214 -11.6136 -11.5715
   -11.5609 -11.5510 -11.5426 -11.5186 -11.5038 -11.4880 -11.4807 -11.4604
   -11.4576 -11.4380 -11.4333 -11.4333 -11.4106 -11.3876 -11.3871 -11.3726
   -11.3532 -11.3303 -11.3294 -11.3267 -11.3012 -11.2257 -11.2135 -11.1616
   -11.1547 -11.1490 -11.1353 -11.1206 -11.0942 -11.0896 -11.0873 -11.0763
   -11.0664 -11.0365 -11.0281 -11.0163 -11.0074 -11.0068 -11.0062 -11.0044
   -11.0004 -10.9977 -10.9795 -10.9625 -10.9614 -10.9471 -10.9400 -10.9359
   -10.9254 -10.9219 -10.8224 -10.7513 -10.7441 -10.6799 -10.6690 -10.6430
   -10.5755 -10.5427 -10.5101 -10.4671 -10.4339 -10.3782 -10.3044 -10.3018
   -10.2916 -10.2841 -10.2272 -10.2194 -10.1928 -10.1792 -10.1299 -10.1221
   -10.1161 -10.1113 -10.1101 -10.1027 -10.0897 -10.0777 -10.0727 -10.0709
   -10.0585 -10.0268  -9.9795  -9.9672  -9.9580  -9.9463  -9.9285  -9.9254
    -9.9136  -9.9041  -9.8902  -9.8852  -9.8768  -9.8689  -9.8616  -9.8335
    -9.8254  -9.8176  -9.7958  -9.7929  -9.7823  -9.7737  -9.7474  -9.7282
    -9.7080  -9.7053  -9.6972  -9.6902  -9.6497  -9.6468  -9.6428  -9.6030
    -9.5774  -9.5453  -9.5085  -9.4879  -9.4351  -9.4106  -9.3871  -9.3739
    -9.3631  -9.3403  -9.3238  -9.3107  -9.3066  -9.2992  -9.2906  -9.2814
    -9.2715  -9.2568  -9.2186  -9.2144  -9.1998  -9.1902  -9.1853  -9.1779
    -9.1612  -9.1577  -9.1447  -9.1405  -9.1259  -9.1154  -9.1093  -9.1080
    -9.1060  -9.1021  -9.0810  -9.0670  -9.0487  -9.0423  -9.0349  -9.0305
    -9.0275  -9.0247  -9.0160  -9.0155  -9.0122  -9.0077  -8.9996  -8.9810
    -8.9798  -8.9595  -8.9417  -8.9377  -8.9263  -8.9186  -8.8931  -8.8831
    -8.8719  -8.7774  -8.7099  -8.6891  -8.6881  -8.6637  -8.6122  -8.6033
    -8.5912  -8.5711  -8.5097  -8.4562  -8.3806  -8.3704  -8.3697  -8.3696
    -8.3117  -8.2979  -8.2964  -8.2702  -8.2481  -8.2072  -8.1793  -8.1107
    -8.1077  -8.0699  -8.0454  -8.0400  -8.0378  -8.0305  -8.0286  -8.0255
    -8.0229  -8.0229  -8.0206  -8.0179  -7.9787  -7.9773  -7.9765  -7.9761
    -7.9605  -7.9545  -7.9511  -7.9482  -7.9378  -7.9343  -7.9281  -7.9175
    -7.9136  -7.9023  -7.8993  -7.8957  -7.8864  -7.8703  -7.8638  -7.8630
    -7.8575  -7.8467  -7.8377  -7.8377  -7.8352  -7.8260  -7.8097  -7.8057
    -7.7917  -7.7815  -7.7732  -7.7677  -7.7638  -7.7427  -7.7363  -7.7341
    -7.6998  -7.6841  -7.6732  -7.6633  -7.6469  -7.5899  -7.5565  -7.4793
    -7.4695  -7.4352  -7.4140  -7.4095  -7.4007  -7.3901  -7.3849  -7.3163
    -7.2998  -7.2907  -7.2699  -7.2499  -7.2404  -7.1903  -7.1890  -7.1858
    -7.1785  -7.1522  -7.1223  -7.1132  -7.1018  -7.0964  -7.0855  -7.0788
    -7.0579  -7.0449  -7.0148  -7.0013  -6.9978  -6.9524  -6.9080  -6.8962
    -6.8855  -6.8469  -6.8346  -6.8346  -6.8345  -6.8344  -6.8051  -6.7870
    -6.7836  -6.7669  -6.7667  -6.7656  -6.7612  -6.7548  -6.7383  -6.7080
    -6.6896  -6.6711  -6.6523  -6.6104  -6.5862  -6.5067  -6.5032  -6.5031
    -6.5030  -6.4930  -6.4420  -6.4401  -6.4299  -6.4245  -6.4239  -6.4162
    -6.4103  -6.3996  -6.3873  -6.3786  -6.3494  -6.3419  -6.3234  -6.2205
    -6.1545  -6.1545  -6.1141  -6.0798  -6.0784  -6.0251  -6.0012  -5.9535
    -5.9488  -5.8202  -5.7593  -5.7006  -5.5191  -5.3779  -5.1515  -5.1185
    -5.0528  -4.7680  -4.1972  -4.1970  -4.1912  -4.1778  -4.0700  -4.0700
    -4.0529  -4.0403  -4.0061  -4.0052  -3.9795  -3.9655  -3.9562  -3.9526
    -3.9361  -3.9046  -3.8575  -3.8211  -3.7786  -3.7743  -3.7716  -3.7702
    -3.7563  -3.7554  -3.7537  -3.7339  -3.7231  -3.6957  -3.6845  -3.6717
    -3.6671  -3.6565  -3.6514  -3.6507  -3.6437  -3.6369  -3.6341  -3.6181
    -3.6065  -3.5574  -3.5489  -3.5354  -3.5332  -3.5236  -3.5231  -3.5219
    -3.4981  -3.4937  -3.4863  -3.4851  -3.4694  -3.4567  -3.4475  -3.4466
    -3.4453  -3.4450  -3.4310  -3.4242  -3.4151  -3.4103  -3.3976  -3.3947
    -3.3826  -3.3748  -3.3706  -3.3631  -3.3604  -3.3422  -3.3253  -3.3033
    -3.2950  -3.2832  -3.2701  -3.2552  -3.2438  -3.2419  -3.2065  -3.2048
    -3.2022  -3.1894  -3.1834  -3.1829  -3.1828  -3.1819  -3.1545  -3.1431
    -3.1346  -3.1331  -3.1259  -3.1161  -3.1030  -3.0941  -3.0915  -3.0865
    -3.0770  -3.0704  -3.0638  -3.0534  -3.0455  -3.0378  -3.0263  -3.0150
    -2.9985  -2.9919  -2.9756  -2.9735  -2.9716  -2.9648  -2.9060  -2.9036
    -2.8771  -2.8751  -2.8445  -2.8212  -2.8197  -2.8097  -2.8064  -2.8007
    -2.7429  -2.7359  -2.6970  -2.6778  -2.6735  -2.6600  -2.6525  -2.6363
    -2.5461  -2.5231  -2.4829  -2.4675  -2.4491  -2.4119

          k =-0.5000-0.8660 0.0000 (321564 PWs)   bands (ev):

  -103.3509-101.3722 -89.3105 -71.7927 -71.7855 -71.7051 -71.6406 -71.6283
   -71.6030 -71.5989 -69.8547 -69.8515 -69.7469 -69.7410 -69.7069 -69.6514
   -69.6505 -66.8579 -66.8578 -66.8473 -66.8473 -66.8323 -66.8323 -66.8323
   -66.8323 -66.8280 -66.8279 -66.8217 -66.8217 -66.8217 -66.8217 -66.8173
   -66.8173 -66.7921 -66.7917 -66.7814 -66.7813 -66.7679 -66.7666 -66.7666
   -66.7664 -66.7662 -66.7622 -66.7618 -66.7561 -66.7560 -66.7558 -66.7553
   -66.7513 -66.7513 -66.7284 -66.7211 -66.7158 -66.7098 -66.7051 -66.7012
   -66.6959 -66.6916 -66.6891 -66.6772 -66.6727 -66.6683 -66.6484 -66.6446
   -66.6369 -57.7248 -57.6197 -57.2396 -55.8999 -55.5799 -55.1962 -55.1852
   -55.1508 -54.8260 -41.1591 -41.1590 -41.1590 -41.1590 -41.1324 -41.1324
   -41.1205 -41.1205 -41.0921 -41.0920 -41.0919 -41.0915 -41.0700 -41.0700
   -41.0700 -41.0700 -41.0655 -41.0651 -41.0534 -41.0533 -41.0466 -41.0337
   -41.0142 -41.0120 -41.0120 -41.0083 -41.0031 -41.0030 -41.0030 -41.0029
   -41.0021 -41.0021 -40.9966 -40.9927 -40.9913 -40.9913 -40.9684 -40.9618
   -40.9618 -40.9618 -40.9618 -40.9581 -40.9532 -40.9532 -40.9467 -40.9464
   -40.9415 -40.9411 -40.9411 -40.9410 -40.9410 -40.9409 -40.9409 -40.9352
   -40.9351 -40.9323 -40.9323 -40.9280 -40.9259 -40.9258 -40.9255 -40.9188
   -40.9167 -40.9104 -40.9103 -40.9103 -40.9103 -40.9045 -40.8999 -40.8967
   -40.8966 -40.8964 -40.8963 -40.8880 -40.8876 -40.8759 -40.8758 -40.8758
   -40.8758 -40.8758 -40.8758 -40.8756 -40.8756 -40.8752 -40.8742 -40.8741
   -40.8670 -40.8669 -40.8651 -40.8638 -40.8638 -40.8627 -40.8496 -40.8456
   -40.8446 -40.8446 -40.8438 -40.8437 -40.8435 -40.8434 -40.8431 -40.8301
   -40.8277 -40.8277 -40.8234 -40.8182 -40.8155 -40.8098 -40.8091 -40.8090
   -40.8090 -40.8089 -40.8080 -40.8028 -40.7972 -40.7972 -40.7971 -40.7967
   -40.7920 -40.7890 -40.7859 -40.7835 -40.7780 -40.7775 -40.7744 -40.7692
   -40.7612 -40.7609 -40.7608 -40.7593 -40.7394 -40.7333 -40.7306 -40.7302
   -40.7271 -40.7207 -40.7185 -40.7007 -40.6978 -40.6884 -40.6687 -40.6651
   -40.6527 -40.6283 -20.2912 -20.0599 -20.0498 -19.9502 -19.8945 -19.8304
   -19.6679 -19.6264 -19.6112 -19.5320 -19.4676 -19.4184 -19.2601 -18.9692
   -18.9463 -18.9187 -18.9165 -18.9160 -18.9134 -18.8765 -18.8599 -18.8320
   -18.8061 -18.7932 -18.7831 -18.7674 -18.7440 -18.7257 -18.7229 -18.7135
   -18.6693 -18.6682 -18.6363 -18.6292 -18.6127 -18.5815 -18.5746 -18.5680
   -18.5527 -18.4801 -18.4718 -18.4536 -18.4283 -18.4116 -18.3982 -18.3936
   -18.3631 -18.3295 -18.3236 -18.3043 -18.3040 -18.3038 -18.3037 -18.2987
   -18.2806 -18.2793 -18.2456 -18.2384 -18.2313 -18.2269 -18.2261 -18.2180
   -18.2116 -18.2017 -18.1787 -18.1703 -18.1606 -18.1567 -18.1509 -18.1381
   -18.1214 -18.1190 -18.1166 -18.1066 -18.0944 -18.0884 -18.0599 -18.0574
   -18.0443 -18.0405 -18.0404 -18.0320 -17.9944 -17.9935 -17.9805 -17.9801
   -17.9767 -17.9639 -17.9632 -17.9482 -17.9285 -17.9211 -17.9155 -17.9043
   -17.8637 -17.8620 -12.3966 -12.1444 -11.8785 -11.8580 -11.8141 -11.7482
   -11.6528 -11.6513 -11.6486 -11.6468 -11.6281 -11.6229 -11.5989 -11.5729
   -11.5562 -11.5495 -11.5462 -11.5158 -11.5085 -11.4876 -11.4797 -11.4588
   -11.4581 -11.4333 -11.4333 -11.4281 -11.4104 -11.3872 -11.3870 -11.3672
   -11.3525 -11.3312 -11.3294 -11.3264 -11.3037 -11.2224 -11.1961 -11.1900
   -11.1605 -11.1442 -11.1311 -11.1056 -11.1013 -11.0957 -11.0839 -11.0813
   -11.0726 -11.0379 -11.0263 -11.0192 -11.0076 -11.0067 -11.0062 -11.0052
   -11.0015 -10.9958 -10.9836 -10.9702 -10.9637 -10.9446 -10.9398 -10.9365
   -10.9267 -10.9030 -10.8200 -10.7601 -10.7415 -10.6754 -10.6657 -10.6443
   -10.6027 -10.5514 -10.5012 -10.4491 -10.4080 -10.3792 -10.3040 -10.3000
   -10.2937 -10.2830 -10.2334 -10.2103 -10.1998 -10.1822 -10.1388 -10.1255
   -10.1200 -10.1128 -10.1094 -10.1006 -10.0925 -10.0762 -10.0706 -10.0671
   -10.0554 -10.0429  -9.9866  -9.9697  -9.9592  -9.9399  -9.9293  -9.9267
    -9.9076  -9.8997  -9.8918  -9.8864  -9.8754  -9.8707  -9.8596  -9.8379
    -9.8260  -9.8114  -9.8041  -9.7956  -9.7855  -9.7750  -9.7462  -9.7284
    -9.7123  -9.7059  -9.6973  -9.6878  -9.6611  -9.6473  -9.6439  -9.6107
    -9.5760  -9.5417  -9.5037  -9.4864  -9.4399  -9.3922  -9.3811  -9.3791
    -9.3459  -9.3398  -9.3218  -9.3164  -9.3080  -9.3000  -9.2898  -9.2865
    -9.2664  -9.2435  -9.2357  -9.2146  -9.1993  -9.1946  -9.1807  -9.1705
    -9.1595  -9.1545  -9.1425  -9.1331  -9.1218  -9.1166  -9.1089  -9.1079
    -9.1049  -9.0963  -9.0807  -9.0661  -9.0489  -9.0453  -9.0394  -9.0327
    -9.0297  -9.0220  -9.0158  -9.0156  -9.0091  -9.0067  -8.9959  -8.9890
    -8.9810  -8.9653  -8.9426  -8.9382  -8.9320  -8.9189  -8.8922  -8.8798
    -8.8619  -8.7846  -8.7220  -8.6886  -8.6883  -8.6450  -8.6122  -8.6048
    -8.5945  -8.5779  -8.5236  -8.4536  -8.3734  -8.3696  -8.3696  -8.3432
    -8.3296  -8.2975  -8.2972  -8.2784  -8.2629  -8.2091  -8.1681  -8.1100
    -8.1079  -8.0647  -8.0449  -8.0413  -8.0365  -8.0285  -8.0247  -8.0229
    -8.0229  -8.0174  -8.0158  -8.0046  -7.9863  -7.9772  -7.9766  -7.9759
    -7.9739  -7.9530  -7.9521  -7.9394  -7.9380  -7.9342  -7.9289  -7.9217
    -7.9156  -7.9013  -7.8999  -7.8927  -7.8879  -7.8794  -7.8712  -7.8642
    -7.8595  -7.8428  -7.8380  -7.8376  -7.8367  -7.8241  -7.8126  -7.8063
    -7.7995  -7.7849  -7.7780  -7.7679  -7.7657  -7.7465  -7.7386  -7.7084
    -7.7013  -7.6844  -7.6782  -7.6614  -7.6334  -7.5881  -7.5530  -7.5093
    -7.4709  -7.4373  -7.4212  -7.4140  -7.4047  -7.3953  -7.3342  -7.3219
    -7.3165  -7.2905  -7.2701  -7.2415  -7.2238  -7.1952  -7.1891  -7.1867
    -7.1825  -7.1699  -7.1261  -7.1117  -7.1054  -7.1013  -7.0839  -7.0746
    -7.0467  -7.0378  -7.0270  -7.0045  -6.9952  -6.9382  -6.9152  -6.9011
    -6.8811  -6.8514  -6.8347  -6.8346  -6.8346  -6.8345  -6.8053  -6.7996
    -6.7888  -6.7684  -6.7671  -6.7649  -6.7607  -6.7485  -6.7344  -6.6998
    -6.6860  -6.6733  -6.6480  -6.6117  -6.5709  -6.5089  -6.5033  -6.5031
    -6.5031  -6.4970  -6.4410  -6.4400  -6.4318  -6.4266  -6.4243  -6.4175
    -6.4110  -6.3947  -6.3804  -6.3732  -6.3560  -6.3393  -6.3292  -6.2253
    -6.1544  -6.1544  -6.1215  -6.0785  -6.0777  -6.0182  -5.9965  -5.9572
    -5.9402  -5.8178  -5.7608  -5.7127  -5.5205  -5.3766  -5.1498  -5.1157
    -5.0560  -4.7754  -4.2004  -4.1959  -4.1935  -4.1751  -4.0700  -4.0700
    -4.0530  -4.0425  -4.0059  -4.0052  -3.9857  -3.9626  -3.9598  -3.9514
    -3.9327  -3.8968  -3.8552  -3.8257  -3.7776  -3.7740  -3.7706  -3.7692
    -3.7561  -3.7555  -3.7523  -3.7264  -3.7240  -3.6943  -3.6808  -3.6739
    -3.6648  -3.6559  -3.6542  -3.6479  -3.6431  -3.6375  -3.6337  -3.6208
    -3.6002  -3.5629  -3.5538  -3.5393  -3.5313  -3.5285  -3.5233  -3.5226
    -3.4952  -3.4932  -3.4863  -3.4829  -3.4619  -3.4525  -3.4476  -3.4467
    -3.4456  -3.4441  -3.4309  -3.4191  -3.4133  -3.4084  -3.4029  -3.3885
    -3.3816  -3.3753  -3.3701  -3.3647  -3.3601  -3.3356  -3.3223  -3.3115
    -3.3013  -3.2872  -3.2658  -3.2623  -3.2432  -3.2416  -3.2100  -3.2053
    -3.2013  -3.1900  -3.1839  -3.1835  -3.1829  -3.1826  -3.1557  -3.1427
    -3.1345  -3.1334  -3.1277  -3.1170  -3.1078  -3.0985  -3.0937  -3.0847
    -3.0800  -3.0706  -3.0634  -3.0481  -3.0412  -3.0367  -3.0265  -3.0152
    -2.9947  -2.9926  -2.9778  -2.9742  -2.9703  -2.9587  -2.9051  -2.9021
    -2.8752  -2.8688  -2.8289  -2.8200  -2.8181  -2.8144  -2.8066  -2.7982
    -2.7405  -2.7368  -2.6933  -2.6838  -2.6747  -2.6629  -2.6579  -2.6490
    -2.5323  -2.5242  -2.4962  -2.4861  -2.4683  -2.4136

     the Fermi energy is    -4.9059 ev

!    total energy              =  -27706.46046404 Ry
     total all-electron energy =   -549111.722903 Ry
     estimated scf accuracy    <       0.00000035 Ry
     smearing contrib. (-TS)   =      -0.00461365 Ry
     internal energy E=F+TS    =  -27706.45585039 Ry

     The total energy is F=E-TS. E is the sum of the following terms:
     one-electron contribution =  532910.00191672 Ry
     hartree contribution      = -266643.17451115 Ry
     xc contribution           =   -1609.91200800 Ry
     ewald contribution        = -275579.55926882 Ry
     DFT-D3 Dispersion         =      -4.04105394 Ry
     one-center paw contrib.   =  -16779.77092520 Ry

     convergence has been achieved in  22 iterations

     negative rho (up, down):  8.662E-04 0.000E+00

     Forces acting on atoms (cartesian axes, Ry/au):

     atom    1 type  1   force =    -0.00024643    0.00077195    0.00059758
     atom    2 type  1   force =     0.00000775   -0.00000878    0.00194911
     atom    3 type  1   force =     0.00006103   -0.00003582   -0.00004036
     atom    4 type  2   force =     0.00000781   -0.00001415   -0.00332790
     atom    5 type  2   force =     0.00008958    0.00002822   -0.00008283
     atom    6 type  2   force =     0.00002766   -0.00004626    0.00008810
     atom    7 type  2   force =     0.00000558    0.00000100    0.00148893
     atom    8 type  2   force =     0.00006214   -0.00003437    0.00008546
     atom    9 type  2   force =     0.00121606    0.00059504   -0.00075669
     atom   10 type  1   force =     0.00002320   -0.00220459    0.00077769
     atom   11 type  1   force =     0.00000899   -0.00001909    0.00194299
     atom   12 type  1   force =     0.00003035    0.00001176    0.00006575
     atom   13 type  2   force =     0.00000657   -0.00001693   -0.00332648
     atom   14 type  2   force =     0.00008821    0.00002506   -0.00000532
     atom   15 type  2   force =    -0.00253595   -0.00032126    0.00172606
     atom   16 type  2   force =     0.00001214   -0.00001755    0.00149601
     atom   17 type  2   force =     0.00004253   -0.00000811    0.00012419
     atom   18 type  2   force =    -0.00033139   -0.00073028   -0.00058782
     atom   19 type  1   force =     0.00049139   -0.00083198   -0.00016753
     atom   20 type  1   force =     0.00000754   -0.00001978    0.00194577
     atom   21 type  1   force =     0.00010226   -0.00000750    0.00015612
     atom   22 type  2   force =     0.00000619   -0.00001367   -0.00332641
     atom   23 type  2   force =     0.00000970    0.00002782    0.00001476
     atom   24 type  2   force =    -0.00037723   -0.00168091    0.00100868
     atom   25 type  2   force =     0.00001416   -0.00003243    0.00147430
     atom   26 type  2   force =     0.00002917    0.00003457    0.00026168
     atom   27 type  2   force =     0.00020932   -0.00010773    0.00033341
     atom   28 type  1   force =     0.00044928   -0.00013040   -0.00154591
     atom   29 type  1   force =     0.00001091   -0.00000898    0.00195540
     atom   30 type  1   force =     0.00005839    0.00006617    0.00005576
     atom   31 type  2   force =     0.00000698   -0.00001589   -0.00332207
     atom   32 type  2   force =     0.00009140   -0.00003267    0.00006302
     atom   33 type  2   force =     0.00054964   -0.00073304   -0.00024074
     atom   34 type  2   force =     0.00000525   -0.00001078    0.00148620
     atom   35 type  2   force =     0.00001876   -0.00000315    0.00011460
     atom   36 type  2   force =     0.00051192   -0.00024681   -0.00085458
     atom   37 type  1   force =     0.00086401    0.00320599    0.00236978
     atom   38 type  1   force =     0.00001022   -0.00001162    0.00194260
     atom   39 type  1   force =     0.00002958    0.00002211    0.00007229
     atom   40 type  2   force =     0.00000563   -0.00001561   -0.00332642
     atom   41 type  2   force =     0.00004571    0.00005793    0.00006306
     atom   42 type  2   force =    -0.00045779   -0.00186852   -0.00199910
     atom   43 type  2   force =     0.00001470    0.00000286    0.00147894
     atom   44 type  2   force =     0.00012650    0.00005320    0.00003828
     atom   45 type  2   force =     0.00062674   -0.00166906   -0.00096742
     atom   46 type  1   force =    -0.00283181    0.00013484   -0.00435274
     atom   47 type  1   force =     0.00000511   -0.00001540    0.00193733
     atom   48 type  1   force =     0.00008819   -0.00002215    0.00014622
     atom   49 type  2   force =     0.00000779   -0.00001694   -0.00332459
     atom   50 type  2   force =     0.00006798    0.00006410    0.00003307
     atom   51 type  2   force =    -0.00047273   -0.00020925    0.00102307
     atom   52 type  2   force =     0.00001076   -0.00000705    0.00148049
     atom   53 type  2   force =     0.00003332    0.00003256    0.00001183
     atom   54 type  2   force =     0.00250615    0.00163761   -0.00089902
     atom   55 type  1   force =     0.00055907   -0.00018992    0.00117952
     atom   56 type  1   force =     0.00001139   -0.00002181    0.00193684
     atom   57 type  1   force =     0.00004321   -0.00001585    0.00011162
     atom   58 type  2   force =     0.00000491   -0.00001520   -0.00332920
     atom   59 type  2   force =     0.00015671   -0.00003649    0.00005410
     atom   60 type  2   force =     0.00062356    0.00000830   -0.00033381
     atom   61 type  2   force =     0.00001615   -0.00002611    0.00146930
     atom   62 type  2   force =     0.00013392   -0.00001482    0.00022130
     atom   63 type  2   force =    -0.00037636   -0.00102167   -0.00009517
     atom   64 type  1   force =     0.00081851   -0.00010681   -0.00024428
     atom   65 type  1   force =     0.00000801   -0.00000862    0.00194488
     atom   66 type  1   force =     0.00009200    0.00008613    0.00004076
     atom   67 type  2   force =     0.00000443   -0.00001597   -0.00332701
     atom   68 type  2   force =     0.00002504   -0.00003045   -0.00008356
     atom   69 type  2   force =     0.00069211   -0.00087121   -0.00048653
     atom   70 type  2   force =     0.00002271   -0.00001170    0.00149168
     atom   71 type  2   force =     0.00012638    0.00002073   -0.00013286
     atom   72 type  2   force =     0.00069569   -0.00048040   -0.00073652
     atom   73 type  1   force =    -0.00138172   -0.00064259    0.00019533
     atom   74 type  1   force =     0.00000678   -0.00001347    0.00194350
     atom   75 type  1   force =     0.00006644    0.00004082   -0.00000443
     atom   76 type  2   force =     0.00000628   -0.00001414   -0.00332776
     atom   77 type  2   force =     0.00004602    0.00003908   -0.00001488
     atom   78 type  2   force =     0.00247038    0.00036006   -0.00052838
     atom   79 type  2   force =     0.00002194   -0.00000337    0.00148617
     atom   80 type  2   force =     0.00003296   -0.00000583    0.00006162
     atom   81 type  2   force =    -0.00064411    0.00047834   -0.00054993
     atom   82 type  1   force =    -0.00172260    0.00054622   -0.00692461
     atom   83 type  1   force =     0.00000924   -0.00001785    0.00194396
     atom   84 type  1   force =     0.00009769   -0.00004779    0.00009624
     atom   85 type  2   force =     0.00000740   -0.00001583   -0.00332369
     atom   86 type  2   force =     0.00004431    0.00006787    0.00003169
     atom   87 type  2   force =     0.00114672   -0.00183228   -0.00346498
     atom   88 type  2   force =     0.00001473   -0.00001088    0.00148368
     atom   89 type  2   force =     0.00006977   -0.00006472    0.00007827
     atom   90 type  2   force =     0.00085632    0.00189367    0.00812937
     atom   91 type  1   force =    -0.00044580   -0.00043717    0.00079722
     atom   92 type  1   force =     0.00000560   -0.00002256    0.00194270
     atom   93 type  1   force =     0.00010810   -0.00001664    0.00016488
     atom   94 type  2   force =     0.00000710   -0.00001715   -0.00332982
     atom   95 type  2   force =     0.00008119   -0.00010889   -0.00007410
     atom   96 type  2   force =     0.00045497    0.00010624   -0.00031186
     atom   97 type  2   force =     0.00000762   -0.00002062    0.00147049
     atom   98 type  2   force =     0.00004472    0.00004795    0.00006015
     atom   99 type  2   force =     0.00017664    0.00063061    0.00191331
     atom  100 type  1   force =     0.00064951    0.00044836    0.00038531
     atom  101 type  1   force =     0.00000742   -0.00000869    0.00194045
     atom  102 type  1   force =     0.00009180    0.00000363   -0.00005995
     atom  103 type  2   force =     0.00000599   -0.00001590   -0.00332376
     atom  104 type  2   force =     0.00007496   -0.00013289   -0.00000291
     atom  105 type  2   force =     0.00063357   -0.00062623    0.00038096
     atom  106 type  2   force =     0.00001590   -0.00000587    0.00149441
     atom  107 type  2   force =     0.00009619   -0.00001237    0.00014522
     atom  108 type  2   force =     0.00069041   -0.00007919   -0.00015525
     atom  109 type  1   force =    -0.00060890   -0.00042614   -0.00014870
     atom  110 type  1   force =     0.00000875   -0.00001108    0.00194023
     atom  111 type  1   force =     0.00010274    0.00003228   -0.00008386
     atom  112 type  2   force =     0.00000549   -0.00001433   -0.00332796
     atom  113 type  2   force =     0.00004099    0.00002811   -0.00018628
     atom  114 type  2   force =    -0.00113769    0.00123424    0.00158447
     atom  115 type  2   force =     0.00000872   -0.00000119    0.00149682
     atom  116 type  2   force =    -0.00000341   -0.00005470    0.00008351
     atom  117 type  2   force =    -0.00023976    0.00136162    0.00006470
     atom  118 type  1   force =    -0.00123591    0.00095920    0.00136561
     atom  119 type  1   force =     0.00000839   -0.00001840    0.00194294
     atom  120 type  1   force =     0.00002323   -0.00002438    0.00013285
     atom  121 type  2   force =     0.00000726   -0.00001525   -0.00332548
     atom  122 type  2   force =     0.00000141    0.00005356   -0.00001613
     atom  123 type  2   force =    -0.00313210    0.00134660   -0.00013382
     atom  124 type  2   force =     0.00001858   -0.00001695    0.00149390
     atom  125 type  2   force =    -0.00001441   -0.00003691   -0.00007285
     atom  126 type  2   force =     0.00069760   -0.00085555   -0.00048953
     atom  127 type  1   force =     0.00087023   -0.00042787    0.00153127
     atom  128 type  1   force =     0.00000707   -0.00002242    0.00194785
     atom  129 type  1   force =     0.00008407    0.00001211    0.00015045
     atom  130 type  2   force =     0.00000776   -0.00001475   -0.00332784
     atom  131 type  2   force =     0.00002343   -0.00006660    0.00009519
     atom  132 type  2   force =    -0.00052290   -0.00388650    0.00001564
     atom  133 type  2   force =     0.00000552   -0.00002765    0.00147368
     atom  134 type  2   force =     0.00004152    0.00005322    0.00015354
     atom  135 type  2   force =    -0.00017938   -0.00105397    0.00160973
[...]
     atom   72 type  2   force =     0.00012706    0.00022499    0.00022022
     atom   73 type  1   force =    -0.00010411    0.00040774   -0.00034813
     atom   74 type  1   force =     0.00000970    0.00000034    0.00189767
     atom   75 type  1   force =     0.00001537   -0.00000693    0.00000326
     atom   76 type  2   force =    -0.00000189   -0.00000354   -0.00328390
     atom   77 type  2   force =     0.00006492   -0.00004477    0.00005992
     atom   78 type  2   force =    -0.00022963    0.00042046    0.00024419
     atom   79 type  2   force =     0.00003300    0.00001109    0.00150873
     atom   80 type  2   force =     0.00000840   -0.00001311   -0.00001037
     atom   81 type  2   force =     0.00004569   -0.00018116   -0.00020287
     atom   82 type  1   force =     0.00020845   -0.00015748    0.00066861
     atom   83 type  1   force =     0.00000993    0.00000064    0.00189157
     atom   84 type  1   force =     0.00002715   -0.00001844    0.00000347
     atom   85 type  2   force =    -0.00000165   -0.00000349   -0.00328335
     atom   86 type  2   force =     0.00002751   -0.00002002    0.00000439
     atom   87 type  2   force =    -0.00024467    0.00017613    0.00014331
     atom   88 type  2   force =     0.00003462    0.00000781    0.00151236
     atom   89 type  2   force =     0.00007849    0.00002001    0.00000665
     atom   90 type  2   force =     0.00033031   -0.00030757   -0.00055302
     atom   91 type  1   force =    -0.00003515   -0.00002049   -0.00028621
     atom   92 type  1   force =     0.00000757   -0.00000556    0.00189415
     atom   93 type  1   force =     0.00002058   -0.00003231    0.00002524
     atom   94 type  2   force =    -0.00000135   -0.00000286   -0.00328504
     atom   95 type  2   force =     0.00002753   -0.00003946    0.00000275
     atom   96 type  2   force =    -0.00061617    0.00093760   -0.00002635
     atom   97 type  2   force =     0.00003304   -0.00000895    0.00148913
     atom   98 type  2   force =     0.00002949   -0.00001241   -0.00001245
     atom   99 type  2   force =    -0.00034880   -0.00024911    0.00006334
     atom  100 type  1   force =    -0.00005466   -0.00038732    0.00024310
     atom  101 type  1   force =     0.00001122    0.00000148    0.00190021
     atom  102 type  1   force =    -0.00001811   -0.00004016    0.00002991
     atom  103 type  2   force =    -0.00000163   -0.00000312   -0.00328208
     atom  104 type  2   force =    -0.00005214   -0.00005227    0.00000835
     atom  105 type  2   force =    -0.00009702    0.00018656   -0.00014062
     atom  106 type  2   force =     0.00003816    0.00000214    0.00151708
     atom  107 type  2   force =     0.00004665   -0.00002899    0.00000796
     atom  108 type  2   force =     0.00012448   -0.00044211    0.00035248
     atom  109 type  1   force =    -0.00005308    0.00005426    0.00002594
     atom  110 type  1   force =     0.00000937   -0.00000077    0.00189452
     atom  111 type  1   force =     0.00001848   -0.00002179    0.00003816
     atom  112 type  2   force =    -0.00000175   -0.00000389   -0.00328420
     atom  113 type  2   force =     0.00000195    0.00003382   -0.00003661
     atom  114 type  2   force =    -0.00027541   -0.00035109    0.00051800
     atom  115 type  2   force =     0.00003926    0.00001539    0.00150613
     atom  116 type  2   force =     0.00004122   -0.00003935   -0.00005781
     atom  117 type  2   force =    -0.00032031    0.00022331   -0.00016967
     atom  118 type  1   force =    -0.00015215    0.00005545   -0.00024503
     atom  119 type  1   force =     0.00000867   -0.00000002    0.00189057
     atom  120 type  1   force =     0.00003284    0.00000493   -0.00004398
     atom  121 type  2   force =    -0.00000196   -0.00000350   -0.00328395
     atom  122 type  2   force =     0.00001627   -0.00007997   -0.00004938
     atom  123 type  2   force =    -0.00008389    0.00028241   -0.00080118
     atom  124 type  2   force =     0.00004105    0.00001471    0.00150951
     atom  125 type  2   force =    -0.00002044    0.00001683   -0.00001828
     atom  126 type  2   force =     0.00007536   -0.00012555   -0.00085202
     atom  127 type  1   force =    -0.00029359    0.00008937   -0.00033444
     atom  128 type  1   force =     0.00000928   -0.00000568    0.00189339
     atom  129 type  1   force =     0.00003035   -0.00001284    0.00000474
     atom  130 type  2   force =    -0.00000204   -0.00000287   -0.00328475
     atom  131 type  2   force =     0.00006694    0.00002519   -0.00001972
     atom  132 type  2   force =    -0.00008406   -0.00006018   -0.00066106
     atom  133 type  2   force =     0.00003603   -0.00000565    0.00148878
     atom  134 type  2   force =     0.00008122    0.00000822   -0.00002796
     atom  135 type  2   force =    -0.00027204    0.00066502   -0.00034679
     atom  136 type  1   force =     0.00017039    0.00014940    0.00006618
     atom  137 type  1   force =     0.00000793    0.00000132    0.00189845
     atom  138 type  1   force =    -0.00001601   -0.00001618   -0.00003429
     atom  139 type  2   force =    -0.00000173   -0.00000365   -0.00328347
     atom  140 type  2   force =     0.00003935   -0.00000145    0.00002271
     atom  141 type  2   force =     0.00026862    0.00026125   -0.00006133
     atom  142 type  2   force =     0.00003605    0.00000040    0.00149216
     atom  143 type  2   force =     0.00002357   -0.00000354   -0.00001330
     atom  144 type  2   force =     0.00033069   -0.00013415    0.00022864
     atom  145 type  3   force =    -0.00017184   -0.00001679    0.00067686
     atom  146 type  4   force =    -0.00005556    0.00084540    0.00004721
     atom  147 type  3   force =     0.00005417    0.00041589   -0.00063345

     Total force =     0.003953     Total SCF correction =     0.000527
     SCF correction compared to forces is large: reduce conv_thr to get better values
     Energy error            =      2.6E-05 Ry
     Gradient error          =      9.4E-04 Ry/Bohr

     bfgs converged in  54 scf cycles and  53 bfgs steps
     (criteria: energy <  1.0E-04 Ry, force <  1.0E-03 Ry/Bohr)

     End of BFGS Geometry Optimization

     Final energy             =  -27706.4631690493 Ry

     File ./outdir/pwscf.bfgs deleted, as requested
Begin final coordinates

ATOMIC_POSITIONS (angstrom)
Mo               1.6039393660        2.7260448949        6.0917160295
Mo               1.5769197498        0.9104407117       -6.0872367793    0   0   0
Mo               0.0065247130        1.8222543769        0.0011373632
S                0.0000044503        0.0000077495       -7.6506323570    0   0   0
S                1.5830057895        0.9119090878       -1.5647592265
S                0.0285083136        1.8300751707        4.5134047021
S                0.0000053241        0.0000068460       -4.5222282367    0   0   0
S                1.5833713915        0.9103780594        1.5667900535
S                0.0193433867        1.8065269128        7.6489272711
Mo               0.0179116231        5.4689846346        6.0934416407
Mo               0.0000011799        3.6417399547       -6.0872367793    0   0   0
Mo              -1.5703160202        4.5534950707        0.0010385748
S               -1.5769141197        2.7313069925       -7.6506323570    0   0   0
S                0.0064704716        3.6429663875       -1.5642741195
S               -1.5482582179        4.5575848415        4.5170617576
S               -1.5769132459        2.7313060890       -4.5222282367    0   0   0
S                0.0077946282        3.6439195286        1.5685747199
S               -1.5502292167        4.5500269567        7.6607304984
Mo              -1.5568598906        8.1924283742        6.0684819700
Mo              -1.5769173901        6.3730391977       -6.0872367793    0   0   0
Mo              -3.1476843432        7.2838366001       -0.0013136842
S               -3.1538326896        5.4626062355       -7.6506323570    0   0   0
S               -1.5707628947        6.3729845749       -1.5662615383
S               -3.1337981966        7.2730414528        4.5080099795
S               -3.1538318159        5.4626053320       -4.5222282367    0   0   0
S               -1.5702483551        6.3750195455        1.5661815666
S               -3.1240880731        7.2911407719        7.6486525836
Mo               3.1709637603       -0.0048009177        6.0634504368
Mo              -3.1538359601        9.1043384407       -6.0872367793    0   0   0
Mo              -4.7246359252       10.0152318785       -0.0006325064
S               -4.7307512596        8.1939054785       -7.6506323570    0   0   0
S               -3.1476771013        9.1052329134       -1.5661903766
S               -4.7136786897       10.0083933498        4.5000519090
S               -4.7307503859        8.1939045750       -4.5222282367    0   0   0
S               -3.1474805910        9.1041909837        1.5657842972
S               -4.7054833100       10.0240986032        7.6416605074
Mo               4.7515367561        2.6790147158        6.0617233017
Mo               4.7307503218        0.9104407117       -6.0872367793    0   0   0
Mo               3.1601791134        1.8222496124        0.0008228716
S                3.1538350223        0.0000077495       -7.6506323570    0   0   0
S                4.7367430556        0.9121068174       -1.5649389794
S                3.1617186662        1.8182382903        4.4972493515
S                3.1538358961        0.0000068460       -4.5222282367    0   0   0
S                4.7373969948        0.9115668773        1.5675639526
S                3.1767925839        1.7954564119        7.6465226604
Mo               3.1540635868        5.4688858061        6.1407393477
Mo               3.1538317519        3.6417399547       -6.0872367793    0   0   0
Mo               1.5838960246        4.5536401480        0.0005138190
S                1.5769164523        2.7313069925       -7.6506323570    0   0   0
S                3.1599396531        3.6425313300       -1.5651086308
S                1.6185242593        4.5677555441        4.5577103848
S                1.5769173261        2.7313060890       -4.5222282367    0   0   0
S                3.1610771835        3.6437618177        1.5685298625
S                1.4914422945        4.4936837358        7.7566821732
Mo               1.5833484066        8.2086095700        6.0721098225
Mo               1.5769131819        6.3730391977       -6.0872367793    0   0   0
Mo               0.0064610709        7.2842334201       -0.0014137198
S               -0.0000021176        5.4626062355       -7.6506323570    0   0   0
S                1.5830930928        6.3733905475       -1.5666280145
S                0.0207372357        7.2762484227        4.5067687009
S               -0.0000012439        5.4626053320       -4.5222282367    0   0   0
S                1.5838586295        6.3750908135        1.5665823837
S                0.0144549540        7.2995415061        7.6489258861
Mo               6.3321126719       -0.0044328488        6.0590523313
Mo              -0.0000053881        9.1043384407       -6.0872367793    0   0   0
Mo              -1.5706634528       10.0158626814       -0.0003014419
S               -1.5769206876        8.1939054785       -7.6506323570    0   0   0
S                0.0060326006        9.1057176506       -1.5661183111
S               -1.5588024562       10.0097497125        4.4954606315
S               -1.5769198139        8.1939045750       -4.5222282367    0   0   0
S                0.0068696064        9.1047955163        1.5656962183
S               -1.5557947945       10.0129834376        7.6294013505
Mo               7.9090077903        2.7216427119        6.0885901356
Mo               7.8845808939        0.9104407117       -6.0872367793    0   0   0
Mo               6.3140095169        1.8223774378        0.0004074423
S                6.3076655943        0.0000077495       -7.6506323570    0   0   0
S                7.8909138347        0.9124339352       -1.5655797163
S                6.3422809973        1.8173204929        4.4943298103
S                6.3076664681        0.0000068460       -4.5222282367    0   0   0
S                7.8915325621        0.9110939419        1.5661758861
S                6.3334821618        1.7936389936        7.6417550972
Mo               6.3598086039        5.4639258206        6.1364161907
Mo               6.3076623239        3.6417399547       -6.0872367793    0   0   0
Mo               4.7368799222        4.5536921821       -0.0002461485
S                4.7307470244        2.7313069925       -7.6506323570    0   0   0
S                6.3137101631        3.6427959608       -1.5652644272
S                4.7510119032        4.5747271067        4.5785556392
S                4.7307478981        2.7313060890       -4.5222282367    0   0   0
S                6.3130965674        3.6438086082        1.5681723172
S                4.7722562566        4.4486275584        7.6357792223
Mo               4.7543667895        8.2152148814        6.0962509300
Mo               4.7307437539        6.3730391977       -6.0872367793    0   0   0
Mo               3.1602795681        7.2843547277       -0.0017094282
S                3.1538284544        5.4626062355       -7.6506323570    0   0   0
S                4.7367229265        6.3736556722       -1.5671637859
S                3.1806011024        7.2630384484        4.5529686024
S                3.1538293281        5.4626053320       -4.5222282367    0   0   0
S                4.7370764641        6.3747989453        1.5660652194
S                3.1529114640        7.3950433247        7.6998096505
Mo               9.4849037555        0.0010751990        6.0665015261
Mo               3.1538251839        9.1043384407       -6.0872367793    0   0   0
Mo               1.5836218317       10.0158747111       -0.0009638079
S                1.5769098844        8.1939054785       -7.6506323570    0   0   0
S                3.1606735117        9.1060602863       -1.5662793471
S                1.6022136418       10.0129142687        4.4941641561
S                1.5769107581        8.1939045750       -4.5222282367    0   0   0
S                3.1601757254        9.1039626170        1.5665176507
S                1.5932027403       10.0297809931        7.6371042991
Mo              -1.5500921190        2.7343015421        6.0819277341
Mo              11.0384114659        0.9104407117       -6.0872367793    0   0   0
Mo               9.4680506709        1.8223881054        0.0005098474
S                9.4614961663        0.0000077495       -7.6506323570    0   0   0
S               11.0450056068        0.9119385376       -1.5645562937
S                9.4876525508        1.8301923243        4.5101096790
S                9.4614970401        0.0000068460       -4.5222282367    0   0   0
S               11.0449524621        0.9113518642        1.5679335213
S                9.4934625100        1.8061833992        7.6466019141
Mo              -3.1206076629        5.4621936553        6.0919050160
Mo               9.4614928959        3.6417399547       -6.0872367793    0   0   0
Mo               7.8904347731        4.5533638446        0.0003883425
S                7.8845775964        2.7313069925       -7.6506323570    0   0   0
S                9.4679073332        3.6432415158       -1.5645308075
S                7.8995393123        4.5586139746        4.5511918237
S                7.8845784701        2.7313060890       -4.5222282367    0   0   0
S                9.4673807810        3.6437362893        1.5682999486
S                8.0063367252        4.4953675772        7.7256063286
Mo              -4.6973901929        8.2021340701        6.0784968530
Mo               7.8845743259        6.3730391977       -6.0872367793    0   0   0
Mo               6.3136520659        7.2840717170       -0.0016831947
S                6.3076590264        5.4626062355       -7.6506323570    0   0   0
S                7.8905174841        6.3731089764       -1.5664904275
S                6.3275907473        7.2657687378        4.5501852102
S                6.3076599001        5.4626053320       -4.5222282367    0   0   0
S                7.8902905190        6.3744715360        1.5665542234
S                6.3482772994        7.3590324569        7.6856202068
Mo               0.0218100196       -0.0000996242        6.0694456619
Mo               6.3076557559        9.1043384407       -6.0872367793    0   0   0
Mo               4.7372656472       10.0156802307        0.0003108671
S                4.7307404564        8.1939054785       -7.6506323570    0   0   0
S                6.3134510050        9.1056642423       -1.5662283071
S                4.7534814220       10.0071509745        4.5038465656
S                4.7307413301        8.1939045750       -4.5222282367    0   0   0
S                6.3142860599        9.1035446308        1.5666821368
S                4.7522178028       10.0431369233        7.6498229802
Pt               3.2612074264        5.4199013173        9.0093492173
Pd               6.2707904170        5.3594642167        9.1008065294
Pt               4.6583764982        5.6755077110       11.0518100014
End final coordinates



     Writing all to output data dir ./outdir/pwscf.save/ :
     XML data file, charge density, pseudopotentials, collected wavefunctions
 
     init_run     :     97.29s CPU    100.46s WALL (       1 calls)
     electrons    : 142796.80s CPU 144961.43s WALL (      25 calls)
     update_pot   :     37.98s CPU     39.11s WALL (      24 calls)
     forces       :   1802.97s CPU   1841.94s WALL (      25 calls)
     force_dftd3  :      9.55s CPU      9.98s WALL (      25 calls)

     Called by init_run:
     wfcinit      :     78.90s CPU     79.88s WALL (       1 calls)
     potinit      :      1.44s CPU      2.02s WALL (       1 calls)
     hinit0       :      9.33s CPU      9.70s WALL (       1 calls)

     Called by electrons:
     c_bands      : 124132.73s CPU 125416.73s WALL (     428 calls)
     sum_band     :  15905.71s CPU  16371.68s WALL (     428 calls)
     v_of_rho     :    124.70s CPU    139.88s WALL (     438 calls)
     newd         :   2208.77s CPU   2611.51s WALL (     438 calls)
     PAW_pot      :    477.24s CPU    480.81s WALL (     462 calls)
     mix_rho      :     36.63s CPU     41.37s WALL (     428 calls)
     energy_dftd3 :      5.34s CPU      5.37s WALL (      25 calls)

     Called by c_bands:
     init_us_2    :    585.93s CPU    588.90s WALL (    3624 calls)
     init_us_2:cp :    585.90s CPU    588.88s WALL (    3624 calls)
     cegterg      : 121695.95s CPU 122958.49s WALL (    1734 calls)

     Called by *egterg:
     cdiaghg      :   6576.44s CPU   6858.21s WALL (   21343 calls)
     h_psi        :  62598.32s CPU  62999.23s WALL (   21521 calls)
     s_psi        :  12893.77s CPU  12952.07s WALL (   21521 calls)
     g_psi        :    137.66s CPU    138.31s WALL (   19783 calls)

     Called by h_psi:
     h_psi:calbec :  12905.66s CPU  12948.92s WALL (   21521 calls)
     vloc_psi     :  36463.47s CPU  36660.10s WALL (   21521 calls)
     add_vuspsi   :  12924.24s CPU  12983.44s WALL (   21521 calls)

     General routines
     calbec       :  18109.56s CPU  18171.65s WALL (   23729 calls)
     fft          :     96.05s CPU    109.67s WALL (    5958 calls)
     ffts         :      5.52s CPU      5.71s WALL (     866 calls)
     fftw         :  27233.16s CPU  27376.26s WALL ( 9525934 calls)
     interpolate  :     10.29s CPU     11.31s WALL (     438 calls)
 
     Parallel routines
 
     PWSCF        :   1d16h22m CPU   1d17h 1m WALL

 
   This run was terminated on:  23:46:43  19Apr2024            

=------------------------------------------------------------------------------=
   JOB DONE.
=------------------------------------------------------------------------------=
