
     Program PWSCF v.7.2 starts on  3Nov2023 at 16:49:42 

     This program is part of the open-source Quantum ESPRESSO suite
     for quantum simulation of materials; please cite
         "P. Giannozzi et al., J. Phys.:Condens. Matter 21 395502 (2009);
         "P. Giannozzi et al., J. Phys.:Condens. Matter 29 465901 (2017);
         "P. Giannozzi et al., J. Chem. Phys. 152 154105 (2020);
          URL http://www.quantum-espresso.org", 
     in publications or presentations arising from this work. More details at
     http://www.quantum-espresso.org/quote

     Parallel version (MPI), running on    36 processors

     MPI processes distributed on     1 nodes
     770462 MiB available memory on the printing compute node when the environment starts
 
     Waiting for input...
     Reading input from standard input
Warning: card &CELL ignored
Warning: card / ignored

     Current dimensions of program PWSCF are:
     Max number of different atomic species (ntypx) = 10
     Max number of k-points (npk) =  40000
     Max angular momentum in pseudopotentials (lmaxx) =  4
     file Mo.pbe-spn-kjpaw_psl.1.0.0.UPF: wavefunction(s)  4S 4D renormalized
     file S.pbe-n-kjpaw_psl.1.0.0.UPF: wavefunction(s)  3S 3P renormalized
     file Au.pbe-spfn-kjpaw_psl.1.0.0.UPF: wavefunction(s)  5P 5D 4F renormalized
 
     R & G space division:  proc/nbgrp/npool/nimage =      36
     Subspace diagonalization in iterative solution of the eigenvalue problem:
     one sub-group per band group will be used
     custom distributed-memory algorithm (size of sub-group:  6*  6 procs)

 
     Parallelization info
     --------------------
     sticks:   dense  smooth     PW     G-vecs:    dense   smooth      PW
     Min         585     334     89               198743    85850   11735
     Max         586     335     90               198750    85861   11748
     Sum       21073   12049   3205              7154885  3090769  422587
 
     Using Slab Decomposition
 


     bravais-lattice index     =            0
     lattice parameter (alat)  =      23.8199  a.u.
     unit-cell volume          =   33861.0370 (a.u.)^3
     number of atoms/cell      =          193
     number of atomic types    =            3
     number of electrons       =      1697.00
     number of Kohn-Sham states=         1019
     kinetic-energy cutoff     =      77.0000  Ry
     charge density cutoff     =     539.0000  Ry
     scf convergence threshold =      1.0E-06
     mixing beta               =       0.2000
     number of iterations used =            8  plain     mixing
     energy convergence thresh.=      1.0E-04
     force convergence thresh. =      1.0E-03
     Exchange-correlation= SLA  PW   PBX  PBC
                           (   1   4   3   4   0   0   0)
     nstep                     =         1000


     Effective Screening Medium Method
     =================================
     Boundary Conditions: Vacuum-Slab-Vacuum
     total charge in unit cell        =   0.0000
     grid points for fit at edges     =        4 
 

     celldm(1)=  23.819920  celldm(2)=   0.000000  celldm(3)=   0.000000
     celldm(4)=   0.000000  celldm(5)=   0.000000  celldm(6)=   0.000000

     crystal axes: (cart. coord. in units of alat)
               a(1) = (   1.000000   0.000000   0.000000 )  
               a(2) = (  -0.499999   0.866026   0.000000 )  
               a(3) = (   0.000000   0.000000   2.893000 )  

     reciprocal axes: (cart. coord. in units 2 pi/alat)
               b(1) = (  1.000000  0.577349  0.000000 )  
               b(2) = (  0.000000  1.154700  0.000000 )  
               b(3) = (  0.000000  0.000000  0.345662 )  


     PseudoPot. # 1 for Mo read from file:
     ./pseudo/Mo.pbe-spn-kjpaw_psl.1.0.0.UPF
     MD5 check sum: 317bf72632116215fd98f72de1686f13
     Pseudo is Projector augmented-wave + core cor, Zval = 14.0
     Generated using 'atomic' code by A. Dal Corso  v.7.2
     Shape of augmentation charge: PSQ
     Using radial grid of 1229 points,  6 beta functions with: 
                l(1) =   0
                l(2) =   0
                l(3) =   1
                l(4) =   1
                l(5) =   2
                l(6) =   2
     Q(r) pseudized with 0 coefficients 


     PseudoPot. # 2 for S  read from file:
     ./pseudo/S.pbe-n-kjpaw_psl.1.0.0.UPF
     MD5 check sum: 8b7b5302570d38d5e87fed6a1065abda
     Pseudo is Projector augmented-wave + core cor, Zval =  6.0
     Generated using 'atomic' code by A. Dal Corso  v.7.2
     Shape of augmentation charge: PSQ
     Using radial grid of 1151 points,  6 beta functions with: 
                l(1) =   0
                l(2) =   0
                l(3) =   1
                l(4) =   1
                l(5) =   2
                l(6) =   2
     Q(r) pseudized with 0 coefficients 


     PseudoPot. # 3 for Au read from file:
     ./pseudo/Au.pbe-spfn-kjpaw_psl.1.0.0.UPF
     MD5 check sum: c4676eff00405da86a99eb409921eac8
     Pseudo is Projector augmented-wave + core cor, Zval = 33.0
     Generated using 'atomic' code by A. Dal Corso  v.7.2
     Shape of augmentation charge: PSQ
     Using radial grid of 1279 points,  8 beta functions with: 
                l(1) =   0
                l(2) =   0
                l(3) =   1
                l(4) =   1
                l(5) =   2
                l(6) =   2
                l(7) =   3
                l(8) =   3
     Q(r) pseudized with 0 coefficients 


     atomic species   valence    mass     pseudopotential
        Mo            14.00    95.95000     Mo( 1.00)
        S              6.00    32.06000     S ( 1.00)
        Au            33.00   196.96657     Au( 1.00)

     No symmetry found



   Cartesian axes

     site n.     atom                  positions (alat units)
         1           Mo  tau(   1) = (   0.0000010   0.1443372  -0.7272732  )
         2           Mo  tau(   2) = (   0.1249995   0.0721706  -0.2424038  )
         3           S   tau(   3) = (   0.0000015   0.1443386  -0.3667807  )
         4           S   tau(   4) = (   0.1250010   0.0721682  -0.6030489  )
         5           S   tau(   5) = (   0.1250010   0.0721683  -0.8514963  )
         6           S   tau(   6) = (   0.0000015   0.1443389  -0.1180260  )
         7           Mo  tau(   7) = (   0.0000041   0.1443345   0.2424023  )
         8           Mo  tau(   8) = (   0.1250030   0.0721700   0.7272501  )
         9           S   tau(   9) = (   0.0000038   0.1443392   0.6028599  )
        10           S   tau(  10) = (   0.1250037   0.0721683   0.3667755  )
        11           S   tau(  11) = (   0.1250033   0.0721688   0.1180247  )
        12           S   tau(  12) = (   0.0000038   0.1443391   0.8517304  )
        13           Mo  tau(  13) = (  -0.1249989   0.3608437  -0.7272732  )
        14           Mo  tau(  14) = (   0.0000030   0.2886752  -0.2424042  )
        15           S   tau(  15) = (  -0.1249977   0.3608450  -0.3667802  )
        16           S   tau(  16) = (   0.0000012   0.2886747  -0.6030489  )
        17           S   tau(  17) = (   0.0000012   0.2886748  -0.8514963  )
        18           S   tau(  18) = (  -0.1249977   0.3608454  -0.1180274  )
        19           Mo  tau(  19) = (  -0.1249981   0.3608444   0.2424011  )
        20           Mo  tau(  20) = (   0.0000038   0.2886765   0.7272499  )
        21           S   tau(  21) = (  -0.1249961   0.3608457   0.6028596  )
        22           S   tau(  22) = (   0.0000037   0.2886752   0.3667739  )
        23           S   tau(  23) = (   0.0000035   0.2886747   0.1180263  )
        24           S   tau(  24) = (  -0.1249962   0.3608459   0.8517305  )
        25           Mo  tau(  25) = (  -0.2499987   0.5773502  -0.7272732  )
        26           Mo  tau(  26) = (  -0.1249977   0.5051839  -0.2424055  )
        27           S   tau(  27) = (  -0.2499981   0.5773518  -0.3667809  )
        28           S   tau(  28) = (  -0.1249986   0.5051812  -0.6030489  )
        29           S   tau(  29) = (  -0.1249986   0.5051813  -0.8514963  )
        30           S   tau(  30) = (  -0.2499979   0.5773512  -0.1180266  )
        31           Mo  tau(  31) = (  -0.2499983   0.5773503   0.2424020  )
        32           Mo  tau(  32) = (  -0.1249962   0.5051830   0.7272501  )
        33           S   tau(  33) = (  -0.2499958   0.5773522   0.6028593  )
        34           S   tau(  34) = (  -0.1249963   0.5051821   0.3667746  )
        35           S   tau(  35) = (  -0.1249968   0.5051820   0.1180254  )
        36           S   tau(  36) = (  -0.2499959   0.5773522   0.8517307  )
        37           Mo  tau(  37) = (  -0.3749985   0.7938567  -0.7272732  )
        38           Mo  tau(  38) = (  -0.2500001   0.7216874  -0.2424031  )
        39           S   tau(  39) = (  -0.3749980   0.7938584  -0.3667800  )
        40           S   tau(  40) = (  -0.2499984   0.7216877  -0.6030489  )
        41           S   tau(  41) = (  -0.2499984   0.7216878  -0.8514963  )
        42           S   tau(  42) = (  -0.3749982   0.7938585  -0.1180264  )
        43           Mo  tau(  43) = (  -0.3749976   0.7938584   0.2424002  )
        44           Mo  tau(  44) = (  -0.2499965   0.7216896   0.7272502  )
        45           S   tau(  45) = (  -0.3749954   0.7938586   0.6028596  )
        46           S   tau(  46) = (  -0.2499962   0.7216890   0.3667741  )
        47           S   tau(  47) = (  -0.2499961   0.7216884   0.1180258  )
        48           S   tau(  48) = (  -0.3749955   0.7938585   0.8517305  )
        49           Mo  tau(  49) = (   0.2500010   0.1443372  -0.7272732  )
        50           Mo  tau(  50) = (   0.3750034   0.0721723  -0.2424032  )
        51           S   tau(  51) = (   0.2500017   0.1443391  -0.3667788  )
        52           S   tau(  52) = (   0.3750010   0.0721682  -0.6030489  )
        53           S   tau(  53) = (   0.3750010   0.0721683  -0.8514963  )
        54           S   tau(  54) = (   0.2500016   0.1443391  -0.1180271  )
        55           Mo  tau(  55) = (   0.2500037   0.1443371   0.2424008  )
        56           Mo  tau(  56) = (   0.3750049   0.0721708   0.7272499  )
        57           S   tau(  57) = (   0.2500041   0.1443391   0.6028593  )
        58           S   tau(  58) = (   0.3750026   0.0721682   0.3667763  )
        59           S   tau(  59) = (   0.3750033   0.0721687   0.1180242  )
        60           S   tau(  60) = (   0.2500040   0.1443392   0.8517310  )
        61           Mo  tau(  61) = (   0.1250012   0.3608437  -0.7272732  )
        62           Mo  tau(  62) = (   0.2500029   0.2886782  -0.2424031  )
        63           S   tau(  63) = (   0.1250024   0.3608455  -0.3667794  )
        64           S   tau(  64) = (   0.2500012   0.2886747  -0.6030489  )
        65           S   tau(  65) = (   0.2500012   0.2886748  -0.8514963  )
        66           S   tau(  66) = (   0.1250021   0.3608455  -0.1180270  )
        67           Mo  tau(  67) = (   0.1250055   0.3608449   0.2424003  )
        68           Mo  tau(  68) = (   0.2500045   0.2886775   0.7272501  )
        69           S   tau(  69) = (   0.1250040   0.3608458   0.6028596  )
        70           S   tau(  70) = (   0.2500032   0.2886750   0.3667755  )
        71           S   tau(  71) = (   0.2500033   0.2886748   0.1180238  )
        72           S   tau(  72) = (   0.1250043   0.3608459   0.8517305  )
        73           Mo  tau(  73) = (   0.0000014   0.5773502  -0.7272732  )
        74           Mo  tau(  74) = (   0.1250045   0.5051840  -0.2424036  )
        75           S   tau(  75) = (   0.0000030   0.5773520  -0.3667799  )
        76           S   tau(  76) = (   0.1250014   0.5051812  -0.6030489  )
        77           S   tau(  77) = (   0.1250014   0.5051813  -0.8514963  )
        78           S   tau(  78) = (   0.0000026   0.5773517  -0.1180274  )
        79           Mo  tau(  79) = (   0.0000039   0.5773528   0.2424003  )
        80           Mo  tau(  80) = (   0.1250050   0.5051837   0.7272501  )
        81           S   tau(  81) = (   0.0000041   0.5773523   0.6028593  )
        82           S   tau(  82) = (   0.1250034   0.5051819   0.3667749  )
        83           S   tau(  83) = (   0.1250033   0.5051818   0.1180238  )
        84           S   tau(  84) = (   0.0000042   0.5773523   0.8517309  )
        85           Mo  tau(  85) = (  -0.1249984   0.7938567  -0.7272732  )
        86           Mo  tau(  86) = (   0.0000069   0.7216896  -0.2424039  )
        87           S   tau(  87) = (  -0.1249975   0.7938582  -0.3667782  )
        88           S   tau(  88) = (   0.0000016   0.7216877  -0.6030489  )
        89           S   tau(  89) = (   0.0000016   0.7216878  -0.8514963  )
        90           S   tau(  90) = (  -0.1249973   0.7938582  -0.1180279  )
        91           Mo  tau(  91) = (  -0.1249936   0.7938581   0.2424006  )
        92           Mo  tau(  92) = (   0.0000056   0.7216904   0.7272501  )
        93           S   tau(  93) = (  -0.1249955   0.7938586   0.6028591  )
        94           S   tau(  94) = (   0.0000039   0.7216883   0.3667759  )
        95           S   tau(  95) = (   0.0000039   0.7216885   0.1180233  )
        96           S   tau(  96) = (  -0.1249955   0.7938586   0.8517313  )
        97           Mo  tau(  97) = (   0.5000010   0.1443372  -0.7272732  )
        98           Mo  tau(  98) = (   0.6250001   0.0721662  -0.2424040  )
        99           S   tau(  99) = (   0.5000017   0.1443386  -0.3667801  )
       100           S   tau( 100) = (   0.6250010   0.0721682  -0.6030489  )
       101           S   tau( 101) = (   0.6250010   0.0721683  -0.8514963  )
       102           S   tau( 102) = (   0.5000020   0.1443388  -0.1180261  )
       103           Mo  tau( 103) = (   0.5000005   0.1443344   0.2424031  )
       104           Mo  tau( 104) = (   0.6250028   0.0721696   0.7272500  )
       105           S   tau( 105) = (   0.5000038   0.1443392   0.6028599  )
       106           S   tau( 106) = (   0.6250032   0.0721682   0.3667750  )
       107           S   tau( 107) = (   0.6250029   0.0721690   0.1180259  )
       108           S   tau( 108) = (   0.5000038   0.1443393   0.8517304  )
       109           Mo  tau( 109) = (   0.3750012   0.3608437  -0.7272732  )
       110           Mo  tau( 110) = (   0.4999991   0.2886761  -0.2424038  )
       111           S   tau( 111) = (   0.3750012   0.3608452  -0.3667804  )
       112           S   tau( 112) = (   0.5000012   0.2886747  -0.6030489  )
       113           S   tau( 113) = (   0.5000012   0.2886748  -0.8514963  )
       114           S   tau( 114) = (   0.3750014   0.3608455  -0.1180261  )
       115           Mo  tau( 115) = (   0.3750003   0.3608415   0.2424003  )
       116           Mo  tau( 116) = (   0.5000036   0.2886765   0.7272501  )
       117           S   tau( 117) = (   0.3750041   0.3608456   0.6028595  )
       118           S   tau( 118) = (   0.5000032   0.2886753   0.3667740  )
       119           S   tau( 119) = (   0.5000035   0.2886745   0.1180267  )
       120           S   tau( 120) = (   0.3750041   0.3608457   0.8517303  )
       121           Mo  tau( 121) = (   0.2500014   0.5773502  -0.7272732  )
       122           Mo  tau( 122) = (   0.3749983   0.5051825  -0.2424043  )
       123           S   tau( 123) = (   0.2500017   0.5773519  -0.3667810  )
       124           S   tau( 124) = (   0.3750014   0.5051812  -0.6030489  )
       125           S   tau( 125) = (   0.3750014   0.5051813  -0.8514963  )
       126           S   tau( 126) = (   0.2500018   0.5773519  -0.1180256  )
       127           Mo  tau( 127) = (   0.2500009   0.5773497   0.2423999  )
       128           Mo  tau( 128) = (   0.3750037   0.5051832   0.7272500  )
       129           S   tau( 129) = (   0.2500042   0.5773522   0.6028596  )
       130           S   tau( 130) = (   0.3750035   0.5051817   0.3667733  )
       131           S   tau( 131) = (   0.3750039   0.5051817   0.1180258  )
       132           S   tau( 132) = (   0.2500043   0.5773521   0.8517304  )
       133           Mo  tau( 133) = (   0.1250016   0.7938567  -0.7272732  )
       134           Mo  tau( 134) = (   0.2499995   0.7216883  -0.2424036  )
       135           S   tau( 135) = (   0.1250024   0.7938578  -0.3667813  )
       136           S   tau( 136) = (   0.2500016   0.7216877  -0.6030489  )
       137           S   tau( 137) = (   0.2500016   0.7216878  -0.8514963  )
       138           S   tau( 138) = (   0.1250024   0.7938579  -0.1180253  )
       139           Mo  tau( 139) = (   0.1250007   0.7938566   0.2424003  )
       140           Mo  tau( 140) = (   0.2500037   0.7216894   0.7272501  )
       141           S   tau( 141) = (   0.1250043   0.7938588   0.6028599  )
       142           S   tau( 142) = (   0.2500035   0.7216882   0.3667737  )
       143           S   tau( 143) = (   0.2500038   0.7216886   0.1180257  )
       144           S   tau( 144) = (   0.1250043   0.7938587   0.8517303  )
       145           Mo  tau( 145) = (   0.7500010   0.1443372  -0.7272732  )
       146           Mo  tau( 146) = (   0.8750038   0.0721696  -0.2424038  )
       147           S   tau( 147) = (   0.7500016   0.1443382  -0.3667789  )
       148           S   tau( 148) = (   0.8750010   0.0721682  -0.6030489  )
       149           S   tau( 149) = (   0.8750010   0.0721683  -0.8514963  )
       150           S   tau( 150) = (   0.7500016   0.1443384  -0.1180279  )
       151           Mo  tau( 151) = (   0.7500051   0.1443370   0.2424017  )
       152           Mo  tau( 152) = (   0.8750049   0.0721705   0.7272500  )
       153           S   tau( 153) = (   0.7500039   0.1443393   0.6028592  )
       154           S   tau( 154) = (   0.8750038   0.0721685   0.3667764  )
       155           S   tau( 155) = (   0.8750039   0.0721688   0.1180247  )
       156           S   tau( 156) = (   0.7500041   0.1443394   0.8517311  )
       157           Mo  tau( 157) = (   0.6250012   0.3608437  -0.7272732  )
       158           Mo  tau( 158) = (   0.7500028   0.2886769  -0.2424041  )
       159           S   tau( 159) = (   0.6250015   0.3608451  -0.3667792  )
       160           S   tau( 160) = (   0.7500012   0.2886747  -0.6030489  )
       161           S   tau( 161) = (   0.7500012   0.2886748  -0.8514963  )
       162           S   tau( 162) = (   0.6250016   0.3608454  -0.1180280  )
       163           Mo  tau( 163) = (   0.6250051   0.3608469   0.2424010  )
       164           Mo  tau( 164) = (   0.7500045   0.2886776   0.7272501  )
       165           S   tau( 165) = (   0.6250042   0.3608457   0.6028594  )
       166           S   tau( 166) = (   0.7500035   0.2886754   0.3667754  )
       167           S   tau( 167) = (   0.7500035   0.2886751   0.1180251  )
       168           S   tau( 168) = (   0.6250042   0.3608459   0.8517307  )
       169           Mo  tau( 169) = (   0.5000014   0.5773502  -0.7272732  )
       170           Mo  tau( 170) = (   0.6250029   0.5051841  -0.2424047  )
       171           S   tau( 171) = (   0.5000014   0.5773518  -0.3667794  )
       172           S   tau( 172) = (   0.6250014   0.5051812  -0.6030489  )
       173           S   tau( 173) = (   0.6250014   0.5051813  -0.8514963  )
       174           S   tau( 174) = (   0.5000016   0.5773516  -0.1180277  )
       175           Mo  tau( 175) = (   0.5000072   0.5773526   0.2424011  )
       176           Mo  tau( 176) = (   0.6250047   0.5051838   0.7272501  )
       177           S   tau( 177) = (   0.5000044   0.5773522   0.6028593  )
       178           S   tau( 178) = (   0.6250038   0.5051821   0.3667764  )
       179           S   tau( 179) = (   0.6250040   0.5051821   0.1180241  )
       180           S   tau( 180) = (   0.5000045   0.5773523   0.8517308  )
       181           Mo  tau( 181) = (   0.3750016   0.7938567  -0.7272732  )
       182           Mo  tau( 182) = (   0.5000025   0.7216901  -0.2424039  )
       183           S   tau( 183) = (   0.3750019   0.7938578  -0.3667793  )
       184           S   tau( 184) = (   0.5000016   0.7216877  -0.6030489  )
       185           S   tau( 185) = (   0.5000016   0.7216878  -0.8514963  )
       186           S   tau( 186) = (   0.3750020   0.7938579  -0.1180272  )
       187           Mo  tau( 187) = (   0.3750057   0.7938586   0.2424015  )
       188           Mo  tau( 188) = (   0.5000052   0.7216902   0.7272503  )
       189           S   tau( 189) = (   0.3750045   0.7938588   0.6028592  )
       190           S   tau( 190) = (   0.5000042   0.7216887   0.3667757  )
       191           S   tau( 191) = (   0.5000039   0.7216887   0.1180242  )
       192           S   tau( 192) = (   0.3750047   0.7938587   0.8517308  )
       193           Au  tau( 193) = (   0.1250302   0.3608104   1.0500629  )

     --------------------------------------------
     DFT-D3 Dispersion Correction (3-body terms):
     --------------------------------------------
       Reference C6 values for interpolation: 

         atom   Coordination number   C6
         S          0.000           268.01
         S          0.995           261.99
         S          1.990           251.62
         Mo         0.000          1691.79
         Mo         1.942          1004.01
         Mo        11.056           674.22
         Au         0.000           684.71
         Au         0.985           634.31

       Values used:

         atom   Coordination number  R0_AB[au]  C6      C8
         Mo        10.208            3.547    674.22  77634.20
         Mo        10.221            3.547    674.22  77634.20
         S          3.858            3.128    251.62  12327.25
         S          3.859            3.128    251.62  12327.25
         S          3.758            3.128    251.62  12327.25
         S          3.859            3.128    251.62  12327.25
         Mo        10.221            3.547    674.22  77634.20
         Mo        10.207            3.547    674.21  77634.20
         S          3.856            3.128    251.62  12327.25
         S          3.859            3.128    251.62  12327.25
         S          3.859            3.128    251.62  12327.25
         S          3.765            3.128    251.62  12327.25
         Mo        10.208            3.547    674.22  77634.20
         Mo        10.221            3.547    674.22  77634.20
         S          3.858            3.128    251.62  12327.25
         S          3.859            3.128    251.62  12327.25
         S          3.758            3.128    251.62  12327.25
         S          3.859            3.128    251.62  12327.25
         Mo        10.221            3.547    674.22  77634.20
         Mo        10.215            3.547    674.22  77634.20
         S          3.856            3.128    251.62  12327.25
         S          3.859            3.128    251.62  12327.25
         S          3.859            3.128    251.62  12327.25
         S          3.765            3.128    251.62  12327.25
         Mo        10.208            3.547    674.22  77634.20
         Mo        10.221            3.547    674.22  77634.20
         S          3.858            3.128    251.62  12327.25
         S          3.859            3.128    251.62  12327.25
         S          3.758            3.128    251.62  12327.25
         S          3.859            3.128    251.62  12327.25
         Mo        10.221            3.547    674.22  77634.20
         Mo        10.207            3.547    674.22  77634.20
         S          3.856            3.128    251.62  12327.25
         S          3.859            3.128    251.62  12327.25
         S          3.859            3.128    251.62  12327.25
         S          3.755            3.128    251.62  12327.25
         Mo        10.208            3.547    674.22  77634.20
         Mo        10.221            3.547    674.22  77634.20
         S          3.858            3.128    251.62  12327.25
         S          3.859            3.128    251.62  12327.25
         S          3.758            3.128    251.62  12327.25
         S          3.859            3.128    251.62  12327.25
         Mo        10.221            3.547    674.22  77634.20
         Mo        10.206            3.547    674.22  77634.20
         S          3.856            3.128    251.62  12327.25
         S          3.859            3.128    251.62  12327.25
         S          3.859            3.128    251.62  12327.25
         S          3.755            3.128    251.62  12327.25
         Mo        10.208            3.547    674.22  77634.20
         Mo        10.221            3.547    674.22  77634.20
         S          3.858            3.128    251.62  12327.25
         S          3.859            3.128    251.62  12327.25
         S          3.758            3.128    251.62  12327.25
         S          3.859            3.128    251.62  12327.25
         Mo        10.221            3.547    674.22  77634.20
         Mo        10.206            3.547    674.22  77634.20
         S          3.856            3.128    251.62  12327.25
         S          3.859            3.128    251.62  12327.25
         S          3.859            3.128    251.62  12327.25
         S          3.765            3.128    251.62  12327.25
         Mo        10.208            3.547    674.22  77634.20
         Mo        10.221            3.547    674.22  77634.20
         S          3.858            3.128    251.62  12327.25
         S          3.859            3.128    251.62  12327.25
         S          3.758            3.128    251.62  12327.25
         S          3.859            3.128    251.62  12327.25
         Mo        10.221            3.547    674.22  77634.20
         Mo        10.215            3.547    674.22  77634.20
         S          3.857            3.128    251.62  12327.25
         S          3.859            3.128    251.62  12327.25
         S          3.859            3.128    251.62  12327.25
         S          4.667            3.128    251.62  12327.25
         Mo        10.208            3.547    674.22  77634.20
         Mo        10.221            3.547    674.22  77634.20
         S          3.858            3.128    251.62  12327.25
         S          3.859            3.128    251.62  12327.25
         S          3.758            3.128    251.62  12327.25
         S          3.859            3.128    251.62  12327.25
         Mo        10.221            3.547    674.22  77634.20
         Mo        10.215            3.547    674.22  77634.20
         S          3.856            3.128    251.62  12327.25
         S          3.859            3.128    251.62  12327.25
         S          3.859            3.128    251.62  12327.25
         S          3.765            3.128    251.62  12327.25
         Mo        10.208            3.547    674.22  77634.20
         Mo        10.221            3.547    674.22  77634.20
         S          3.858            3.128    251.62  12327.25
         S          3.859            3.128    251.62  12327.25
         S          3.758            3.128    251.62  12327.25
         S          3.859            3.128    251.62  12327.25
         Mo        10.221            3.547    674.22  77634.20
         Mo        10.206            3.547    674.22  77634.20
         S          3.856            3.128    251.62  12327.25
         S          3.859            3.128    251.62  12327.25
         S          3.859            3.128    251.62  12327.25
         S          3.755            3.128    251.62  12327.25
         Mo        10.208            3.547    674.22  77634.20
         Mo        10.221            3.547    674.22  77634.20
         S          3.858            3.128    251.62  12327.25
         S          3.859            3.128    251.62  12327.25
         S          3.758            3.128    251.62  12327.25
         S          3.859            3.128    251.62  12327.25
         Mo        10.221            3.547    674.22  77634.20
         Mo        10.206            3.547    674.22  77634.20
         S          3.856            3.128    251.62  12327.25
         S          3.859            3.128    251.62  12327.25
         S          3.859            3.128    251.62  12327.25
         S          3.755            3.128    251.62  12327.25
         Mo        10.208            3.547    674.22  77634.20
         Mo        10.221            3.547    674.22  77634.20
         S          3.858            3.128    251.62  12327.25
         S          3.859            3.128    251.62  12327.25
         S          3.758            3.128    251.62  12327.25
         S          3.859            3.128    251.62  12327.25
         Mo        10.221            3.547    674.22  77634.20
         Mo        10.206            3.547    674.21  77634.20
         S          3.856            3.128    251.62  12327.25
         S          3.859            3.128    251.62  12327.25
         S          3.859            3.128    251.62  12327.25
         S          3.765            3.128    251.62  12327.25
         Mo        10.208            3.547    674.22  77634.20
         Mo        10.221            3.547    674.22  77634.20
         S          3.858            3.128    251.62  12327.25
         S          3.859            3.128    251.62  12327.25
         S          3.758            3.128    251.62  12327.25
         S          3.859            3.128    251.62  12327.25
         Mo        10.221            3.547    674.22  77634.20
         Mo        10.207            3.547    674.22  77634.20
         S          3.856            3.128    251.62  12327.25
         S          3.859            3.128    251.62  12327.25
         S          3.859            3.128    251.62  12327.25
         S          3.765            3.128    251.62  12327.25
         Mo        10.208            3.547    674.22  77634.20
         Mo        10.221            3.547    674.22  77634.20
         S          3.858            3.128    251.62  12327.25
         S          3.859            3.128    251.62  12327.25
         S          3.758            3.128    251.62  12327.25
         S          3.859            3.128    251.62  12327.25
         Mo        10.221            3.547    674.22  77634.20
         Mo        10.206            3.547    674.22  77634.20
         S          3.856            3.128    251.62  12327.25
         S          3.859            3.128    251.62  12327.25
         S          3.859            3.128    251.62  12327.25
         S          3.755            3.128    251.62  12327.25
         Mo        10.208            3.547    674.21  77634.20
         Mo        10.221            3.547    674.22  77634.20
         S          3.858            3.128    251.62  12327.25
         S          3.859            3.128    251.62  12327.25
         S          3.758            3.128    251.62  12327.25
         S          3.859            3.128    251.62  12327.25
         Mo        10.221            3.547    674.22  77634.20
         Mo        10.206            3.547    674.22  77634.20
         S          3.856            3.128    251.62  12327.25
         S          3.859            3.128    251.62  12327.25
         S          3.859            3.128    251.62  12327.25
         S          3.755            3.128    251.62  12327.25
         Mo        10.208            3.547    674.22  77634.20
         Mo        10.220            3.547    674.22  77634.20
         S          3.858            3.128    251.62  12327.25
         S          3.859            3.128    251.62  12327.25
         S          3.758            3.128    251.62  12327.25
         S          3.859            3.128    251.62  12327.25
         Mo        10.221            3.547    674.21  77634.20
         Mo        10.206            3.547    674.22  77634.20
         S          3.856            3.128    251.62  12327.25
         S          3.859            3.128    251.62  12327.25
         S          3.859            3.128    251.62  12327.25
         S          3.755            3.128    251.62  12327.25
         Mo        10.208            3.547    674.22  77634.20
         Mo        10.221            3.547    674.22  77634.20
         S          3.858            3.128    251.62  12327.25
         S          3.859            3.128    251.62  12327.25
         S          3.758            3.128    251.62  12327.25
         S          3.859            3.128    251.62  12327.25
         Mo        10.221            3.547    674.22  77634.20
         Mo        10.206            3.547    674.21  77634.20
         S          3.856            3.128    251.62  12327.25
         S          3.859            3.128    251.62  12327.25
         S          3.859            3.128    251.62  12327.25
         S          3.755            3.128    251.62  12327.25
         Mo        10.208            3.547    674.22  77634.20
         Mo        10.221            3.547    674.22  77634.20
         S          3.858            3.128    251.62  12327.25
         S          3.859            3.128    251.62  12327.25
         S          3.758            3.128    251.62  12327.25
         S          3.859            3.128    251.62  12327.25
         Mo        10.221            3.547    674.22  77634.20
         Mo        10.206            3.547    674.22  77634.20
         S          3.856            3.128    251.62  12327.25
         S          3.859            3.128    251.62  12327.25
         S          3.859            3.128    251.62  12327.25
         S          3.755            3.128    251.62  12327.25
         Au         1.014            3.077    635.08  62045.28

         Molecular C6 ( Ry / a.u.^6 ) =  13799812.36


     number of k points=     4  Gaussian smearing, width (Ry)=  0.0100
                       cart. coord. in units 2pi/alat
        k(    1) = (   0.0000000   0.0000000   0.0000000), wk =   0.5000000
        k(    2) = (   0.0000000  -0.5773499   0.0000000), wk =   0.5000000
        k(    3) = (  -0.5000000  -0.2886744   0.0000000), wk =   0.5000000
        k(    4) = (  -0.5000000  -0.8660242   0.0000000), wk =   0.5000000

     Dense  grid:  7154885 G-vectors     FFT dimensions: ( 180, 180, 512)

     Smooth grid:  3090769 G-vectors     FFT dimensions: ( 135, 135, 400)

     Estimated max dynamical RAM per process >       4.29 GB

     Estimated total dynamical RAM >     154.37 GB

     Initial potential from superposition of free atoms

     starting charge    1696.9393, renormalised to    1697.0000

     negative rho (up, down):  7.004E-04 0.000E+00
     Starting wfcs are 1172 randomized atomic wfcs
     Checking if some PAW data can be deallocated... 

     total cpu time spent up to now is      198.6 secs

     Self-consistent Calculation

     iteration #  1     ecut=    77.00 Ry     beta= 0.20
     Davidson diagonalization with overlap
     ethr =  1.00E-02,  avg # of iterations =  2.0

     Threshold (ethr) on eigenvalues was too large:
     Diagonalizing with lowered threshold

     Davidson diagonalization with overlap
     c_bands:  1 eigenvalues not converged
     ethr =  1.33E-04,  avg # of iterations = 17.2

     negative rho (up, down):  1.570E-04 0.000E+00

     total cpu time spent up to now is     2638.6 secs

     total energy              =  -33570.66786086 Ry
     estimated scf accuracy    <       7.19373481 Ry

     iteration #  2     ecut=    77.00 Ry     beta= 0.20
     Davidson diagonalization with overlap
     ethr =  4.24E-04,  avg # of iterations =  4.5

     negative rho (up, down):  1.518E-04 0.000E+00

     total cpu time spent up to now is     3088.9 secs

     total energy              =  -33568.35059595 Ry
     estimated scf accuracy    <      24.50380187 Ry

     iteration #  3     ecut=    77.00 Ry     beta= 0.20
     Davidson diagonalization with overlap
     ethr =  4.24E-04,  avg # of iterations =  1.8

     negative rho (up, down):  5.711E-05 0.000E+00

     total cpu time spent up to now is     3521.1 secs

     total energy              =  -33565.74579775 Ry
     estimated scf accuracy    <     177.42515981 Ry

     iteration #  4     ecut=    77.00 Ry     beta= 0.20
     Davidson diagonalization with overlap
     ethr =  4.24E-04,  avg # of iterations =  3.0

     negative rho (up, down):  1.205E-05 0.000E+00

     total cpu time spent up to now is     3966.6 secs

     total energy              =  -33569.68416527 Ry
     estimated scf accuracy    <       3.24318911 Ry

     iteration #  5     ecut=    77.00 Ry     beta= 0.20
     Davidson diagonalization with overlap
     ethr =  1.91E-04,  avg # of iterations = 11.0

     negative rho (up, down):  1.151E-05 0.000E+00

     total cpu time spent up to now is     4467.1 secs

     total energy              =  -33569.68835106 Ry
     estimated scf accuracy    <       1.01075235 Ry

     iteration #  6     ecut=    77.00 Ry     beta= 0.20
     Davidson diagonalization with overlap
     ethr =  5.96E-05,  avg # of iterations = 13.8

     negative rho (up, down):  1.672E-05 0.000E+00

     total cpu time spent up to now is     5542.9 secs

     total energy              =  -33570.81971089 Ry
     estimated scf accuracy    <       1.52677436 Ry

     iteration #  7     ecut=    77.00 Ry     beta= 0.20
     Davidson diagonalization with overlap
     ethr =  5.96E-05,  avg # of iterations =  8.0

     negative rho (up, down):  3.110E-05 0.000E+00

     total cpu time spent up to now is     6012.2 secs

     total energy              =  -33570.78081087 Ry
     estimated scf accuracy    <       0.53151829 Ry

     iteration #  8     ecut=    77.00 Ry     beta= 0.20
     Davidson diagonalization with overlap
     ethr =  3.13E-05,  avg # of iterations = 11.8

     negative rho (up, down):  1.824E-04 0.000E+00

     total cpu time spent up to now is     6531.2 secs

     total energy              =  -33570.64031427 Ry
     estimated scf accuracy    <       0.30869968 Ry

     iteration #  9     ecut=    77.00 Ry     beta= 0.20
     Davidson diagonalization with overlap
     ethr =  1.82E-05,  avg # of iterations = 10.2

     negative rho (up, down):  1.686E-04 0.000E+00

     total cpu time spent up to now is     7497.7 secs

     total energy              =  -33570.90615287 Ry
     estimated scf accuracy    <       0.47829278 Ry

     iteration # 10     ecut=    77.00 Ry     beta= 0.20
     Davidson diagonalization with overlap
     ethr =  1.82E-05,  avg # of iterations =  2.0

     negative rho (up, down):  1.085E-04 0.000E+00

     total cpu time spent up to now is     7939.2 secs

     total energy              =  -33570.80271401 Ry
     estimated scf accuracy    <       0.20107323 Ry

     iteration # 11     ecut=    77.00 Ry     beta= 0.20
     Davidson diagonalization with overlap
     ethr =  1.18E-05,  avg # of iterations = 13.0

     negative rho (up, down):  1.129E-04 0.000E+00

     total cpu time spent up to now is     8662.3 secs

     total energy              =  -33570.87492730 Ry
     estimated scf accuracy    <       0.01028846 Ry

     iteration # 12     ecut=    77.00 Ry     beta= 0.20
     Davidson diagonalization with overlap
     c_bands:  4 eigenvalues not converged
     c_bands: 12 eigenvalues not converged
     c_bands:  8 eigenvalues not converged
     c_bands: 11 eigenvalues not converged
     ethr =  6.06E-07,  avg # of iterations =105.0

     negative rho (up, down):  1.503E-04 0.000E+00

     total cpu time spent up to now is    14620.2 secs

     total energy              =  -33570.93799470 Ry
     estimated scf accuracy    <       0.15250124 Ry

     iteration # 13     ecut=    77.00 Ry     beta= 0.20
     Davidson diagonalization with overlap
     c_bands:  2 eigenvalues not converged
     c_bands:  2 eigenvalues not converged
     c_bands:  2 eigenvalues not converged
     ethr =  6.06E-07,  avg # of iterations = 32.2

     negative rho (up, down):  1.856E-04 0.000E+00

     total cpu time spent up to now is    15734.8 secs

     total energy              =  -33570.93285990 Ry
     estimated scf accuracy    <       0.05500769 Ry

     iteration # 14     ecut=    77.00 Ry     beta= 0.20
     Davidson diagonalization with overlap
     c_bands:  2 eigenvalues not converged
     c_bands:  1 eigenvalues not converged
     c_bands:  2 eigenvalues not converged
     ethr =  6.06E-07,  avg # of iterations = 16.5

     negative rho (up, down):  3.961E-04 0.000E+00

     total cpu time spent up to now is    16253.2 secs

     total energy              =  -33570.90962672 Ry
     estimated scf accuracy    <       0.03591488 Ry

     iteration # 15     ecut=    77.00 Ry     beta= 0.20
     Davidson diagonalization with overlap
     ethr =  6.06E-07,  avg # of iterations = 11.0

     negative rho (up, down):  4.292E-04 0.000E+00

     total cpu time spent up to now is    17658.5 secs

     total energy              =  -33570.93539155 Ry
     estimated scf accuracy    <       0.02080936 Ry

     iteration # 16     ecut=    77.00 Ry     beta= 0.20
     Davidson diagonalization with overlap
     ethr =  6.06E-07,  avg # of iterations =  1.2

     negative rho (up, down):  4.938E-04 0.000E+00

     total cpu time spent up to now is    18071.4 secs

     total energy              =  -33570.93172604 Ry
     estimated scf accuracy    <       0.01249890 Ry

     iteration # 17     ecut=    77.00 Ry     beta= 0.20
     Davidson diagonalization with overlap
     ethr =  6.06E-07,  avg # of iterations =  1.0

     negative rho (up, down):  7.020E-04 0.000E+00

     total cpu time spent up to now is    18475.0 secs

     total energy              =  -33570.92825604 Ry
     estimated scf accuracy    <       0.00597924 Ry

     iteration # 18     ecut=    77.00 Ry     beta= 0.20
     Davidson diagonalization with overlap
     ethr =  3.52E-07,  avg # of iterations =  7.0

     negative rho (up, down):  6.811E-04 0.000E+00

     total cpu time spent up to now is    19268.4 secs

     total energy              =  -33570.93313909 Ry
     estimated scf accuracy    <       0.00208843 Ry

     iteration # 19     ecut=    77.00 Ry     beta= 0.20
     Davidson diagonalization with overlap
     ethr =  1.23E-07,  avg # of iterations =  6.0

     negative rho (up, down):  7.058E-04 0.000E+00

     total cpu time spent up to now is    19742.6 secs

     total energy              =  -33570.93294782 Ry
     estimated scf accuracy    <       0.00058557 Ry

     iteration # 20     ecut=    77.00 Ry     beta= 0.20
     Davidson diagonalization with overlap
     ethr =  3.45E-08,  avg # of iterations =  9.8

     negative rho (up, down):  6.980E-04 0.000E+00

     total cpu time spent up to now is    20643.4 secs

     total energy              =  -33570.93343849 Ry
     estimated scf accuracy    <       0.00008150 Ry

     iteration # 21     ecut=    77.00 Ry     beta= 0.20
     Davidson diagonalization with overlap
     c_bands:  1 eigenvalues not converged
     c_bands:  1 eigenvalues not converged
     c_bands:  1 eigenvalues not converged
     ethr =  4.80E-09,  avg # of iterations = 18.8

     negative rho (up, down):  7.226E-04 0.000E+00

     total cpu time spent up to now is    21734.2 secs

     total energy              =  -33570.93348815 Ry
     estimated scf accuracy    <       0.00006297 Ry

     iteration # 22     ecut=    77.00 Ry     beta= 0.20
     Davidson diagonalization with overlap
     ethr =  3.71E-09,  avg # of iterations = 10.5

     negative rho (up, down):  7.406E-04 0.000E+00

     total cpu time spent up to now is    22979.3 secs

     total energy              =  -33570.93349254 Ry
     estimated scf accuracy    <       0.00026232 Ry

     iteration # 23     ecut=    77.00 Ry     beta= 0.20
     Davidson diagonalization with overlap
     ethr =  3.71E-09,  avg # of iterations =  4.5

     negative rho (up, down):  7.565E-04 0.000E+00

     total cpu time spent up to now is    23449.9 secs

     total energy              =  -33570.93341906 Ry
     estimated scf accuracy    <       0.00009685 Ry

     iteration # 24     ecut=    77.00 Ry     beta= 0.20
     Davidson diagonalization with overlap
     ethr =  3.71E-09,  avg # of iterations =  7.0

     negative rho (up, down):  7.728E-04 0.000E+00

     total cpu time spent up to now is    24441.2 secs

     total energy              =  -33570.93348185 Ry
     estimated scf accuracy    <       0.00008145 Ry

     iteration # 25     ecut=    77.00 Ry     beta= 0.20
     Davidson diagonalization with overlap
     ethr =  3.71E-09,  avg # of iterations =  1.0

     negative rho (up, down):  7.811E-04 0.000E+00

     total cpu time spent up to now is    24844.8 secs

     total energy              =  -33570.93346992 Ry
     estimated scf accuracy    <       0.00002176 Ry

     iteration # 26     ecut=    77.00 Ry     beta= 0.20
     Davidson diagonalization with overlap
     ethr =  1.28E-09,  avg # of iterations =  5.0

     negative rho (up, down):  8.018E-04 0.000E+00

     total cpu time spent up to now is    25529.6 secs

     End of self-consistent calculation

          k = 0.0000 0.0000 0.0000 (386245 PWs)   bands (ev):

  -108.8590 -81.6437 -81.6397 -81.6397 -81.6300 -81.6300 -81.6197 -81.6196
   -66.8149 -66.8083 -66.8082 -66.8069 -66.7959 -66.7949 -66.7949 -66.7912
   -66.7912 -66.7905 -66.7873 -66.7872 -66.7872 -66.7869 -66.7869 -66.7869
   -66.7869 -66.7869 -66.7868 -66.7868 -66.7868 -66.7867 -66.7857 -66.7857
   -66.7856 -66.7856 -66.7856 -66.7856 -66.7757 -66.7757 -66.7738 -66.7707
   -66.7707 -66.7691 -66.7691 -66.7683 -66.7678 -66.7660 -66.7660 -66.7659
   -66.7657 -66.7657 -66.7656 -66.7656 -66.7655 -66.7655 -66.7655 -66.7655
   -66.7655 -66.7654 -66.7654 -66.7654 -66.7654 -66.7654 -66.7651 -66.7643
   -66.7643 -66.7642 -66.7642 -66.7642 -66.7642 -66.7642 -66.7642 -66.7642
   -60.4150 -60.1466 -60.1466 -41.1409 -41.1409 -41.1386 -41.1357 -41.1357
   -41.1357 -41.1355 -41.1355 -41.1355 -41.1349 -41.1349 -41.1349 -41.0663
   -41.0655 -41.0655 -41.0646 -41.0632 -41.0632 -41.0605 -41.0604 -41.0603
   -41.0603 -41.0603 -41.0603 -41.0602 -41.0602 -41.0602 -41.0602 -41.0602
   -41.0601 -41.0595 -41.0595 -41.0595 -41.0595 -41.0595 -41.0595 -40.9769
   -40.9680 -40.9678 -40.9672 -40.9431 -40.9407 -40.9407 -40.9388 -40.9388
   -40.9385 -40.9354 -40.9354 -40.9349 -40.9342 -40.9341 -40.9341 -40.9339
   -40.9339 -40.9339 -40.9339 -40.9338 -40.9338 -40.9338 -40.9338 -40.9338
   -40.9331 -40.9331 -40.9331 -40.9331 -40.9330 -40.9330 -40.9309 -40.9309
   -40.9298 -40.9266 -40.9264 -40.9264 -40.9262 -40.9262 -40.9261 -40.9261
   -40.9261 -40.9260 -40.9260 -40.9260 -40.9259 -40.9255 -40.9255 -40.9255
   -40.9255 -40.9255 -40.9255 -40.9058 -40.9050 -40.9050 -40.9044 -40.9017
   -40.9017 -40.8992 -40.8991 -40.8990 -40.8990 -40.8989 -40.8988 -40.8988
   -40.8988 -40.8988 -40.8988 -40.8988 -40.8988 -40.8980 -40.8980 -40.8980
   -40.8980 -40.8980 -40.8980 -40.8979 -40.8979 -40.8937 -40.8898 -40.8898
   -40.8881 -40.8881 -40.8875 -40.8867 -40.8846 -40.8846 -40.8845 -40.8844
   -40.8844 -40.8842 -40.8842 -40.8842 -40.8842 -40.8841 -40.8841 -40.8841
   -40.8841 -40.8841 -40.8840 -40.8840 -40.8840 -40.8836 -40.8835 -40.8835
   -40.8835 -40.8835 -40.8835 -40.8835 -40.8834 -40.8834 -40.8834 -40.8261
   -40.8245 -40.8245 -40.8207 -40.8207 -40.8206 -40.8205 -40.8205 -40.8205
   -40.8196 -40.8196 -40.8196 -40.7793 -40.7791 -40.7791 -40.7766 -40.7766
   -40.7762 -40.7736 -40.7736 -40.7736 -40.7735 -40.7735 -40.7734 -40.7734
   -40.7734 -40.7734 -40.7733 -40.7733 -40.7733 -40.7724 -40.7724 -40.7724
   -40.7724 -40.7724 -40.7724 -40.7301 -40.7301 -40.7259 -40.7259 -40.7257
   -40.7257 -40.7248 -40.7248 -20.3046 -20.2355 -20.1417 -20.0587 -19.4639
   -19.4313 -19.4313 -19.4310 -19.4310 -19.4310 -19.4068 -19.3677 -19.3677
   -19.3665 -19.3665 -19.3663 -19.3173 -19.2809 -19.2809 -19.2792 -19.2792
   -19.2789 -19.2212 -19.2059 -19.2059 -19.2050 -19.2050 -19.2049 -19.0682
   -18.9357 -18.7933 -18.7096 -18.6662 -18.6498 -18.6498 -18.6491 -18.6491
   -18.6490 -18.5958 -18.5412 -18.5412 -18.5396 -18.5396 -18.5393 -18.4699
   -18.4333 -18.4333 -18.4319 -18.4319 -18.4316 -18.3732 -18.3580 -18.3580
   -18.3576 -18.3575 -18.3575 -18.3220 -18.3066 -18.3062 -18.3062 -18.3062
   -18.3062 -18.2989 -18.2758 -18.2750 -18.2750 -18.2747 -18.2747 -18.2649
   -18.2625 -18.2624 -18.2576 -18.2368 -18.2368 -18.2344 -18.2288 -18.2278
   -18.2278 -18.2272 -18.2271 -18.2091 -18.1982 -18.1982 -18.1903 -18.1790
   -18.1781 -18.1781 -18.1777 -18.1777 -18.1626 -18.1582 -18.1581 -18.1269
   -18.0985 -18.0984 -18.0957 -18.0939 -18.0929 -18.0929 -18.0926 -18.0925
   -18.0725 -18.0626 -18.0626 -18.0529 -18.0435 -18.0421 -18.0421 -18.0418
   -18.0418 -18.0373 -18.0372 -18.0371 -18.0238 -18.0230 -18.0230 -18.0084
   -18.0038 -18.0025 -18.0025 -18.0021 -18.0021 -17.9798 -17.9784 -17.9778
   -17.9778 -17.9777 -17.9777 -12.1645 -12.0016 -12.0009 -12.0009 -11.9321
   -11.9167 -11.9167 -11.9098 -11.8103 -11.8103 -11.8083 -11.7244 -11.7244
   -11.7236 -11.6056 -11.4563 -11.4205 -11.4205 -11.4197 -11.4197 -11.4196
   -11.3464 -11.3202 -11.3202 -11.3180 -11.3180 -11.3179 -11.3117 -11.2561
   -11.2551 -11.2551 -11.2461 -11.2460 -11.2457 -11.2442 -11.2368 -11.2368
   -11.2346 -11.2346 -11.2345 -11.1715 -11.1715 -11.1643 -11.1589 -11.1589
   -11.1582 -11.1027 -11.1026 -11.0972 -11.0912 -11.0911 -11.0906 -11.0603
   -11.0410 -11.0410 -11.0345 -11.0329 -11.0329 -11.0249 -11.0248 -11.0248
   -11.0248 -11.0002 -11.0002 -10.9874 -10.9859 -10.9859 -10.9831 -10.9826
   -10.9824 -10.9824 -10.9816 -10.9816 -10.9807 -10.9807 -10.9806 -10.9512
   -10.9512 -10.9443 -10.9438 -10.9433 -10.9432 -10.9188 -10.9188 -10.9160
   -10.9157 -10.9155 -10.9155 -10.9046 -10.9037 -10.9037 -10.8294 -10.8210
   -10.8209 -10.7897 -10.7582 -10.7581 -10.7555 -10.7554 -10.7554 -10.4480
   -10.3663 -10.3663 -10.2932 -10.1587 -10.1587 -10.0958  -9.9901  -9.9901
    -9.9847  -9.9831  -9.9831  -9.9828  -9.9556  -9.9556  -9.9507  -9.9507
    -9.9496  -9.9492  -9.9489  -9.9489  -9.9338  -9.9304  -9.9304  -9.9275
    -9.9269  -9.9269  -9.9146  -9.8114  -9.8114  -9.8092  -9.8076  -9.8076
    -9.8052  -9.8049  -9.8048  -9.8004  -9.8003  -9.7974  -9.7963  -9.7962
    -9.7962  -9.7942  -9.7393  -9.7393  -9.7303  -9.7303  -9.7294  -9.7251
    -9.7237  -9.7237  -9.7224  -9.7224  -9.7215  -9.6945  -9.6945  -9.6923
    -9.6907  -9.6906  -9.6905  -9.6621  -9.6261  -9.6261  -9.6259  -9.6250
    -9.6249  -9.5384  -9.5093  -9.5093  -9.5028  -9.5028  -9.5027  -9.5022
    -9.4850  -9.4850  -9.4843  -9.4839  -9.4838  -9.4052  -9.4051  -9.3986
    -9.3963  -9.3963  -9.3960  -9.3615  -9.3615  -9.3591  -9.3584  -9.3584
    -9.3583  -9.3087  -9.2852  -9.2852  -9.2770  -9.2770  -9.2768  -9.1704
    -9.1704  -9.1685  -9.1512  -9.1512  -9.1456  -9.1257  -9.1257  -9.1177
    -9.1106  -9.1082  -9.1081  -9.0990  -9.0990  -9.0987  -9.0962  -9.0961
    -9.0959  -9.0328  -9.0328  -9.0110  -9.0110  -9.0099  -9.0079  -9.0037
    -9.0037  -9.0026  -9.0026  -9.0026  -9.0006  -8.9171  -8.9115  -8.9115
    -8.9082  -8.9082  -8.9074  -8.8320  -8.8298  -8.8298  -8.8252  -8.8252
    -8.8246  -8.7707  -8.7702  -8.7702  -8.7685  -8.7684  -8.7682  -8.6998
    -8.5503  -8.5502  -8.5476  -8.5476  -8.5426  -8.5426  -8.5377  -8.5377
    -8.4664  -8.4664  -8.4629  -8.4628  -8.4628  -8.4626  -8.4503  -8.4503
    -8.4432  -8.4431  -8.4431  -8.4424  -8.4252  -8.4252  -8.4188  -8.4186
    -8.4186  -8.4177  -8.4146  -8.4019  -8.4019  -8.3995  -8.3995  -8.3995
    -8.3990  -8.1705  -8.0525  -8.0524  -8.0415  -7.9845  -7.9844  -7.9525
    -7.8974  -7.8974  -7.8584  -7.8271  -7.8270  -7.8144  -7.8089  -7.8089
    -7.8057  -7.8056  -7.8055  -7.7735  -7.7514  -7.7514  -7.7219  -7.7218
    -7.7218  -7.7215  -7.7214  -7.7213  -7.7202  -7.7201  -7.7201  -7.7090
    -7.7090  -7.7013  -7.7008  -7.7008  -7.7003  -7.6867  -7.6867  -7.6786
    -7.6780  -7.6780  -7.6773  -7.6647  -7.6647  -7.6619  -7.6616  -7.6616
    -7.6612  -7.6577  -7.6018  -7.6018  -7.5870  -7.5870  -7.5867  -7.5867
    -7.5835  -7.5835  -7.5831  -7.5831  -7.5827  -7.5666  -7.5041  -7.4845
    -7.4845  -7.4706  -7.4705  -7.4704  -7.4657  -7.4594  -7.4594  -7.4531
    -7.4531  -7.4519  -7.4378  -7.4378  -7.4264  -7.4264  -7.4107  -7.4107
    -7.3959  -7.3959  -7.3107  -7.3107  -7.3061  -7.2438  -7.2437  -7.2433
    -7.2214  -7.2213  -7.0784  -7.0578  -7.0578  -7.0187  -7.0175  -7.0175
    -7.0025  -7.0025  -6.9752  -6.9734  -6.9733  -6.9177  -6.9143  -6.9105
    -6.9104  -6.9054  -6.8450  -6.8420  -6.8419  -6.7937  -6.7929  -6.7928
    -6.7865  -6.7855  -6.7855  -6.7813  -6.7813  -6.7722  -6.7193  -6.7193
    -6.7186  -6.7160  -6.7159  -6.7141  -6.6940  -6.6940  -6.6920  -6.6887
    -6.6887  -6.6876  -6.6868  -6.6868  -6.6833  -6.6803  -6.6803  -6.6799
    -6.6799  -6.6799  -6.6796  -6.6489  -6.6489  -6.6354  -6.6101  -6.6101
    -6.5963  -6.5893  -6.5893  -6.5700  -6.5207  -6.5206  -6.5203  -6.5198
    -6.5198  -6.5197  -6.4903  -6.4903  -6.4894  -6.4885  -6.4885  -6.4874
    -6.4561  -6.4561  -6.4552  -6.4542  -6.4542  -6.4523  -6.4311  -6.4310
    -6.4306  -6.4301  -6.4301  -6.4291  -6.3659  -5.8721  -5.5387  -5.3457
    -4.9561  -4.0333  -4.0332  -4.0297  -4.0297  -4.0297  -4.0172  -4.0063
    -4.0062  -4.0051  -4.0051  -4.0050  -3.9969  -3.8734  -3.8734  -3.8626
    -3.8625  -3.8622  -3.8597  -3.8596  -3.8581  -3.8581  -3.8580  -3.8580
    -3.8110  -3.6798  -3.6797  -3.6740  -3.6739  -3.6732  -3.6670  -3.6590
    -3.6589  -3.6565  -3.6563  -3.6563  -3.6562  -3.6394  -3.6394  -3.6306
    -3.6306  -3.6304  -3.6273  -3.6272  -3.6271  -3.6160  -3.6159  -3.6155
    -3.6024  -3.6022  -3.6000  -3.5994  -3.5993  -3.5964  -3.5962  -3.5962
    -3.5959  -3.5866  -3.5866  -3.5864  -3.5807  -3.5290  -3.5290  -3.5228
    -3.5226  -3.5225  -3.5221  -3.5211  -3.5210  -3.5194  -3.5193  -3.5189
    -3.5133  -3.4670  -3.4669  -3.4647  -3.4646  -3.4645  -3.4644  -3.3941
    -3.3941  -3.3867  -3.3867  -3.3866  -3.3522  -3.2458  -3.2457  -3.2445
    -3.2440  -3.2439  -3.2438  -3.2255  -3.2255  -3.2244  -3.1598  -3.1597
    -3.1579  -3.1572  -3.1571  -3.1569  -3.1496  -3.1495  -3.1470  -3.1470
    -3.1463  -3.1420  -3.1420  -3.1343  -3.1342  -3.1286  -3.1285  -3.1277
    -3.1273  -3.1273  -3.1153  -3.1153  -3.1132  -3.1123  -3.1121  -3.1121
    -3.1116  -3.1114  -3.1088  -3.0576  -3.0576  -3.0554  -3.0130  -3.0129
    -2.9979  -2.9977  -2.9972  -2.9896  -2.9867  -2.9866  -2.9863  -2.9861
    -2.9860  -2.9858  -2.9856  -2.9855  -2.9853  -2.9747  -2.9747  -2.9257
    -2.9256  -2.9231  -2.9230  -2.9215  -2.9182  -2.9181  -2.9057  -2.8612
    -2.8612  -2.8206  -2.8203  -2.8059  -2.8057  -2.8027  -2.8022  -2.8020
    -2.7975  -2.7334  -2.7333  -2.7315  -2.7314  -2.7308  -2.7239  -2.5925
    -2.5923  -2.5920  -2.5920

          k = 0.0000-0.5773 0.0000 (386352 PWs)   bands (ev):

  -108.8590 -81.6437 -81.6397 -81.6397 -81.6300 -81.6300 -81.6197 -81.6196
   -66.8104 -66.8068 -66.8022 -66.8020 -66.8020 -66.8019 -66.8007 -66.8007
   -66.7977 -66.7970 -66.7915 -66.7914 -66.7913 -66.7913 -66.7901 -66.7900
   -66.7842 -66.7832 -66.7831 -66.7817 -66.7778 -66.7764 -66.7764 -66.7763
   -66.7763 -66.7762 -66.7762 -66.7762 -66.7762 -66.7762 -66.7749 -66.7749
   -66.7749 -66.7749 -66.7736 -66.7723 -66.7720 -66.7718 -66.7718 -66.7717
   -66.7705 -66.7705 -66.7694 -66.7692 -66.7659 -66.7658 -66.7657 -66.7656
   -66.7655 -66.7655 -66.7655 -66.7654 -66.7654 -66.7654 -66.7643 -66.7642
   -66.7642 -66.7642 -66.7612 -66.7612 -66.7610 -66.7610 -66.7598 -66.7598
   -60.4150 -60.1467 -60.1466 -41.1118 -41.1093 -41.1066 -41.1062 -41.1043
   -41.1041 -41.1040 -41.1039 -41.1039 -41.1038 -41.1038 -41.1038 -41.1033
   -41.1033 -41.1032 -41.1032 -41.0837 -41.0803 -41.0774 -41.0771 -41.0771
   -41.0770 -41.0764 -41.0764 -41.0695 -41.0688 -41.0652 -41.0652 -41.0650
   -41.0650 -41.0644 -41.0644 -41.0199 -41.0192 -41.0184 -41.0179 -41.0145
   -41.0145 -41.0145 -41.0145 -41.0143 -41.0143 -41.0143 -41.0143 -41.0136
   -41.0136 -41.0136 -41.0136 -40.9679 -40.9612 -40.9560 -40.9557 -40.9556
   -40.9556 -40.9551 -40.9550 -40.9512 -40.9503 -40.9462 -40.9462 -40.9460
   -40.9460 -40.9452 -40.9452 -40.9427 -40.9426 -40.9350 -40.9349 -40.9347
   -40.9347 -40.9342 -40.9342 -40.9178 -40.9155 -40.9140 -40.9112 -40.9054
   -40.9054 -40.9053 -40.9053 -40.9051 -40.9051 -40.9051 -40.9051 -40.9048
   -40.9045 -40.9045 -40.9045 -40.9045 -40.9011 -40.8967 -40.8965 -40.8964
   -40.8964 -40.8958 -40.8957 -40.8954 -40.8945 -40.8889 -40.8889 -40.8883
   -40.8880 -40.8847 -40.8847 -40.8846 -40.8845 -40.8845 -40.8844 -40.8842
   -40.8841 -40.8841 -40.8841 -40.8840 -40.8840 -40.8837 -40.8837 -40.8835
   -40.8835 -40.8834 -40.8834 -40.8819 -40.8811 -40.8756 -40.8756 -40.8754
   -40.8754 -40.8748 -40.8748 -40.8606 -40.8584 -40.8568 -40.8568 -40.8540
   -40.8539 -40.8537 -40.8537 -40.8536 -40.8536 -40.8536 -40.8536 -40.8528
   -40.8528 -40.8527 -40.8527 -40.8245 -40.8241 -40.8225 -40.8224 -40.8191
   -40.8190 -40.8190 -40.8190 -40.8189 -40.8189 -40.8189 -40.8189 -40.8180
   -40.8180 -40.8180 -40.8180 -40.8127 -40.8095 -40.8070 -40.8068 -40.8067
   -40.8067 -40.8058 -40.8058 -40.7932 -40.7908 -40.7877 -40.7875 -40.7874
   -40.7874 -40.7865 -40.7865 -40.7748 -40.7744 -40.7706 -40.7706 -40.7704
   -40.7704 -40.7695 -40.7695 -40.7458 -40.7425 -40.7401 -40.7398 -40.7398
   -40.7397 -40.7388 -40.7387 -20.0696 -20.0651 -20.0069 -19.9933 -19.9156
   -19.8987 -19.8282 -19.8202 -19.6315 -19.6279 -19.5726 -19.5610 -19.4866
   -19.4709 -19.4023 -19.3944 -18.9948 -18.9511 -18.9291 -18.9126 -18.9126
   -18.9126 -18.8987 -18.8594 -18.8592 -18.8591 -18.8419 -18.8183 -18.8028
   -18.7844 -18.7841 -18.7841 -18.7519 -18.7422 -18.7302 -18.7174 -18.7172
   -18.7171 -18.6914 -18.6802 -18.6620 -18.6604 -18.6409 -18.6253 -18.6179
   -18.6152 -18.5868 -18.5819 -18.5624 -18.5505 -18.5210 -18.5074 -18.4961
   -18.4910 -18.4359 -18.4248 -18.4151 -18.3998 -18.3997 -18.3996 -18.3541
   -18.3134 -18.3132 -18.3130 -18.2943 -18.2866 -18.2855 -18.2852 -18.2849
   -18.2849 -18.2689 -18.2568 -18.2563 -18.2558 -18.2489 -18.2335 -18.2333
   -18.2331 -18.2236 -18.2157 -18.2154 -18.2137 -18.2132 -18.2123 -18.1862
   -18.1797 -18.1797 -18.1796 -18.1746 -18.1683 -18.1679 -18.1671 -18.1579
   -18.1543 -18.1185 -18.1147 -18.1085 -18.0966 -18.0960 -18.0954 -18.0664
   -18.0529 -18.0521 -18.0512 -18.0274 -18.0201 -18.0192 -18.0184 -18.0031
   -18.0028 -18.0016 -17.9999 -17.9995 -17.9993 -17.9921 -17.9917 -17.9754
   -17.9742 -17.9533 -17.9496 -17.9372 -17.9317 -17.9210 -17.9150 -17.9090
   -17.9048 -17.9020 -17.9014 -11.9120 -11.8963 -11.7222 -11.7001 -11.6961
   -11.6956 -11.6919 -11.6651 -11.6636 -11.6508 -11.6258 -11.6189 -11.6134
   -11.6121 -11.5825 -11.5727 -11.5271 -11.5269 -11.5121 -11.5096 -11.5047
   -11.4975 -11.4699 -11.4578 -11.4469 -11.4467 -11.4417 -11.4398 -11.4359
   -11.4350 -11.4123 -11.4094 -11.3983 -11.3707 -11.3629 -11.3613 -11.3594
   -11.3497 -11.3495 -11.3492 -11.3446 -11.3205 -11.3188 -11.3152 -11.2912
   -11.2822 -11.2414 -11.2347 -11.2347 -11.2319 -11.1259 -11.1199 -11.1144
   -11.0899 -11.0894 -11.0827 -11.0601 -11.0504 -11.0439 -11.0101 -11.0033
   -11.0005 -10.9960 -10.9958 -10.9953 -10.9943 -10.9923 -10.9882 -10.9774
   -10.9774 -10.9736 -10.9733 -10.9725 -10.9712 -10.9711 -10.9705 -10.9700
   -10.9696 -10.9515 -10.9427 -10.9375 -10.9358 -10.9238 -10.9223 -10.9196
   -10.9183 -10.7274 -10.7168 -10.7148 -10.6966 -10.6583 -10.6535 -10.5693
   -10.5544 -10.4757 -10.4184 -10.3862 -10.3222 -10.3199 -10.3184 -10.3181
   -10.2686 -10.2645 -10.2603 -10.2602 -10.2337 -10.2324 -10.2323 -10.2203
   -10.1917 -10.1911 -10.1838 -10.1834 -10.1824 -10.1616 -10.1023 -10.0983
   -10.0974 -10.0960 -10.0800 -10.0798 -10.0795 -10.0775 -10.0773 -10.0486
   -10.0339 -10.0178  -9.9709  -9.9665  -9.9543  -9.9527  -9.9514  -9.9351
    -9.9234  -9.9113  -9.8912  -9.8893  -9.8885  -9.8565  -9.8348  -9.8345
    -9.8330  -9.8118  -9.8099  -9.7903  -9.7762  -9.7514  -9.7189  -9.7166
    -9.7163  -9.7150  -9.7144  -9.7144  -9.7138  -9.6912  -9.6877  -9.6672
    -9.6654  -9.6493  -9.6417  -9.6408  -9.6391  -9.6293  -9.6209  -9.6087
    -9.5975  -9.5964  -9.5963  -9.5333  -9.5172  -9.4305  -9.4208  -9.4135
    -9.4077  -9.3894  -9.3591  -9.3581  -9.3565  -9.3463  -9.3386  -9.3360
    -9.3349  -9.2878  -9.2763  -9.2539  -9.2450  -9.2413  -9.2314  -9.2171
    -9.2094  -9.2094  -9.2044  -9.2002  -9.1906  -9.1896  -9.1887  -9.1398
    -9.1323  -9.1169  -9.1135  -9.1111  -9.1049  -9.1045  -9.1035  -9.0685
    -9.0675  -9.0652  -9.0651  -9.0547  -9.0535  -9.0517  -9.0458  -9.0434
    -9.0428  -9.0421  -9.0410  -9.0270  -9.0248  -9.0210  -9.0196  -9.0097
    -9.0045  -8.9932  -8.9917  -8.9816  -8.9807  -8.9642  -8.9637  -8.9624
    -8.9620  -8.9609  -8.9578  -8.9362  -8.9305  -8.9126  -8.9101  -8.9008
    -8.9004  -8.8767  -8.8614  -8.8227  -8.8219  -8.7801  -8.7535  -8.6968
    -8.6945  -8.6674  -8.6593  -8.6073  -8.5953  -8.5320  -8.5255  -8.4744
    -8.4259  -8.3619  -8.3135  -8.3107  -8.3083  -8.3035  -8.2987  -8.2932
    -8.2888  -8.2859  -8.2434  -8.2385  -8.1594  -8.1520  -8.1252  -8.0865
    -8.0464  -8.0252  -8.0237  -8.0232  -8.0050  -8.0006  -7.9960  -7.9957
    -7.9882  -7.9805  -7.9746  -7.9733  -7.9730  -7.9728  -7.9722  -7.9684
    -7.9656  -7.9633  -7.9595  -7.9554  -7.9538  -7.9514  -7.9513  -7.9511
    -7.9480  -7.9453  -7.9418  -7.9405  -7.9382  -7.9303  -7.9280  -7.9277
    -7.9096  -7.9051  -7.8964  -7.8961  -7.8853  -7.8788  -7.8743  -7.8740
    -7.8738  -7.8734  -7.8652  -7.8634  -7.8619  -7.8484  -7.8440  -7.8427
    -7.8414  -7.8240  -7.8210  -7.7970  -7.7940  -7.7840  -7.7807  -7.7778
    -7.7766  -7.7762  -7.7759  -7.7630  -7.7582  -7.7573  -7.7451  -7.7430
    -7.7299  -7.7286  -7.7236  -7.7162  -7.7157  -7.6422  -7.6365  -7.6302
    -7.6301  -7.6065  -7.5891  -7.4435  -7.4086  -7.3633  -7.3572  -7.3512
    -7.3506  -7.3347  -7.3237  -7.3037  -7.3018  -7.2937  -7.2846  -7.2740
    -7.2629  -7.2586  -7.2368  -7.2141  -7.1975  -7.1958  -7.1945  -7.1911
    -7.1892  -7.1679  -7.1622  -7.1220  -7.1117  -7.0950  -7.0849  -7.0712
    -7.0679  -7.0607  -7.0524  -7.0440  -7.0414  -7.0325  -7.0287  -7.0209
    -7.0052  -6.9910  -6.9823  -6.9603  -6.9413  -6.8958  -6.8590  -6.8554
    -6.8543  -6.8278  -6.8010  -6.7982  -6.7919  -6.7918  -6.7913  -6.7867
    -6.7768  -6.7765  -6.7760  -6.7696  -6.7661  -6.7655  -6.7654  -6.7613
    -6.7609  -6.7608  -6.7608  -6.7151  -6.6965  -6.6689  -6.6429  -6.6265
    -6.5756  -6.5739  -6.5095  -6.5094  -6.5084  -6.5075  -6.4714  -6.4698
    -6.4618  -6.4613  -6.4597  -6.4597  -6.4585  -6.4585  -6.4537  -6.4535
    -6.4152  -6.4133  -6.4130  -6.4114  -6.3905  -6.3802  -6.3801  -6.3794
    -6.3770  -6.3698  -6.1794  -6.1794  -6.1300  -6.1300  -6.0707  -6.0706
    -6.0364  -6.0238  -6.0238  -6.0228  -5.8589  -5.8525  -5.7735  -5.7722
    -4.9332  -4.2690  -4.2685  -4.2679  -4.2589  -4.1179  -4.1127  -4.0892
    -4.0874  -4.0855  -4.0667  -4.0243  -4.0243  -4.0094  -4.0092  -3.9927
    -3.9925  -3.9801  -3.9800  -3.9705  -3.9547  -3.8551  -3.8522  -3.8496
    -3.8367  -3.7853  -3.7825  -3.7822  -3.7819  -3.7791  -3.7631  -3.7358
    -3.7351  -3.7053  -3.7030  -3.7020  -3.6996  -3.6991  -3.6966  -3.6639
    -3.6619  -3.6600  -3.6563  -3.6495  -3.6477  -3.6465  -3.6421  -3.6293
    -3.6286  -3.6062  -3.6020  -3.6012  -3.6003  -3.5946  -3.5807  -3.5354
    -3.5284  -3.5282  -3.5271  -3.5271  -3.5259  -3.5230  -3.5215  -3.4914
    -3.4864  -3.4782  -3.4691  -3.4655  -3.4650  -3.4638  -3.4635  -3.4630
    -3.4604  -3.4379  -3.4249  -3.4212  -3.4192  -3.4183  -3.4173  -3.4046
    -3.3984  -3.3907  -3.3892  -3.3844  -3.3730  -3.3626  -3.3544  -3.3527
    -3.3501  -3.3483  -3.3477  -3.3476  -3.3427  -3.3426  -3.3092  -3.2818
    -3.2814  -3.2494  -3.2474  -3.2393  -3.2388  -3.2351  -3.2233  -3.2051
    -3.2046  -3.2030  -3.2030  -3.2028  -3.2025  -3.1940  -3.1934  -3.1923
    -3.1889  -3.1806  -3.1759  -3.1719  -3.1713  -3.1520  -3.1517  -3.1516
    -3.1497  -3.1373  -3.1362  -3.1325  -3.1308  -3.1297  -3.1260  -3.1257
    -3.1217  -3.1211  -3.1149  -3.1111  -3.1108  -3.0694  -3.0674  -3.0668
    -3.0655  -3.0581  -3.0551  -3.0408  -3.0404  -2.9698  -2.9676  -2.9672
    -2.9666  -2.8931  -2.8915  -2.8896  -2.8872  -2.7957  -2.7911  -2.7604
    -2.7534  -2.7347  -2.7335  -2.7259  -2.7228  -2.7071  -2.7062  -2.7036
    -2.7026  -2.7014  -2.7008  -2.5742  -2.5740  -2.5735  -2.5729  -2.5676
    -2.5662  -2.5359  -2.5343

          k =-0.5000-0.2887 0.0000 (386352 PWs)   bands (ev):

  -108.8590 -81.6437 -81.6397 -81.6397 -81.6300 -81.6300 -81.6197 -81.6196
   -66.8104 -66.8068 -66.8022 -66.8020 -66.8020 -66.8019 -66.8007 -66.8007
   -66.7977 -66.7970 -66.7915 -66.7914 -66.7913 -66.7913 -66.7901 -66.7900
   -66.7842 -66.7832 -66.7831 -66.7817 -66.7778 -66.7764 -66.7764 -66.7763
   -66.7763 -66.7762 -66.7762 -66.7762 -66.7762 -66.7762 -66.7749 -66.7749
   -66.7749 -66.7749 -66.7736 -66.7723 -66.7720 -66.7718 -66.7718 -66.7717
   -66.7705 -66.7705 -66.7694 -66.7692 -66.7659 -66.7658 -66.7657 -66.7656
   -66.7656 -66.7655 -66.7655 -66.7654 -66.7654 -66.7654 -66.7642 -66.7642
   -66.7642 -66.7642 -66.7612 -66.7612 -66.7610 -66.7610 -66.7598 -66.7598
   -60.4150 -60.1467 -60.1466 -41.1119 -41.1093 -41.1066 -41.1062 -41.1043
   -41.1041 -41.1040 -41.1039 -41.1039 -41.1039 -41.1038 -41.1038 -41.1033
   -41.1033 -41.1032 -41.1032 -41.0837 -41.0803 -41.0774 -41.0771 -41.0771
   -41.0770 -41.0764 -41.0764 -41.0695 -41.0688 -41.0652 -41.0652 -41.0650
   -41.0650 -41.0644 -41.0644 -41.0199 -41.0192 -41.0184 -41.0179 -41.0145
   -41.0145 -41.0145 -41.0145 -41.0143 -41.0143 -41.0143 -41.0143 -41.0136
   -41.0136 -41.0136 -41.0136 -40.9679 -40.9612 -40.9559 -40.9557 -40.9556
   -40.9555 -40.9551 -40.9550 -40.9512 -40.9503 -40.9462 -40.9462 -40.9460
   -40.9460 -40.9452 -40.9452 -40.9427 -40.9426 -40.9350 -40.9349 -40.9347
   -40.9347 -40.9342 -40.9342 -40.9178 -40.9155 -40.9140 -40.9112 -40.9054
   -40.9054 -40.9053 -40.9053 -40.9051 -40.9051 -40.9051 -40.9051 -40.9048
   -40.9045 -40.9045 -40.9045 -40.9045 -40.9011 -40.8967 -40.8965 -40.8964
   -40.8963 -40.8958 -40.8958 -40.8954 -40.8945 -40.8889 -40.8889 -40.8883
   -40.8881 -40.8847 -40.8847 -40.8846 -40.8845 -40.8845 -40.8844 -40.8843
   -40.8842 -40.8841 -40.8841 -40.8840 -40.8840 -40.8837 -40.8837 -40.8835
   -40.8835 -40.8834 -40.8834 -40.8819 -40.8811 -40.8756 -40.8756 -40.8754
   -40.8754 -40.8748 -40.8748 -40.8606 -40.8584 -40.8568 -40.8568 -40.8540
   -40.8539 -40.8537 -40.8537 -40.8536 -40.8536 -40.8536 -40.8536 -40.8527
   -40.8527 -40.8527 -40.8527 -40.8245 -40.8241 -40.8225 -40.8224 -40.8191
   -40.8191 -40.8190 -40.8190 -40.8189 -40.8189 -40.8189 -40.8189 -40.8180
   -40.8180 -40.8180 -40.8180 -40.8127 -40.8095 -40.8070 -40.8068 -40.8067
   -40.8067 -40.8058 -40.8058 -40.7932 -40.7908 -40.7877 -40.7875 -40.7874
   -40.7874 -40.7865 -40.7865 -40.7748 -40.7744 -40.7706 -40.7706 -40.7704
   -40.7704 -40.7695 -40.7695 -40.7458 -40.7425 -40.7401 -40.7398 -40.7398
   -40.7397 -40.7388 -40.7388 -20.0696 -20.0651 -20.0069 -19.9933 -19.9156
   -19.8987 -19.8282 -19.8202 -19.6315 -19.6279 -19.5726 -19.5610 -19.4866
   -19.4709 -19.4023 -19.3944 -18.9948 -18.9511 -18.9291 -18.9126 -18.9126
   -18.9126 -18.8986 -18.8594 -18.8592 -18.8591 -18.8419 -18.8182 -18.8028
   -18.7845 -18.7842 -18.7841 -18.7519 -18.7422 -18.7302 -18.7174 -18.7172
   -18.7171 -18.6914 -18.6802 -18.6620 -18.6604 -18.6409 -18.6253 -18.6179
   -18.6152 -18.5868 -18.5819 -18.5624 -18.5505 -18.5210 -18.5074 -18.4961
   -18.4910 -18.4358 -18.4248 -18.4151 -18.3998 -18.3997 -18.3996 -18.3541
   -18.3134 -18.3132 -18.3131 -18.2943 -18.2866 -18.2855 -18.2852 -18.2849
   -18.2849 -18.2689 -18.2568 -18.2563 -18.2558 -18.2488 -18.2335 -18.2333
   -18.2331 -18.2236 -18.2157 -18.2154 -18.2137 -18.2133 -18.2123 -18.1862
   -18.1797 -18.1797 -18.1796 -18.1746 -18.1683 -18.1679 -18.1671 -18.1579
   -18.1543 -18.1185 -18.1147 -18.1085 -18.0966 -18.0961 -18.0953 -18.0664
   -18.0530 -18.0522 -18.0511 -18.0274 -18.0201 -18.0193 -18.0184 -18.0031
   -18.0028 -18.0015 -18.0000 -17.9995 -17.9992 -17.9921 -17.9917 -17.9754
   -17.9742 -17.9533 -17.9496 -17.9372 -17.9318 -17.9210 -17.9150 -17.9089
   -17.9048 -17.9020 -17.9014 -11.9120 -11.8963 -11.7222 -11.7001 -11.6961
   -11.6956 -11.6920 -11.6651 -11.6636 -11.6508 -11.6258 -11.6190 -11.6134
   -11.6121 -11.5825 -11.5727 -11.5272 -11.5269 -11.5121 -11.5096 -11.5047
   -11.4975 -11.4699 -11.4578 -11.4468 -11.4467 -11.4417 -11.4399 -11.4359
   -11.4350 -11.4123 -11.4094 -11.3983 -11.3707 -11.3629 -11.3613 -11.3594
   -11.3497 -11.3495 -11.3492 -11.3446 -11.3205 -11.3189 -11.3152 -11.2912
   -11.2822 -11.2414 -11.2347 -11.2347 -11.2319 -11.1259 -11.1199 -11.1144
   -11.0899 -11.0894 -11.0827 -11.0601 -11.0504 -11.0439 -11.0101 -11.0033
   -11.0005 -10.9960 -10.9958 -10.9954 -10.9943 -10.9923 -10.9882 -10.9774
   -10.9774 -10.9737 -10.9733 -10.9726 -10.9712 -10.9711 -10.9705 -10.9700
   -10.9697 -10.9514 -10.9427 -10.9375 -10.9358 -10.9238 -10.9223 -10.9196
   -10.9183 -10.7273 -10.7168 -10.7148 -10.6966 -10.6583 -10.6535 -10.5693
   -10.5544 -10.4757 -10.4184 -10.3862 -10.3222 -10.3199 -10.3184 -10.3181
   -10.2686 -10.2645 -10.2603 -10.2602 -10.2337 -10.2325 -10.2322 -10.2202
   -10.1917 -10.1911 -10.1838 -10.1834 -10.1824 -10.1616 -10.1023 -10.0983
   -10.0974 -10.0960 -10.0801 -10.0799 -10.0795 -10.0775 -10.0772 -10.0486
   -10.0339 -10.0178  -9.9709  -9.9665  -9.9544  -9.9527  -9.9514  -9.9351
    -9.9234  -9.9113  -9.8912  -9.8893  -9.8885  -9.8565  -9.8348  -9.8345
    -9.8330  -9.8118  -9.8099  -9.7903  -9.7762  -9.7514  -9.7189  -9.7166
    -9.7163  -9.7150  -9.7144  -9.7143  -9.7138  -9.6912  -9.6877  -9.6672
    -9.6654  -9.6493  -9.6417  -9.6408  -9.6391  -9.6293  -9.6209  -9.6087
    -9.5975  -9.5965  -9.5964  -9.5333  -9.5172  -9.4305  -9.4208  -9.4135
    -9.4077  -9.3894  -9.3591  -9.3581  -9.3565  -9.3462  -9.3386  -9.3359
    -9.3350  -9.2878  -9.2763  -9.2539  -9.2450  -9.2413  -9.2314  -9.2171
    -9.2095  -9.2094  -9.2044  -9.2002  -9.1906  -9.1896  -9.1886  -9.1398
    -9.1323  -9.1169  -9.1135  -9.1111  -9.1050  -9.1045  -9.1035  -9.0685
    -9.0675  -9.0652  -9.0651  -9.0547  -9.0535  -9.0517  -9.0458  -9.0434
    -9.0428  -9.0421  -9.0410  -9.0270  -9.0248  -9.0210  -9.0197  -9.0097
    -9.0044  -8.9932  -8.9917  -8.9816  -8.9807  -8.9642  -8.9637  -8.9624
    -8.9620  -8.9609  -8.9578  -8.9362  -8.9305  -8.9126  -8.9101  -8.9008
    -8.9004  -8.8767  -8.8614  -8.8227  -8.8219  -8.7801  -8.7535  -8.6968
    -8.6945  -8.6674  -8.6593  -8.6073  -8.5953  -8.5320  -8.5255  -8.4744
    -8.4259  -8.3619  -8.3135  -8.3107  -8.3083  -8.3035  -8.2987  -8.2932
    -8.2888  -8.2859  -8.2434  -8.2385  -8.1594  -8.1520  -8.1252  -8.0865
    -8.0464  -8.0252  -8.0237  -8.0232  -8.0050  -8.0007  -7.9961  -7.9957
    -7.9882  -7.9805  -7.9746  -7.9732  -7.9730  -7.9728  -7.9722  -7.9684
    -7.9656  -7.9633  -7.9595  -7.9554  -7.9538  -7.9514  -7.9513  -7.9511
    -7.9480  -7.9454  -7.9418  -7.9405  -7.9382  -7.9303  -7.9280  -7.9277
    -7.9096  -7.9051  -7.8964  -7.8961  -7.8852  -7.8788  -7.8743  -7.8740
    -7.8737  -7.8734  -7.8652  -7.8634  -7.8620  -7.8484  -7.8440  -7.8428
    -7.8414  -7.8240  -7.8210  -7.7970  -7.7940  -7.7840  -7.7807  -7.7778
    -7.7766  -7.7762  -7.7759  -7.7630  -7.7582  -7.7573  -7.7451  -7.7430
    -7.7299  -7.7286  -7.7236  -7.7162  -7.7156  -7.6421  -7.6366  -7.6301
    -7.6301  -7.6065  -7.5891  -7.4435  -7.4086  -7.3633  -7.3572  -7.3512
    -7.3506  -7.3347  -7.3237  -7.3037  -7.3018  -7.2937  -7.2845  -7.2740
    -7.2629  -7.2586  -7.2368  -7.2140  -7.1974  -7.1958  -7.1945  -7.1911
    -7.1892  -7.1679  -7.1622  -7.1220  -7.1117  -7.0950  -7.0849  -7.0712
    -7.0679  -7.0607  -7.0524  -7.0440  -7.0414  -7.0326  -7.0287  -7.0209
    -7.0052  -6.9909  -6.9823  -6.9603  -6.9413  -6.8958  -6.8590  -6.8554
    -6.8543  -6.8278  -6.8010  -6.7982  -6.7919  -6.7918  -6.7913  -6.7867
    -6.7768  -6.7765  -6.7760  -6.7696  -6.7661  -6.7655  -6.7654  -6.7613
    -6.7610  -6.7608  -6.7608  -6.7151  -6.6965  -6.6689  -6.6429  -6.6265
    -6.5756  -6.5739  -6.5095  -6.5093  -6.5083  -6.5077  -6.4714  -6.4698
    -6.4619  -6.4613  -6.4597  -6.4596  -6.4585  -6.4585  -6.4537  -6.4535
    -6.4153  -6.4134  -6.4130  -6.4114  -6.3905  -6.3803  -6.3800  -6.3793
    -6.3771  -6.3698  -6.1794  -6.1793  -6.1300  -6.1300  -6.0707  -6.0706
    -6.0364  -6.0238  -6.0237  -6.0228  -5.8589  -5.8525  -5.7735  -5.7722
    -4.9332  -4.2690  -4.2686  -4.2679  -4.2588  -4.1180  -4.1127  -4.0891
    -4.0874  -4.0854  -4.0667  -4.0243  -4.0243  -4.0094  -4.0092  -3.9928
    -3.9925  -3.9801  -3.9800  -3.9705  -3.9548  -3.8550  -3.8522  -3.8496
    -3.8367  -3.7855  -3.7825  -3.7824  -3.7819  -3.7792  -3.7633  -3.7357
    -3.7351  -3.7054  -3.7032  -3.7022  -3.6996  -3.6991  -3.6965  -3.6639
    -3.6619  -3.6600  -3.6563  -3.6495  -3.6478  -3.6466  -3.6421  -3.6295
    -3.6287  -3.6064  -3.6019  -3.6012  -3.6002  -3.5946  -3.5810  -3.5357
    -3.5286  -3.5283  -3.5272  -3.5271  -3.5260  -3.5231  -3.5217  -3.4915
    -3.4866  -3.4784  -3.4691  -3.4656  -3.4650  -3.4639  -3.4635  -3.4631
    -3.4606  -3.4380  -3.4248  -3.4213  -3.4192  -3.4182  -3.4173  -3.4046
    -3.3984  -3.3908  -3.3891  -3.3843  -3.3729  -3.3626  -3.3545  -3.3529
    -3.3501  -3.3483  -3.3478  -3.3475  -3.3428  -3.3424  -3.3093  -3.2818
    -3.2816  -3.2493  -3.2474  -3.2396  -3.2389  -3.2352  -3.2234  -3.2051
    -3.2046  -3.2032  -3.2030  -3.2029  -3.2026  -3.1938  -3.1932  -3.1922
    -3.1888  -3.1810  -3.1760  -3.1716  -3.1711  -3.1522  -3.1518  -3.1512
    -3.1492  -3.1376  -3.1360  -3.1326  -3.1308  -3.1297  -3.1261  -3.1259
    -3.1216  -3.1210  -3.1149  -3.1113  -3.1110  -3.0699  -3.0655  -3.0653
    -3.0639  -3.0582  -3.0552  -3.0401  -3.0392  -2.9703  -2.9666  -2.9664
    -2.9658  -2.8930  -2.8915  -2.8896  -2.8872  -2.7957  -2.7910  -2.7603
    -2.7533  -2.7305  -2.7258  -2.7249  -2.7227  -2.7071  -2.7062  -2.7036
    -2.7025  -2.7015  -2.7008  -2.5744  -2.5739  -2.5730  -2.5728  -2.5670
    -2.5661  -2.5353  -2.5336

          k =-0.5000-0.8660 0.0000 (386352 PWs)   bands (ev):

  -108.8590 -81.6437 -81.6397 -81.6397 -81.6300 -81.6300 -81.6197 -81.6196
   -66.8104 -66.8068 -66.8023 -66.8020 -66.8020 -66.8019 -66.8007 -66.8007
   -66.7977 -66.7970 -66.7915 -66.7914 -66.7913 -66.7913 -66.7901 -66.7900
   -66.7842 -66.7832 -66.7831 -66.7817 -66.7778 -66.7764 -66.7764 -66.7763
   -66.7763 -66.7762 -66.7762 -66.7762 -66.7762 -66.7762 -66.7749 -66.7749
   -66.7749 -66.7749 -66.7736 -66.7723 -66.7720 -66.7718 -66.7718 -66.7717
   -66.7705 -66.7705 -66.7694 -66.7692 -66.7659 -66.7658 -66.7657 -66.7656
   -66.7656 -66.7655 -66.7655 -66.7655 -66.7654 -66.7653 -66.7642 -66.7642
   -66.7642 -66.7642 -66.7612 -66.7612 -66.7610 -66.7610 -66.7598 -66.7598
   -60.4150 -60.1467 -60.1466 -41.1118 -41.1093 -41.1066 -41.1062 -41.1043
   -41.1041 -41.1040 -41.1039 -41.1039 -41.1039 -41.1038 -41.1038 -41.1033
   -41.1033 -41.1032 -41.1032 -41.0837 -41.0803 -41.0774 -41.0771 -41.0771
   -41.0770 -41.0764 -41.0764 -41.0695 -41.0688 -41.0652 -41.0652 -41.0650
   -41.0650 -41.0644 -41.0644 -41.0199 -41.0192 -41.0184 -41.0179 -41.0145
   -41.0145 -41.0145 -41.0145 -41.0143 -41.0143 -41.0143 -41.0143 -41.0136
   -41.0136 -41.0136 -41.0136 -40.9679 -40.9612 -40.9560 -40.9557 -40.9556
   -40.9556 -40.9551 -40.9550 -40.9512 -40.9503 -40.9462 -40.9462 -40.9460
   -40.9460 -40.9452 -40.9452 -40.9427 -40.9426 -40.9350 -40.9349 -40.9347
   -40.9347 -40.9342 -40.9342 -40.9178 -40.9155 -40.9140 -40.9112 -40.9054
   -40.9054 -40.9053 -40.9053 -40.9051 -40.9051 -40.9051 -40.9051 -40.9048
   -40.9045 -40.9045 -40.9045 -40.9045 -40.9011 -40.8968 -40.8964 -40.8964
   -40.8964 -40.8958 -40.8958 -40.8954 -40.8945 -40.8889 -40.8889 -40.8883
   -40.8881 -40.8847 -40.8847 -40.8846 -40.8846 -40.8845 -40.8844 -40.8843
   -40.8841 -40.8841 -40.8841 -40.8840 -40.8840 -40.8837 -40.8837 -40.8835
   -40.8834 -40.8834 -40.8834 -40.8819 -40.8811 -40.8756 -40.8756 -40.8754
   -40.8754 -40.8748 -40.8748 -40.8606 -40.8584 -40.8568 -40.8568 -40.8540
   -40.8538 -40.8537 -40.8537 -40.8536 -40.8536 -40.8536 -40.8536 -40.8528
   -40.8527 -40.8527 -40.8527 -40.8245 -40.8241 -40.8225 -40.8224 -40.8191
   -40.8190 -40.8190 -40.8190 -40.8189 -40.8189 -40.8189 -40.8189 -40.8180
   -40.8180 -40.8180 -40.8180 -40.8127 -40.8095 -40.8071 -40.8068 -40.8067
   -40.8067 -40.8058 -40.8058 -40.7932 -40.7908 -40.7877 -40.7874 -40.7874
   -40.7874 -40.7865 -40.7865 -40.7748 -40.7744 -40.7706 -40.7706 -40.7704
   -40.7704 -40.7695 -40.7695 -40.7458 -40.7425 -40.7401 -40.7398 -40.7398
   -40.7397 -40.7388 -40.7388 -20.0696 -20.0651 -20.0069 -19.9933 -19.9156
   -19.8986 -19.8282 -19.8202 -19.6315 -19.6279 -19.5726 -19.5610 -19.4866
   -19.4709 -19.4023 -19.3944 -18.9948 -18.9511 -18.9291 -18.9126 -18.9126
   -18.9126 -18.8987 -18.8594 -18.8592 -18.8591 -18.8419 -18.8182 -18.8028
   -18.7844 -18.7841 -18.7841 -18.7519 -18.7422 -18.7302 -18.7174 -18.7172
   -18.7171 -18.6914 -18.6802 -18.6620 -18.6604 -18.6409 -18.6253 -18.6179
   -18.6152 -18.5868 -18.5819 -18.5624 -18.5505 -18.5210 -18.5074 -18.4961
   -18.4910 -18.4359 -18.4248 -18.4151 -18.3998 -18.3997 -18.3996 -18.3541
   -18.3134 -18.3132 -18.3131 -18.2943 -18.2866 -18.2855 -18.2852 -18.2849
   -18.2849 -18.2689 -18.2568 -18.2563 -18.2558 -18.2489 -18.2335 -18.2333
   -18.2331 -18.2236 -18.2157 -18.2154 -18.2137 -18.2133 -18.2123 -18.1862
   -18.1797 -18.1797 -18.1796 -18.1746 -18.1683 -18.1679 -18.1671 -18.1579
   -18.1543 -18.1185 -18.1147 -18.1085 -18.0966 -18.0960 -18.0954 -18.0664
   -18.0529 -18.0522 -18.0512 -18.0274 -18.0201 -18.0193 -18.0184 -18.0031
   -18.0028 -18.0016 -17.9999 -17.9995 -17.9993 -17.9921 -17.9917 -17.9754
   -17.9742 -17.9533 -17.9496 -17.9372 -17.9317 -17.9210 -17.9150 -17.9090
   -17.9048 -17.9020 -17.9014 -11.9120 -11.8963 -11.7222 -11.7001 -11.6961
   -11.6956 -11.6920 -11.6651 -11.6636 -11.6508 -11.6258 -11.6190 -11.6134
   -11.6121 -11.5825 -11.5727 -11.5271 -11.5269 -11.5121 -11.5096 -11.5047
   -11.4975 -11.4699 -11.4578 -11.4469 -11.4467 -11.4417 -11.4398 -11.4359
   -11.4350 -11.4123 -11.4095 -11.3983 -11.3707 -11.3629 -11.3613 -11.3594
   -11.3497 -11.3495 -11.3492 -11.3446 -11.3205 -11.3189 -11.3152 -11.2912
   -11.2822 -11.2414 -11.2347 -11.2347 -11.2319 -11.1259 -11.1199 -11.1144
   -11.0899 -11.0894 -11.0827 -11.0601 -11.0504 -11.0439 -11.0101 -11.0033
   -11.0005 -10.9960 -10.9958 -10.9953 -10.9943 -10.9923 -10.9882 -10.9774
   -10.9774 -10.9736 -10.9733 -10.9725 -10.9712 -10.9711 -10.9705 -10.9700
   -10.9696 -10.9515 -10.9427 -10.9374 -10.9358 -10.9238 -10.9223 -10.9196
   -10.9183 -10.7273 -10.7168 -10.7148 -10.6966 -10.6583 -10.6535 -10.5693
   -10.5544 -10.4757 -10.4184 -10.3862 -10.3222 -10.3199 -10.3184 -10.3181
   -10.2686 -10.2645 -10.2603 -10.2602 -10.2337 -10.2324 -10.2323 -10.2203
   -10.1917 -10.1911 -10.1838 -10.1834 -10.1824 -10.1616 -10.1023 -10.0983
   -10.0974 -10.0960 -10.0801 -10.0799 -10.0795 -10.0775 -10.0772 -10.0486
   -10.0339 -10.0178  -9.9709  -9.9665  -9.9543  -9.9527  -9.9514  -9.9351
    -9.9234  -9.9113  -9.8912  -9.8893  -9.8885  -9.8565  -9.8348  -9.8345
    -9.8330  -9.8117  -9.8099  -9.7903  -9.7762  -9.7514  -9.7189  -9.7166
    -9.7163  -9.7150  -9.7144  -9.7144  -9.7138  -9.6912  -9.6877  -9.6672
    -9.6654  -9.6493  -9.6417  -9.6408  -9.6391  -9.6293  -9.6209  -9.6087
    -9.5976  -9.5964  -9.5963  -9.5333  -9.5172  -9.4305  -9.4208  -9.4135
    -9.4077  -9.3894  -9.3591  -9.3581  -9.3565  -9.3463  -9.3386  -9.3360
    -9.3349  -9.2878  -9.2763  -9.2539  -9.2450  -9.2414  -9.2314  -9.2171
    -9.2094  -9.2094  -9.2044  -9.2002  -9.1905  -9.1896  -9.1887  -9.1398
    -9.1323  -9.1169  -9.1135  -9.1111  -9.1049  -9.1045  -9.1035  -9.0685
    -9.0675  -9.0652  -9.0651  -9.0547  -9.0535  -9.0517  -9.0458  -9.0434
    -9.0428  -9.0421  -9.0410  -9.0270  -9.0248  -9.0210  -9.0196  -9.0097
    -9.0045  -8.9932  -8.9917  -8.9816  -8.9807  -8.9642  -8.9637  -8.9624
    -8.9620  -8.9609  -8.9579  -8.9362  -8.9305  -8.9127  -8.9101  -8.9008
    -8.9004  -8.8767  -8.8614  -8.8227  -8.8219  -8.7801  -8.7535  -8.6968
[...]
     atom  161 type  2   force =     0.00000002   -0.00000000    0.00441486
     atom  162 type  2   force =    -0.00000003    0.00000010    0.00009656
     atom  163 type  1   force =    -0.00000002   -0.00000169   -0.00002275
     atom  164 type  1   force =     0.00011800    0.00002102   -0.00242297
     atom  165 type  2   force =     0.00000000   -0.00000357   -0.00016381
     atom  166 type  2   force =    -0.00000086   -0.00000076    0.00002864
     atom  167 type  2   force =     0.00000044    0.00000042   -0.00009768
     atom  168 type  2   force =    -0.00000004   -0.00000578   -0.00438669
     atom  169 type  1   force =    -0.00000003   -0.00000002    0.00255964
     atom  170 type  1   force =    -0.00000005    0.00000001    0.00001386
     atom  171 type  2   force =    -0.00000006   -0.00000002   -0.00003310
     atom  172 type  2   force =    -0.00000000   -0.00000000    0.00017151
     atom  173 type  2   force =    -0.00000000   -0.00000004    0.00441493
     atom  174 type  2   force =    -0.00000011   -0.00000004    0.00009659
     atom  175 type  1   force =    -0.00000084   -0.00000046   -0.00002495
     atom  176 type  1   force =    -0.00000002   -0.00000607   -0.00251073
     atom  177 type  2   force =     0.00000994    0.00000574   -0.00016253
     atom  178 type  2   force =     0.00000001   -0.00000110    0.00002552
     atom  179 type  2   force =    -0.00000002    0.00000014   -0.00009778
     atom  180 type  2   force =    -0.00010065   -0.00005813   -0.00435960
     atom  181 type  1   force =    -0.00000002    0.00000000    0.00255964
     atom  182 type  1   force =    -0.00000005   -0.00000002    0.00001388
     atom  183 type  2   force =    -0.00000003   -0.00000003   -0.00003316
     atom  184 type  2   force =    -0.00000001    0.00000000    0.00017152
     atom  185 type  2   force =    -0.00000004    0.00000002    0.00441493
     atom  186 type  2   force =     0.00000007   -0.00000008    0.00009657
     atom  187 type  1   force =    -0.00000147    0.00000084   -0.00002275
     atom  188 type  1   force =    -0.00000526    0.00000305   -0.00251073
     atom  189 type  2   force =    -0.00000309    0.00000179   -0.00016383
     atom  190 type  2   force =    -0.00000098    0.00000058    0.00002551
     atom  191 type  2   force =     0.00000010   -0.00000006   -0.00009779
     atom  192 type  2   force =    -0.00000498    0.00000291   -0.00438669
     atom  193 type  3   force =    -0.00000015    0.00000024   -0.00664636

     Total force =     0.002816     Total SCF correction =     0.001165
     SCF correction compared to forces is large: reduce conv_thr to get better values
     Energy error            =      3.6E-05 Ry
     Gradient error          =      7.8E-04 Ry/Bohr

     bfgs converged in  23 scf cycles and  20 bfgs steps
     (criteria: energy <  1.0E-04 Ry, force <  1.0E-03 Ry/Bohr)

     End of BFGS Geometry Optimization

     Final energy             =  -33570.9393668547 Ry

     File ./outdir/pwscf.bfgs deleted, as requested
Begin final coordinates

ATOMIC_POSITIONS (angstrom)
Mo            0.0000119917        1.8193638619       -9.1672481230    0   0   0
Mo            1.5756136568        0.9097075315       -3.0554901653    0   0   0
S             0.0000188998        1.8193822938       -4.6232556019    0   0   0
S             1.5756321638        0.9096773839       -7.6014065489    0   0   0
S             1.5756326175        0.9096785128      -10.7330757790    0   0   0
S             0.0000189190        1.8193860094       -1.4877129945    0   0   0
Mo            0.0001638180        1.8195913785        3.0560592852
Mo            1.5756655009        0.9111147147        9.1800291829
S             0.0004228318        1.8198823782        7.6096767724
S             1.5756655078        0.9098064566        4.6239659876
S             1.5756681956        0.9097176223        1.4882587242
S            -0.0046302802        1.8141018960       10.7505803143
Mo           -1.5756053507        4.5484193819       -9.1672481230    0   0   0
Mo            0.0000378379        3.6387394919       -3.0554952701    0   0   0
S            -1.5755913433        4.5484363582       -4.6232494962    0   0   0
S             0.0000148214        3.6387329039       -7.6014065489    0   0   0
S             0.0000152751        3.6387340328      -10.7330757790    0   0   0
S            -1.5755906502        4.5484413613       -1.4877305502    0   0   0
Mo           -1.5753368643        4.5484278991        3.0560482471
Mo           -0.0007824258        3.6382736759        9.1792285310
S            -1.5749532470        4.5485177035        7.6096756775
S             0.0002434732        3.6388637211        4.6242555827
S             0.0001876160        3.6388286229        1.4880630446
S            -1.5824857140        4.5470320814       10.7505800680
Mo           -3.1512226931        7.2774749019       -9.1672481230    0   0   0
Mo           -1.5755910988        6.3678216792       -3.0555115988    0   0   0
S            -3.1512162438        7.2774954350       -4.6232578178    0   0   0
S            -1.5756025210        6.3677884239       -7.6014065489    0   0   0
S            -1.5756020673        6.3677895528      -10.7330757790    0   0   0
S            -3.1512127704        7.2774877076       -1.4877200710    0   0   0
Mo           -3.1511871769        7.2774909741        3.0561388037
Mo           -1.5743417521        6.3671029733        9.1800285453
S            -3.1474731097        7.2753527844        7.6070467653
S            -1.5754754446        6.3677499518        4.6239710916
S            -1.5755470519        6.3678028457        1.4882579395
S            -3.1538051534        7.2790087592       10.7433016863
Mo           -4.7268400355       10.0065304219       -9.1672481230    0   0   0
Mo           -3.1512405618        9.0968403586       -3.0554816746    0   0   0
S            -4.7268341792       10.0065523623       -4.6232463762    0   0   0
S            -3.1512198634        9.0968439439       -7.6014065489    0   0   0
S            -3.1512194097        9.0968450728      -10.7330757790    0   0   0
S            -4.7268370797       10.0065537885       -1.4877176751    0   0   0
Mo           -4.7267999230       10.0065555894        3.0561306834
Mo           -3.1508360017        9.0970669352        9.1725927857
S            -4.7268031493       10.0108377783        7.6070489187
S            -3.1512937862        9.0967956516        4.6241295572
S            -3.1511037727        9.0969047542        1.4883784306
S            -4.7268024087       10.0035263980       10.7433019435
Mo            3.1512517547        1.8193638619       -9.1672481230    0   0   0
Mo            4.7269020221        0.9097289540       -3.0554823951    0   0   0
S             3.1512612351        1.8193882564       -4.6232320683    0   0   0
S             4.7268719268        0.9096773839       -7.6014065489    0   0   0
S             4.7268723805        0.9096785128      -10.7330757790    0   0   0
S             3.1512592485        1.8193890201       -1.4877261251    0   0   0
Mo            3.1511892128        1.8195850125        3.0560536584
Mo            4.7287697906        0.9076412871        9.1742392038
S             3.1509089885        1.8198812961        7.6096769702
S             4.7266651062        0.9098119248        4.6240146154
S             4.7269306215        0.9097172645        1.4884726666
S             3.1559646046        1.8141040228       10.7505788948
Mo            1.5756344123        4.5484193819       -9.1672481230    0   0   0
Mo            3.1512756394        3.6387769522       -3.0554814834    0   0   0
S             1.5756504879        4.5484423799       -4.6232390542    0   0   0
S             3.1512545844        3.6387329039       -7.6014065489    0   0   0
S             3.1512550381        3.6387340328      -10.7330757790    0   0   0
S             1.5756466253        4.5484431864       -1.4877251801    0   0   0
Mo            1.5756556149        4.5484319844        3.0562424068
Mo            3.1521224524        3.6382748291        9.1792277885
S             1.5756692650        4.5484418203        7.6074045011
S             3.1510870276        3.6388583656        4.6242472959
S             3.1511424304        3.6388196528        1.4880725486
S             1.5756781815        4.5484289269       10.7238686049
Mo            0.0000170699        7.2774749019       -9.1672481230    0   0   0
Mo            1.5756764447        6.3678236689       -3.0554877708    0   0   0
S             0.0000381981        7.2774979204       -4.6232454413    0   0   0
S             1.5756372420        6.3677884239       -7.6014065489    0   0   0
S             1.5756376957        6.3677895528      -10.7330757790    0   0   0
S             0.0000328088        7.2774946042       -1.4877307940    0   0   0
Mo            0.0001949952        7.2773122506        3.0560595032
Mo            1.5756748024        6.3687735669        9.1792306924
S             0.0002971536        7.2769237833        7.6096786552
S             1.5756702352        6.3675794644        4.6242517152
S             1.5756641125        6.3676531626        1.4880800850
S            -0.0021862390        7.2841925260       10.7505795757
Mo           -1.5756002725       10.0065304219       -9.1672481230    0   0   0
Mo            0.0000873425        9.0968676911       -3.0554912329    0   0   0
S            -1.5755883952       10.0065504530       -4.6232240150    0   0   0
S             0.0000198996        9.0968439439       -7.6014065489    0   0   0
S             0.0000203533        9.0968450728      -10.7330757790    0   0   0
S            -1.5755859047       10.0065492576       -1.4877362381    0   0   0
Mo           -1.5756028154       10.0065083143        3.0563323273
Mo           -0.0007958694        9.0995122828        9.1742424527
S            -1.5749068970       10.0069296744        7.6040565780
S             0.0000422715        9.0965893292        4.6240232759
S             0.0000952915        9.0968612219        1.4884677638
S            -1.5773220758       10.0055379968       10.7438927517
Mo            6.3024915177        1.8193638619       -9.1672481230    0   0   0
Mo            7.8781001445        0.9096521684       -3.0554919963    0   0   0
S             6.3025008696        1.8193826232       -4.6232480596    0   0   0
S             7.8781116898        0.9096773839       -7.6014065489    0   0   0
S             7.8781121435        0.9096785128      -10.7330757790    0   0   0
S             6.3025042007        1.8193849068       -1.4877147524    0   0   0
Mo            6.3024884748        1.8193887792        3.0563975553
Mo            7.8781456025        0.9097026157        9.1704729518
S             6.3010524682        1.8202377802        7.6046346129
S             7.8781605646        0.9097038503        4.6243309864
S             7.8781530191        0.9096988713        1.4886310718
S             6.3053354318        1.8177630214       10.7418221318
Mo            4.7268741753        4.5484193819       -9.1672481230    0   0   0
Mo            6.3024679138        3.6387501714       -3.0554895197    0   0   0
S             4.7268748770        4.5484386753       -4.6232519432    0   0   0
S             6.3024943474        3.6387329039       -7.6014065489    0   0   0
S             6.3024948011        3.6387340328      -10.7330757790    0   0   0
S             4.7268770533        4.5484432419       -1.4877137856    0   0   0
Mo            4.7266453663        4.5484037829        3.0560476949
Mo            6.3052438057        3.6381724094        9.1742414920
S             4.7262939978        4.5485205020        7.6096763152
S             6.3022912363        3.6389006833        4.6240158857
S             6.3024951360        3.6387029762        1.4884493107
S             4.7338237538        4.5470308308       10.7505793515
Mo            3.1512568329        7.2774749019       -9.1672481230    0   0   0
Mo            4.7268384135        6.3678043337       -3.0554959052    0   0   0
S             3.1512606125        7.2774972547       -4.6232589675    0   0   0
S             4.7268770050        6.3677884239       -7.6014065489    0   0   0
S             4.7268774587        6.3677895528      -10.7330757790    0   0   0
S             3.1512629079        7.2774963749       -1.4877081835    0   0   0
Mo            3.1511416245        7.2772994454        3.0560554779
Mo            4.7256884692        6.3671041067        9.1800294797
S             3.1510516719        7.2769250043        7.6096786207
S             4.7268113744        6.3677477325        4.6239667093
S             4.7268821976        6.3677954306        1.4882521522
S             3.1535339065        7.2841916639       10.7505805748
Mo            1.5756394905       10.0065304219       -9.1672481230    0   0   0
Mo            3.1512330605        9.0968514907       -3.0554878870    0   0   0
S             1.5756499830       10.0065443759       -4.6232632674    0   0   0
S             3.1512596626        9.0968439439       -7.6014065489    0   0   0
S             3.1512601163        9.0968450728      -10.7330757790    0   0   0
S             1.5756503041       10.0065459699       -1.4877044377    0   0   0
Mo            1.5756906357       10.0065158101        3.0564022799
Mo            3.1521482295        9.0995122920        9.1742434075
S             1.5756773454       10.0048507487        7.6046372132
S             3.1513125679        9.0965971520        4.6240159676
S             3.1512516686        9.0968721887        1.4884650022
S             1.5756757836       10.0098005150       10.7418233822
Mo            9.4537312807        1.8193638619       -9.1672481230    0   0   0
Mo           11.0293863460        0.9096952246       -3.0554894007    0   0   0
S             9.4537395970        1.8193770750       -4.6232328036    0   0   0
S            11.0293514528        0.9096773839       -7.6014065489    0   0   0
S            11.0293519066        0.9096785128      -10.7330757790    0   0   0
S             9.4537393632        1.8193794783       -1.4877366147    0   0   0
Mo            9.4538055122        1.8194016883        3.0563883023
Mo           11.0275210589        0.9076413432        9.1742419290
S             9.4552404693        1.8202379148        7.6046351343
S            11.0296294571        0.9098226864        4.6240126878
S            11.0293679829        0.9097301892        1.4884576886
S             9.4509550134        1.8177626879       10.7418245394
Mo            7.8781139383        4.5484193819       -9.1672481230    0   0   0
Mo            9.4537539161        3.6387607911       -3.0554933032    0   0   0
S             7.8781175448        4.5484378232       -4.6232366318    0   0   0
S             9.4537341104        3.6387329039       -7.6014065489    0   0   0
S             9.4537345641        3.6387340328      -10.7330757790    0   0   0
S             7.8781194018        4.5484411585       -1.4877377057    0   0   0
Mo            7.8781323703        4.5484985289        3.0563031631
Mo            9.4510534210        3.6381718419        9.1742434757
S             7.8781506400        4.5476821792        7.6040579277
S             9.4539860050        3.6389168546        4.6240027616
S             9.4537812975        3.6387290909        1.4884533749
S             7.8781495128        4.5504715118       10.7438938580
Mo            6.3024965959        7.2774749019       -9.1672481230    0   0   0
Mo            7.8781361655        6.3678242352       -3.0555014130    0   0   0
S             6.3024973331        7.2774953556       -4.6232392528    0   0   0
S             7.8781167680        6.3677884239       -7.6014065489    0   0   0
S             7.8781172217        6.3677895528      -10.7330757790    0   0   0
S             6.3024989866        7.2774929744       -1.4877349119    0   0   0
Mo            6.3025124368        7.2775007582        3.0561333958
Mo            7.8781524713        6.3674083412        9.1725923265
S             6.2988198778        7.2753539012        7.6070475271
S             7.8781435962        6.3679351990        4.6241130920
S             7.8781490733        6.3677328161        1.4883765190
S             6.3051544883        7.2790098976       10.7433023235
Mo            4.7268792535       10.0065304219       -9.1672481230    0   0   0
Mo            6.3025111524        9.0968738021       -3.0554915260    0   0   0
S             4.7268840634       10.0065452125       -4.6232380477    0   0   0
S             6.3024994256        9.0968439439       -7.6014065489    0   0   0
S             6.3024998793        9.0968450728      -10.7330757790    0   0   0
S             4.7268847312       10.0065459141       -1.4877283294    0   0   0
Mo            4.7269639232       10.0065283147        3.0563158304
Mo            6.3021864212        9.0970682661        9.1725940719
S             4.7262580865       10.0069325740        7.6040586413
S             6.3026530197        9.0967949256        4.6241104286
S             6.3024699072        9.0969049576        1.4883864575
S             4.7286739970       10.0055387624       10.7438955249
Au            1.5759924424        4.5479365552       13.0525198101
End final coordinates



     Writing all to output data dir ./outdir/pwscf.save/
 
     init_run     :    193.82s CPU    198.24s WALL (       1 calls)
     electrons    : 201289.53s CPU 203669.21s WALL (      23 calls)
     update_pot   :    121.55s CPU    123.34s WALL (      22 calls)
     forces       :   3032.55s CPU   3118.11s WALL (      23 calls)
     force_dftd3  :     17.48s CPU     18.64s WALL (      23 calls)

     Called by init_run:
     wfcinit      :    166.43s CPU    168.50s WALL (       1 calls)
     potinit      :      2.42s CPU      2.50s WALL (       1 calls)
     hinit0       :     16.11s CPU     16.15s WALL (       1 calls)

     Called by electrons:
     c_bands      : 179998.72s CPU 181130.95s WALL (     285 calls)
     sum_band     :  19523.37s CPU  20207.01s WALL (     285 calls)
     v_of_rho     :    142.82s CPU    146.70s WALL (     286 calls)
     newd         :   1369.72s CPU   1968.78s WALL (     286 calls)
     PAW_pot      :    242.20s CPU    242.25s WALL (     308 calls)
     mix_rho      :     39.00s CPU     39.19s WALL (     285 calls)
     energy_dftd3 :      8.33s CPU      8.32s WALL (      23 calls)

     Called by c_bands:
     init_us_2    :    716.98s CPU    717.42s WALL (    2464 calls)
     init_us_2:cp :    716.95s CPU    717.41s WALL (    2464 calls)
     cegterg      : 177556.28s CPU 178649.29s WALL (    1160 calls)

     Called by *egterg:
     cdiaghg      :  12734.06s CPU  12773.07s WALL (   16559 calls)
     h_psi        :  93143.56s CPU  93474.24s WALL (   16739 calls)
     s_psi        :  20074.86s CPU  20142.26s WALL (   16739 calls)
     g_psi        :    170.78s CPU    171.12s WALL (   15575 calls)

     Called by h_psi:
     h_psi:calbec :  19564.31s CPU  19567.57s WALL (   16739 calls)
     vloc_psi     :  53200.33s CPU  53305.36s WALL (   16739 calls)
     add_vuspsi   :  20178.62s CPU  20250.31s WALL (   16739 calls)

     General routines
     calbec       :  27722.50s CPU  27727.24s WALL (   18335 calls)
     fft          :    145.39s CPU    148.93s WALL (    3969 calls)
     ffts         :      7.33s CPU      7.40s WALL (     571 calls)
     fftw         :  43337.62s CPU  43417.79s WALL ( 8394486 calls)
     interpolate  :     15.12s CPU     15.27s WALL (     286 calls)
 
     Parallel routines
 
     PWSCF        :   2d 9h 5m CPU   2d 9h48m WALL

 
   This run was terminated on:   2:38:26   6Nov2023            

=------------------------------------------------------------------------------=
   JOB DONE.
=------------------------------------------------------------------------------=
Application 11372067 resources: utime ~7400404s, stime ~91654s, Rss ~3556120, inblocks ~0, outblocks ~59178544
