
     Program PWSCF v.7.3 starts on 12Mar2024 at  6:26:23 

     This program is part of the open-source Quantum ESPRESSO suite
     for quantum simulation of materials; please cite
         "P. Giannozzi et al., J. Phys.:Condens. Matter 21 395502 (2009);
         "P. Giannozzi et al., J. Phys.:Condens. Matter 29 465901 (2017);
         "P. Giannozzi et al., J. Chem. Phys. 152 154105 (2020);
          URL http://www.quantum-espresso.org", 
     in publications or presentations arising from this work. More details at
     http://www.quantum-espresso.org/quote

     Parallel version (MPI & OpenMP), running on      36 processor cores
     Number of MPI processes:                36
     Threads/MPI process:                     1

     MPI processes distributed on     1 nodes
     557570 MiB available memory on the printing compute node when the environment starts
 
     Waiting for input...
     Reading input from standard input
Warning: card &CELL ignored
Warning: card / ignored

     Current dimensions of program PWSCF are:
     Max number of different atomic species (ntypx) = 10
     Max number of k-points (npk) =  40000
     Max angular momentum in pseudopotentials (lmaxx) =  4
     file Mo.pbe-spn-kjpaw_psl.1.0.0.UPF: wavefunction(s)  4S 4D renormalized
     file S.pbe-n-kjpaw_psl.1.0.0.UPF: wavefunction(s)  3S 3P renormalized
     file Pt.pbe-spfn-kjpaw_psl.1.0.0.UPF: wavefunction(s)  5P 4F renormalized
     file Pd.pbe-spn-kjpaw_psl.1.0.0.UPF: wavefunction(s)  4S 5S 4D renormalized
 
     R & G space division:  proc/nbgrp/npool/nimage =      36
     Subspace diagonalization in iterative solution of the eigenvalue problem:
     one sub-group per band group will be used
     scalapack distributed-memory algorithm (size of sub-group:  6*  6 procs)

 
     Parallelization info
     --------------------
     sticks:   dense  smooth     PW     G-vecs:    dense   smooth      PW
     Min         585     334     89               198743    85850   11735
     Max         586     335     90               198750    85861   11748
     Sum       21073   12049   3205              7154885  3090769  422587
 
     Using Slab Decomposition
 


     bravais-lattice index     =            0
     lattice parameter (alat)  =      23.8199  a.u.
     unit-cell volume          =   33861.0370 (a.u.)^3
     number of atoms/cell      =          194
     number of atomic types    =            4
     number of electrons       =      1714.00
     number of Kohn-Sham states=         1028
     kinetic-energy cutoff     =      77.0000  Ry
     charge density cutoff     =     539.0000  Ry
     scf convergence threshold =      1.0E-06
     mixing beta               =       0.2000
     number of iterations used =            8  plain     mixing
     energy convergence thresh.=      1.0E-04
     force convergence thresh. =      1.0E-03
     Exchange-correlation= SLA  PW   PBX  PBC
                           (   1   4   3   4   0   0   0)
     nstep                     =         1000


     Effective Screening Medium Method
     =================================
     Boundary Conditions: Vacuum-Slab-Vacuum
     total charge in unit cell        =   0.0000
     grid points for fit at edges     =        4 
 

     celldm(1)=  23.819920  celldm(2)=   0.000000  celldm(3)=   0.000000
     celldm(4)=   0.000000  celldm(5)=   0.000000  celldm(6)=   0.000000

     crystal axes: (cart. coord. in units of alat)
               a(1) = (   1.000000   0.000000   0.000000 )  
               a(2) = (  -0.499999   0.866026   0.000000 )  
               a(3) = (   0.000000   0.000000   2.893000 )  

     reciprocal axes: (cart. coord. in units 2 pi/alat)
               b(1) = (  1.000000  0.577349  0.000000 )  
               b(2) = (  0.000000  1.154700  0.000000 )  
               b(3) = (  0.000000  0.000000  0.345662 )  


     PseudoPot. # 1 for Mo read from file:
     ./pseudo/Mo.pbe-spn-kjpaw_psl.1.0.0.UPF
     MD5 check sum: 317bf72632116215fd98f72de1686f13
     Pseudo is Projector augmented-wave + core cor, Zval = 14.0
     Generated using 'atomic' code by A. Dal Corso  v.7.2
     Shape of augmentation charge: PSQ
     Using radial grid of 1229 points,  6 beta functions with: 
                l(1) =   0
                l(2) =   0
                l(3) =   1
                l(4) =   1
                l(5) =   2
                l(6) =   2
     Q(r) pseudized with 0 coefficients 


     PseudoPot. # 2 for S  read from file:
     ./pseudo/S.pbe-n-kjpaw_psl.1.0.0.UPF
     MD5 check sum: 8b7b5302570d38d5e87fed6a1065abda
     Pseudo is Projector augmented-wave + core cor, Zval =  6.0
     Generated using 'atomic' code by A. Dal Corso  v.7.2
     Shape of augmentation charge: PSQ
     Using radial grid of 1151 points,  6 beta functions with: 
                l(1) =   0
                l(2) =   0
                l(3) =   1
                l(4) =   1
                l(5) =   2
                l(6) =   2
     Q(r) pseudized with 0 coefficients 


     PseudoPot. # 3 for Pt read from file:
     ./pseudo/Pt.pbe-spfn-kjpaw_psl.1.0.0.UPF
     MD5 check sum: 620096ebf4e6ebacc94de60fd67efcb5
     Pseudo is Projector augmented-wave + core cor, Zval = 32.0
     Generated using 'atomic' code by A. Dal Corso  v.7.2
     Shape of augmentation charge: PSQ
     Using radial grid of 1277 points,  8 beta functions with: 
                l(1) =   0
                l(2) =   0
                l(3) =   1
                l(4) =   1
                l(5) =   2
                l(6) =   2
                l(7) =   3
                l(8) =   3
     Q(r) pseudized with 0 coefficients 


     PseudoPot. # 4 for Pd read from file:
     ./pseudo/Pd.pbe-spn-kjpaw_psl.1.0.0.UPF
     MD5 check sum: a60571a671f2502b8a6a4569d20a6edb
     Pseudo is Projector augmented-wave + core cor, Zval = 18.0
     Generated using 'atomic' code by A. Dal Corso  v.7.2
     Shape of augmentation charge: PSQ
     Using radial grid of 1235 points,  6 beta functions with: 
                l(1) =   0
                l(2) =   0
                l(3) =   1
                l(4) =   1
                l(5) =   2
                l(6) =   2
     Q(r) pseudized with 0 coefficients 


     atomic species   valence    mass     pseudopotential
     Mo               14.00    95.95000     Mo( 1.00)
     S                 6.00    32.06000     S ( 1.00)
     Pt               32.00   195.08400     Pt( 1.00)
     Pd               18.00   106.42000     Pd( 1.00)

     No symmetry found



   Cartesian axes

     site n.     atom                  positions (alat units)
         1        Mo     tau(   1) = (   0.0000010   0.1443372  -0.7272732  )
         2        Mo     tau(   2) = (   0.1249995   0.0721706  -0.2424038  )
         3        S      tau(   3) = (   0.0000015   0.1443386  -0.3667807  )
         4        S      tau(   4) = (   0.1250010   0.0721682  -0.6030489  )
         5        S      tau(   5) = (   0.1250010   0.0721683  -0.8514963  )
         6        S      tau(   6) = (   0.0000015   0.1443389  -0.1180260  )
         7        Mo     tau(   7) = (   0.0000014   0.1443616   0.2424356  )
         8        Mo     tau(   8) = (   0.1250042   0.0720311   0.7263989  )
         9        S      tau(   9) = (   0.0000639   0.1447004   0.6020022  )
        10        S      tau(  10) = (   0.1250030   0.0721650   0.3667578  )
        11        S      tau(  11) = (   0.1250031   0.0721991   0.1180453  )
        12        S      tau(  12) = (  -0.0005532   0.1426765   0.8513101  )
        13        Mo     tau(  13) = (  -0.1249989   0.3608437  -0.7272732  )
        14        Mo     tau(  14) = (   0.0000030   0.2886752  -0.2424042  )
        15        S      tau(  15) = (  -0.1249977   0.3608450  -0.3667802  )
        16        S      tau(  16) = (   0.0000012   0.2886747  -0.6030489  )
        17        S      tau(  17) = (   0.0000012   0.2886748  -0.8514963  )
        18        S      tau(  18) = (  -0.1249977   0.3608454  -0.1180274  )
        19        Mo     tau(  19) = (  -0.1249758   0.3608563   0.2424461  )
        20        Mo     tau(  20) = (  -0.0009250   0.2875651   0.7279418  )
        21        S      tau(  21) = (  -0.1248723   0.3609173   0.6030853  )
        22        S      tau(  22) = (   0.0000474   0.2887247   0.3668317  )
        23        S      tau(  23) = (   0.0000000   0.2886879   0.1180554  )
        24        S      tau(  24) = (  -0.1255989   0.3604976   0.8519229  )
        25        Mo     tau(  25) = (  -0.2499987   0.5773502  -0.7272732  )
        26        Mo     tau(  26) = (  -0.1249977   0.5051839  -0.2424055  )
        27        S      tau(  27) = (  -0.2499981   0.5773518  -0.3667809  )
        28        S      tau(  28) = (  -0.1249986   0.5051812  -0.6030489  )
        29        S      tau(  29) = (  -0.1249986   0.5051813  -0.8514963  )
        30        S      tau(  30) = (  -0.2499979   0.5773512  -0.1180266  )
        31        Mo     tau(  31) = (  -0.2499765   0.5773372   0.2424355  )
        32        Mo     tau(  32) = (  -0.1264232   0.5049348   0.7279418  )
        33        S      tau(  33) = (  -0.2496528   0.5772237   0.6020023  )
        34        S      tau(  34) = (  -0.1249318   0.5051954   0.3668318  )
        35        S      tau(  35) = (  -0.1249873   0.5051727   0.1180553  )
        36        S      tau(  36) = (  -0.2517142   0.5777014   0.8513102  )
        37        Mo     tau(  37) = (  -0.3749985   0.7938567  -0.7272732  )
        38        Mo     tau(  38) = (  -0.2500001   0.7216874  -0.2424031  )
        39        S      tau(  39) = (  -0.3749980   0.7938584  -0.3667800  )
        40        S      tau(  40) = (  -0.2499984   0.7216877  -0.6030489  )
        41        S      tau(  41) = (  -0.2499984   0.7216878  -0.8514963  )
        42        S      tau(  42) = (  -0.3749982   0.7938585  -0.1180264  )
        43        Mo     tau(  43) = (  -0.3749961   0.7938572   0.2423820  )
        44        Mo     tau(  44) = (  -0.2501160   0.7217599   0.7263989  )
        45        S      tau(  45) = (  -0.3749948   0.7938592   0.6019084  )
        46        S      tau(  46) = (  -0.2499995   0.7216903   0.3667578  )
        47        S      tau(  47) = (  -0.2499699   0.7216732   0.1180452  )
        48        S      tau(  48) = (  -0.3749951   0.7938590   0.8508262  )
        49        Mo     tau(  49) = (   0.2500010   0.1443372  -0.7272732  )
        50        Mo     tau(  50) = (   0.3750034   0.0721723  -0.2424032  )
        51        S      tau(  51) = (   0.2500017   0.1443391  -0.3667788  )
        52        S      tau(  52) = (   0.3750010   0.0721682  -0.6030489  )
        53        S      tau(  53) = (   0.3750010   0.0721683  -0.8514963  )
        54        S      tau(  54) = (   0.2500016   0.1443391  -0.1180271  )
        55        Mo     tau(  55) = (   0.2500050   0.1443618   0.2424356  )
        56        Mo     tau(  56) = (   0.3749291   0.0721273   0.7261578  )
        57        S      tau(  57) = (   0.2499446   0.1447002   0.6020022  )
        58        S      tau(  58) = (   0.3750312   0.0721852   0.3667808  )
        59        S      tau(  59) = (   0.3749943   0.0721639   0.1180502  )
        60        S      tau(  60) = (   0.2505615   0.1426764   0.8513103  )
        61        Mo     tau(  61) = (   0.1250012   0.3608437  -0.7272732  )
        62        Mo     tau(  62) = (   0.2500029   0.2886782  -0.2424031  )
        63        S      tau(  63) = (   0.1250024   0.3608455  -0.3667794  )
        64        S      tau(  64) = (   0.2500012   0.2886747  -0.6030489  )
        65        S      tau(  65) = (   0.2500012   0.2886748  -0.8514963  )
        66        S      tau(  66) = (   0.1250021   0.3608455  -0.1180270  )
        67        Mo     tau(  67) = (   0.1250036   0.3608788   0.2424134  )
        68        Mo     tau(  68) = (   0.2509342   0.2875650   0.7279417  )
        69        S      tau(  69) = (   0.1250047   0.3631022   0.6070003  )
        70        S      tau(  70) = (   0.2499595   0.2887248   0.3668321  )
        71        S      tau(  71) = (   0.2500069   0.2886879   0.1180551  )
        72        S      tau(  72) = (   0.1250048   0.3485809   0.8580653  )
        73        Mo     tau(  73) = (   0.0000014   0.5773502  -0.7272732  )
        74        Mo     tau(  74) = (   0.1250045   0.5051840  -0.2424036  )
        75        S      tau(  75) = (   0.0000030   0.5773520  -0.3667799  )
        76        S      tau(  76) = (   0.1250014   0.5051812  -0.6030489  )
        77        S      tau(  77) = (   0.1250014   0.5051813  -0.8514963  )
        78        S      tau(  78) = (   0.0000026   0.5773517  -0.1180274  )
        79        Mo     tau(  79) = (   0.0000336   0.5773337   0.2424134  )
        80        Mo     tau(  80) = (   0.1250049   0.5051837   0.7323431  )
        81        S      tau(  81) = (   0.0019589   0.5762246   0.6070004  )
        82        S      tau(  82) = (   0.1250038   0.5051820   0.3668453  )
        83        S      tau(  83) = (   0.1250038   0.5051819   0.1180162  )
        84        S      tau(  84) = (  -0.0106172   0.5834855   0.8580649  )
        85        Mo     tau(  85) = (  -0.1249984   0.7938567  -0.7272732  )
        86        Mo     tau(  86) = (   0.0000069   0.7216896  -0.2424039  )
        87        S      tau(  87) = (  -0.1249975   0.7938582  -0.3667782  )
        88        S      tau(  88) = (   0.0000016   0.7216877  -0.6030489  )
        89        S      tau(  89) = (   0.0000016   0.7216878  -0.8514963  )
        90        S      tau(  90) = (  -0.1249973   0.7938582  -0.1180279  )
        91        Mo     tau(  91) = (  -0.1249742   0.7938470   0.2424356  )
        92        Mo     tau(  92) = (  -0.0004933   0.7230516   0.7279416  )
        93        S      tau(  93) = (  -0.1247124   0.7936270   0.6020023  )
        94        S      tau(  94) = (   0.0000246   0.7216257   0.3668322  )
        95        S      tau(  95) = (   0.0000165   0.7216852   0.1180552  )
        96        S      tau(  96) = (  -0.1261568   0.7951731   0.8513104  )
        97        Mo     tau(  97) = (   0.5000010   0.1443372  -0.7272732  )
        98        Mo     tau(  98) = (   0.6250001   0.0721662  -0.2424040  )
        99        S      tau(  99) = (   0.5000017   0.1443386  -0.3667801  )
       100        S      tau( 100) = (   0.6250010   0.0721682  -0.6030489  )
       101        S      tau( 101) = (   0.6250010   0.0721683  -0.8514963  )
       102        S      tau( 102) = (   0.5000020   0.1443388  -0.1180261  )
       103        Mo     tau( 103) = (   0.5000076   0.1443402   0.2423934  )
       104        Mo     tau( 104) = (   0.6250040   0.0723531   0.7270557  )
       105        S      tau( 105) = (   0.5002419   0.1444767   0.6022126  )
       106        S      tau( 106) = (   0.6250031   0.0721699   0.3667634  )
       107        S      tau( 107) = (   0.6250031   0.0721381   0.1180360  )
       108        S      tau( 108) = (   0.4998195   0.1442328   0.8511552  )
       109        Mo     tau( 109) = (   0.3750012   0.3608437  -0.7272732  )
       110        Mo     tau( 110) = (   0.4999991   0.2886761  -0.2424038  )
       111        S      tau( 111) = (   0.3750012   0.3608452  -0.3667804  )
       112        S      tau( 112) = (   0.5000012   0.2886747  -0.6030489  )
       113        S      tau( 113) = (   0.5000012   0.2886748  -0.8514963  )
       114        S      tau( 114) = (   0.3750014   0.3608455  -0.1180261  )
       115        Mo     tau( 115) = (   0.3749823   0.3608562   0.2424462  )
       116        Mo     tau( 116) = (   0.5001624   0.2885857   0.7270558  )
       117        S      tau( 117) = (   0.3748813   0.3609171   0.6030850  )
       118        S      tau( 118) = (   0.5000041   0.2886750   0.3667632  )
       119        S      tau( 119) = (   0.4999767   0.2886908   0.1180361  )
       120        S      tau( 120) = (   0.3756080   0.3604978   0.8519227  )
       121        Mo     tau( 121) = (   0.2500014   0.5773502  -0.7272732  )
       122        Mo     tau( 122) = (   0.3749983   0.5051825  -0.2424043  )
       123        S      tau( 123) = (   0.2500017   0.5773519  -0.3667810  )
       124        S      tau( 124) = (   0.3750014   0.5051812  -0.6030489  )
       125        S      tau( 125) = (   0.3750014   0.5051813  -0.8514963  )
       126        S      tau( 126) = (   0.2500018   0.5773519  -0.1180256  )
       127        Mo     tau( 127) = (   0.2499737   0.5773335   0.2424135  )
       128        Mo     tau( 128) = (   0.3764328   0.5049349   0.7279416  )
       129        S      tau( 129) = (   0.2480514   0.5762247   0.6070002  )
       130        S      tau( 130) = (   0.3749389   0.5051953   0.3668317  )
       131        S      tau( 131) = (   0.3749944   0.5051727   0.1180554  )
       132        S      tau( 132) = (   0.2606253   0.5834843   0.8580650  )
       133        Mo     tau( 133) = (   0.1250016   0.7938567  -0.7272732  )
       134        Mo     tau( 134) = (   0.2499995   0.7216883  -0.2424036  )
       135        S      tau( 135) = (   0.1250024   0.7938578  -0.3667813  )
       136        S      tau( 136) = (   0.2500016   0.7216877  -0.6030489  )
       137        S      tau( 137) = (   0.2500016   0.7216878  -0.8514963  )
       138        S      tau( 138) = (   0.1250024   0.7938579  -0.1180253  )
       139        Mo     tau( 139) = (   0.1250038   0.7938330   0.2424463  )
       140        Mo     tau( 140) = (   0.2505035   0.7230514   0.7279415  )
       141        S      tau( 141) = (   0.1250048   0.7937168   0.6030849  )
       142        S      tau( 142) = (   0.2499835   0.7216255   0.3668318  )
       143        S      tau( 143) = (   0.2499914   0.7216850   0.1180556  )
       144        S      tau( 144) = (   0.1250053   0.7945558   0.8519227  )
       145        Mo     tau( 145) = (   0.7500010   0.1443372  -0.7272732  )
       146        Mo     tau( 146) = (   0.8750038   0.0721696  -0.2424038  )
       147        S      tau( 147) = (   0.7500016   0.1443382  -0.3667789  )
       148        S      tau( 148) = (   0.8750010   0.0721682  -0.6030489  )
       149        S      tau( 149) = (   0.8750010   0.0721683  -0.8514963  )
       150        S      tau( 150) = (   0.7500016   0.1443384  -0.1180279  )
       151        Mo     tau( 151) = (   0.7499988   0.1443404   0.2423934  )
       152        Mo     tau( 152) = (   0.8750792   0.0721276   0.7261574  )
       153        S      tau( 153) = (   0.7497661   0.1444769   0.6022124  )
       154        S      tau( 154) = (   0.8749753   0.0721851   0.3667807  )
       155        S      tau( 155) = (   0.8750121   0.0721637   0.1180502  )
       156        S      tau( 156) = (   0.7501887   0.1442327   0.8511550  )
       157        Mo     tau( 157) = (   0.6250012   0.3608437  -0.7272732  )
       158        Mo     tau( 158) = (   0.7500028   0.2886769  -0.2424041  )
       159        S      tau( 159) = (   0.6250015   0.3608451  -0.3667792  )
       160        S      tau( 160) = (   0.7500012   0.2886747  -0.6030489  )
       161        S      tau( 161) = (   0.7500012   0.2886748  -0.8514963  )
       162        S      tau( 162) = (   0.6250016   0.3608454  -0.1180280  )
       163        Mo     tau( 163) = (   0.6250035   0.3608392   0.2423934  )
       164        Mo     tau( 164) = (   0.7498463   0.2885859   0.7270559  )
       165        S      tau( 165) = (   0.6250044   0.3605709   0.6022125  )
       166        S      tau( 166) = (   0.7500026   0.2886750   0.3667635  )
       167        S      tau( 167) = (   0.7500299   0.2886908   0.1180357  )
       168        S      tau( 168) = (   0.6250043   0.3610591   0.8511551  )
       169        Mo     tau( 169) = (   0.5000014   0.5773502  -0.7272732  )
       170        Mo     tau( 170) = (   0.6250029   0.5051841  -0.2424047  )
       171        S      tau( 171) = (   0.5000014   0.5773518  -0.3667794  )
       172        S      tau( 172) = (   0.6250014   0.5051812  -0.6030489  )
       173        S      tau( 173) = (   0.6250014   0.5051813  -0.8514963  )
       174        S      tau( 174) = (   0.5000016   0.5773516  -0.1180277  )
       175        Mo     tau( 175) = (   0.4999838   0.5773372   0.2424356  )
       176        Mo     tau( 176) = (   0.6250048   0.5052701   0.7261575  )
       177        S      tau( 177) = (   0.4996630   0.5772238   0.6020019  )
       178        S      tau( 178) = (   0.6250037   0.5051496   0.3667806  )
       179        S      tau( 179) = (   0.6250036   0.5051921   0.1180503  )
       180        S      tau( 180) = (   0.5017240   0.5777016   0.8513099  )
       181        Mo     tau( 181) = (   0.3750016   0.7938567  -0.7272732  )
       182        Mo     tau( 182) = (   0.5000025   0.7216901  -0.2424039  )
       183        S      tau( 183) = (   0.3750019   0.7938578  -0.3667793  )
       184        S      tau( 184) = (   0.5000016   0.7216877  -0.6030489  )
       185        S      tau( 185) = (   0.5000016   0.7216878  -0.8514963  )
       186        S      tau( 186) = (   0.3750020   0.7938579  -0.1180272  )
       187        Mo     tau( 187) = (   0.3749825   0.7938468   0.2424356  )
       188        Mo     tau( 188) = (   0.5001261   0.7217601   0.7263985  )
       189        S      tau( 189) = (   0.3747228   0.7936274   0.6020018  )
       190        S      tau( 190) = (   0.5000073   0.7216903   0.3667579  )
       191        S      tau( 191) = (   0.4999777   0.7216732   0.1180450  )
       192        S      tau( 192) = (   0.3761670   0.7951734   0.8513099  )
       193        Pt     tau( 193) = (   0.1250041   0.5051825   0.9498857  )
       194        Pd     tau( 194) = (   0.1250302   0.0720351   0.9703324  )

     --------------------------------------------
     DFT-D3 Dispersion Correction (3-body terms):
     --------------------------------------------
       Reference C6 values for interpolation: 

         atom   Coordination number   C6
         S          0.000           268.01
         S          0.995           261.99
         S          1.990           251.62
         Mo         0.000          1691.79
         Mo         1.942          1004.01
         Mo        11.056           674.22
         Pd         0.000          1217.01
         Pd         1.863           573.90
         Pd         5.710           531.75
         Pt         0.000           782.29
         Pt         1.919           692.72
         Pt         6.667           673.75

       Values used:

         atom   Coordination number  R0_AB[au]  C6      C8
         Mo        10.208            3.547    674.21  77634.20
         Mo        10.221            3.547    674.22  77634.20
         S          3.858            3.128    251.62  12327.25
         S          3.859            3.128    251.62  12327.25
         S          3.758            3.128    251.62  12327.25
         S          3.859            3.128    251.62  12327.25
         Mo        10.220            3.547    674.22  77634.20
         Mo        10.760            3.547    674.22  77634.20
         S          3.845            3.128    251.62  12327.25
         S          3.861            3.128    251.62  12327.25
         S          3.859            3.128    251.62  12327.25
         S          4.781            3.128    251.62  12327.25
         Mo        10.208            3.547    674.22  77634.20
         Mo        10.221            3.547    674.22  77634.20
         S          3.858            3.128    251.62  12327.25
         S          3.859            3.128    251.62  12327.25
         S          3.758            3.128    251.62  12327.25
         S          3.859            3.128    251.62  12327.25
         Mo        10.221            3.547    674.22  77634.20
         Mo        10.201            3.547    674.22  77634.20
         S          3.857            3.128    251.62  12327.25
         S          3.855            3.128    251.62  12327.25
         S          3.859            3.128    251.62  12327.25
         S          3.759            3.128    251.62  12327.25
         Mo        10.208            3.547    674.22  77634.20
         Mo        10.221            3.547    674.22  77634.20
         S          3.858            3.128    251.62  12327.25
         S          3.859            3.128    251.62  12327.25
         S          3.758            3.128    251.62  12327.25
         S          3.859            3.128    251.62  12327.25
         Mo        10.220            3.547    674.22  77634.20
         Mo        10.192            3.547    674.22  77634.20
         S          3.844            3.128    251.62  12327.25
         S          3.855            3.128    251.62  12327.25
         S          3.859            3.128    251.62  12327.25
         S          3.829            3.128    251.62  12327.25
         Mo        10.208            3.547    674.22  77634.20
         Mo        10.221            3.547    674.21  77634.20
         S          3.858            3.128    251.62  12327.25
         S          3.859            3.128    251.62  12327.25
         S          3.758            3.128    251.62  12327.25
         S          3.859            3.128    251.62  12327.25
         Mo        10.219            3.547    674.22  77634.20
         Mo        10.244            3.547    674.22  77634.20
         S          3.853            3.128    251.62  12327.25
         S          3.861            3.128    251.62  12327.25
         S          3.859            3.128    251.62  12327.25
         S          4.743            3.128    251.62  12327.25
         Mo        10.208            3.547    674.22  77634.20
         Mo        10.221            3.547    674.22  77634.20
         S          3.858            3.128    251.62  12327.25
         S          3.859            3.128    251.62  12327.25
         S          3.758            3.128    251.62  12327.25
         S          3.859            3.128    251.62  12327.25
         Mo        10.220            3.547    674.22  77634.20
         Mo        10.258            3.547    674.22  77634.20
         S          3.845            3.128    251.62  12327.25
         S          3.860            3.128    251.62  12327.25
         S          3.859            3.128    251.62  12327.25
         S          4.781            3.128    251.62  12327.25
         Mo        10.208            3.547    674.22  77634.20
         Mo        10.221            3.547    674.22  77634.20
         S          3.858            3.128    251.62  12327.25
         S          3.859            3.128    251.62  12327.25
         S          3.758            3.128    251.62  12327.25
         S          3.859            3.128    251.62  12327.25
         Mo        10.222            3.547    674.22  77634.20
         Mo        10.201            3.547    674.22  77634.20
         S          3.865            3.128    251.62  12327.25
         S          3.855            3.128    251.62  12327.25
         S          3.859            3.128    251.62  12327.25
         S          4.676            3.128    251.62  12327.25
         Mo        10.208            3.547    674.22  77634.20
         Mo        10.221            3.547    674.22  77634.20
         S          3.858            3.128    251.62  12327.25
         S          3.859            3.128    251.62  12327.25
         S          3.758            3.128    251.62  12327.25
         S          3.859            3.128    251.62  12327.25
         Mo        10.222            3.547    674.22  77634.20
         Mo        10.909            3.547    674.22  77634.20
         S          3.865            3.128    251.62  12327.25
         S          3.851            3.128    251.62  12327.25
         S          3.859            3.128    251.62  12327.25
         S          4.660            3.128    251.62  12327.25
         Mo        10.208            3.547    674.22  77634.20
         Mo        10.221            3.547    674.22  77634.20
         S          3.858            3.128    251.62  12327.25
         S          3.859            3.128    251.62  12327.25
         S          3.758            3.128    251.62  12327.25
         S          3.859            3.128    251.62  12327.25
         Mo        10.220            3.547    674.22  77634.20
         Mo        10.192            3.547    674.22  77634.20
         S          3.844            3.128    251.62  12327.25
         S          3.855            3.128    251.62  12327.25
         S          3.859            3.128    251.62  12327.25
         S          3.838            3.128    251.62  12327.25
         Mo        10.208            3.547    674.22  77634.20
         Mo        10.221            3.547    674.22  77634.20
         S          3.858            3.128    251.62  12327.25
         S          3.859            3.128    251.62  12327.25
         S          3.758            3.128    251.62  12327.25
         S          3.859            3.128    251.62  12327.25
         Mo        10.220            3.547    674.22  77634.20
         Mo        10.236            3.547    674.22  77634.20
         S          3.860            3.128    251.62  12327.25
         S          3.860            3.128    251.62  12327.25
         S          3.859            3.128    251.62  12327.25
         S          3.769            3.128    251.62  12327.25
         Mo        10.208            3.547    674.22  77634.20
         Mo        10.221            3.547    674.22  77634.20
         S          3.858            3.128    251.62  12327.25
         S          3.859            3.128    251.62  12327.25
         S          3.758            3.128    251.62  12327.25
         S          3.859            3.128    251.62  12327.25
         Mo        10.221            3.547    674.22  77634.20
         Mo        10.236            3.547    674.22  77634.20
         S          3.857            3.128    251.62  12327.25
         S          3.860            3.128    251.62  12327.25
         S          3.859            3.128    251.62  12327.25
         S          3.759            3.128    251.62  12327.25
         Mo        10.208            3.547    674.22  77634.20
         Mo        10.221            3.547    674.22  77634.20
         S          3.858            3.128    251.62  12327.25
         S          3.859            3.128    251.62  12327.25
         S          3.758            3.128    251.62  12327.25
         S          3.859            3.128    251.62  12327.25
         Mo        10.222            3.547    674.22  77634.20
         Mo        10.192            3.547    674.22  77634.20
         S          3.865            3.128    251.62  12327.25
         S          3.855            3.128    251.62  12327.25
         S          3.859            3.128    251.62  12327.25
         S          4.660            3.128    251.62  12327.25
         Mo        10.208            3.547    674.22  77634.20
         Mo        10.221            3.547    674.22  77634.20
         S          3.858            3.128    251.62  12327.25
         S          3.859            3.128    251.62  12327.25
         S          3.758            3.128    251.62  12327.25
         S          3.859            3.128    251.62  12327.25
         Mo        10.221            3.547    674.22  77634.20
         Mo        10.192            3.547    674.22  77634.20
         S          3.857            3.128    251.62  12327.25
         S          3.855            3.128    251.62  12327.25
         S          3.859            3.128    251.62  12327.25
         S          3.758            3.128    251.62  12327.25
         Mo        10.208            3.547    674.22  77634.20
         Mo        10.221            3.547    674.22  77634.20
         S          3.858            3.128    251.62  12327.25
         S          3.859            3.128    251.62  12327.25
         S          3.758            3.128    251.62  12327.25
         S          3.859            3.128    251.62  12327.25
         Mo        10.220            3.547    674.22  77634.20
         Mo        10.258            3.547    674.21  77634.20
         S          3.860            3.128    251.62  12327.25
         S          3.860            3.128    251.62  12327.25
         S          3.859            3.128    251.62  12327.25
         S          3.769            3.128    251.62  12327.25
         Mo        10.208            3.547    674.22  77634.20
         Mo        10.220            3.547    674.21  77634.20
         S          3.858            3.128    251.62  12327.25
         S          3.859            3.128    251.62  12327.25
         S          3.758            3.128    251.62  12327.25
         S          3.859            3.128    251.62  12327.25
         Mo        10.220            3.547    674.22  77634.20
         Mo        10.236            3.547    674.22  77634.20
         S          3.860            3.128    251.62  12327.25
         S          3.860            3.128    251.62  12327.25
         S          3.859            3.128    251.62  12327.25
         S          3.768            3.128    251.62  12327.25
         Mo        10.208            3.547    674.22  77634.20
         Mo        10.221            3.547    674.22  77634.20
         S          3.858            3.128    251.62  12327.25
         S          3.859            3.128    251.62  12327.25
         S          3.758            3.128    251.62  12327.25
         S          3.859            3.128    251.62  12327.25
         Mo        10.220            3.547    674.22  77634.20
         Mo        10.250            3.547    674.22  77634.20
         S          3.844            3.128    251.62  12327.25
         S          3.860            3.128    251.62  12327.25
         S          3.859            3.128    251.62  12327.25
         S          3.829            3.128    251.62  12327.25
         Mo        10.208            3.547    674.22  77634.20
         Mo        10.221            3.547    674.22  77634.20
         S          3.858            3.128    251.62  12327.25
         S          3.859            3.128    251.62  12327.25
         S          3.758            3.128    251.62  12327.25
         S          3.859            3.128    251.62  12327.25
         Mo        10.220            3.547    674.22  77634.20
         Mo        10.244            3.547    674.22  77634.20
         S          3.844            3.128    251.62  12327.25
         S          3.861            3.128    251.62  12327.25
         S          3.859            3.128    251.62  12327.25
         S          3.838            3.128    251.62  12327.25
         Pt         4.026            3.168    692.72  72035.17
         Pd         3.489            3.168    573.90  52582.66

         Molecular C6 ( Ry / a.u.^6 ) =  13986060.41


     number of k points=     4  Gaussian smearing, width (Ry)=  0.0100
                       cart. coord. in units 2pi/alat
        k(    1) = (   0.0000000   0.0000000   0.0000000), wk =   0.5000000
        k(    2) = (   0.0000000  -0.5773499   0.0000000), wk =   0.5000000
        k(    3) = (  -0.5000000  -0.2886744   0.0000000), wk =   0.5000000
        k(    4) = (  -0.5000000  -0.8660242   0.0000000), wk =   0.5000000

     Dense  grid:  7154885 G-vectors     FFT dimensions: ( 180, 180, 512)

     Smooth grid:  3090769 G-vectors     FFT dimensions: ( 135, 135, 400)

     Estimated max dynamical RAM per process >       4.31 GB

     Estimated total dynamical RAM >     155.10 GB

     Initial potential from superposition of free atoms

     starting charge    1713.9389, renormalised to    1714.0000

     negative rho (up, down):  8.909E-04 0.000E+00
     Starting wfcs are 1179 randomized atomic wfcs
     Checking if some PAW data can be deallocated... 

     total cpu time spent up to now is      179.8 secs

     Self-consistent Calculation

     iteration #  1     ecut=    77.00 Ry     beta= 0.20
     Davidson diagonalization with overlap
     ethr =  1.00E-02,  avg # of iterations =  2.0

     Threshold (ethr) on eigenvalues was too large:
     Diagonalizing with lowered threshold

     Davidson diagonalization with overlap
     ethr =  1.62E-04,  avg # of iterations = 16.8

     negative rho (up, down):  2.413E-04 0.000E+00

     total cpu time spent up to now is     2242.8 secs

     total energy              =  -33980.24963712 Ry
     estimated scf accuracy    <       6.61483310 Ry

     iteration #  2     ecut=    77.00 Ry     beta= 0.20
     Davidson diagonalization with overlap
     ethr =  3.86E-04,  avg # of iterations =  2.0

     negative rho (up, down):  2.582E-05 0.000E+00

     total cpu time spent up to now is     2649.1 secs

     total energy              =  -33978.89199717 Ry
     estimated scf accuracy    <       3.45413205 Ry

     iteration #  3     ecut=    77.00 Ry     beta= 0.20
     Davidson diagonalization with overlap
     ethr =  2.02E-04,  avg # of iterations = 15.0

     negative rho (up, down):  1.847E-05 0.000E+00

     total cpu time spent up to now is     3174.1 secs

     total energy              =  -33979.22085251 Ry
     estimated scf accuracy    <       1.38072823 Ry

     iteration #  4     ecut=    77.00 Ry     beta= 0.20
     Davidson diagonalization with overlap
     c_bands:  1 eigenvalues not converged
     c_bands:  1 eigenvalues not converged
     c_bands:  1 eigenvalues not converged
     c_bands:  1 eigenvalues not converged
     ethr =  8.06E-05,  avg # of iterations = 20.0

     negative rho (up, down):  1.979E-05 0.000E+00

     total cpu time spent up to now is     4036.9 secs

     total energy              =  -33979.97980644 Ry
     estimated scf accuracy    <       0.46582806 Ry

     iteration #  5     ecut=    77.00 Ry     beta= 0.20
     Davidson diagonalization with overlap
     ethr =  2.72E-05,  avg # of iterations = 14.8

     negative rho (up, down):  3.310E-05 0.000E+00

     total cpu time spent up to now is     4807.7 secs

     total energy              =  -33980.18254236 Ry
     estimated scf accuracy    <       0.24524052 Ry

     iteration #  6     ecut=    77.00 Ry     beta= 0.20
     Davidson diagonalization with overlap
     c_bands:  1 eigenvalues not converged
     c_bands:  1 eigenvalues not converged
     ethr =  1.43E-05,  avg # of iterations = 18.2

     negative rho (up, down):  1.071E-04 0.000E+00

     total cpu time spent up to now is     5478.3 secs

     total energy              =  -33980.21177332 Ry
     estimated scf accuracy    <       0.18036456 Ry

     iteration #  7     ecut=    77.00 Ry     beta= 0.20
     Davidson diagonalization with overlap
     ethr =  1.05E-05,  avg # of iterations = 12.8

     negative rho (up, down):  3.878E-04 0.000E+00

     total cpu time spent up to now is     5946.9 secs

     total energy              =  -33980.20792663 Ry
     estimated scf accuracy    <       0.08943882 Ry

     iteration #  8     ecut=    77.00 Ry     beta= 0.20
     Davidson diagonalization with overlap
     c_bands:  2 eigenvalues not converged
     c_bands:  2 eigenvalues not converged
     ethr =  5.22E-06,  avg # of iterations = 21.0

     negative rho (up, down):  6.347E-04 0.000E+00

     total cpu time spent up to now is     6925.0 secs

     total energy              =  -33980.25790566 Ry
     estimated scf accuracy    <       0.06652982 Ry

     iteration #  9     ecut=    77.00 Ry     beta= 0.20
     Davidson diagonalization with overlap
     c_bands:  2 eigenvalues not converged
     c_bands:  5 eigenvalues not converged
     ethr =  3.88E-06,  avg # of iterations = 11.0

     negative rho (up, down):  4.647E-04 0.000E+00

     total cpu time spent up to now is     7376.7 secs

     total energy              =  -33980.24782118 Ry
     estimated scf accuracy    <       0.02437357 Ry

     iteration # 10     ecut=    77.00 Ry     beta= 0.20
     Davidson diagonalization with overlap
     c_bands:  1 eigenvalues not converged
     c_bands:  5 eigenvalues not converged
     c_bands:  5 eigenvalues not converged
     c_bands:  5 eigenvalues not converged
     ethr =  1.42E-06,  avg # of iterations = 60.0

     negative rho (up, down):  4.997E-04 0.000E+00

     total cpu time spent up to now is     9215.4 secs

     total energy              =  -33980.26841979 Ry
     estimated scf accuracy    <       0.00480882 Ry

     iteration # 11     ecut=    77.00 Ry     beta= 0.20
     Davidson diagonalization with overlap
     c_bands:  3 eigenvalues not converged
     c_bands:  4 eigenvalues not converged
     c_bands:  1 eigenvalues not converged
     ethr =  2.81E-07,  avg # of iterations = 44.2

     negative rho (up, down):  5.751E-04 0.000E+00

     total cpu time spent up to now is    10674.2 secs

     total energy              =  -33980.27160381 Ry
     estimated scf accuracy    <       0.00604309 Ry

     iteration # 12     ecut=    77.00 Ry     beta= 0.20
     Davidson diagonalization with overlap
     c_bands:  1 eigenvalues not converged
     ethr =  2.81E-07,  avg # of iterations =  7.0

     negative rho (up, down):  8.533E-04 0.000E+00

     total cpu time spent up to now is    11095.6 secs

     total energy              =  -33980.27051829 Ry
     estimated scf accuracy    <       0.00228391 Ry

     iteration # 13     ecut=    77.00 Ry     beta= 0.20
     Davidson diagonalization with overlap
     ethr =  1.33E-07,  avg # of iterations = 17.2

     negative rho (up, down):  7.977E-04 0.000E+00

     total cpu time spent up to now is    12238.2 secs

     total energy              =  -33980.27316086 Ry
     estimated scf accuracy    <       0.00682285 Ry

     iteration # 14     ecut=    77.00 Ry     beta= 0.20
     Davidson diagonalization with overlap
     ethr =  1.33E-07,  avg # of iterations =  1.2

     negative rho (up, down):  7.839E-04 0.000E+00

     total cpu time spent up to now is    12614.8 secs

     total energy              =  -33980.27171120 Ry
     estimated scf accuracy    <       0.00344232 Ry

     iteration # 15     ecut=    77.00 Ry     beta= 0.20
     Davidson diagonalization with overlap
     ethr =  1.33E-07,  avg # of iterations =  8.8

     negative rho (up, down):  8.144E-04 0.000E+00

     total cpu time spent up to now is    13123.4 secs

     total energy              =  -33980.27176891 Ry
     estimated scf accuracy    <       0.00067909 Ry

     iteration # 16     ecut=    77.00 Ry     beta= 0.20
     Davidson diagonalization with overlap
     ethr =  3.96E-08,  avg # of iterations = 13.0

     negative rho (up, down):  8.328E-04 0.000E+00

     total cpu time spent up to now is    13995.2 secs

     total energy              =  -33980.27282246 Ry
     estimated scf accuracy    <       0.00042206 Ry

     iteration # 17     ecut=    77.00 Ry     beta= 0.20
     Davidson diagonalization with overlap
     ethr =  2.46E-08,  avg # of iterations =  2.2

     negative rho (up, down):  8.638E-04 0.000E+00

     total cpu time spent up to now is    14394.0 secs

     total energy              =  -33980.27272362 Ry
     estimated scf accuracy    <       0.00020721 Ry

     iteration # 18     ecut=    77.00 Ry     beta= 0.20
     Davidson diagonalization with overlap
     ethr =  1.21E-08,  avg # of iterations = 11.8

     negative rho (up, down):  8.924E-04 0.000E+00

     total cpu time spent up to now is    14940.0 secs

     total energy              =  -33980.27274504 Ry
     estimated scf accuracy    <       0.00005739 Ry

     iteration # 19     ecut=    77.00 Ry     beta= 0.20
     Davidson diagonalization with overlap
     c_bands:  4 eigenvalues not converged
     ethr =  3.35E-09,  avg # of iterations = 19.0

     negative rho (up, down):  8.941E-04 0.000E+00

     total cpu time spent up to now is    16294.9 secs

     total energy              =  -33980.27284187 Ry
     estimated scf accuracy    <       0.00001889 Ry

     iteration # 20     ecut=    77.00 Ry     beta= 0.20
     Davidson diagonalization with overlap
     ethr =  1.10E-09,  avg # of iterations = 12.2

     negative rho (up, down):  8.897E-04 0.000E+00

     total cpu time spent up to now is    16965.6 secs

     total energy              =  -33980.27284590 Ry
     estimated scf accuracy    <       0.00001165 Ry

     iteration # 21     ecut=    77.00 Ry     beta= 0.20
     Davidson diagonalization with overlap
     ethr =  6.80E-10,  avg # of iterations = 10.2

     negative rho (up, down):  8.918E-04 0.000E+00

     total cpu time spent up to now is    17615.4 secs

     total energy              =  -33980.27284905 Ry
     estimated scf accuracy    <       0.00000149 Ry

     iteration # 22     ecut=    77.00 Ry     beta= 0.20
     Davidson diagonalization with overlap
     c_bands:  5 eigenvalues not converged
     ethr =  8.69E-11,  avg # of iterations = 19.5

     negative rho (up, down):  8.950E-04 0.000E+00

     total cpu time spent up to now is    19087.3 secs

     total energy              =  -33980.27285049 Ry
     estimated scf accuracy    <       0.00000103 Ry

     iteration # 23     ecut=    77.00 Ry     beta= 0.20
     Davidson diagonalization with overlap
     ethr =  6.01E-11,  avg # of iterations = 12.2

     negative rho (up, down):  8.940E-04 0.000E+00

     total cpu time spent up to now is    19613.4 secs

     End of self-consistent calculation

          k = 0.0000 0.0000 0.0000 (386245 PWs)   bands (ev):

  -102.9537 -88.3285 -71.2654 -71.2488 -71.2437 -71.2417 -71.2292 -71.2263
   -71.2188 -66.5613 -66.5613 -66.5601 -66.5567 -66.5441 -66.5405 -66.5402
   -66.5401 -66.5401 -66.5400 -66.5400 -66.5400 -66.5400 -66.5400 -66.5400
   -66.5400 -66.5400 -66.5397 -66.5388 -66.5388 -66.5388 -66.5388 -66.5388
   -66.5388 -66.5353 -66.5342 -66.5280 -66.5212 -66.5189 -66.5189 -66.5188
   -66.5187 -66.5187 -66.5187 -66.5186 -66.5186 -66.5186 -66.5186 -66.5186
   -66.5186 -66.5186 -66.5186 -66.5185 -66.5185 -66.5184 -66.5182 -66.5174
   -66.5174 -66.5174 -66.5174 -66.5174 -66.5174 -66.5173 -66.5173 -66.5173
   -66.5152 -66.5069 -66.5068 -66.5039 -66.5021 -66.5005 -66.4960 -66.4797
   -66.4722 -57.2080 -57.1811 -57.1724 -54.1454 -54.1366 -54.1314 -40.8888
   -40.8887 -40.8887 -40.8887 -40.8887 -40.8887 -40.8881 -40.8881 -40.8881
   -40.8786 -40.8733 -40.8696 -40.8136 -40.8135 -40.8134 -40.8134 -40.8134
   -40.8134 -40.8134 -40.8134 -40.8134 -40.8134 -40.8134 -40.8132 -40.8128
   -40.8128 -40.8128 -40.8128 -40.8128 -40.8128 -40.8022 -40.8019 -40.7991
   -40.7969 -40.7835 -40.7808 -40.7744 -40.7218 -40.7210 -40.7209 -40.7204
   -40.7009 -40.6872 -40.6872 -40.6871 -40.6871 -40.6871 -40.6871 -40.6871
   -40.6871 -40.6870 -40.6870 -40.6870 -40.6869 -40.6863 -40.6863 -40.6863
   -40.6863 -40.6863 -40.6863 -40.6828 -40.6795 -40.6793 -40.6793 -40.6793
   -40.6792 -40.6792 -40.6792 -40.6792 -40.6792 -40.6792 -40.6792 -40.6792
   -40.6791 -40.6786 -40.6786 -40.6786 -40.6786 -40.6786 -40.6786 -40.6786
   -40.6758 -40.6749 -40.6747 -40.6731 -40.6675 -40.6647 -40.6524 -40.6522
   -40.6521 -40.6521 -40.6520 -40.6520 -40.6520 -40.6520 -40.6520 -40.6520
   -40.6520 -40.6520 -40.6519 -40.6512 -40.6512 -40.6512 -40.6512 -40.6512
   -40.6512 -40.6489 -40.6482 -40.6446 -40.6397 -40.6388 -40.6376 -40.6375
   -40.6374 -40.6374 -40.6373 -40.6373 -40.6373 -40.6373 -40.6373 -40.6373
   -40.6373 -40.6372 -40.6372 -40.6372 -40.6372 -40.6371 -40.6371 -40.6370
   -40.6370 -40.6366 -40.6366 -40.6366 -40.6366 -40.6366 -40.6366 -40.6366
   -40.6366 -40.6365 -40.6336 -40.6317 -40.6314 -40.6287 -40.6261 -40.6245
   -40.6196 -40.6181 -40.6116 -40.5738 -40.5737 -40.5737 -40.5737 -40.5737
   -40.5736 -40.5728 -40.5728 -40.5728 -40.5592 -40.5569 -40.5544 -40.5268
   -40.5268 -40.5267 -40.5266 -40.5266 -40.5266 -40.5266 -40.5266 -40.5265
   -40.5265 -40.5264 -40.5263 -40.5257 -40.5256 -40.5256 -40.5256 -40.5256
   -40.5256 -40.5132 -40.5109 -40.5060 -40.5040 -40.5038 -40.4934 -40.4790
   -40.4790 -40.4790 -40.4790 -40.4780 -40.4780 -40.4553 -40.4519 -20.0919
   -20.0274 -19.9263 -19.8232 -19.3646 -19.2842 -19.2393 -19.2030 -19.1955
   -19.1857 -19.1723 -19.1701 -19.1664 -19.1536 -19.1462 -19.1259 -19.0828
   -19.0799 -19.0763 -19.0675 -19.0618 -19.0428 -18.9795 -18.9785 -18.9768
   -18.9745 -18.9716 -18.9643 -18.8533 -18.7373 -18.5782 -18.5451 -18.5376
   -18.5203 -18.4553 -18.4449 -18.4251 -18.4126 -18.3816 -18.3701 -18.3599
   -18.3498 -18.3438 -18.3277 -18.2870 -18.2457 -18.2309 -18.2278 -18.2236
   -18.2103 -18.1854 -18.1550 -18.1446 -18.1394 -18.1220 -18.1189 -18.1109
   -18.1053 -18.1014 -18.1011 -18.0598 -18.0588 -18.0571 -18.0566 -18.0557
   -18.0554 -18.0311 -18.0262 -18.0234 -18.0218 -18.0207 -18.0145 -18.0139
   -18.0131 -18.0129 -17.9943 -17.9931 -17.9868 -17.9866 -17.9804 -17.9728
   -17.9716 -17.9687 -17.9566 -17.9498 -17.9478 -17.9431 -17.9412 -17.9346
   -17.9265 -17.9263 -17.9235 -17.8901 -17.8889 -17.8835 -17.8831 -17.8641
   -17.8618 -17.8559 -17.8540 -17.8510 -17.8336 -17.8318 -17.8277 -17.8197
   -17.8164 -17.8118 -17.8065 -17.8038 -17.7994 -17.7956 -17.7950 -17.7940
   -17.7783 -17.7780 -17.7773 -17.7679 -17.7664 -17.7642 -17.7596 -17.7591
   -17.7560 -17.7344 -17.7340 -17.7338 -17.7319 -17.7318 -17.7307 -12.0193
   -11.9292 -11.8398 -11.8068 -11.7402 -11.7316 -11.7201 -11.7111 -11.6171
   -11.6056 -11.6008 -11.4978 -11.4926 -11.4899 -11.4684 -11.3663 -11.3076
   -11.2639 -11.2110 -11.1829 -11.1827 -11.1717 -11.1691 -11.1655 -11.1369
   -11.0904 -11.0772 -11.0701 -11.0695 -11.0691 -11.0633 -11.0567 -11.0422
   -11.0284 -11.0175 -11.0149 -11.0121 -11.0005 -10.9979 -10.9976 -10.9870
   -10.9821 -10.9692 -10.9582 -10.9576 -10.9339 -10.9149 -10.9149 -10.8928
   -10.8888 -10.8845 -10.8741 -10.8615 -10.8547 -10.8435 -10.8332 -10.8303
   -10.8168 -10.8140 -10.7988 -10.7912 -10.7909 -10.7842 -10.7807 -10.7806
   -10.7723 -10.7692 -10.7665 -10.7624 -10.7617 -10.7537 -10.7488 -10.7485
   -10.7432 -10.7417 -10.7401 -10.7186 -10.7175 -10.7139 -10.7127 -10.7097
   -10.7071 -10.7050 -10.7035 -10.6898 -10.6753 -10.6749 -10.6738 -10.6731
   -10.6720 -10.6699 -10.6007 -10.6006 -10.5939 -10.5476 -10.5389 -10.5267
   -10.5243 -10.5205 -10.5182 -10.4408 -10.4007 -10.2114 -10.1789 -10.1383
   -10.0623 -10.0480  -9.9624  -9.9103  -9.8545  -9.8378  -9.7944  -9.7772
    -9.7534  -9.7524  -9.7403  -9.7396  -9.7236  -9.7129  -9.7107  -9.7087
    -9.7086  -9.7064  -9.7032  -9.6984  -9.6917  -9.6914  -9.6873  -9.6831
    -9.6803  -9.6526  -9.6444  -9.6409  -9.6106  -9.5821  -9.5798  -9.5727
    -9.5682  -9.5647  -9.5646  -9.5626  -9.5558  -9.5552  -9.5545  -9.5528
    -9.5505  -9.5480  -9.5454  -9.5084  -9.4906  -9.4857  -9.4787  -9.4786
    -9.4785  -9.4780  -9.4779  -9.4770  -9.4677  -9.4654  -9.4601  -9.4411
    -9.4396  -9.4371  -9.4267  -9.3943  -9.3838  -9.3185  -9.3120  -9.3055
    -9.3030  -9.2988  -9.2857  -9.2820  -9.2747  -9.2697  -9.2687  -9.2499
    -9.2403  -9.2219  -9.1991  -9.1864  -9.1735  -9.1731  -9.1712  -9.1418
    -9.1259  -9.1247  -9.1236  -9.1189  -9.1186  -9.1146  -9.1116  -9.0896
    -9.0746  -9.0720  -9.0621  -9.0393  -9.0353  -8.9900  -8.9899  -8.9772
    -8.9431  -8.9339  -8.9183  -8.9178  -8.9147  -8.8915  -8.8900  -8.8842
    -8.8816  -8.8664  -8.8544  -8.8542  -8.8528  -8.8496  -8.8466  -8.8362
    -8.8318  -8.8201  -8.8113  -8.7591  -8.7584  -8.7584  -8.7580  -8.7578
    -8.7570  -8.7077  -8.6966  -8.6865  -8.6848  -8.6812  -8.6654  -8.6343
    -8.6119  -8.6058  -8.6013  -8.5992  -8.5824  -8.5813  -8.5342  -8.5319
    -8.5290  -8.5281  -8.5262  -8.5232  -8.4694  -8.4544  -8.4149  -8.3739
    -8.3605  -8.3035  -8.3035  -8.2987  -8.2984  -8.2922  -8.2919  -8.2816
    -8.2567  -8.2473  -8.2188  -8.2131  -8.2130  -8.2125  -8.2117  -8.2111
    -8.2028  -8.1867  -8.1866  -8.1856  -8.1846  -8.1836  -8.1783  -8.1583
    -8.1582  -8.1577  -8.1573  -8.1568  -8.1551  -8.0891  -8.0606  -8.0370
    -8.0216  -7.9945  -7.8189  -7.7954  -7.7928  -7.7926  -7.7224  -7.7043
    -7.7021  -7.6487  -7.6276  -7.6207  -7.5893  -7.5850  -7.5797  -7.5783
    -7.5700  -7.5531  -7.5494  -7.5463  -7.5409  -7.5396  -7.5370  -7.4991
    -7.4958  -7.4883  -7.4805  -7.4750  -7.4718  -7.4706  -7.4703  -7.4703
    -7.4650  -7.4598  -7.4558  -7.4442  -7.4438  -7.4433  -7.4428  -7.4417
    -7.4330  -7.4236  -7.4223  -7.4193  -7.4191  -7.4189  -7.4179  -7.4153
    -7.4140  -7.4040  -7.3817  -7.3612  -7.3609  -7.3564  -7.3544  -7.3466
    -7.3461  -7.3397  -7.3180  -7.2910  -7.2869  -7.2797  -7.2654  -7.2513
    -7.2506  -7.2415  -7.2341  -7.2316  -7.2293  -7.2265  -7.2257  -7.2204
    -7.1876  -7.1873  -7.1692  -7.1688  -7.1623  -7.1508  -7.1506  -7.1084
    -7.0805  -7.0711  -7.0607  -7.0488  -7.0426  -6.9936  -6.9462  -6.8797
    -6.8570  -6.8314  -6.8271  -6.8030  -6.8025  -6.7727  -6.7420  -6.7237
    -6.7192  -6.7151  -6.7141  -6.6931  -6.6443  -6.6390  -6.6348  -6.6337
    -6.6204  -6.5856  -6.5675  -6.5674  -6.5627  -6.5573  -6.5481  -6.5384
    -6.5354  -6.5191  -6.5102  -6.4960  -6.4948  -6.4852  -6.4766  -6.4661
    -6.4531  -6.4511  -6.4494  -6.4467  -6.4461  -6.4437  -6.4428  -6.4422
    -6.4345  -6.4345  -6.4343  -6.4341  -6.4337  -6.4333  -6.4268  -6.3944
    -6.3914  -6.3796  -6.3569  -6.3507  -6.3462  -6.3423  -6.3321  -6.3189
    -6.2773  -6.2702  -6.2696  -6.2696  -6.2683  -6.2668  -6.2521  -6.2368
    -6.2344  -6.2312  -6.2305  -6.2267  -6.2176  -6.2135  -6.2069  -6.1928
    -6.1916  -6.1915  -6.1879  -6.1873  -6.1868  -6.1588  -6.1314  -6.0904
    -5.9039  -5.7525  -5.6846  -5.6698  -5.5405  -5.4935  -5.4774  -5.2512
    -5.0872  -4.1703  -3.9050  -3.7942  -3.7888  -3.7829  -3.7823  -3.7727
    -3.7659  -3.7623  -3.7598  -3.7587  -3.7577  -3.7397  -3.7151  -3.6494
    -3.6378  -3.6279  -3.6272  -3.6196  -3.6172  -3.6169  -3.6112  -3.6074
    -3.6067  -3.5152  -3.4876  -3.4573  -3.4490  -3.4448  -3.4400  -3.4375
    -3.4258  -3.4206  -3.4113  -3.4078  -3.4078  -3.4048  -3.4044  -3.3951
    -3.3925  -3.3827  -3.3810  -3.3790  -3.3787  -3.3783  -3.3700  -3.3639
    -3.3638  -3.3635  -3.3559  -3.3493  -3.3483  -3.3468  -3.3448  -3.3414
    -3.3369  -3.3349  -3.3335  -3.3330  -3.3281  -3.2959  -3.2929  -3.2868
    -3.2850  -3.2823  -3.2818  -3.2793  -3.2774  -3.2659  -3.2622  -3.2534
    -3.2472  -3.2261  -3.2238  -3.2209  -3.2176  -3.2154  -3.2120  -3.2002
    -3.1923  -3.1569  -3.1543  -3.1339  -3.1295  -3.0202  -3.0119  -3.0105
    -2.9962  -2.9957  -2.9950  -2.9882  -2.9823  -2.9788  -2.9721  -2.9461
    -2.9386  -2.9312  -2.9110  -2.9109  -2.9090  -2.9087  -2.9080  -2.9030
    -2.9006  -2.8993  -2.8992  -2.8939  -2.8932  -2.8900  -2.8897  -2.8842
    -2.8741  -2.8706  -2.8698  -2.8677  -2.8663  -2.8648  -2.8643  -2.8635
    -2.8632  -2.8538  -2.8524  -2.8297  -2.8253  -2.8193  -2.8124  -2.8117
    -2.7971  -2.7944  -2.7902  -2.7637  -2.7417  -2.7406  -2.7405  -2.7403
    -2.7401  -2.7399  -2.7396  -2.7387  -2.7383  -2.7222  -2.7199  -2.7112
    -2.6962  -2.6808  -2.6747  -2.6744  -2.6665  -2.6556  -2.6526  -2.6063
    -2.6026  -2.5763  -2.5757  -2.5629  -2.5579  -2.5543  -2.5538  -2.5518
    -2.5512  -2.5215  -2.5037  -2.4901  -2.4871  -2.4790  -2.4750  -2.3623
    -2.3531  -2.3492  -2.3471  -2.3424

          k = 0.0000-0.5773 0.0000 (386352 PWs)   bands (ev):

  -102.9537 -88.3285 -71.2654 -71.2488 -71.2437 -71.2417 -71.2292 -71.2263
   -71.2189 -66.5552 -66.5551 -66.5551 -66.5550 -66.5548 -66.5539 -66.5538
   -66.5475 -66.5445 -66.5444 -66.5444 -66.5444 -66.5432 -66.5432 -66.5409
   -66.5348 -66.5346 -66.5296 -66.5294 -66.5293 -66.5293 -66.5293 -66.5293
   -66.5292 -66.5292 -66.5281 -66.5281 -66.5281 -66.5281 -66.5263 -66.5250
   -66.5249 -66.5249 -66.5248 -66.5236 -66.5236 -66.5195 -66.5188 -66.5186
   -66.5186 -66.5186 -66.5186 -66.5186 -66.5186 -66.5183 -66.5174 -66.5174
   -66.5174 -66.5173 -66.5155 -66.5142 -66.5142 -66.5142 -66.5141 -66.5129
   -66.5129 -66.5082 -66.5074 -66.5034 -66.5019 -66.5004 -66.4961 -66.4799
   -66.4720 -57.2080 -57.1811 -57.1724 -54.1454 -54.1366 -54.1314 -40.8572
   -40.8572 -40.8572 -40.8571 -40.8571 -40.8571 -40.8571 -40.8569 -40.8565
   -40.8565 -40.8565 -40.8565 -40.8509 -40.8447 -40.8412 -40.8303 -40.8303
   -40.8303 -40.8303 -40.8303 -40.8297 -40.8297 -40.8260 -40.8183 -40.8182
   -40.8182 -40.8182 -40.8176 -40.8176 -40.8148 -40.7996 -40.7867 -40.7745
   -40.7676 -40.7676 -40.7675 -40.7675 -40.7675 -40.7675 -40.7675 -40.7675
   -40.7668 -40.7668 -40.7668 -40.7668 -40.7518 -40.7484 -40.7426 -40.7372
   -40.7185 -40.7088 -40.7088 -40.7088 -40.7087 -40.7082 -40.7082 -40.7050
   -40.6993 -40.6993 -40.6992 -40.6992 -40.6985 -40.6985 -40.6906 -40.6879
   -40.6879 -40.6879 -40.6879 -40.6873 -40.6873 -40.6827 -40.6815 -40.6744
   -40.6612 -40.6584 -40.6584 -40.6583 -40.6583 -40.6583 -40.6583 -40.6582
   -40.6582 -40.6577 -40.6577 -40.6577 -40.6577 -40.6568 -40.6538 -40.6500
   -40.6496 -40.6496 -40.6495 -40.6495 -40.6489 -40.6489 -40.6444 -40.6403
   -40.6378 -40.6378 -40.6378 -40.6377 -40.6374 -40.6373 -40.6373 -40.6372
   -40.6372 -40.6372 -40.6372 -40.6371 -40.6370 -40.6370 -40.6366 -40.6366
   -40.6366 -40.6366 -40.6355 -40.6318 -40.6296 -40.6286 -40.6286 -40.6286
   -40.6286 -40.6279 -40.6279 -40.6251 -40.6248 -40.6141 -40.6120 -40.6071
   -40.6069 -40.6068 -40.6068 -40.6068 -40.6068 -40.6067 -40.6066 -40.6060
   -40.6060 -40.6060 -40.6060 -40.5925 -40.5920 -40.5910 -40.5874 -40.5722
   -40.5721 -40.5721 -40.5721 -40.5721 -40.5721 -40.5721 -40.5720 -40.5712
   -40.5712 -40.5712 -40.5712 -40.5600 -40.5599 -40.5599 -40.5599 -40.5590
   -40.5590 -40.5572 -40.5541 -40.5501 -40.5456 -40.5446 -40.5408 -40.5406
   -40.5406 -40.5404 -40.5397 -40.5397 -40.5315 -40.5268 -40.5237 -40.5236
   -40.5236 -40.5236 -40.5227 -40.5227 -40.5163 -40.4977 -40.4931 -40.4930
   -40.4929 -40.4928 -40.4920 -40.4920 -40.4906 -40.4738 -40.4665 -19.8682
   -19.8551 -19.7951 -19.7916 -19.6959 -19.6921 -19.5917 -19.5894 -19.4156
   -19.4049 -19.3571 -19.3520 -19.2642 -19.2605 -19.1643 -19.1629 -18.8794
   -18.8352 -18.8261 -18.7534 -18.6927 -18.6653 -18.6586 -18.6573 -18.6568
   -18.6491 -18.6134 -18.6101 -18.5887 -18.5861 -18.5707 -18.5577 -18.5360
   -18.5343 -18.5105 -18.4929 -18.4925 -18.4852 -18.4745 -18.4639 -18.4510
   -18.4378 -18.4241 -18.4118 -18.4058 -18.3930 -18.3481 -18.3447 -18.3413
   -18.3364 -18.3066 -18.2874 -18.2695 -18.2686 -18.2641 -18.2086 -18.1948
   -18.1946 -18.1861 -18.1581 -18.1331 -18.1270 -18.1224 -18.1169 -18.1053
   -18.0715 -18.0592 -18.0439 -18.0436 -18.0385 -18.0350 -18.0316 -18.0300
   -18.0237 -18.0099 -18.0052 -18.0046 -18.0030 -17.9987 -17.9878 -17.9875
   -17.9811 -17.9794 -17.9750 -17.9474 -17.9440 -17.9421 -17.9409 -17.9384
   -17.9325 -17.9314 -17.9311 -17.9245 -17.9174 -17.8893 -17.8790 -17.8744
   -17.8720 -17.8674 -17.8642 -17.8300 -17.8275 -17.8237 -17.8175 -17.8047
   -17.7857 -17.7820 -17.7782 -17.7761 -17.7589 -17.7557 -17.7554 -17.7549
   -17.7540 -17.7539 -17.7490 -17.7415 -17.7384 -17.7225 -17.7180 -17.6980
   -17.6944 -17.6789 -17.6742 -17.6638 -17.6606 -17.6556 -17.6551 -11.8601
   -11.7069 -11.6618 -11.6463 -11.5910 -11.5743 -11.4816 -11.4647 -11.4462
   -11.4338 -11.4323 -11.4297 -11.4178 -11.4139 -11.3976 -11.3711 -11.3362
   -11.3261 -11.3173 -11.3060 -11.2925 -11.2657 -11.2597 -11.2568 -11.2484
   -11.2116 -11.2093 -11.2045 -11.2034 -11.1972 -11.1884 -11.1854 -11.1679
   -11.1515 -11.1401 -11.1391 -11.1273 -11.1207 -11.1162 -11.1073 -11.1033
   -11.1000 -11.0823 -11.0818 -11.0618 -11.0520 -11.0348 -11.0334 -10.9980
   -10.9922 -10.9845 -10.9613 -10.9119 -10.9059 -10.9012 -10.8683 -10.8663
   -10.8525 -10.8509 -10.8365 -10.8318 -10.8134 -10.7861 -10.7834 -10.7738
   -10.7648 -10.7590 -10.7553 -10.7485 -10.7478 -10.7472 -10.7464 -10.7421
   -10.7364 -10.7304 -10.7298 -10.7290 -10.7272 -10.7207 -10.7202 -10.7175
   -10.7142 -10.6800 -10.6797 -10.6789 -10.6786 -10.5839 -10.5687 -10.5020
   -10.4775 -10.4699 -10.4676 -10.4421 -10.4206 -10.3593 -10.3390 -10.2635
   -10.2178 -10.1974 -10.1536 -10.1273 -10.0970 -10.0762 -10.0679 -10.0588
   -10.0528 -10.0281 -10.0200 -10.0144  -9.9910  -9.9787  -9.9723  -9.9651
    -9.9634  -9.9501  -9.9387  -9.9387  -9.9210  -9.9015  -9.8720  -9.8665
    -9.8560  -9.8469  -9.8353  -9.8321  -9.8261  -9.8046  -9.7927  -9.7899
    -9.7648  -9.7621  -9.7433  -9.7268  -9.7194  -9.7144  -9.7019  -9.6949
    -9.6747  -9.6527  -9.6328  -9.6234  -9.6072  -9.5983  -9.5926  -9.5718
    -9.5655  -9.5545  -9.5379  -9.5324  -9.5120  -9.5091  -9.4820  -9.4788
    -9.4785  -9.4686  -9.4588  -9.4459  -9.4282  -9.4247  -9.4127  -9.4113
    -9.4053  -9.3966  -9.3908  -9.3897  -9.3818  -9.3699  -9.3568  -9.3409
    -9.3223  -9.3125  -9.2758  -9.2232  -9.2203  -9.1894  -9.1789  -9.1676
    -9.1575  -9.1379  -9.1283  -9.1211  -9.1100  -9.1017  -9.0995  -9.0825
    -9.0583  -9.0505  -9.0322  -9.0196  -9.0188  -8.9998  -8.9977  -8.9765
    -8.9704  -8.9696  -8.9584  -8.9340  -8.9324  -8.9252  -8.9075  -8.8936
    -8.8864  -8.8777  -8.8685  -8.8666  -8.8558  -8.8279  -8.8258  -8.8247
    -8.8237  -8.8210  -8.8175  -8.8151  -8.8095  -8.8052  -8.8047  -8.7963
    -8.7956  -8.7919  -8.7884  -8.7840  -8.7767  -8.7762  -8.7755  -8.7730
    -8.7434  -8.7293  -8.7279  -8.7278  -8.7236  -8.7197  -8.7182  -8.6990
    -8.6982  -8.6959  -8.6720  -8.6685  -8.6653  -8.6642  -8.6574  -8.6400
    -8.5948  -8.5835  -8.5756  -8.5418  -8.5185  -8.4430  -8.4372  -8.4221
    -8.4060  -8.3735  -8.3730  -8.3400  -8.2953  -8.2899  -8.2511  -8.2456
    -8.2073  -8.1639  -8.0723  -8.0636  -8.0631  -8.0547  -8.0538  -8.0433
    -8.0429  -8.0083  -7.9984  -7.9939  -7.9595  -7.9163  -7.9038  -7.8890
    -7.8494  -7.8467  -7.8212  -7.8085  -7.7844  -7.7786  -7.7689  -7.7649
    -7.7554  -7.7537  -7.7490  -7.7454  -7.7424  -7.7375  -7.7332  -7.7329
    -7.7327  -7.7263  -7.7188  -7.7175  -7.7130  -7.7113  -7.7091  -7.7047
    -7.7043  -7.7007  -7.6998  -7.6974  -7.6960  -7.6960  -7.6939  -7.6928
    -7.6685  -7.6674  -7.6671  -7.6624  -7.6578  -7.6339  -7.6331  -7.6325
    -7.6312  -7.6092  -7.6046  -7.6029  -7.6017  -7.5979  -7.5951  -7.5916
    -7.5894  -7.5759  -7.5538  -7.5478  -7.5440  -7.5433  -7.5408  -7.5348
    -7.5263  -7.5209  -7.5206  -7.5159  -7.5036  -7.5007  -7.4999  -7.4945
    -7.4868  -7.4744  -7.4604  -7.4034  -7.3985  -7.3945  -7.3915  -7.3657
    -7.3545  -7.2844  -7.2717  -7.1598  -7.1209  -7.1100  -7.1063  -7.1020
    -7.0955  -7.0906  -7.0680  -7.0540  -7.0459  -7.0399  -7.0368  -7.0067
    -7.0002  -6.9912  -6.9783  -6.9643  -6.9556  -6.9537  -6.9507  -6.9116
    -6.9092  -6.8737  -6.8509  -6.8502  -6.8486  -6.8396  -6.8306  -6.8198
    -6.8032  -6.7955  -6.7947  -6.7655  -6.7335  -6.7256  -6.7127  -6.7020
    -6.6980  -6.6715  -6.6488  -6.6212  -6.6195  -6.6143  -6.5702  -6.5697
    -6.5575  -6.5425  -6.5416  -6.5415  -6.5404  -6.5360  -6.5241  -6.5238
    -6.5228  -6.5224  -6.5149  -6.5148  -6.5146  -6.5146  -6.4970  -6.4911
    -6.4619  -6.4210  -6.3976  -6.3551  -6.3474  -6.3372  -6.2641  -6.2624
    -6.2599  -6.2567  -6.2480  -6.2355  -6.2332  -6.2217  -6.2130  -6.2127
    -6.2085  -6.2079  -6.2003  -6.1980  -6.1870  -6.1747  -6.1714  -6.1552
    -6.1497  -6.1396  -6.1364  -6.1316  -6.1203  -5.9495  -5.9362  -5.9322
    -5.9108  -5.9014  -5.8577  -5.8453  -5.8300  -5.7856  -5.7849  -5.7152
    -5.6874  -5.6562  -5.6388  -5.5565  -5.5453  -5.5145  -5.4792  -5.4712
    -5.4346  -4.1757  -4.0312  -4.0304  -4.0165  -4.0102  -3.9139  -3.8768
    -3.8594  -3.8576  -3.8334  -3.8289  -3.7774  -3.7764  -3.7630  -3.7600
    -3.7466  -3.7447  -3.7338  -3.7335  -3.7228  -3.7227  -3.6366  -3.6245
    -3.6227  -3.6136  -3.5484  -3.5464  -3.5360  -3.5338  -3.5295  -3.5057
    -3.4882  -3.4863  -3.4673  -3.4627  -3.4579  -3.4559  -3.4551  -3.4482
    -3.4303  -3.4169  -3.4140  -3.4137  -3.4105  -3.4094  -3.4069  -3.4048
    -3.3827  -3.3821  -3.3763  -3.3636  -3.3580  -3.3521  -3.3345  -3.3324
    -3.3065  -3.2888  -3.2831  -3.2826  -3.2825  -3.2756  -3.2721  -3.2705
    -3.2640  -3.2356  -3.2289  -3.2232  -3.2219  -3.2176  -3.2154  -3.2120
    -3.2107  -3.2062  -3.1970  -3.1828  -3.1783  -3.1689  -3.1689  -3.1615
    -3.1580  -3.1506  -3.1465  -3.1424  -3.1322  -3.1290  -3.1206  -3.1133
    -3.1132  -3.1032  -3.0973  -3.0961  -3.0960  -3.0912  -3.0821  -3.0572
    -3.0339  -3.0171  -3.0096  -3.0009  -3.0001  -2.9993  -2.9901  -2.9615
    -2.9610  -2.9570  -2.9558  -2.9553  -2.9542  -2.9468  -2.9433  -2.9422
    -2.9391  -2.9382  -2.9368  -2.9243  -2.9208  -2.9193  -2.9136  -2.9100
    -2.9088  -2.9049  -2.9021  -2.8941  -2.8905  -2.8817  -2.8808  -2.8775
    -2.8741  -2.8673  -2.8644  -2.8585  -2.8417  -2.8358  -2.8331  -2.8247
    -2.8153  -2.8143  -2.8067  -2.8023  -2.7873  -2.7323  -2.7286  -2.7248
    -2.7214  -2.6816  -2.6615  -2.6437  -2.6418  -2.5542  -2.5427  -2.5296
    -2.5221  -2.5057  -2.4913  -2.4884  -2.4773  -2.4646  -2.4603  -2.4594
    -2.4572  -2.4541  -2.4311  -2.4143  -2.3444  -2.3331  -2.3291  -2.3274
    -2.3217  -2.3161  -2.2957  -2.2873

          k =-0.5000-0.2887 0.0000 (386352 PWs)   bands (ev):

  -102.9537 -88.3285 -71.2654 -71.2488 -71.2437 -71.2417 -71.2292 -71.2263
   -71.2189 -66.5552 -66.5552 -66.5551 -66.5551 -66.5550 -66.5539 -66.5539
   -66.5460 -66.5445 -66.5444 -66.5444 -66.5444 -66.5432 -66.5432 -66.5417
   -66.5372 -66.5324 -66.5294 -66.5293 -66.5293 -66.5293 -66.5293 -66.5293
   -66.5293 -66.5293 -66.5281 -66.5281 -66.5281 -66.5281 -66.5268 -66.5250
   -66.5249 -66.5249 -66.5248 -66.5236 -66.5236 -66.5195 -66.5188 -66.5186
   -66.5186 -66.5186 -66.5186 -66.5186 -66.5186 -66.5184 -66.5174 -66.5174
   -66.5174 -66.5173 -66.5151 -66.5142 -66.5142 -66.5142 -66.5141 -66.5129
   -66.5129 -66.5072 -66.5063 -66.5046 -66.5036 -66.5003 -66.4954 -66.4799
   -66.4721 -57.2080 -57.1811 -57.1724 -54.1454 -54.1366 -54.1314 -40.8572
   -40.8571 -40.8571 -40.8571 -40.8571 -40.8571 -40.8570 -40.8570 -40.8565
   -40.8565 -40.8565 -40.8565 -40.8535 -40.8517 -40.8371 -40.8304 -40.8303
   -40.8303 -40.8302 -40.8297 -40.8297 -40.8257 -40.8204 -40.8182 -40.8182
   -40.8182 -40.8182 -40.8176 -40.8176 -40.8136 -40.8010 -40.7869 -40.7746
   -40.7676 -40.7676 -40.7675 -40.7675 -40.7675 -40.7675 -40.7675 -40.7675
   -40.7668 -40.7668 -40.7668 -40.7668 -40.7545 -40.7474 -40.7450 -40.7394
   -40.7170 -40.7089 -40.7088 -40.7087 -40.7087 -40.7084 -40.7082 -40.7082
   -40.6993 -40.6993 -40.6992 -40.6992 -40.6985 -40.6985 -40.6898 -40.6879
   -40.6879 -40.6879 -40.6879 -40.6873 -40.6873 -40.6818 -40.6758 -40.6750
   -40.6699 -40.6583 -40.6583 -40.6583 -40.6583 -40.6583 -40.6583 -40.6583
   -40.6583 -40.6580 -40.6577 -40.6577 -40.6576 -40.6576 -40.6529 -40.6497
   -40.6496 -40.6495 -40.6495 -40.6489 -40.6489 -40.6464 -40.6441 -40.6386
   -40.6378 -40.6378 -40.6378 -40.6377 -40.6376 -40.6375 -40.6373 -40.6373
   -40.6373 -40.6372 -40.6372 -40.6372 -40.6371 -40.6370 -40.6370 -40.6366
   -40.6366 -40.6366 -40.6366 -40.6317 -40.6297 -40.6286 -40.6286 -40.6286
   -40.6286 -40.6279 -40.6279 -40.6252 -40.6227 -40.6150 -40.6120 -40.6071
   -40.6069 -40.6069 -40.6068 -40.6068 -40.6068 -40.6067 -40.6066 -40.6060
   -40.6060 -40.6060 -40.6060 -40.5956 -40.5945 -40.5843 -40.5823 -40.5721
   -40.5721 -40.5721 -40.5721 -40.5721 -40.5721 -40.5721 -40.5720 -40.5712
   -40.5712 -40.5712 -40.5712 -40.5600 -40.5599 -40.5599 -40.5599 -40.5590
   -40.5590 -40.5569 -40.5548 -40.5521 -40.5481 -40.5440 -40.5408 -40.5406
   -40.5406 -40.5404 -40.5397 -40.5397 -40.5299 -40.5237 -40.5236 -40.5236
   -40.5236 -40.5227 -40.5227 -40.5219 -40.5177 -40.5018 -40.4945 -40.4931
   -40.4930 -40.4929 -40.4929 -40.4920 -40.4920 -40.4783 -40.4594 -19.8993
   -19.8299 -19.7992 -19.7743 -19.6982 -19.6819 -19.5915 -19.5869 -19.4377
   -19.4062 -19.3617 -19.3529 -19.2676 -19.2612 -19.1656 -19.1633 -18.8626
   -18.8313 -18.7928 -18.7432 -18.6960 -18.6849 -18.6588 -18.6573 -18.6566
   -18.6505 -18.6393 -18.6227 -18.5892 -18.5864 -18.5798 -18.5716 -18.5370
   -18.5154 -18.5056 -18.4908 -18.4884 -18.4856 -18.4828 -18.4627 -18.4465
   -18.4182 -18.4142 -18.4134 -18.4034 -18.3799 -18.3491 -18.3432 -18.3422
   -18.3222 -18.3197 -18.2930 -18.2782 -18.2681 -18.2586 -18.2308 -18.2084
   -18.1918 -18.1829 -18.1703 -18.1525 -18.1293 -18.1243 -18.1110 -18.0849
   -18.0756 -18.0602 -18.0526 -18.0394 -18.0376 -18.0352 -18.0340 -18.0262
   -18.0107 -18.0084 -18.0065 -18.0051 -18.0013 -17.9975 -17.9957 -17.9864
   -17.9823 -17.9765 -17.9676 -17.9472 -17.9447 -17.9422 -17.9393 -17.9360
   -17.9351 -17.9313 -17.9259 -17.9220 -17.9181 -17.8868 -17.8805 -17.8750
   -17.8718 -17.8651 -17.8567 -17.8308 -17.8274 -17.8249 -17.8123 -17.8081
   -17.7854 -17.7830 -17.7782 -17.7742 -17.7667 -17.7559 -17.7555 -17.7549
   -17.7544 -17.7534 -17.7525 -17.7413 -17.7396 -17.7219 -17.7190 -17.6974
   -17.6950 -17.6783 -17.6750 -17.6635 -17.6613 -17.6556 -17.6553 -11.8825
   -11.7112 -11.6664 -11.6270 -11.5813 -11.5598 -11.4678 -11.4533 -11.4512
   -11.4345 -11.4342 -11.4274 -11.4100 -11.4004 -11.3918 -11.3771 -11.3507
   -11.3249 -11.3197 -11.3020 -11.2934 -11.2808 -11.2700 -11.2592 -11.2524
   -11.2132 -11.2116 -11.2087 -11.1995 -11.1953 -11.1919 -11.1900 -11.1752
   -11.1505 -11.1434 -11.1392 -11.1297 -11.1186 -11.1090 -11.1055 -11.1039
   -11.0997 -11.0849 -11.0828 -11.0703 -11.0599 -11.0359 -11.0207 -10.9993
   -10.9953 -10.9790 -10.9365 -10.9221 -10.8985 -10.8907 -10.8788 -10.8601
   -10.8582 -10.8495 -10.8399 -10.8233 -10.8038 -10.7987 -10.7831 -10.7724
   -10.7675 -10.7655 -10.7619 -10.7482 -10.7478 -10.7467 -10.7463 -10.7388
   -10.7376 -10.7314 -10.7299 -10.7279 -10.7274 -10.7203 -10.7199 -10.7173
   -10.7153 -10.6798 -10.6797 -10.6789 -10.6787 -10.6242 -10.5661 -10.4884
   -10.4760 -10.4674 -10.4634 -10.4277 -10.4077 -10.3389 -10.3255 -10.2601
   -10.2475 -10.2028 -10.1796 -10.1249 -10.0941 -10.0782 -10.0696 -10.0517
   -10.0503 -10.0410 -10.0274 -10.0020  -9.9920  -9.9770  -9.9727  -9.9714
    -9.9677  -9.9512  -9.9454  -9.9420  -9.9248  -9.8809  -9.8741  -9.8660
    -9.8584  -9.8462  -9.8420  -9.8295  -9.8269  -9.8115  -9.8018  -9.7899
    -9.7708  -9.7623  -9.7470  -9.7278  -9.7167  -9.7074  -9.7034  -9.6847
    -9.6737  -9.6602  -9.6453  -9.6293  -9.6205  -9.5985  -9.5909  -9.5708
    -9.5586  -9.5517  -9.5438  -9.5268  -9.5093  -9.5014  -9.4938  -9.4802
    -9.4774  -9.4683  -9.4521  -9.4270  -9.4264  -9.4243  -9.4132  -9.4074
    -9.4020  -9.3950  -9.3937  -9.3891  -9.3817  -9.3692  -9.3622  -9.3203
    -9.3043  -9.2964  -9.2747  -9.2418  -9.2078  -9.1907  -9.1762  -9.1563
    -9.1472  -9.1411  -9.1367  -9.1316  -9.1125  -9.0952  -9.0813  -9.0790
    -9.0580  -9.0418  -9.0384  -9.0297  -9.0172  -8.9982  -8.9963  -8.9809
    -8.9768  -8.9685  -8.9648  -8.9398  -8.9334  -8.9170  -8.9063  -8.8965
    -8.8838  -8.8803  -8.8757  -8.8659  -8.8543  -8.8423  -8.8351  -8.8255
    -8.8243  -8.8231  -8.8222  -8.8163  -8.8092  -8.8066  -8.8047  -8.8039
    -8.7947  -8.7936  -8.7844  -8.7774  -8.7762  -8.7755  -8.7720  -8.7656
    -8.7434  -8.7315  -8.7299  -8.7274  -8.7235  -8.7198  -8.7178  -8.6996
    -8.6968  -8.6881  -8.6698  -8.6684  -8.6649  -8.6619  -8.6487  -8.6423
    -8.6004  -8.5935  -8.5856  -8.5581  -8.5109  -8.4416  -8.4379  -8.4255
    -8.4113  -8.3901  -8.3733  -8.3300  -8.2917  -8.2822  -8.2372  -8.2123
    -8.1878  -8.1536  -8.0770  -8.0637  -8.0633  -8.0549  -8.0542  -8.0436
    -8.0430  -8.0312  -8.0050  -7.9986  -7.9850  -7.9462  -7.9077  -7.9044
    -7.8750  -7.8228  -7.8103  -7.7897  -7.7823  -7.7760  -7.7691  -7.7631
    -7.7584  -7.7511  -7.7483  -7.7440  -7.7431  -7.7385  -7.7326  -7.7312
    -7.7258  -7.7238  -7.7220  -7.7177  -7.7170  -7.7098  -7.7061  -7.7043
    -7.7022  -7.7007  -7.6993  -7.6980  -7.6965  -7.6940  -7.6934  -7.6877
    -7.6736  -7.6674  -7.6667  -7.6649  -7.6631  -7.6351  -7.6337  -7.6330
    -7.6319  -7.6305  -7.6055  -7.6022  -7.6021  -7.6005  -7.5969  -7.5915
    -7.5840  -7.5681  -7.5585  -7.5446  -7.5441  -7.5379  -7.5359  -7.5292
    -7.5275  -7.5209  -7.5201  -7.5050  -7.5004  -7.4996  -7.4945  -7.4878
    -7.4809  -7.4737  -7.4623  -7.3991  -7.3978  -7.3935  -7.3902  -7.3725
    -7.3665  -7.3004  -7.2581  -7.1703  -7.1418  -7.1119  -7.1087  -7.1032
    -7.0994  -7.0930  -7.0702  -7.0482  -7.0464  -7.0427  -7.0251  -7.0221
    -7.0149  -6.9887  -6.9630  -6.9624  -6.9580  -6.9369  -6.9209  -6.9120
    -6.9045  -6.8798  -6.8725  -6.8510  -6.8459  -6.8396  -6.8164  -6.8080
    -6.7958  -6.7937  -6.7874  -6.7860  -6.7633  -6.7172  -6.7056  -6.6934
    -6.6839  -6.6812  -6.6527  -6.6256  -6.6140  -6.5907  -6.5703  -6.5632
    -6.5513  -6.5456  -6.5415  -6.5410  -6.5408  -6.5377  -6.5243  -6.5236
    -6.5235  -6.5222  -6.5150  -6.5148  -6.5148  -6.5146  -6.5058  -6.4839
    -6.4579  -6.4313  -6.4083  -6.3795  -6.3470  -6.3287  -6.2729  -6.2619
    -6.2575  -6.2564  -6.2510  -6.2431  -6.2251  -6.2136  -6.2129  -6.2097
    -6.2083  -6.2062  -6.2040  -6.1992  -6.1869  -6.1780  -6.1651  -6.1482
    -6.1475  -6.1391  -6.1350  -6.1291  -6.1157  -5.9735  -5.9465  -5.9297
    -5.9197  -5.8895  -5.8555  -5.8425  -5.8211  -5.7881  -5.7813  -5.7180
    -5.6902  -5.6662  -5.6198  -5.5776  -5.5462  -5.5300  -5.4828  -5.4440
    -5.4339  -4.1852  -4.0485  -4.0293  -4.0221  -3.9972  -3.9148  -3.8706
    -3.8579  -3.8553  -3.8484  -3.7972  -3.7789  -3.7763  -3.7657  -3.7597
    -3.7492  -3.7440  -3.7412  -3.7336  -3.7321  -3.6933  -3.6587  -3.6253
    -3.6204  -3.5821  -3.5497  -3.5443  -3.5404  -3.5346  -3.5326  -3.5057
    -3.4874  -3.4870  -3.4783  -3.4611  -3.4585  -3.4536  -3.4486  -3.4407
    -3.4390  -3.4189  -3.4145  -3.4132  -3.4108  -3.4095  -3.4049  -3.3966
    -3.3838  -3.3820  -3.3787  -3.3636  -3.3598  -3.3529  -3.3444  -3.3349
    -3.3106  -3.2899  -3.2857  -3.2824  -3.2803  -3.2783  -3.2727  -3.2699
    -3.2670  -3.2404  -3.2261  -3.2237  -3.2207  -3.2165  -3.2147  -3.2120
    -3.2108  -3.2053  -3.1960  -3.1811  -3.1764  -3.1689  -3.1682  -3.1655
    -3.1618  -3.1486  -3.1462  -3.1425  -3.1300  -3.1250  -3.1182  -3.1114
    -3.1092  -3.1079  -3.1013  -3.0961  -3.0961  -3.0890  -3.0698  -3.0502
    -3.0314  -3.0166  -3.0116  -3.0064  -3.0030  -2.9982  -2.9922  -2.9641
    -2.9606  -2.9576  -2.9565  -2.9552  -2.9535  -2.9475  -2.9466  -2.9427
    -2.9393  -2.9375  -2.9354  -2.9251  -2.9215  -2.9203  -2.9175  -2.9104
    -2.9092  -2.9040  -2.8995  -2.8967  -2.8920  -2.8820  -2.8805  -2.8771
    -2.8723  -2.8691  -2.8640  -2.8579  -2.8446  -2.8374  -2.8357  -2.8226
    -2.8141  -2.8119  -2.8079  -2.8005  -2.7849  -2.7348  -2.7303  -2.7230
    -2.7211  -2.6803  -2.6611  -2.6474  -2.6462  -2.5570  -2.5437  -2.5268
    -2.5094  -2.5056  -2.4900  -2.4874  -2.4776  -2.4664  -2.4640  -2.4607
    -2.4570  -2.4553  -2.4434  -2.3554  -2.3426  -2.3365  -2.3311  -2.3208
    -2.3194  -2.3125  -2.2903  -2.2760

          k =-0.5000-0.8660 0.0000 (386352 PWs)   bands (ev):

  -102.9537 -88.3285 -71.2654 -71.2488 -71.2437 -71.2417 -71.2292 -71.2263
   -71.2189 -66.5552 -66.5552 -66.5551 -66.5551 -66.5550 -66.5539 -66.5538
   -66.5460 -66.5445 -66.5444 -66.5444 -66.5444 -66.5432 -66.5432 -66.5417
   -66.5372 -66.5324 -66.5294 -66.5293 -66.5293 -66.5293 -66.5293 -66.5293
   -66.5293 -66.5293 -66.5281 -66.5281 -66.5281 -66.5281 -66.5268 -66.5250
   -66.5249 -66.5249 -66.5248 -66.5237 -66.5236 -66.5195 -66.5188 -66.5186
   -66.5186 -66.5186 -66.5186 -66.5186 -66.5186 -66.5185 -66.5174 -66.5174
   -66.5174 -66.5173 -66.5151 -66.5142 -66.5142 -66.5142 -66.5141 -66.5129
   -66.5129 -66.5072 -66.5063 -66.5046 -66.5036 -66.5003 -66.4954 -66.4799
   -66.4721 -57.2080 -57.1811 -57.1724 -54.1454 -54.1366 -54.1314 -40.8572
   -40.8571 -40.8571 -40.8571 -40.8571 -40.8571 -40.8571 -40.8570 -40.8565
   -40.8565 -40.8565 -40.8565 -40.8535 -40.8517 -40.8371 -40.8304 -40.8303
   -40.8303 -40.8302 -40.8297 -40.8296 -40.8257 -40.8205 -40.8182 -40.8182
   -40.8182 -40.8182 -40.8176 -40.8176 -40.8136 -40.8010 -40.7869 -40.7746
   -40.7676 -40.7676 -40.7675 -40.7675 -40.7675 -40.7675 -40.7675 -40.7675
   -40.7668 -40.7668 -40.7668 -40.7668 -40.7545 -40.7474 -40.7449 -40.7394
   -40.7170 -40.7089 -40.7088 -40.7087 -40.7087 -40.7084 -40.7082 -40.7082
   -40.6993 -40.6993 -40.6992 -40.6992 -40.6985 -40.6985 -40.6898 -40.6879
   -40.6879 -40.6879 -40.6879 -40.6873 -40.6873 -40.6818 -40.6758 -40.6749
   -40.6699 -40.6583 -40.6583 -40.6583 -40.6583 -40.6583 -40.6583 -40.6583
   -40.6583 -40.6580 -40.6577 -40.6577 -40.6576 -40.6576 -40.6530 -40.6497
   -40.6496 -40.6495 -40.6495 -40.6489 -40.6489 -40.6465 -40.6441 -40.6386
   -40.6378 -40.6378 -40.6378 -40.6377 -40.6376 -40.6374 -40.6373 -40.6373
   -40.6373 -40.6372 -40.6372 -40.6372 -40.6371 -40.6370 -40.6370 -40.6366
   -40.6366 -40.6366 -40.6366 -40.6316 -40.6296 -40.6286 -40.6286 -40.6286
   -40.6286 -40.6279 -40.6279 -40.6252 -40.6227 -40.6150 -40.6120 -40.6071
   -40.6069 -40.6068 -40.6068 -40.6068 -40.6068 -40.6067 -40.6066 -40.6060
   -40.6060 -40.6060 -40.6059 -40.5956 -40.5945 -40.5843 -40.5824 -40.5721
   -40.5721 -40.5721 -40.5721 -40.5721 -40.5721 -40.5721 -40.5720 -40.5712
   -40.5712 -40.5712 -40.5712 -40.5600 -40.5600 -40.5599 -40.5599 -40.5590
   -40.5590 -40.5569 -40.5548 -40.5521 -40.5481 -40.5440 -40.5408 -40.5406
   -40.5406 -40.5404 -40.5397 -40.5397 -40.5300 -40.5237 -40.5236 -40.5236
   -40.5236 -40.5227 -40.5227 -40.5219 -40.5177 -40.5018 -40.4945 -40.4931
   -40.4930 -40.4929 -40.4929 -40.4920 -40.4920 -40.4783 -40.4594 -19.8993
   -19.8299 -19.7992 -19.7743 -19.6982 -19.6819 -19.5916 -19.5869 -19.4376
   -19.4062 -19.3617 -19.3529 -19.2676 -19.2612 -19.1656 -19.1633 -18.8626
   -18.8313 -18.7927 -18.7432 -18.6960 -18.6849 -18.6588 -18.6573 -18.6566
   -18.6505 -18.6392 -18.6227 -18.5892 -18.5864 -18.5798 -18.5716 -18.5370
   -18.5154 -18.5056 -18.4908 -18.4884 -18.4856 -18.4828 -18.4627 -18.4465
   -18.4182 -18.4142 -18.4134 -18.4034 -18.3799 -18.3491 -18.3432 -18.3422
   -18.3221 -18.3197 -18.2930 -18.2782 -18.2682 -18.2586 -18.2308 -18.2084
   -18.1918 -18.1829 -18.1703 -18.1525 -18.1294 -18.1243 -18.1110 -18.0849
   -18.0756 -18.0602 -18.0526 -18.0394 -18.0376 -18.0352 -18.0340 -18.0262
   -18.0107 -18.0084 -18.0065 -18.0051 -18.0014 -17.9975 -17.9957 -17.9864
   -17.9823 -17.9765 -17.9676 -17.9472 -17.9447 -17.9422 -17.9393 -17.9361
   -17.9351 -17.9313 -17.9259 -17.9220 -17.9181 -17.8869 -17.8805 -17.8750
   -17.8718 -17.8651 -17.8567 -17.8308 -17.8274 -17.8248 -17.8123 -17.8081
   -17.7854 -17.7830 -17.7782 -17.7742 -17.7667 -17.7559 -17.7555 -17.7549
   -17.7544 -17.7534 -17.7525 -17.7413 -17.7396 -17.7219 -17.7190 -17.6974
   -17.6950 -17.6783 -17.6750 -17.6635 -17.6613 -17.6556 -17.6553 -11.8825
   -11.7112 -11.6664 -11.6270 -11.5814 -11.5597 -11.4678 -11.4533 -11.4512
   -11.4345 -11.4342 -11.4274 -11.4100 -11.4004 -11.3918 -11.3771 -11.3507
   -11.3250 -11.3197 -11.3020 -11.2934 -11.2808 -11.2700 -11.2592 -11.2524
   -11.2132 -11.2116 -11.2087 -11.1995 -11.1953 -11.1919 -11.1900 -11.1752
   -11.1505 -11.1434 -11.1392 -11.1297 -11.1186 -11.1090 -11.1055 -11.1039
   -11.0997 -11.0849 -11.0828 -11.0703 -11.0599 -11.0359 -11.0207 -10.9993
   -10.9953 -10.9790 -10.9365 -10.9222 -10.8985 -10.8907 -10.8788 -10.8601
   -10.8582 -10.8495 -10.8399 -10.8233 -10.8038 -10.7987 -10.7831 -10.7724
   -10.7675 -10.7655 -10.7619 -10.7482 -10.7478 -10.7467 -10.7463 -10.7388
   -10.7376 -10.7314 -10.7299 -10.7279 -10.7274 -10.7204 -10.7199 -10.7173
   -10.7153 -10.6798 -10.6797 -10.6789 -10.6787 -10.6242 -10.5661 -10.4884
   -10.4760 -10.4674 -10.4634 -10.4277 -10.4077 -10.3390 -10.3255 -10.2603
   -10.2473 -10.2028 -10.1795 -10.1249 -10.0941 -10.0782 -10.0696 -10.0517
   -10.0503 -10.0411 -10.0274 -10.0020  -9.9920  -9.9770  -9.9727  -9.9714
    -9.9678  -9.9512  -9.9454  -9.9420  -9.9248  -9.8809  -9.8741  -9.8660
    -9.8584  -9.8462  -9.8420  -9.8295  -9.8269  -9.8115  -9.8018  -9.7899
    -9.7708  -9.7623  -9.7470  -9.7278  -9.7167  -9.7074  -9.7034  -9.6847
    -9.6737  -9.6602  -9.6453  -9.6293  -9.6205  -9.5985  -9.5909  -9.5709
    -9.5586  -9.5517  -9.5439  -9.5268  -9.5093  -9.5014  -9.4938  -9.4802
    -9.4774  -9.4683  -9.4521  -9.4270  -9.4264  -9.4243  -9.4132  -9.4074
    -9.4020  -9.3950  -9.3937  -9.3891  -9.3817  -9.3693  -9.3622  -9.3203
    -9.3043  -9.2964  -9.2747  -9.2418  -9.2078  -9.1907  -9.1762  -9.1563
    -9.1472  -9.1411  -9.1367  -9.1316  -9.1125  -9.0952  -9.0813  -9.0790
[...]
     atom  170 type  1   force =    -0.00001267   -0.00001483    0.00000395
     atom  171 type  2   force =    -0.00000391   -0.00000043    0.00000463
     atom  172 type  2   force =    -0.00000043   -0.00000011    0.00161534
     atom  173 type  2   force =    -0.00000056   -0.00000062   -0.00235932
     atom  174 type  2   force =    -0.00000207    0.00000087   -0.00000912
     atom  175 type  1   force =     0.00001563   -0.00001378    0.00001083
     atom  176 type  1   force =     0.00000030    0.00007924   -0.00015652
     atom  177 type  2   force =    -0.00014532    0.00006838    0.00017378
     atom  178 type  2   force =     0.00000072   -0.00001017    0.00003432
     atom  179 type  2   force =     0.00000005    0.00001359    0.00002915
     atom  180 type  2   force =     0.00015354    0.00009038   -0.00005251
     atom  181 type  1   force =     0.00000133   -0.00000075    0.00068839
     atom  182 type  1   force =    -0.00001209   -0.00001001   -0.00000362
     atom  183 type  2   force =    -0.00000175   -0.00000150    0.00000478
     atom  184 type  2   force =    -0.00000026    0.00000004    0.00161543
     atom  185 type  2   force =    -0.00000056   -0.00000053   -0.00235939
     atom  186 type  2   force =     0.00000047   -0.00000034   -0.00001159
     atom  187 type  1   force =    -0.00001282   -0.00001188   -0.00002254
     atom  188 type  1   force =     0.00039570    0.00010925    0.00023487
     atom  189 type  2   force =     0.00037820    0.00021678    0.00043097
     atom  190 type  2   force =    -0.00004846   -0.00001268   -0.00005236
     atom  191 type  2   force =     0.00001809   -0.00000846   -0.00000809
     atom  192 type  2   force =     0.00030163    0.00019461   -0.00059461
     atom  193 type  3   force =    -0.00000103    0.00018380   -0.00025231
     atom  194 type  4   force =    -0.00000066    0.00019420   -0.00080937

     Total force =     0.003072     Total SCF correction =     0.000408
     SCF correction compared to forces is large: reduce conv_thr to get better values
     Energy error            =      2.7E-05 Ry
     Gradient error          =      8.1E-04 Ry/Bohr

     bfgs converged in  15 scf cycles and  14 bfgs steps
     (criteria: energy <  1.0E-04 Ry, force <  1.0E-03 Ry/Bohr)

     End of BFGS Geometry Optimization

     Final energy             =  -33980.2848428769 Ry

     File ./outdir/pwscf.bfgs deleted, as requested
Begin final coordinates

ATOMIC_POSITIONS (angstrom)
Mo               0.0000119917        1.8193638619       -9.1672481230    0   0   0
Mo               1.5756136568        0.9097075315       -3.0554901653    0   0   0
S                0.0000188998        1.8193822938       -4.6232556019    0   0   0
S                1.5756321638        0.9096773839       -7.6014065489    0   0   0
S                1.5756326175        0.9096785128      -10.7330757790    0   0   0
S                0.0000189190        1.8193860094       -1.4877129945    0   0   0
Mo               0.0002673114        1.8195248945        3.0560411714
Mo               1.5756800047        0.9110900572        9.2152052962
S                0.0191890602        1.8126510740        7.6280561029
S                1.5756592346        0.9097851168        4.6233912836
S                1.5756563523        0.9099224431        1.4878185710
S               -0.1079961600        1.8546065808       10.7813924338
Mo              -1.5756053507        4.5484193819       -9.1672481230    0   0   0
Mo               0.0000378379        3.6387394919       -3.0554952701    0   0   0
S               -1.5755913433        4.5484363582       -4.6232494962    0   0   0
S                0.0000148214        3.6387329039       -7.6014065489    0   0   0
S                0.0000152751        3.6387340328      -10.7330757790    0   0   0
S               -1.5755906502        4.5484413613       -1.4877305502    0   0   0
Mo              -1.5750870387        4.5484883396        3.0563600872
Mo              -0.0205502881        3.6384009098        9.1787633276
S               -1.5736403678        4.5488792246        7.5909833396
S                0.0005023712        3.6385369933        4.6248753875
S                0.0002656779        3.6389061201        1.4885468092
S               -1.5942912706        4.5568383496       10.7348434606
Mo              -3.1512226931        7.2774749019       -9.1672481230    0   0   0
Mo              -1.5755910988        6.3678216792       -3.0555115988    0   0   0
S               -3.1512162438        7.2774954350       -4.6232578178    0   0   0
S               -1.5756025210        6.3677884239       -7.6014065489    0   0   0
S               -1.5756020673        6.3677895528      -10.7330757790    0   0   0
S               -3.1512127704        7.2774877076       -1.4877200710    0   0   0
Mo              -3.1509227877        7.2776339023        3.0563165062
Mo              -1.5941095067        6.3642984285        9.1655523648
S               -3.1477423111        7.2784685943        7.5793654663
S               -1.5744530233        6.3681427434        4.6239079530
S               -1.5756109564        6.3677089193        1.4882715410
S               -3.1675508881        7.2673583896       10.7276030458
Mo              -4.7268400355       10.0065304219       -9.1672481230    0   0   0
Mo              -3.1512405618        9.0968403586       -3.0554816746    0   0   0
S               -4.7268341792       10.0065523623       -4.6232463762    0   0   0
S               -3.1512198634        9.0968439439       -7.6014065489    0   0   0
S               -3.1512194097        9.0968450728      -10.7330757790    0   0   0
S               -4.7268370797       10.0065537885       -1.4877176751    0   0   0
Mo              -4.7268116079       10.0068382669        3.0555941986
Mo              -3.1438393523        9.0864908389        9.1601270996
S               -4.7267908026       10.0315261299        7.6275840138
S               -3.1518801617        9.0972601515        4.6241200276
S               -3.1508396056        9.0969414419        1.4885420565
S               -4.7267897371        9.9017384044       10.7737806764
Mo               3.1512517547        1.8193638619       -9.1672481230    0   0   0
Mo               4.7269020221        0.9097289540       -3.0554823951    0   0   0
S                3.1512612351        1.8193882564       -4.6232320683    0   0   0
S                4.7268719268        0.9096773839       -7.6014065489    0   0   0
S                4.7268723805        0.9096785128      -10.7330757790    0   0   0
S                3.1512592485        1.8193890201       -1.4877261251    0   0   0
Mo               3.1510534053        1.8195256004        3.0560414854
Mo               4.7421278067        0.9067845843        9.1563996247
S                3.1321702879        1.8126510913        7.6280498196
S                4.7264115970        0.9102246983        4.6243156325
S                4.7267919226        0.9094271842        1.4886294831
S                3.2593590888        1.8546071077       10.7813831217
Mo               1.5756344123        4.5484193819       -9.1672481230    0   0   0
Mo               3.1512756394        3.6387769522       -3.0554814834    0   0   0
S                1.5756504879        4.5484423799       -4.6232390542    0   0   0
S                3.1512545844        3.6387329039       -7.6014065489    0   0   0
S                3.1512550381        3.6387340328      -10.7330757790    0   0   0
S                1.5756466253        4.5484431864       -1.4877251801    0   0   0
Mo               1.5756631368        4.5484721851        3.0565514430
Mo               3.1719117888        3.6384007429        9.1787580589
S                1.5756823669        4.5773420711        7.6500053538
S                3.1508231465        3.6385358309        4.6248724293
S                3.1510604775        3.6389079592        1.4885477874
S                1.5756828983        4.3914041633       10.8171284865
Mo               0.0000170699        7.2774749019       -9.1672481230    0   0   0
Mo               1.5756764447        6.3678236689       -3.0554877708    0   0   0
S                0.0000381981        7.2774979204       -4.6232454413    0   0   0
S                1.5756372420        6.3677884239       -7.6014065489    0   0   0
S                1.5756376957        6.3677895528      -10.7330757790    0   0   0
S                0.0000328088        7.2774946042       -1.4877307940    0   0   0
Mo               0.0004493051        7.2773284861        3.0555179828
Mo               1.5756817337        6.3689149978        9.2280249311
S                0.0274660559        7.2644238758        7.6450499283
S                1.5756646579        6.3679409289        4.6240219770
S                1.5756677376        6.3672827383        1.4878463754
S               -0.1297189467        7.3509340988       10.8085312921
Mo              -1.5756002725       10.0065304219       -9.1672481230    0   0   0
Mo               0.0000873425        9.0968676911       -3.0554912329    0   0   0
S               -1.5755883952       10.0065504530       -4.6232240150    0   0   0
S                0.0000198996        9.0968439439       -7.6014065489    0   0   0
S                0.0000203533        9.0968450728      -10.7330757790    0   0   0
S               -1.5755859047       10.0065492576       -1.4877362381    0   0   0
Mo              -1.5756127870       10.0065666872        3.0568360787
Mo              -0.0042575284        9.1127726678        9.1728040696
S               -1.5705305553       10.0020542071        7.5858100164
S                0.0004648819        9.0960289521        4.6239026399
S               -0.0003052182        9.0970879312        1.4882575974
S               -1.5840093959       10.0191520728       10.7314749756
Mo               6.3024915177        1.8193638619       -9.1672481230    0   0   0
Mo               7.8781001445        0.9096521684       -3.0554919963    0   0   0
S                6.3025008696        1.8193826232       -4.6232480596    0   0   0
S                7.8781116898        0.9096773839       -7.6014065489    0   0   0
S                7.8781121435        0.9096785128      -10.7330757790    0   0   0
S                6.3025042007        1.8193849068       -1.4877147524    0   0   0
Mo               6.3023769247        1.8192528158        3.0560143781
Mo               7.8781591885        0.9124637890        9.1526394452
S                6.3038734634        1.8211667581        7.5805816009
S                7.8781442376        0.9091249979        4.6232749613
S                7.8781415196        0.9096146522        1.4881975271
S                6.3173977651        1.8213101408       10.7244303965
Mo               4.7268741753        4.5484193819       -9.1672481230    0   0   0
Mo               6.3024679138        3.6387501714       -3.0554895197    0   0   0
S                4.7268748770        4.5484386753       -4.6232519432    0   0   0
S                6.3024943474        3.6387329039       -7.6014065489    0   0   0
S                6.3024948011        3.6387340328      -10.7330757790    0   0   0
S                4.7268770533        4.5484432419       -1.4877137856    0   0   0
Mo               4.7264136602        4.5484898327        3.0563643679
Mo               6.3057925188        3.6386168934        9.1560564609
S                4.7249986665        4.5488828579        7.5909778469
S                6.3023920158        3.6388449532        4.6230653984
S                6.3021540274        3.6387354033        1.4882047472
S                4.7456554425        4.5568383067       10.7348327568
Mo               3.1512568329        7.2774749019       -9.1672481230    0   0   0
Mo               4.7268384135        6.3678043337       -3.0554959052    0   0   0
S                3.1512606125        7.2774972547       -4.6232589675    0   0   0
S                4.7268770050        6.3677884239       -7.6014065489    0   0   0
S                4.7268774587        6.3677895528      -10.7330757790    0   0   0
S                3.1512629079        7.2774963749       -1.4877081835    0   0   0
Mo               3.1508848422        7.2773277842        3.0555220396
Mo               4.7454726931        6.3643028231        9.1655449174
S                3.1238901660        7.2644293540        7.6450472451
S                4.7257887388        6.3681477694        4.6239106538
S                4.7269443248        6.3677128320        1.4882740633
S                3.2810891028        7.3509375995       10.8085257457
Mo               1.5756394905       10.0065304219       -9.1672481230    0   0   0
Mo               3.1512330605        9.0968514907       -3.0554878870    0   0   0
S                1.5756499830       10.0065443759       -4.6232632674    0   0   0
S                3.1512596626        9.0968439439       -7.6014065489    0   0   0
S                3.1512601163        9.0968450728      -10.7330757790    0   0   0
S                1.5756503041       10.0065459699       -1.4877044377    0   0   0
Mo               1.5756718143       10.0061825834        3.0558921120
Mo               3.1556279849        9.1127749200        9.1728050899
S                1.5756868784       10.0004406602        7.5944752555
S                3.1508749363        9.0960291481        4.6239041174
S                3.1516436665        9.0970842566        1.4882579610
S                1.5756840730       10.0172350194       10.7327571499
Mo               9.4537312807        1.8193638619       -9.1672481230    0   0   0
Mo              11.0293863460        0.9096952246       -3.0554894007    0   0   0
S                9.4537395970        1.8193770750       -4.6232328036    0   0   0
S               11.0293514528        0.9096773839       -7.6014065489    0   0   0
S               11.0293519066        0.9096785128      -10.7330757790    0   0   0
S                9.4537393632        1.8193794783       -1.4877366147    0   0   0
Mo               9.4539075078        1.8192519408        3.0560122872
Mo              11.0141908348        0.9067806299        9.1564091242
S                9.4524539322        1.8211666448        7.5805871556
S               11.0298675965        0.9102224943        4.6243176078
S               11.0294883681        0.9094264425        1.4886271512
S                9.4389181535        1.8213018682       10.7244400428
Mo               7.8781139383        4.5484193819       -9.1672481230    0   0   0
Mo               9.4537539161        3.6387607911       -3.0554933032    0   0   0
S                7.8781175448        4.5484378232       -4.6232366318    0   0   0
S                9.4537341104        3.6387329039       -7.6014065489    0   0   0
S                9.4537345641        3.6387340328      -10.7330757790    0   0   0
S                7.8781194018        4.5484411585       -1.4877377057    0   0   0
Mo               7.8781437432        4.5484051687        3.0555276244
Mo               9.4505307368        3.6386131443        9.1560669409
S                7.8781674244        4.5450694993        7.5817730508
S                9.4538946944        3.6388430471        4.6230634411
S                9.4541301903        3.6387344200        1.4882021515
S                7.8781570005        4.5504927202       10.7211872647
Mo               6.3024965959        7.2774749019       -9.1672481230    0   0   0
Mo               7.8781361655        6.3678242352       -3.0555014130    0   0   0
S                6.3024973331        7.2774953556       -4.6232392528    0   0   0
S                7.8781167680        6.3677884239       -7.6014065489    0   0   0
S                7.8781172217        6.3677895528      -10.7330757790    0   0   0
S                6.3024989866        7.2774929744       -1.4877349119    0   0   0
Mo               6.3022547915        7.2776360446        3.0563193449
Mo               7.8781615389        6.3676203691        9.1458568639
S                6.2991110555        7.2784773630        7.5793660249
S                7.8781445241        6.3675909001        4.6232107549
S                7.8781434024        6.3681306877        1.4883494110
S                6.3189128963        7.2673584790       10.7276018452
Mo               4.7268792535       10.0065304219       -9.1672481230    0   0   0
Mo               6.3025111524        9.0968738021       -3.0554915260    0   0   0
S                4.7268840634       10.0065452125       -4.6232380477    0   0   0
S                6.3024994256        9.0968439439       -7.6014065489    0   0   0
S                6.3024998793        9.0968450728      -10.7330757790    0   0   0
S                4.7268847312       10.0065459141       -1.4877283294    0   0   0
Mo               4.7269535783       10.0065662195        3.0568372098
Mo               6.2952127664        9.0864938964        9.1601309914
S                4.7219054915       10.0020513379        7.5858143439
S                6.3032164044        9.0972643390        4.6241222306
S                6.3021763906        9.0969441753        1.4885380031
S                4.7353813772       10.0191474982       10.7314835286
Pt               1.5756899240        6.3545134249       11.9732376668
Pd               1.5756884037        0.9192120549       12.0996115957
End final coordinates



     Writing all to output data dir ./outdir/pwscf.save/ :
     XML data file, charge density, pseudopotentials, collected wavefunctions
 
     init_run     :    175.19s CPU    179.19s WALL (       1 calls)
     electrons    : 109831.26s CPU 111173.79s WALL (      15 calls)
     update_pot   :     24.00s CPU     24.73s WALL (      14 calls)
     forces       :   1931.37s CPU   1965.31s WALL (      15 calls)
     force_dftd3  :     10.05s CPU     10.48s WALL (      15 calls)

     Called by init_run:
     wfcinit      :    150.86s CPU    153.45s WALL (       1 calls)
     potinit      :      1.30s CPU      1.39s WALL (       1 calls)
     hinit0       :     13.32s CPU     13.39s WALL (       1 calls)

     Called by electrons:
     c_bands      :  97230.01s CPU  98127.13s WALL (     176 calls)
     sum_band     :  11280.46s CPU  11511.92s WALL (     176 calls)
     v_of_rho     :     63.69s CPU     71.36s WALL (     178 calls)
     newd         :   1121.03s CPU   1332.15s WALL (     178 calls)
     PAW_pot      :    166.86s CPU    168.42s WALL (     192 calls)
     mix_rho      :     16.31s CPU     18.84s WALL (     176 calls)
     energy_dftd3 :      5.78s CPU      5.80s WALL (      15 calls)

     Called by c_bands:
     init_us_2    :    384.49s CPU    386.43s WALL (    1528 calls)
     init_us_2:cp :    384.48s CPU    386.42s WALL (    1528 calls)
     cegterg      :  95579.86s CPU  96466.40s WALL (     721 calls)

     Called by *egterg:
     cdiaghg      :   5378.34s CPU   5567.96s WALL (    8267 calls)
     h_psi        :  48813.81s CPU  49112.71s WALL (    8381 calls)
     s_psi        :  11267.78s CPU  11334.80s WALL (    8381 calls)
     g_psi        :     88.54s CPU     88.90s WALL (    7656 calls)

     Called by h_psi:
     h_psi:calbec :  10941.95s CPU  10977.22s WALL (    8381 calls)
     vloc_psi     :  26336.31s CPU  26464.90s WALL (    8381 calls)
     add_vuspsi   :  11336.48s CPU  11405.03s WALL (    8381 calls)

     General routines
     calbec       :  15749.49s CPU  15799.30s WALL (    9381 calls)
     fft          :     51.83s CPU     58.82s WALL (    2476 calls)
     ffts         :      3.21s CPU      3.40s WALL (     354 calls)
     fftw         :  19616.89s CPU  19712.82s WALL ( 5150508 calls)
     interpolate  :      5.52s CPU      6.03s WALL (     178 calls)
 
     Parallel routines
 
     PWSCF        :   1d 7h15m CPU   1d 7h40m WALL

 
   This run was terminated on:  14: 6:27  13Mar2024            

=------------------------------------------------------------------------------=
   JOB DONE.
=------------------------------------------------------------------------------=
