<UPF version="2.0.1">
  <PP_INFO>
    Generated using "atomic" code by A. Dal Corso  v.7.2
    Author: ADC
    Generation date:  9Jun2023
    Pseudopotential type: PAW
    Element: Ac
    Functional:  SLA  PW   REVX PBC
    Suggested minimum cutoff for wavefunctions:  48. Ry
    Suggested minimum cutoff for charge density: 328. Ry
    The Pseudo was generated with a Scalar-Relativistic Calculation
    Local Potential by smoothing AE potential with Bessel fncs, cutoff radius:   2.2000
    Valence configuration: 
    nl pn  l   occ       Rcut    Rcut US       E pseu
    6S  1  0  2.00      1.400      1.700    -2.980924
    7S  2  0  2.00      1.400      1.700    -0.286685
    6P  2  1  6.00      1.600      2.200    -1.477633
    7P  3  1  0.00      1.600      2.200    -0.085772
    6D  3  2  1.00      1.600      2.200    -0.162814
    Generation configuration:
    6S  1  0  2.00      1.400      1.700    -2.980974
    7S  2  0  2.00      1.400      1.700    -0.286693
    6P  2  1  6.00      1.600      2.200    -1.477663
    7P  3  1  0.00      1.600      2.200    -0.085774
    6D  3  2  1.00      1.600      2.200    -0.162827
    6D  3  2 -2.00      1.600      2.200     4.800000
    5F  4  3  0.00      1.300      1.800     0.100000
    5F  4  3 -2.00      1.300      1.800    -0.700000
    Pseudization used: troullier-martins
    <PP_INPUTFILE>
@input
title='Ac',
zed=89.0,
rel=1,
config='[Rn] 6d1.0 7s2.0 7p0. 5f0',
iswitch=3,
dft='REVPBE'
/
@inputp
lpaw=.true.,
pseudotype=3,
file_pseudopw='Ac.revpbe-spfn-kjpaw_psl.1.0.0.UPF',
author='ADC',
lloc=-1,
rcloc=2.2,
which_augfun='PSQ',
rmatch_augfun_nc=.true.,
nlcc=.true.,
new_core_ps=.true.,
rcore=1.5,
tm=.true.
/
8
6S  1  0  2.00  0.00  1.40  1.70  0.0
7S  2  0  2.00  0.00  1.40  1.70  0.0
6P  2  1  6.00  0.00  1.60  2.20  0.0
7P  3  1  0.00  0.00  1.60  2.20  0.0
6D  3  2  1.00  0.00  1.60  2.20  0.0
6D  3  2 -2.00  4.80  1.60  2.20  0.0
5F  4  3  0.00  0.10  1.30  1.80  0.0
5F  4  3 -2.00 -0.70  1.30  1.80  0.0
    </PP_INPUTFILE>
  </PP_INFO>
    <!-- END OF HUMAN READABLE SECTION -->
  <PP_HEADER generated="Generated using 'atomic' code by A. Dal Corso  v.7.2" author="ADC" date=" 9Jun2023" comment="" element="Ac" pseudo_type="PAW" relativistic="scalar" is_ultrasoft="true" is_paw="true" is_coulomb="false" has_so="false" has_wfc="true" has_gipaw="false" paw_as_gipaw="false" core_correction="true" functional=" SLA  PW   REVX PBC" z_valence="11.0000000000000" total_psenergy="-938.434116539862" wfc_cutoff="48.4028751428119" rho_cutoff="328.082496531709" l_max="3" l_max_rho="6" l_local="-1" mesh_size="1289" number_of_wfc="5" number_of_proj="8"/>
  <PP_MESH mesh="1289" dx="1.250000000000000E-002" xmin="-7.00000000000000" rmax="100.000000000000" zmesh="89.0000000000000">
    <PP_R>
   1.024586478151142E-05   1.037474189515755E-05   1.050524008333238E-05
   1.063737973664330E-05   1.077118150218000E-05   1.090666628674055E-05
   1.104385526009819E-05   1.118276985830911E-05   1.132343178706192E-05
   1.146586302506915E-05   1.161008582750154E-05   1.175612272946538E-05
   1.190399654952371E-05   1.205373039326176E-05   1.220534765689728E-05
   1.235887203093616E-05   1.251432750387419E-05   1.267173836594531E-05
   1.283112921291694E-05   1.299252494993323E-05   1.315595079540645E-05
   1.332143228495745E-05   1.348899527540563E-05   1.365866594880915E-05
   1.383047081655597E-05   1.400443672350617E-05   1.418059085218668E-05
   1.435896072703848E-05   1.453957421871739E-05   1.472245954844899E-05
   1.490764529243811E-05   1.509516038633401E-05   1.528503412975162E-05
   1.547729619084963E-05   1.567197661096628E-05   1.586910580931328E-05
   1.606871458772893E-05   1.627083413549096E-05   1.647549603418992E-05
   1.668273226266390E-05   1.689257520199520E-05   1.710505764057002E-05
   1.732021277920169E-05   1.753807423631834E-05   1.775867605321592E-05
   1.798205269937713E-05   1.820823907785738E-05   1.843727053073849E-05
   1.866918284465094E-05   1.890401225636563E-05   1.914179545845589E-05
   1.938256960503081E-05   1.962637231754067E-05   1.987324169065529E-05
   2.012321629821651E-05   2.037633519926534E-05   2.063263794414502E-05
   2.089216458068091E-05   2.115495566043795E-05   2.142105224505704E-05
   2.169049591267089E-05   2.196332876440075E-05   2.223959343093480E-05
   2.251933307918920E-05   2.280259141905319E-05   2.308941271021864E-05
   2.337984176909583E-05   2.367392397581611E-05   2.397170528132256E-05
   2.427323221455005E-05   2.457855188969534E-05   2.488771201357884E-05
   2.520076089309891E-05   2.551774744277985E-05   2.583872119241501E-05
   2.616373229480577E-05   2.649283153359812E-05   2.682607033121768E-05
   2.716350075690453E-05   2.750517553484925E-05   2.785114805243099E-05
   2.820147236855953E-05   2.855620322212200E-05   2.891539604053595E-05
   2.927910694841009E-05   2.964739277631372E-05   3.002031106965675E-05
   3.039792009768120E-05   3.078027886256594E-05   3.116744710864594E-05
   3.155948533174733E-05   3.195645478864009E-05   3.235841750660947E-05
   3.276543629314795E-05   3.317757474576906E-05   3.359489726194450E-05
   3.401746904916647E-05   3.444535613513644E-05   3.487862537808212E-05
   3.531734447720428E-05   3.576158198325468E-05   3.621140730924749E-05
   3.666689074130504E-05   3.712810344964025E-05   3.759511749967721E-05
   3.806800586331136E-05   3.854684243031163E-05   3.903170201986577E-05
   3.952266039227111E-05   4.001979426077224E-05   4.052318130354753E-05
   4.103290017584656E-05   4.154903052228014E-05   4.207165298926495E-05
   4.260084923762481E-05   4.313670195535015E-05   4.367929487051832E-05
   4.422871276437622E-05   4.478504148458753E-05   4.534836795864672E-05
   4.591878020746143E-05   4.649636735910603E-05   4.708121966274809E-05
   4.767342850274989E-05   4.827308641294764E-05   4.888028709110976E-05
   4.949512541357759E-05   5.011769745008990E-05   5.074810047879401E-05
   5.138643300144577E-05   5.203279475880051E-05   5.268728674619788E-05
   5.335001122934244E-05   5.402107176028304E-05   5.470057319359284E-05
   5.538862170275339E-05   5.608532479674401E-05   5.679079133684061E-05
   5.750513155362535E-05   5.822845706421039E-05   5.896088088967848E-05
   5.970251747274242E-05   6.045348269562719E-05   6.121389389817674E-05
   6.198386989618844E-05   6.276353099997864E-05   6.355299903318099E-05
   6.435239735178186E-05   6.516185086339490E-05   6.598148604677811E-05
   6.681143097159657E-05   6.765181531843324E-05   6.850277039905212E-05
   6.936442917691582E-05   7.023692628796137E-05   7.112039806163760E-05
   7.201498254220655E-05   7.292081951031334E-05   7.383805050482717E-05
   7.476681884495700E-05   7.570726965264570E-05   7.665954987524524E-05
   7.762380830847789E-05   7.860019561968558E-05   7.958886437137212E-05
   8.058996904504157E-05   8.160366606533586E-05   8.263011382447681E-05
   8.366947270701511E-05   8.472190511489066E-05   8.578757549280856E-05
   8.686665035393338E-05   8.795929830590757E-05   8.906569007719667E-05
   9.018599854376577E-05   9.132039875609226E-05   9.246906796651719E-05
   9.363218565694167E-05   9.480993356687121E-05   9.600249572181281E-05
   9.721005846202960E-05   9.843281047165650E-05   9.967094280818268E-05
   1.009246489323048E-04   1.021941247381552E-04   1.034795685839117E-04
   1.047811813227902E-04   1.060991663344293E-04   1.074337295566687E-04
   1.087850795177268E-04   1.101534273687846E-04   1.115389869169777E-04
   1.129419746588043E-04   1.143626098139537E-04   1.158011143595589E-04
   1.172577130648821E-04   1.187326335264343E-04   1.202261062035385E-04
   1.217383644543389E-04   1.232696445722638E-04   1.248201858229473E-04
   1.263902304816142E-04   1.279800238709368E-04   1.295898143993667E-04
   1.312198535999488E-04   1.328703961696249E-04   1.345417000090295E-04
   1.362340262627876E-04   1.379476393603197E-04   1.396828070571582E-04
   1.414398004767865E-04   1.432188941530008E-04   1.450203660728076E-04
   1.468444977198595E-04   1.486915741184374E-04   1.505618838779868E-04
   1.524557192382127E-04   1.543733761147432E-04   1.563151541453666E-04
   1.582813567368508E-04   1.602722911123512E-04   1.622882683594144E-04
   1.643296034785868E-04   1.663966154326339E-04   1.684896271963787E-04
   1.706089658071679E-04   1.727549624159711E-04   1.749279523391246E-04
   1.771282751107247E-04   1.793562745356810E-04   1.816122987434368E-04
   1.838967002423644E-04   1.862098359748456E-04   1.885520673730446E-04
   1.909237604153828E-04   1.933252856837234E-04   1.957570184212755E-04
   1.982193385912266E-04   2.007126309361130E-04   2.032372850379359E-04
   2.057936953790357E-04   2.083822614037291E-04   2.110033875807237E-04
   2.136574834663175E-04   2.163449637683925E-04   2.190662484112134E-04
   2.218217626010425E-04   2.246119368925779E-04   2.274372072562291E-04
   2.302980151462388E-04   2.331948075696600E-04   2.361280371562026E-04
   2.390981622289570E-04   2.421056468760087E-04   2.451509610229525E-04
   2.482345805063196E-04   2.513569871479281E-04   2.545186688301682E-04
   2.577201195722352E-04   2.609618396073210E-04   2.642443354607765E-04
   2.675681200292571E-04   2.709337126608638E-04   2.743416392362925E-04
   2.777924322510045E-04   2.812866308984286E-04   2.848247811542129E-04
   2.884074358615330E-04   2.920351548174758E-04   2.957085048605091E-04
   2.994280599590504E-04   3.031944013011515E-04   3.070081173853098E-04
   3.108698041124222E-04   3.147800648788969E-04   3.187395106709337E-04
   3.227487601599936E-04   3.268084397994660E-04   3.309191839225538E-04
   3.350816348413900E-04   3.392964429473989E-04   3.435642668129224E-04
   3.478857732941224E-04   3.522616376351785E-04   3.566925435737972E-04
   3.611791834480457E-04   3.657222583045329E-04   3.703224780079479E-04
   3.749805613519784E-04   3.796972361716242E-04   3.844732394569217E-04
   3.893093174681014E-04   3.942062258521915E-04   3.991647297610895E-04
   4.041856039711199E-04   4.092696330040925E-04   4.144176112498878E-04
   4.196303430905800E-04   4.249086430261245E-04   4.302533358016254E-04
   4.356652565362023E-04   4.411452508534811E-04   4.466941750137227E-04
   4.523128960476163E-04   4.580022918917553E-04   4.637632515258152E-04
   4.695966751114598E-04   4.755034741329923E-04   4.814845715397774E-04
   4.875409018904537E-04   4.936734114989598E-04   4.998830585823991E-04
   5.061708134107620E-04   5.125376584585327E-04   5.189845885582036E-04
   5.255126110557188E-04   5.321227459678756E-04   5.388160261417020E-04
   5.455934974158424E-04   5.524562187839728E-04   5.594052625602690E-04
   5.664417145469592E-04   5.735666742039822E-04   5.807812548207797E-04
   5.880865836902518E-04   5.954838022848970E-04   6.029740664351700E-04
   6.105585465100842E-04   6.182384276000812E-04   6.260149097022071E-04
   6.338892079076109E-04   6.418625525914077E-04   6.499361896049267E-04
   6.581113804703767E-04   6.663894025779635E-04   6.747715493854829E-04
   6.832591306204267E-04   6.918534724846319E-04   7.005559178614992E-04
   7.093678265258248E-04   7.182905753562651E-04   7.273255585504781E-04
   7.364741878429703E-04   7.457378927256809E-04   7.551181206713459E-04
   7.646163373596655E-04   7.742340269063212E-04   7.839726920948727E-04
   7.938338546115684E-04   8.038190552831152E-04   8.139298543174326E-04
   8.241678315474397E-04   8.345345866779090E-04   8.450317395354202E-04
   8.556609303214647E-04   8.664238198687274E-04   8.773220899005974E-04
   8.883574432939403E-04   8.995316043451747E-04   9.108463190396997E-04
   9.223033553247059E-04   9.339045033854220E-04   9.456515759248360E-04
   9.575464084469308E-04   9.695908595434892E-04   9.817868111844992E-04
   9.941361690122170E-04   1.006640862638929E-03   1.019302845948455E-03
   1.032124097401449E-03   1.045106620344534E-03   1.058252443323334E-03
   1.071563620399434E-03   1.085042231471335E-03   1.098690382599439E-03
   1.112510206335128E-03   1.126503862053975E-03   1.140673536293158E-03
   1.155021443093106E-03   1.169549824343446E-03   1.184260950133308E-03
   1.199157119106025E-03   1.214240658818307E-03   1.229513926103921E-03
   1.244979307441954E-03   1.260639219329705E-03   1.276496108660267E-03
   1.292552453104859E-03   1.308810761499966E-03   1.325273574239354E-03
   1.341943463671008E-03   1.358823034499064E-03   1.375914924190808E-03
   1.393221803388778E-03   1.410746376328059E-03   1.428491381258828E-03
   1.446459590874205E-03   1.464653812743502E-03   1.483076889750901E-03
   1.501731700539668E-03   1.520621159961941E-03   1.539748219534185E-03
   1.559115867898374E-03   1.578727131288968E-03   1.598585074005771E-03
   1.618692798892734E-03   1.639053447822780E-03   1.659670202188729E-03
   1.680546283400394E-03   1.701684953387939E-03   1.723089515111556E-03
   1.744763313077562E-03   1.766709733860985E-03   1.788932206634722E-03
   1.811434203705357E-03   1.834219241055713E-03   1.857290878894231E-03
   1.880652722211265E-03   1.904308421342361E-03   1.928261672538638E-03
   1.952516218544328E-03   1.977075849181591E-03   2.001944401942680E-03
   2.027125762589560E-03   2.052623865761064E-03   2.078442695587689E-03
   2.104586286314125E-03   2.131058722929610E-03   2.157864141806227E-03
   2.185006731345209E-03   2.212490732631394E-03   2.240320440095902E-03
   2.268500202187140E-03   2.297034422050270E-03   2.325927558215199E-03
   2.355184125293234E-03   2.384808694682507E-03   2.414805895282254E-03
   2.445180414216101E-03   2.475936997564426E-03   2.507080451105953E-03
   2.538615641068662E-03   2.570547494890140E-03   2.602881001987515E-03
   2.635621214537053E-03   2.668773248263575E-03   2.702342283239800E-03
   2.736333564695739E-03   2.770752403838276E-03   2.805604178681052E-03
   2.840894334884792E-03   2.876628386608204E-03   2.912811917369569E-03
   2.949450580919184E-03   2.986550102122771E-03   3.024116277855999E-03
   3.062154977910255E-03   3.100672145909811E-03   3.139673800240533E-03
   3.179166034990258E-03   3.219155020901013E-03   3.259647006333207E-03
   3.300648318241943E-03   3.342165363165625E-03   3.384204628226991E-03
   3.426772682146734E-03   3.469876176269887E-03   3.513521845605100E-03
   3.557716509877004E-03   3.602467074591806E-03   3.647780532116290E-03
   3.693663962770384E-03   3.740124535933480E-03   3.787169511164657E-03
   3.834806239337009E-03   3.883042163786231E-03   3.931884821473657E-03
   3.981341844163920E-03   4.031420959617435E-03   4.082129992797881E-03
   4.133476867094859E-03   4.185469605561945E-03   4.238116332170304E-03
   4.291425273078079E-03   4.345404757915746E-03   4.400063221087630E-03
   4.455409203089809E-03   4.511451351844570E-03   4.568198424051676E-03
   4.625659286556613E-03   4.683842917736051E-03   4.742758408900737E-03
   4.802414965716032E-03   4.862821909640308E-03   4.923988679381454E-03
   4.985924832371686E-03   5.048640046260919E-03   5.112144120428918E-03
   5.176446977516472E-03   5.241558664975826E-03   5.307489356640617E-03
   5.374249354315554E-03   5.441849089386097E-03   5.510299124448385E-03
   5.579610154959659E-03   5.649793010909451E-03   5.720858658511791E-03
   5.792818201918700E-03   5.865682884955238E-03   5.939464092876376E-03
   6.014173354145959E-03   6.089822342238060E-03   6.166422877460973E-03
   6.243986928804175E-03   6.322526615808494E-03   6.402054210459812E-03
   6.482582139106594E-03   6.564122984401529E-03   6.646689487267586E-03
   6.730294548888828E-03   6.814951232726221E-03   6.900672766558854E-03
   6.987472544550791E-03   7.075364129343936E-03   7.164361254177231E-03
   7.254477825032498E-03   7.345727922807276E-03   7.438125805514991E-03
   7.531685910512804E-03   7.626422856757468E-03   7.722351447089579E-03
   7.819486670546542E-03   7.917843704704648E-03   8.017437918050593E-03
   8.118284872382836E-03   8.220400325243170E-03   8.323800232378857E-03
   8.428500750235754E-03   8.534518238482796E-03   8.641869262568212E-03
   8.750570596307924E-03   8.860639224506481E-03   8.972092345610982E-03
   9.084947374398345E-03   9.199221944696429E-03   9.314933912139334E-03
   9.432101356957389E-03   9.550742586802229E-03   9.670876139607395E-03
   9.792520786484923E-03   9.915695534658380E-03   1.004041963043276E-02
   1.016671256220180E-02   1.029459406349301E-02   1.042408411605116E-02
   1.055520295296041E-02   1.068797106180578E-02   1.082240918787441E-02
   1.095853833739700E-02   1.109637978083013E-02   1.123595505617978E-02
   1.137728597236668E-02   1.152039461263404E-02   1.166530333799804E-02
   1.181203479074185E-02   1.196061189795348E-02   1.211105787510822E-02
   1.226339622969609E-02   1.241765076489492E-02   1.257384558328967E-02
   1.273200509063850E-02   1.289215399968621E-02   1.305431733402566E-02
   1.321852043200776E-02   1.338478895070066E-02   1.355314886989866E-02
   1.372362649618169E-02   1.389624846702568E-02   1.407104175496477E-02
   1.424803367180584E-02   1.442725187289598E-02   1.460872436144373E-02
   1.479247949289463E-02   1.497854597936183E-02   1.516695289411240E-02
   1.535772967611008E-02   1.555090613461519E-02   1.574651245384240E-02
   1.594457919767705E-02   1.614513731445084E-02   1.634821814177755E-02
   1.655385341144962E-02   1.676207525439630E-02   1.697291620570419E-02
   1.718640920970089E-02   1.740258762510263E-02   1.762148523022662E-02
   1.784313622826903E-02   1.806757525264925E-02   1.829483737242147E-02
   1.852495809775426E-02   1.875797338547914E-02   1.899391964470890E-02
   1.923283374252657E-02   1.947475300974602E-02   1.971971524674494E-02
   1.996775872937123E-02   2.021892221492370E-02   2.047324494820798E-02
   2.073076666766855E-02   2.099152761159801E-02   2.125556852442438E-02
   2.152293066307749E-02   2.179365580343545E-02   2.206778624685222E-02
   2.234536482676733E-02   2.262643491539862E-02   2.291104043051928E-02
   2.319922584232008E-02   2.349103618035794E-02   2.378651704059186E-02
   2.408571459250742E-02   2.438867558633083E-02   2.469544736033374E-02
   2.500607784822999E-02   2.532061558666527E-02   2.563910972280117E-02
   2.596161002199444E-02   2.628816687557295E-02   2.661883130870945E-02
   2.695365498839437E-02   2.729269023150887E-02   2.763599001299945E-02
   2.798360797415541E-02   2.833559843099044E-02   2.869201638272953E-02
   2.905291752040278E-02   2.941835823554722E-02   2.978839562901807E-02
   3.016308751991091E-02   3.054249245459603E-02   3.092666971586635E-02
   3.131567933220058E-02   3.170958208714272E-02   3.210843952879961E-02
   3.251231397945800E-02   3.292126854532250E-02   3.333536712637605E-02
   3.375467442636444E-02   3.417925596290635E-02   3.460917807773071E-02
   3.504450794704263E-02   3.548531359201988E-02   3.593166388944131E-02
   3.638362858244901E-02   3.684127829144579E-02   3.730468452512976E-02
   3.777391969166776E-02   3.824905711000923E-02   3.873017102134243E-02
   3.921733660069486E-02   3.971062996867945E-02   4.021012820338855E-02
   4.071590935243757E-02   4.122805244516007E-02   4.174663750495625E-02
   4.227174556179676E-02   4.280345866488384E-02   4.334185989547164E-02
   4.388703337984780E-02   4.443906430247842E-02   4.499803891931827E-02
   4.556404457128850E-02   4.613716969792376E-02   4.671750385119112E-02
   4.730513770948273E-02   4.790016309178449E-02   4.850267297202299E-02
   4.911276149359281E-02   4.973052398406669E-02   5.035605697009064E-02
   5.098945819246634E-02   5.163082662142349E-02   5.228026247208397E-02
   5.293786722012071E-02   5.360374361761355E-02   5.427799570910428E-02
   5.496072884785401E-02   5.565204971230469E-02   5.635206632274788E-02
   5.706088805820318E-02   5.777862567350885E-02   5.850539131662754E-02
   5.924129854616960E-02   5.998646234913684E-02   6.074099915888954E-02
   6.150502687333934E-02   6.227866487337107E-02   6.306203404149618E-02
   6.385525678074097E-02   6.465845703377228E-02   6.547176030226377E-02
   6.629529366650584E-02   6.712918580526210E-02   6.797356701587583E-02
   6.882856923462909E-02   6.969432605735806E-02   7.057097276032773E-02
   7.145864632136893E-02   7.235748544128159E-02   7.326763056550691E-02
   7.418922390607224E-02   7.512240946381206E-02   7.606733305086831E-02
   7.702414231347396E-02   7.799298675502291E-02   7.897401775943029E-02
   7.996738861478650E-02   8.097325453730866E-02   8.199177269559366E-02
   8.302310223517588E-02   8.406740430339420E-02   8.512484207457133E-02
   8.619558077551050E-02   8.727978771131210E-02   8.837763229151568E-02
   8.948928605657053E-02   9.061492270463904E-02   9.175471811873770E-02
   9.290885039421881E-02   9.407749986659852E-02   9.526084913973458E-02
   9.645908311435838E-02   9.767238901696638E-02   9.890095642907430E-02
   1.001449773168398E-01   1.014046460610576E-01   1.026801594875318E-01
   1.039717168978303E-01   1.052795201004262E-01   1.066037734422307E-01
   1.079446838405226E-01   1.093024608152796E-01   1.106773165219167E-01
   1.120694657844351E-01   1.134791261289894E-01   1.149065178178765E-01
   1.163518638839516E-01   1.178153901654784E-01   1.192973253414158E-01
   1.207979009671501E-01   1.223173515106758E-01   1.238559143892315E-01
   1.254138300063974E-01   1.269913417896583E-01   1.285886962284396E-01
   1.302061429126224E-01   1.318439345715417E-01   1.335023271134765E-01
   1.351815796656353E-01   1.368819546146458E-01   1.386037176475535E-01
   1.403471377933350E-01   1.421124874649352E-01   1.439000425018319E-01
   1.457100822131364E-01   1.475428894212362E-01   1.493987505059864E-01
   1.512779554494573E-01   1.531807978812445E-01   1.551075751243495E-01
   1.570585882416364E-01   1.590341420828743E-01   1.610345453323701E-01
   1.630601105572014E-01   1.651111542560556E-01   1.671879969086836E-01
   1.692909630259752E-01   1.714203812006648E-01   1.735765841586744E-01
   1.757599088111031E-01   1.779706963068700E-01   1.802092920860188E-01
   1.824760459336949E-01   1.847713120347985E-01   1.870954490293275E-01
   1.894488200684162E-01   1.918317928710771E-01   1.942447397816590E-01
   1.966880378280257E-01   1.991620687804680E-01   2.016672192113556E-01
   2.042038805555401E-01   2.067724491715175E-01   2.093733264033597E-01
   2.120069186434257E-01   2.146736373958613E-01   2.173738993408968E-01
   2.201081263999551E-01   2.228767458015768E-01   2.256801901481761E-01
   2.285188974836362E-01   2.313933113617532E-01   2.343038809155440E-01
   2.372510609274228E-01   2.402353119002624E-01   2.432571001293491E-01
   2.463168977752413E-01   2.494151829375466E-01   2.525524397296250E-01
   2.557291583542330E-01   2.589458351801190E-01   2.622029728195812E-01
   2.655010802070026E-01   2.688406726783725E-01   2.722222720518089E-01
   2.756464067090940E-01   2.791136116782342E-01   2.826244287170604E-01
   2.861794063978775E-01   2.897791001931806E-01   2.934240725624492E-01
   2.971148930400315E-01   3.008521383241364E-01   3.046363923669428E-01
   3.084682464658440E-01   3.123482993558391E-01   3.162771573030860E-01
   3.202554341996325E-01   3.242837516593375E-01   3.283627391149995E-01
   3.324930339167075E-01   3.366752814314273E-01   3.409101351438419E-01
   3.451982567584599E-01   3.495403163030076E-01   3.539369922331230E-01
   3.583889715383654E-01   3.628969498495584E-01   3.674616315474851E-01
   3.720837298729475E-01   3.767639670382129E-01   3.815030743398603E-01
   3.863017922730472E-01   3.911608706472141E-01   3.960810687032423E-01
   4.010631552320887E-01   4.061079086949095E-01   4.112161173446968E-01
   4.163885793494449E-01   4.216261029168654E-01   4.269295064206717E-01
   4.322996185284512E-01   4.377372783311459E-01   4.432433354741635E-01
   4.488186502901343E-01   4.544640939333417E-01   4.601805485158407E-01
   4.659689072452896E-01   4.718300745645170E-01   4.777649662928405E-01
   4.837745097691679E-01   4.898596439968936E-01   4.960213197906208E-01
   5.022604999247288E-01   5.085781592838066E-01   5.149752850149831E-01
   5.214528766821686E-01   5.280119464222394E-01   5.346535191031877E-01
   5.413786324842566E-01   5.481883373780948E-01   5.550836978149463E-01
   5.620657912089075E-01   5.691357085262772E-01   5.762945544560194E-01
   5.835434475823761E-01   5.908835205596458E-01   5.983159202891646E-01
   6.058418080985120E-01   6.134623599229695E-01   6.211787664892633E-01
   6.289922335016197E-01   6.369039818301553E-01   6.449152477016431E-01
   6.530272828926745E-01   6.612413549252518E-01   6.695587472648425E-01
   6.779807595209213E-01   6.865087076500379E-01   6.951439241614376E-01
   7.038877583252681E-01   7.127415763834084E-01   7.217067617629427E-01
   7.307847152923260E-01   7.399768554202669E-01   7.492846184373619E-01
   7.587094587005185E-01   7.682528488602040E-01   7.779162800905466E-01
   7.877012623223363E-01   7.976093244789543E-01   8.076420147152704E-01
   8.178009006595469E-01   8.280875696583803E-01   8.385036290247301E-01
   8.490507062890639E-01   8.597304494536617E-01   8.705445272501224E-01
   8.814946294001028E-01   8.925824668793416E-01   9.038097721850035E-01
   9.151782996063836E-01   9.266898254990228E-01   9.383461485622615E-01
   9.501490901202929E-01   9.621004944067489E-01   9.742022288528641E-01
   9.864561843792680E-01   9.988642756914419E-01   1.011428441578898E+00
   1.024150645218117E+00   1.037032874479302E+00   1.050077142236985E+00
   1.063285486684541E+00   1.076659971652663E+00   1.090202686931836E+00
   1.103915748598877E+00   1.117801299347571E+00   1.131861508823473E+00
   1.146098573962919E+00   1.160514719336302E+00   1.175112197495666E+00
   1.189893289326673E+00   1.204860304404995E+00   1.220015581357188E+00
   1.235361488226108E+00   1.250900422840925E+00   1.266634813191789E+00
   1.282567117809203E+00   1.298699826148177E+00   1.315035458977212E+00
   1.331576568772172E+00   1.348325740115118E+00   1.365285590098146E+00
   1.382458768732322E+00   1.399847959361747E+00   1.417455879082833E+00
   1.435285279168864E+00   1.453338945499876E+00   1.471619698997963E+00
   1.490130396068052E+00   1.508873929044219E+00   1.527853226641629E+00
   1.547071254414143E+00   1.566531015217700E+00   1.586235549679517E+00
   1.606187936673191E+00   1.626391293799786E+00   1.646848777874957E+00
   1.667563585422211E+00   1.688538953172371E+00   1.709778158569321E+00
   1.731284520282121E+00   1.753061398723541E+00   1.775112196575142E+00
   1.797440359318951E+00   1.820049375775824E+00   1.842942778650583E+00
   1.866124145084001E+00   1.889597097211748E+00   1.913365302730350E+00
   1.937432475470273E+00   1.961802375976228E+00   1.986478812094747E+00
   2.011465639569178E+00   2.036766762642150E+00   2.062386134665618E+00
   2.088327758718586E+00   2.114595688232590E+00   2.141194027625058E+00
   2.168126932940636E+00   2.195398612500572E+00   2.223013327560287E+00
   2.250975392975189E+00   2.279289177874888E+00   2.307959106345880E+00
   2.336989658122816E+00   2.366385369288478E+00   2.396150832982540E+00
   2.426290700119262E+00   2.456809680114204E+00   2.487712541620080E+00
   2.519004113271877E+00   2.550689284441327E+00   2.582773006000888E+00
   2.615260291097329E+00   2.648156215935041E+00   2.681465920569210E+00
   2.715194609708953E+00   2.749347553530569E+00   2.783930088501015E+00
   2.818947618211737E+00   2.854405614223000E+00   2.890309616918820E+00
   2.926665236372663E+00   2.963478153224036E+00   3.000754119566091E+00
   3.038498959844413E+00   3.076718571767085E+00   3.115418927226227E+00
   3.154606073231118E+00   3.194286132853044E+00   3.234465306182057E+00
   3.275149871295732E+00   3.316346185240141E+00   3.358060685023152E+00
   3.400299888620223E+00   3.443070395992857E+00   3.486378890119847E+00
   3.530232138041511E+00   3.574636991917057E+00   3.619600390095242E+00
   3.665129358198517E+00   3.711231010220774E+00   3.757912549638936E+00
   3.805181270538512E+00   3.853044558753308E+00   3.901509893019492E+00
   3.950584846144144E+00   4.000277086188533E+00   4.050594377666267E+00
   4.101544582756504E+00   4.153135662532460E+00   4.205375678205305E+00
   4.258272792383774E+00   4.311835270349576E+00   4.366071481348863E+00
   4.420989899899956E+00   4.476599107117482E+00   4.532907792053208E+00
   4.589924753053714E+00   4.647658899135155E+00   4.706119251375325E+00
   4.765314944323197E+00   4.825255227426228E+00   4.885949466475603E+00
   4.947407145069651E+00   5.009637866095699E+00   5.072651353230511E+00
   5.136457452459656E+00   5.201066133615950E+00   5.266487491937270E+00
   5.332731749643960E+00   5.399809257536060E+00   5.467730496610647E+00
   5.536506079699515E+00   5.606146753127438E+00   5.676663398391337E+00
   5.748067033860496E+00   5.820368816498229E+00   5.893580043605174E+00
   5.967712154584507E+00   6.042776732729404E+00   6.118785507032915E+00
   6.195750354020666E+00   6.273683299606584E+00   6.352596520971969E+00
   6.432502348468218E+00   6.513413267543443E+00   6.595341920693365E+00
   6.678301109436721E+00   6.762303796315531E+00   6.847363106920535E+00
   6.933492331942063E+00   7.020704929246758E+00   7.109014525980383E+00
   7.198434920697088E+00   7.288980085515488E+00   7.380664168301795E+00
   7.473501494880476E+00   7.567506571272690E+00   7.662694085962871E+00
   7.759078912193862E+00   7.856676110290851E+00   7.955500930014607E+00
   8.055568812944268E+00   8.156895394890128E+00   8.259496508336779E+00
   8.363388184916932E+00   8.468586657916427E+00   8.575108364810692E+00
   8.682969949833145E+00   8.792188266575907E+00   8.902780380623168E+00
   9.014763572217751E+00   9.128155338961168E+00   9.242973398547667E+00
   9.359235691532675E+00   9.476960384135994E+00   9.596165871080364E+00
   9.716870778465639E+00   9.839093966679167E+00   9.962854533342790E+00
   1.008817181629684E+01   1.021506539662172E+01   1.034355510169754E+01
   1.047366100830212E+01   1.060540344574808E+01   1.073880299905930E+01
   1.087388051218739E+01   1.101065709126859E+01   1.114915410792164E+01
   1.128939320258720E+01   1.143139628790911E+01   1.157518555215837E+01
   1.172078346270004E+01   1.186821276950388E+01   1.201749650869903E+01