<UPF version="2.0.1">
  <PP_INFO>
    Generated using "atomic" code by A. Dal Corso  v.7.2
    Author: ADC
    Generation date:  9Jun2023
    Pseudopotential type: PAW
    Element: Ar
    Functional:  SLA  PW   PBX  PBC
    Suggested minimum cutoff for wavefunctions:  48. Ry
    Suggested minimum cutoff for charge density: 225. Ry
    The Pseudo was generated with a Scalar-Relativistic Calculation
    Local Potential by smoothing AE potential with Bessel fncs, cutoff radius:   1.8000
    Valence configuration: 
    nl pn  l   occ       Rcut    Rcut US       E pseu
    3S  1  0  2.00      1.200      1.500    -1.785058
    3P  2  1  6.00      1.200      1.500    -0.754837
    Generation configuration:
    3S  1  0  2.00      1.200      1.500    -1.785055
    3S  1  0  0.00      1.200      1.500     5.000000
    3P  2  1  6.00      1.200      1.500    -0.754832
    3P  2  1  0.00      1.200      1.500     2.500000
    3D  3  2  0.00      1.400      1.500     0.100000
    3D  3  2  0.00      1.400      1.500     0.300000
    Pseudization used: troullier-martins
    <PP_INPUTFILE>
@input
title='Ar',
zed=18.,
rel=1,
config='[Ne] 3s2 3p6 3d-1',
iswitch=3,
dft='PBE'
/
@inputp
lpaw=.true.,
pseudotype=3,
file_pseudopw='Ar.pbe-n-kjpaw_psl.1.0.0.UPF',
author='ADC',
lloc=-1,
rcloc=1.8,
which_augfun='PSQ',
rmatch_augfun_nc=.true.,
nlcc=.true.,
new_core_ps=.true.,
rcore=1.2,
tm=.true.
/
6
3S  1  0  2.00  0.00  1.20  1.50  0.0
3S  1  0  0.00  5.00  1.20  1.50  0.0
3P  2  1  6.00  0.00  1.20  1.50  0.0
3P  2  1  0.00  2.50  1.20  1.50  0.0
3D  3  2  0.00  0.10  1.40  1.50  0.0
3D  3  2  0.00  0.30  1.40  1.50  0.0
    </PP_INPUTFILE>
  </PP_INFO>
    <!-- END OF HUMAN READABLE SECTION -->
  <PP_HEADER generated="Generated using 'atomic' code by A. Dal Corso  v.7.2" author="ADC" date=" 9Jun2023" comment="" element="Ar" pseudo_type="PAW" relativistic="scalar" is_ultrasoft="true" is_paw="true" is_coulomb="false" has_so="false" has_wfc="true" has_gipaw="false" paw_as_gipaw="false" core_correction="true" functional=" SLA  PW   PBX  PBC" z_valence="8.00000000000000" total_psenergy="-95.0829199484338" wfc_cutoff="47.5965082958769" rho_cutoff="225.141852192029" l_max="2" l_max_rho="4" l_local="-1" mesh_size="1161" number_of_wfc="2" number_of_proj="6"/>
  <PP_MESH mesh="1161" dx="1.250000000000000E-002" xmin="-7.00000000000000" rmax="100.000000000000" zmesh="18.0000000000000">
    <PP_R>
   5.066010919747313E-05   5.129733492605679E-05   5.194257596758790E-05
   5.259593314229189E-05   5.325750853855666E-05   5.392740552888383E-05
   5.460572878604103E-05   5.529258429941729E-05   5.598807939158392E-05
   5.669232273506414E-05   5.740542436931316E-05   5.812749571791214E-05
   5.885864960597834E-05   5.959900027779427E-05   6.034866341465877E-05
   6.110775615296213E-05   6.187639710248906E-05   6.265470636495180E-05
   6.344280555275598E-05   6.424081780800321E-05   6.504886782173191E-05
   6.586708185340071E-05   6.669558775061671E-05   6.753451496911193E-05
   6.838399459297117E-05   6.924415935511387E-05   7.011514365803413E-05
   7.099708359480135E-05   7.189011697032488E-05   7.279438332288666E-05
   7.371002394594397E-05   7.463718191020704E-05   7.557600208599411E-05
   7.652663116586761E-05   7.748921768755548E-05   7.846391205716009E-05
   7.945086657265969E-05   8.045023544770531E-05   8.146217483571684E-05
   8.248684285428261E-05   8.352439960986513E-05   8.457500722281842E-05
   8.563882985271946E-05   8.671603372401845E-05   8.780678715201206E-05
   8.891126056914246E-05   9.002962655162815E-05   9.116205984642922E-05
   9.230873739855189E-05   9.346983837869673E-05   9.464554421125410E-05
   9.583603860265235E-05   9.704150757006220E-05   9.826213947046225E-05
   9.949812503007054E-05   1.007496573741453E-04   1.020169320571615E-04
   1.033001470933667E-04   1.045995029877210E-04   1.059152027672265E-04
   1.072474520126505E-04   1.085964588906482E-04   1.099624341862887E-04
   1.113455913359911E-04   1.127461464608741E-04   1.141643184005255E-04
   1.156003287471961E-04   1.170544018804241E-04   1.185267650020949E-04
   1.200176481719419E-04   1.215272843434936E-04   1.230559094004732E-04
   1.246037621936558E-04   1.261710845781893E-04   1.277581214513853E-04
   1.293651207909841E-04   1.309923336939018E-04   1.326400144154652E-04
   1.343084204091391E-04   1.359978123667546E-04   1.377084542592422E-04
   1.394406133778777E-04   1.411945603760477E-04   1.429705693115389E-04
   1.447689176893610E-04   1.465898865051068E-04   1.484337602888584E-04
   1.503008271496459E-04   1.521913788204649E-04   1.541057107038605E-04
   1.560441219180840E-04   1.580069153438315E-04   1.599943976715691E-04
   1.620068794494538E-04   1.640446751318582E-04   1.661081031285033E-04
   1.681974858542120E-04   1.703131497792857E-04   1.724554254805172E-04
   1.746246476928434E-04   1.768211553616482E-04   1.790452916957237E-04
   1.812974042208971E-04   1.835778448343323E-04   1.858869698595151E-04
   1.882251401019284E-04   1.905927209054297E-04   1.929900822093363E-04
   1.954175986062294E-04   1.978756494004850E-04   2.003646186675406E-04
   2.028848953139080E-04   2.054368731379407E-04   2.080209508913656E-04
   2.106375323415893E-04   2.132870263347869E-04   2.159698468597850E-04
   2.186864131127491E-04   2.214371495626828E-04   2.242224860177532E-04
   2.270428576924482E-04   2.298987052755798E-04   2.327904749991433E-04
   2.357186187080411E-04   2.386835939306855E-04   2.416858639504872E-04
   2.447258978782448E-04   2.478041707254445E-04   2.509211634784815E-04
   2.540773631738151E-04   2.572732629740692E-04   2.605093622450895E-04
   2.637861666339710E-04   2.671041881480661E-04   2.704639452349868E-04
   2.738659628636140E-04   2.773107726061232E-04   2.807989127210452E-04
   2.843309282373697E-04   2.879073710397069E-04   2.915287999545213E-04
   2.951957808374486E-04   2.989088866617122E-04   3.026686976076516E-04
   3.064758011533762E-04   3.103307921665611E-04   3.142342729973949E-04
   3.181868535726992E-04   3.221891514912304E-04   3.262417921201807E-04
   3.303454086928941E-04   3.345006424078088E-04   3.387081425286466E-04
   3.429685664858615E-04   3.472825799793645E-04   3.516508570825415E-04
   3.560740803475769E-04   3.605529409121048E-04   3.650881386072010E-04
   3.696803820667319E-04   3.743303888380815E-04   3.790388854942682E-04
   3.838066077474740E-04   3.886343005640009E-04   3.935227182806733E-04
   3.984726247227055E-04   4.034847933230495E-04   4.085600072432465E-04
   4.136990594957969E-04   4.189027530680705E-04   4.241719010477757E-04
   4.295073267500039E-04   4.349098638458763E-04   4.403803564928057E-04
   4.459196594663974E-04   4.515286382940117E-04   4.572081693900017E-04
   4.629591401926561E-04   4.687824493028632E-04   4.746790066245188E-04
   4.806497335067019E-04   4.866955628876349E-04   4.928174394404588E-04
   4.990163197208402E-04   5.052931723164342E-04   5.116489779982300E-04
   5.180847298737959E-04   5.246014335424562E-04   5.312001072524174E-04
   5.378817820598713E-04   5.446475019901015E-04   5.514983242006118E-04
   5.584353191463103E-04   5.654595707467710E-04   5.725721765555967E-04
   5.797742479319169E-04   5.870669102140363E-04   5.944513028952737E-04
   6.019285798020090E-04   6.094999092739710E-04   6.171664743467947E-04
   6.249294729368703E-04   6.327901180285209E-04   6.407496378635351E-04
   6.488092761330801E-04   6.569702921720343E-04   6.652339611557568E-04
   6.736015742993388E-04   6.820744390593583E-04   6.906538793381712E-04
   6.993412356907777E-04   7.081378655342816E-04   7.170451433599930E-04
   7.260644609481940E-04   7.351972275856071E-04   7.444448702856015E-04
   7.538088340111630E-04   7.632905819006746E-04   7.728915954965351E-04
   7.826133749766513E-04   7.924574393888476E-04   8.024253268882156E-04
   8.125185949774568E-04   8.227388207502452E-04   8.330876011376502E-04
   8.435665531576637E-04   8.541773141678573E-04   8.649215421212272E-04
   8.758009158252500E-04   8.868171352042005E-04   8.979719215647708E-04
   9.092670178650238E-04   9.207041889867364E-04   9.322852220111651E-04
   9.440119264982814E-04   9.558861347695213E-04   9.679097021940841E-04
   9.800845074788424E-04   9.924124529618918E-04   1.004895464909794E-03
   1.017535493818565E-03   1.030334514718438E-03   1.043294527482467E-03
   1.056417557139014E-03   1.069705654188163E-03   1.083160894922111E-03
   1.096785381749599E-03   1.110581243524413E-03   1.124550635878022E-03
   1.138695741556403E-03   1.153018770761097E-03   1.167521961494557E-03
   1.182207579909843E-03   1.197077920664710E-03   1.212135307280154E-03
   1.227382092503469E-03   1.242820658675867E-03   1.258453418104721E-03
   1.274282813440496E-03   1.290311318058421E-03   1.306541436444950E-03
   1.322975704589104E-03   1.339616690378715E-03   1.356466994001669E-03
   1.373529248352189E-03   1.390806119442230E-03   1.408300306818052E-03
   1.426014543982024E-03   1.443951598819742E-03   1.462114274032517E-03
   1.480505407575305E-03   1.499127873100138E-03   1.517984580405143E-03
   1.537078475889199E-03   1.556412543012324E-03   1.575989802761839E-03
   1.595813314124413E-03   1.615886174564026E-03   1.636211520505961E-03
   1.656792527826873E-03   1.677632412351028E-03   1.698734430352783E-03
   1.720101879065383E-03   1.741738097196160E-03   1.763646465448220E-03
   1.785830407048670E-03   1.808293388283524E-03   1.831038919039298E-03
   1.854070553351449E-03   1.877391889959698E-03   1.901006572870335E-03
   1.924918291925612E-03   1.949130783380280E-03   1.973647830485387E-03
   1.998473264079426E-03   2.023610963186902E-03   2.049064855624445E-03
   2.074838918614535E-03   2.100937179406949E-03   2.127363715908037E-03
   2.154122657317889E-03   2.181218184775546E-03   2.208654532012295E-03
   2.236435986013214E-03   2.264566887687012E-03   2.293051632544308E-03
   2.321894671384440E-03   2.351100510990906E-03   2.380673714835566E-03
   2.410618903791688E-03   2.440940756855968E-03   2.471644011879640E-03
   2.502733466308768E-03   2.534213977933856E-03   2.566090465648896E-03
   2.598367910219944E-03   2.631051355063385E-03   2.664145907033971E-03
   2.697656737222776E-03   2.731589081765199E-03   2.765948242659108E-03
   2.800739588593299E-03   2.835968555786357E-03   2.871640648836077E-03
   2.907761441579578E-03   2.944336577964213E-03   2.981371772929452E-03
   3.018872813299861E-03   3.056845558689290E-03   3.095295942416468E-03
   3.134229972432076E-03   3.173653732257516E-03   3.213573381935471E-03
   3.253995158992418E-03   3.294925379413264E-03   3.336370438628221E-03
   3.378336812512110E-03   3.420831058396235E-03   3.463859816092968E-03
   3.507429808933244E-03   3.551547844817089E-03   3.596220817277364E-03
   3.641455706556909E-03   3.687259580699200E-03   3.733639596652766E-03
   3.780603001389457E-03   3.828157133036810E-03   3.876309422024648E-03
   3.925067392246089E-03   3.974438662233181E-03   4.024430946347305E-03
   4.075052055984563E-03   4.126309900796328E-03   4.178212489925133E-03
   4.230767933256131E-03   4.283984442684264E-03   4.337870333397398E-03
   4.392434025175594E-03   4.447684043706697E-03   4.503629021918515E-03
   4.560277701327713E-03   4.617638933405698E-03   4.675721680961689E-03
   4.734535019543158E-03   4.794088138853919E-03   4.854390344190024E-03
   4.915451057893740E-03   4.977279820825817E-03   5.039886293856250E-03
   5.103280259373830E-03   5.167471622814641E-03   5.232470414209816E-03
   5.298286789752759E-03   5.364931033386046E-03   5.432413558408338E-03
   5.500744909101463E-03   5.569935762377986E-03   5.639996929449505E-03
   5.710939357515911E-03   5.782774131475927E-03   5.855512475659133E-03
   5.929165755579790E-03   6.003745479712740E-03   6.079263301291608E-03
   6.155731020129662E-03   6.233160584463544E-03   6.311564092820209E-03
   6.390953795907357E-03   6.471342098527609E-03   6.552741561516807E-03
   6.635164903706648E-03   6.718625003912039E-03   6.803134902943441E-03
   6.888707805644513E-03   6.975357082955404E-03   7.063096274001980E-03
   7.151939088211347E-03   7.241899407453983E-03   7.332991288212790E-03
   7.425228963779469E-03   7.518626846478485E-03   7.613199529919026E-03
   7.708961791275294E-03   7.805928593595452E-03   7.904115088139645E-03
   8.003536616747405E-03   8.104208714234857E-03   8.206147110822048E-03
   8.309367734590838E-03   8.413886713973700E-03   8.519720380273805E-03
   8.626885270216834E-03   8.735398128534870E-03   8.845275910582795E-03
   8.956535784987599E-03   9.069195136331025E-03   9.183271567865921E-03
   9.298782904266809E-03   9.415747194415007E-03   9.534182714218820E-03
   9.654107969469175E-03   9.775541698731198E-03   9.898502876272138E-03
   1.002301071502616E-02   1.014908466959637E-02   1.027674443929468E-02
   1.040600997121984E-02   1.053690146337418E-02   1.066943936781968E-02
   1.080364439387353E-02   1.093953751134412E-02   1.107713995380751E-02
   1.121647322192530E-02   1.135755908680412E-02   1.150041959339737E-02
   1.164507706394988E-02   1.179155410148573E-02   1.193987359334004E-02
   1.209005871473516E-02   1.224213293240188E-02   1.239612000824610E-02
   1.255204400306172E-02   1.270992928029014E-02   1.286980050982716E-02
   1.303168267187765E-02   1.319560106085879E-02   1.336158128935235E-02
   1.352964929210671E-02   1.369983133008925E-02   1.387215399458964E-02
   1.404664421137481E-02   1.422332924489612E-02   1.440223670254953E-02
   1.458339453898930E-02   1.476683106049593E-02   1.495257492939911E-02
   1.514065516855626E-02   1.533110116588740E-02   1.552394267896708E-02
   1.571920983967405E-02   1.591693315889945E-02   1.611714353131419E-02
   1.631987224019628E-02   1.652515096231892E-02   1.673301177290012E-02
   1.694348715061441E-02   1.715660998266778E-02   1.737241356993633E-02
   1.759093163216963E-02   1.781219831325949E-02   1.803624818657499E-02
   1.826311626036468E-02   1.849283798322665E-02   1.872544924964747E-02
   1.896098640561077E-02   1.919948625427637E-02   1.944098606173086E-02
   1.968552356281049E-02   1.993313696699732E-02   2.018386496438952E-02
   2.043774673174680E-02   2.069482193861184E-02   2.095513075350873E-02
   2.121871385021939E-02   2.148561241413896E-02   2.175586814871106E-02
   2.202952328194406E-02   2.230662057300926E-02   2.258720331892218E-02
   2.287131536130770E-02   2.315900109325048E-02   2.345030546623142E-02
   2.374527399715149E-02   2.404395277544374E-02   2.434638847027497E-02
   2.465262833783778E-02   2.496272022873454E-02   2.527671259545410E-02
   2.559465449994255E-02   2.591659562126936E-02   2.624258626338971E-02
   2.657267736300468E-02   2.690692049752015E-02   2.724536789310590E-02
   2.758807243285609E-02   2.793508766505228E-02   2.828646781153052E-02
   2.864226777615357E-02   2.900254315338979E-02   2.936735023699986E-02
   2.973674602883280E-02   3.011078824773263E-02   3.048953533855703E-02
   3.087304648130953E-02   3.126138160038644E-02   3.165460137394018E-02
   3.205276724336038E-02   3.245594142287422E-02   3.286418690926751E-02
   3.327756749172809E-02   3.369614776181298E-02   3.411999312354100E-02
   3.454916980361224E-02   3.498374486175612E-02   3.542378620120964E-02
   3.586936257932735E-02   3.632054361832486E-02   3.677739981615746E-02
   3.724000255753553E-02   3.770842412507859E-02   3.818273771060958E-02
   3.866301742659124E-02   3.914933831770631E-02   3.964177637258349E-02
   4.014040853567069E-02   4.064531271925789E-02   4.115656781565101E-02
   4.167425370949900E-02   4.219845129027604E-02   4.272924246492060E-02
   4.326671017063363E-02   4.381093838783760E-02   4.436201215329874E-02
   4.492001757341404E-02   4.548504183766568E-02   4.605717323224448E-02
   4.663650115384487E-02   4.722311612363325E-02   4.781710980139212E-02
   4.841857499984212E-02   4.902760569914421E-02   4.964429706158422E-02
   5.026874544644222E-02   5.090104842504878E-02   5.154130479603073E-02
   5.218961460074868E-02   5.284607913892857E-02   5.351080098449012E-02
   5.418388400157406E-02   5.486543336077121E-02   5.555555555555558E-02
   5.625435841892416E-02   5.696195114024608E-02   5.767844428232364E-02
   5.840394979866803E-02   5.913858105099221E-02   5.988245282692400E-02
   6.063568135794179E-02   6.139838433753601E-02   6.217068093959894E-02
   6.295269183704594E-02   6.374453922067071E-02   6.454634681823797E-02
   6.535823991381616E-02   6.618034536735325E-02   6.701279163449896E-02
   6.785570878667613E-02   6.870922853140474E-02   6.957348423288139E-02
   7.044861093281778E-02   7.133474537154122E-02   7.223202600936064E-02
   7.314059304820124E-02   7.406058845351129E-02   7.499215597644465E-02
   7.593544117632206E-02   7.689059144337511E-02   7.785775602177632E-02
   7.883708603295876E-02   7.982873449922917E-02   8.083285636767788E-02
   8.184960853438977E-02   8.287914986895950E-02   8.392164123931517E-02
   8.497724553685441E-02   8.604612770189632E-02   8.712845474945385E-02
   8.822439579533022E-02   8.933412208254353E-02   9.045780700808392E-02
   9.159562615000716E-02   9.274775729486909E-02   9.391438046550511E-02
   9.509567794915917E-02   9.629183432596644E-02   9.750303649779440E-02
   9.872947371744661E-02   9.997133761823386E-02   1.012288222439172E-01
   1.025021240790278E-01   1.037914420795680E-01   1.050969777040984E-01
   1.064189349452165E-01   1.077575203614308E-01   1.091129431094360E-01
   1.104854149767940E-01   1.118751504150265E-01   1.132823665731231E-01
   1.147072833314715E-01   1.161501233362143E-01   1.176111120340375E-01
   1.190904777073978E-01   1.205884515101913E-01   1.221052675038724E-01
   1.236411626940260E-01   1.251963770674005E-01   1.267711536294058E-01
   1.283657384420836E-01   1.299803806625551E-01   1.316153325819523E-01
   1.332708496648388E-01   1.349471905891272E-01   1.366446172864973E-01
   1.383633949833240E-01   1.401037922421194E-01   1.418660810034960E-01
   1.436505366286582E-01   1.454574379424279E-01   1.472870672768115E-01
   1.491397105151151E-01   1.510156571366137E-01   1.529152002617836E-01
   1.548386366981029E-01   1.567862669864279E-01   1.587583954479536E-01
   1.607553302317646E-01   1.627773833629835E-01   1.648248707915260E-01
   1.668981124414686E-01   1.689974322610369E-01   1.711231582732241E-01
   1.732756226270441E-01   1.754551616494316E-01   1.776621158977932E-01
   1.798968302132201E-01   1.821596537743708E-01   1.844509401520305E-01
   1.867710473643572E-01   1.891203379328234E-01   1.914991789388598E-01
   1.939079420812135E-01   1.963470037340262E-01   1.988167450056434E-01
   2.013175517981635E-01   2.038498148677359E-01   2.064139298856170E-01
   2.090102974999951E-01   2.116393233985924E-01   2.143014183720542E-01
   2.169969983781363E-01   2.197264846066988E-01   2.224903035455181E-01
   2.252888870469265E-01   2.281226723952897E-01   2.309921023753339E-01
   2.338976253413313E-01   2.368396952871566E-01   2.398187719172248E-01
   2.428353207183200E-01   2.458898130323298E-01   2.489827261298926E-01
   2.521145432849725E-01   2.552857538503717E-01   2.584968533341929E-01
   2.617483434772636E-01   2.650407323315336E-01   2.683745343394601E-01
   2.717502704143893E-01   2.751684680219510E-01   2.786296612624757E-01
   2.821343909544491E-01   2.856832047190160E-01   2.892766570655473E-01
   2.929153094782830E-01   2.965997305040655E-01   3.003304958411761E-01
   3.041081884292890E-01   3.079333985405570E-01   3.118067238718422E-01
   3.157287696381081E-01   3.197001486669852E-01   3.237214814945265E-01
   3.277933964621678E-01   3.319165298149070E-01   3.360915258007194E-01
   3.403190367712216E-01   3.445997232836038E-01   3.489342542038426E-01
   3.533233068112131E-01   3.577675669041145E-01   3.622677289072286E-01
   3.668244959800239E-01   3.714385801266263E-01   3.761107023070711E-01
   3.808415925499545E-01   3.856319900665021E-01   3.904826433660720E-01
   3.953943103731110E-01   4.003677585455818E-01   4.054037649948797E-01
   4.105031166072585E-01   4.156666101667824E-01   4.208950524798249E-01
   4.261892605011352E-01   4.315500614614877E-01   4.369782929969386E-01
   4.424748032797098E-01   4.480404511507153E-01   4.536761062537586E-01
   4.593826491714152E-01   4.651609715626260E-01   4.710119763020210E-01
   4.769365776209942E-01   4.829357012505560E-01   4.890102845659785E-01
   4.951612767332634E-01   5.013896388574515E-01   5.076963441327960E-01
   5.140823779948277E-01   5.205487382743298E-01   5.270964353532517E-01
   5.337264923225837E-01   5.404399451422159E-01   5.472378428028105E-01
   5.541212474897070E-01   5.610912347488921E-01   5.681488936550558E-01
   5.752953269817609E-01   5.825316513737544E-01   5.898589975214450E-01
   5.972785103375755E-01   6.047913491361192E-01   6.123986878134224E-01
   6.201017150316318E-01   6.279016344044216E-01   6.357996646850625E-01
   6.437970399568553E-01   6.518950098259563E-01   6.600948396166336E-01
   6.683978105689744E-01   6.768052200390822E-01   6.853183817017923E-01
   6.939386257559340E-01   7.026672991321796E-01   7.115057657035023E-01
   7.204554064982855E-01   7.295176199161124E-01   7.386938219462660E-01
   7.479854463889831E-01   7.573939450794869E-01   7.669207881148390E-01
   7.765674640836466E-01   7.863354802986560E-01   7.962263630322742E-01
   8.062416577550514E-01   8.163829293771638E-01   8.266517624929358E-01
   8.370497616284329E-01   8.475785514921759E-01   8.582397772290015E-01
   8.690351046771210E-01   8.799662206284125E-01   8.910348330919819E-01
   9.022426715610469E-01   9.135914872831701E-01   9.250830535338973E-01
   9.367191658938356E-01   9.485016425292145E-01   9.604323244759806E-01
   9.725130759274605E-01   9.847457845256472E-01   9.971323616561472E-01
   1.009674742746837E+00   1.022374887570281E+00   1.035234780549945E+00
   1.048256431070272E+00   1.061441873790648E+00   1.074793168963323E+00
   1.088312402755333E+00   1.102001687574463E+00   1.115863162399315E+00
   1.129898993113534E+00   1.144111372844224E+00   1.158502522304634E+00
   1.173074690141146E+00   1.187830153284631E+00   1.202771217306226E+00
   1.217900216777582E+00   1.233219515635647E+00   1.248731507552035E+00
   1.264438616307041E+00   1.280343296168366E+00   1.296448032274596E+00
   1.312755341023513E+00   1.329267770465286E+00   1.345987900700611E+00
   1.362918344283854E+00   1.380061746631269E+00   1.397420786434354E+00
   1.414998176078394E+00   1.432796662066282E+00   1.450819025447665E+00
   1.469068082253489E+00   1.487546683936007E+00   1.506257717814328E+00
   1.525204107525562E+00   1.544388813481649E+00   1.563814833331925E+00
   1.583485202431516E+00   1.603402994315613E+00   1.623571321179720E+00
   1.643993334365943E+00   1.664672224855390E+00   1.685611223766774E+00
   1.706813602861274E+00   1.728282675053760E+00   1.750021794930442E+00
   1.772034359273029E+00   1.794323807589483E+00   1.816893622651454E+00
   1.839747331038462E+00   1.862888503688942E+00   1.886320756458198E+00
   1.910047750683400E+00   1.934073193755669E+00   1.958400839699364E+00
   1.983034489758661E+00   2.007977992991497E+00   2.033235246871000E+00
   2.058810197894478E+00   2.084706842200057E+00   2.110929226191099E+00
   2.137481447168453E+00   2.164367653970666E+00   2.191592047622253E+00
   2.219158881990109E+00   2.247072464448189E+00   2.275337156550546E+00
   2.303957374712821E+00   2.332937590902334E+00   2.362282333336823E+00
   2.391996187191997E+00   2.422083795317974E+00   2.452549858964736E+00
   2.483399138516714E+00   2.514636454236599E+00   2.546266687018528E+00
   2.578294779150722E+00   2.610725735087739E+00   2.643564622232428E+00
   2.676816571727713E+00   2.710486779258358E+00   2.744580505862790E+00
   2.779103078755154E+00   2.814059892157704E+00   2.849456408143651E+00
   2.885298157490637E+00   2.921590740544915E+00   2.958339828096425E+00
   2.995551162264865E+00   3.033230557396905E+00   3.071383900974691E+00
   3.110017154535786E+00   3.149136354604657E+00   3.188747613635902E+00
   3.228857120969336E+00   3.269471143797078E+00   3.310596028142833E+00
   3.352238199853444E+00   3.394404165602965E+00   3.437100513909330E+00
   3.480333916163826E+00   3.524111127673519E+00   3.568438988716772E+00
   3.613324425612056E+00   3.658774451800209E+00   3.704796168940289E+00
   3.751396768019231E+00   3.798583530475453E+00   3.846363829336591E+00
   3.894745130371552E+00   3.943734993257052E+00   3.993341072758837E+00
   4.043571119927759E+00   4.094432983310880E+00   4.145934610177832E+00
   4.198084047762594E+00   4.250889444520883E+00   4.304359051403384E+00
   4.358501223144953E+00   4.413324419570078E+00   4.468837206914739E+00
   4.525048259164897E+00   4.581966359411835E+00   4.639600401224516E+00
   4.697959390039227E+00   4.757052444566703E+00   4.816888798216939E+00
   4.877477800541936E+00   4.938828918696574E+00   5.000951738917883E+00
   5.063855968022914E+00   5.127551434925438E+00   5.192048092171759E+00
   5.257356017495786E+00   5.323485415393720E+00   5.390446618718524E+00
   5.458250090294448E+00   5.526906424551881E+00   5.596426349182729E+00
   5.666820726816654E+00   5.738100556718381E+00   5.810276976506346E+00
   5.883361263892996E+00   5.957364838446920E+00   6.032299263377205E+00
   6.108176247340200E+00   6.185007646269019E+00   6.262805465226069E+00
   6.341581860278835E+00   6.421349140399320E+00   6.502119769387328E+00
   6.583906367817963E+00   6.666721715013637E+00   6.750578751040831E+00
   6.835490578732036E+00   6.921470465733081E+00   7.008531846576232E+00
   7.096688324779384E+00   7.185953674971610E+00   7.276341845045484E+00
   7.367866958336482E+00   7.460543315829751E+00   7.554385398394721E+00
   7.649407869047707E+00   7.745625575243072E+00   7.843053551193167E+00
   7.941707020217446E+00   8.041601397121166E+00   8.142752290603955E+00
   8.245175505698707E+00   8.348887046241167E+00   8.453903117370535E+00
   8.560240128061599E+00   8.667914693688617E+00   8.776943638621534E+00
   8.887343998854815E+00   8.999133024669353E+00   9.112328183327881E+00
   9.226947161804228E+00   9.343007869546977E+00   9.460528441277841E+00
   9.579527239825241E+00   9.700022858993572E+00   9.822034126468470E+00
   9.945580106758714E+00   1.007068010417508E+01   1.019735366584667E+01
   1.032562058477523E+01   1.045550090292780E+01   1.058701491436834E+01
   1.072018316842870E+01   1.085502647291950E+01   1.099156589738142E+01
   1.112982277637732E+01   1.126981871282584E+01   1.141157558137685E+01
   1.155511553182948E+01   1.170046099259303E+01   1.184763467419145E+01
   1.199665957281191E+01   1.214755897389801E+01   1.230035645578818E+01
   1.245507589339984E+01   1.261174146195989E+01   1.277037764078217E+01
   1.293100921709235E+01   1.309366128990103E+01   1.325835927392554E+01
   1.342512890356093E+01   1.359399623690114E+01   1.376498765981057E+01
   1.393812989004692E+01   1.411344998143595E+01   1.429097532809861E+01
   1.447073366873150E+01   1.465275309094107E+01   1.483706203563234E+01
   1.502368930145293E+01   1.521266404929281E+01   1.540401580684079E+01
   1.559777447319831E+01   1.579397032355116E+01   1.599263401390017E+01
   1.619379658585112E+01   1.639748947146514E+01   1.660374449817003E+01
   1.681259389373333E+01   1.702407029129802E+01   1.723820673448147E+01
   1.745503668253858E+01   1.767459401558989E+01   1.789691303991536E+01
   1.812202849331489E+01   1.834997555053605E+01   1.858078982877030E+01
   1.881450739321820E+01   1.905116476272469E+01   1.929079891548527E+01
   1.953344729482382E+01   1.977914781504330E+01   2.002793886734987E+01
   2.027985932585160E+01   2.053494855363272E+01   2.079324640890401E+01
   2.105479325123088E+01   2.131962994783957E+01   2.158779788000271E+01
   2.185933894950534E+01   2.213429558519200E+01   2.241271074959642E+01
   2.269462794565447E+01   2.298009122350160E+01   2.326914518735578E+01
   2.356183500248692E+01   2.385820640227413E+01   2.415830569535159E+01
   2.446217977284438E+01   2.476987611569540E+01   2.508144280208420E+01
   2.539692851493941E+01   2.571638254954553E+01   2.603985482124539E+01
   2.636739587323958E+01   2.669905688448385E+01   2.703488967768598E+01
   2.737494672740316E+01   2.771928116824122E+01   2.806794680315717E+01
   2.842099811186579E+01   2.877849025935236E+01   2.914047910449225E+01
   2.950702120877895E+01   2.987817384516205E+01   3.025399500699608E+01
   3.063454341710218E+01   3.101987853694366E+01   3.141006057591695E+01
   3.180515050075952E+01   3.220521004507592E+01   3.261030171898386E+01
   3.302048881888157E+01   3.343583543733790E+01   3.385640647310709E+01
   3.428226764126909E+01   3.471348548349786E+01   3.515012737845856E+01
   3.559226155233560E+01   3.603995708949324E+01   3.649328394326999E+01
   3.695231294690902E+01   3.741711582462608E+01   3.788776520281642E+01
   3.836433462140299E+01   3.884689854532699E+01   3.933553237618334E+01
   3.983031246400222E+01   4.033131611917896E+01   4.083862162455407E+01
   4.135230824764484E+01   4.187245625303122E+01   4.239914691489732E+01
   4.293246252973055E+01   4.347248642918088E+01   4.401930299308123E+01
   4.457299766263221E+01   4.513365695375244E+01   4.570136847059680E+01
   4.627622091924489E+01   4.685830412156130E+01   4.744770902923069E+01
   4.804452773796899E+01   4.864885350191366E+01   4.926078074819491E+01
   4.988040509168991E+01   5.050782334996295E+01   5.114313355839339E+01
   5.178643498549380E+01   5.243782814842105E+01   5.309741482868209E+01
   5.376529808803764E+01   5.444158228460579E+01   5.512637308916813E+01
   5.581977750168117E+01   5.652190386799506E+01   5.723286189678304E+01
   5.795276267668356E+01   5.868171869365806E+01   5.941984384856740E+01
   6.016725347496867E+01   6.092406435713664E+01   6.169039474831139E+01
   6.246636438917559E+01   6.325209452656444E+01   6.404770793241047E+01
   6.485332892292701E+01   6.566908337803289E+01   6.649509876102131E+01
   6.733150413847653E+01   6.817843020044037E+01   6.903600928083316E+01
   6.990437537813092E+01   7.078366417630301E+01   7.167401306601317E+01