<UPF version="2.0.1">
  <PP_INFO>
    Generated using "atomic" code by A. Dal Corso  v.7.2
    Author: ADC
    Generation date:  9Jun2023
    Pseudopotential type: USPP
    Element: Be
    Functional: REVPBE
    Suggested minimum cutoff for wavefunctions:  81. Ry
    Suggested minimum cutoff for charge density: 870. Ry
    The Pseudo was generated with a Fully-Relativistic Calculation
    Local Potential by smoothing AE potential with Bessel fncs, cutoff radius:   0.7000
    Pseudopotential contains additional information for spin-orbit calculations.
    Valence configuration: 
    nl pn  l   occ       Rcut    Rcut US       E pseu
    1S  1  0  2.00      0.450      1.200    -7.816174
    2S  2  0  2.00      0.450      1.200    -0.412646
    2P  2  1  0.00      0.900      1.000    -0.146536
    2P  2  1  0.00      0.900      1.000    -0.146487
    Generation configuration:
    1S  1  0  2.00      0.450      1.200    -7.816171
    2S  2  0  2.00      0.450      1.200    -0.412647
    2P  2  1  0.00      0.900      1.000    -0.146547
    2P  2  1  0.00      0.900      1.000    -0.146488
    2P  2  1  0.00      0.900      1.000     1.500000
    2P  2  1  0.00      0.900      1.000     1.500000
    Pseudization used: troullier-martins
    <PP_INPUTFILE>
@input
title='Be',
zed=4.,
rel=2,
config='[He] 2s2 2p0',
iswitch=3,
dft='REVPBE'
/
@inputp
lpaw=.false.,
pseudotype=3,
file_pseudopw='Be.rel-revpbe-s-rrkjus_psl.1.0.0.UPF',
author='ADC',
lloc=-1,
rcloc=0.7
which_augfun='PSQ',
rmatch_augfun_nc=.true.,
tm=.true.
/
4
1S  1  0  2.00  0.00  0.45  1.20  0.0
2S  2  0  2.00  0.00  0.45  1.20  0.0
2P  2  1  0.00  0.00  0.90  1.00  0.0
2P  2  1  0.00  1.50  0.90  1.00  0.0
    </PP_INPUTFILE>
  </PP_INFO>
    <!-- END OF HUMAN READABLE SECTION -->
  <PP_HEADER generated="Generated using 'atomic' code by A. Dal Corso  v.7.2" author="ADC" date=" 9Jun2023" comment="" element="Be" pseudo_type="USPP" relativistic="full" is_ultrasoft="true" is_paw="false" is_coulomb="false" has_so="true" has_wfc="false" has_gipaw="false" paw_as_gipaw="false" core_correction="false" functional="REVPBE" z_valence="4.00000000000000" total_psenergy="-29.2400648997752" wfc_cutoff="80.8460615084499" rho_cutoff="870.473586834204" l_max="1" l_max_rho="2" l_local="-1" mesh_size="1041" number_of_wfc="4" number_of_proj="6"/>
  <PP_MESH mesh="1041" dx="1.250000000000000E-002" xmin="-7.00000000000000" rmax="100.000000000000" zmesh="4.00000000000000">
    <PP_R>
   2.279704913886291E-04   2.308380071672556E-04   2.337415918541455E-04
   2.366816991403135E-04   2.396587884235050E-04   2.426733248799772E-04
   2.457257795371847E-04   2.488166293473778E-04   2.519463572621276E-04
   2.551154523077886E-04   2.583244096619093E-04   2.615737307306046E-04
   2.648639232269025E-04   2.681955012500742E-04   2.715689853659645E-04
   2.749849026883296E-04   2.784437869612008E-04   2.819461786422831E-04
   2.854926249874019E-04   2.890836801360144E-04   2.927199051977936E-04
   2.964018683403032E-04   3.001301448777752E-04   3.039053173610037E-04
   3.077279756683702E-04   3.115987170980124E-04   3.155181464611536E-04
   3.194868761766061E-04   3.235055263664620E-04   3.275747249529900E-04
   3.316951077567479E-04   3.358673185959317E-04   3.400920093869735E-04
   3.443698402464043E-04   3.487014795939997E-04   3.530876042572204E-04
   3.575288995769686E-04   3.620260595146739E-04   3.665797867607258E-04
   3.711907928442717E-04   3.758597982443931E-04   3.805875325026829E-04
   3.853747343372376E-04   3.902221517580831E-04   3.951305421840543E-04
   4.001006725611411E-04   4.051333194823267E-04   4.102292693089315E-04
   4.153893182934835E-04   4.206142727041353E-04   4.259049489506435E-04
   4.312621737119356E-04   4.366867840652799E-04   4.421796276170802E-04
   4.477415626353174E-04   4.533734581836538E-04   4.590761942572268E-04
   4.648506619201503E-04   4.706977634447443E-04   4.766184124525191E-04
   4.826135340569273E-04   4.886840650079168E-04   4.948309538382992E-04
   5.010551610119598E-04   5.073576590739335E-04   5.137394328023647E-04
   5.202014793623823E-04   5.267448084619085E-04   5.333704425094270E-04
   5.400794167737386E-04   5.468727795457213E-04   5.537515923021292E-04
   5.607169298714508E-04   5.677698806018517E-04   5.749115465312340E-04
   5.821430435594284E-04   5.894655016225582E-04   5.968800648695934E-04
   6.043878918411259E-04   6.119901556503958E-04   6.196880441665896E-04
   6.274827602004496E-04   6.353755216922146E-04   6.433675619019250E-04
   6.514601296021246E-04   6.596544892729804E-04   6.679519212998626E-04
   6.763537221734067E-04   6.848612046920921E-04   6.934756981673722E-04
   7.021985486313782E-04   7.110311190472419E-04   7.199747895220608E-04
   7.290309575225419E-04   7.382010380933617E-04   7.474864640782651E-04
   7.568886863439538E-04   7.664091740067858E-04   7.760494146623272E-04
   7.858109146177951E-04   7.956951991274167E-04   8.057038126307566E-04
   8.158383189940371E-04   8.261003017544955E-04   8.364913643678180E-04
   8.470131304586779E-04   8.576672440744336E-04   8.684553699420134E-04
   8.793791937280321E-04   8.904404223021824E-04   9.016407840039326E-04
   9.129820289125859E-04   9.244659291207330E-04   9.360942790111451E-04
   9.478688955371520E-04   9.597916185065409E-04   9.718643108690326E-04
   9.840888590073708E-04   9.964671730320726E-04   1.009001187079890E-03
   1.021692859616017E-03   1.034544173740109E-03   1.047557137496145E-03
   1.060733784186185E-03   1.074076172688085E-03   1.087586387777192E-03
   1.101266540452102E-03   1.115118768264500E-03   1.129145235653167E-03
   1.143348134282168E-03   1.157729683383311E-03   1.172292130102903E-03
   1.187037749852869E-03   1.201968846666297E-03   1.217087753557441E-03
   1.232396832886263E-03   1.247898476727554E-03   1.263595107244704E-03
   1.279489177068164E-03   1.295583169678681E-03   1.311879599795346E-03
   1.328381013768519E-03   1.345089989977705E-03   1.362009139234432E-03
   1.379141105190193E-03   1.396488564749525E-03   1.414054228488277E-03
   1.431840841077146E-03   1.449851181710537E-03   1.468088064540813E-03
   1.486554339118024E-03   1.505252890835140E-03   1.524186641378909E-03
   1.543358549186377E-03   1.562771609907140E-03   1.582428856871437E-03
   1.602333361564096E-03   1.622488234104472E-03   1.642896623732405E-03
   1.663561719300293E-03   1.684486749771367E-03   1.705674984724207E-03
   1.727129734863633E-03   1.748854352538004E-03   1.770852232263030E-03
   1.793126811252175E-03   1.815681569953723E-03   1.838520032594609E-03
   1.861645767731086E-03   1.885062388806317E-03   1.908773554714990E-03
   1.932782970375018E-03   1.957094387306443E-03   1.981711604217626E-03
   2.006638467598789E-03   2.031878872323053E-03   2.057436762255008E-03
   2.083316130866952E-03   2.109521021862884E-03   2.136055529810335E-03
   2.162923800780159E-03   2.190130032994357E-03   2.217678477482065E-03
   2.245573438743781E-03   2.273819275423954E-03   2.302420400992035E-03
   2.331381284432082E-03   2.360706450941053E-03   2.390400482635878E-03
   2.420468019269421E-03   2.450913758955457E-03   2.481742458902753E-03
   2.512958936158396E-03   2.544568068360469E-03   2.576574794500185E-03
   2.608984115693626E-03   2.641801095963164E-03   2.675030863028732E-03
   2.708678609109041E-03   2.742749591732869E-03   2.777249134560577E-03
   2.812182628215916E-03   2.847555531128344E-03   2.883373370385908E-03
   2.919641742598861E-03   2.956366314774154E-03   2.993552825200905E-03
   3.031207084347025E-03   3.069334975767112E-03   3.107942457021771E-03
   3.147035560608500E-03   3.186620394904267E-03   3.226703145119968E-03
   3.267290074266873E-03   3.308387524135232E-03   3.350001916285207E-03
   3.392139753050233E-03   3.434807618553036E-03   3.478012179734408E-03
   3.521760187394931E-03   3.566058477249814E-03   3.610913970996970E-03
   3.656333677398556E-03   3.702324693376103E-03   3.748894205119426E-03
   3.796049489209486E-03   3.843797913755358E-03   3.892146939545523E-03
   3.941104121213625E-03   3.990677108418902E-03   4.040873647041469E-03
   4.091701580392607E-03   4.143168850440314E-03   4.195283499050243E-03
   4.248053669242267E-03   4.301487606462846E-03   4.355593659873379E-03
   4.410380283654791E-03   4.465856038328513E-03   4.522029592094075E-03
   4.578909722183545E-03   4.636505316232971E-03   4.694825373671102E-03
   4.753879007125564E-03   4.813675443846733E-03   4.874224027149499E-03
   4.935534217873195E-03   4.997615595859858E-03   5.060477861451098E-03
   5.124130837003815E-03   5.188584468424936E-03   5.253848826725508E-03
   5.319934109594294E-03   5.386850642991193E-03   5.454608882760693E-03
   5.523219416265611E-03   5.592692964041400E-03   5.663040381471243E-03
   5.734272660482233E-03   5.806400931262894E-03   5.879436464002277E-03
   5.953390670650970E-03   6.028275106704219E-03   6.104101473007509E-03
   6.180881617584850E-03   6.258627537490037E-03   6.337351380681236E-03
   6.417065447919108E-03   6.497782194688837E-03   6.579514233146328E-03
   6.662274334088871E-03   6.746075428950621E-03   6.830930611823142E-03
   6.916853141501395E-03   7.003856443555456E-03   7.091954112428275E-03
   7.181159913559858E-03   7.271487785538119E-03   7.362951842276822E-03
   7.455566375220928E-03   7.549345855579625E-03   7.644304936587524E-03
   7.740458455794223E-03   7.837821437382722E-03   7.936409094516988E-03
   8.036236831719017E-03   8.137320247275858E-03   8.239675135676841E-03
   8.343317490081520E-03   8.448263504818639E-03   8.554529577916508E-03
   8.662132313665256E-03   8.771088525211260E-03   8.881415237184241E-03
   8.993129688357417E-03   9.106249334341059E-03   9.220791850310004E-03
   9.336775133765405E-03   9.454217307331271E-03   9.573136721586165E-03
   9.693551957930502E-03   9.815481831489954E-03   9.938945394055329E-03
   1.006396193705946E-02   1.019055099459156E-02   1.031873234644939E-02
   1.044852602122998E-02   1.057995229945908E-02   1.071303171676005E-02
   1.084778506706259E-02   1.098423340585186E-02   1.112239805345838E-02
   1.126230059838946E-02   1.140396290070235E-02   1.154740709542003E-02
   1.169265559598975E-02   1.183973109778523E-02   1.198865658165287E-02
   1.213945531750249E-02   1.229215086794340E-02   1.244676709196599E-02
   1.260332814866984E-02   1.276185850103860E-02   1.292238291976235E-02
   1.308492648710810E-02   1.324951460083896E-02   1.341617297818253E-02
   1.358492765984937E-02   1.375580501410181E-02   1.392883174087411E-02
   1.410403487594434E-02   1.428144179515882E-02   1.446108021870962E-02
   1.464297821546588E-02   1.482716420735969E-02   1.501366697382699E-02
   1.520251565630449E-02   1.539373976278306E-02   1.558736917241836E-02
   1.578343414019960E-02   1.598196530167690E-02   1.618299367774814E-02
   1.638655067950609E-02   1.659266811314640E-02   1.680137818493745E-02
   1.701271350625256E-02   1.722670709866565E-02   1.744339239911092E-02
   1.766280326510740E-02   1.788497398004931E-02   1.810993925856287E-02
   1.833773425193053E-02   1.856839455358348E-02   1.880195620466310E-02
   1.903845569965259E-02   1.927792999207919E-02   1.952041650028829E-02
   1.976595311329017E-02   2.001457819668014E-02   2.026633059863332E-02
   2.052124965597471E-02   2.077937520032564E-02   2.104074756432760E-02
   2.130540758794421E-02   2.157339662484263E-02   2.184475654885511E-02
   2.211952976052183E-02   2.239775919371618E-02   2.267948832235313E-02
   2.296476116718223E-02   2.325362230266588E-02   2.354611686394417E-02
   2.384229055388741E-02   2.414218965023721E-02   2.444586101283752E-02
   2.475335209095659E-02   2.506471093070094E-02   2.537998618252277E-02
   2.569922710882160E-02   2.602248359164167E-02   2.634980614046610E-02
   2.668124590010905E-02   2.701685465870733E-02   2.735668485581223E-02
   2.770078959058348E-02   2.804922263008595E-02   2.840203841769094E-02
   2.875929208158311E-02   2.912103944337424E-02   2.948733702682563E-02
   2.985824206667992E-02   3.023381251760417E-02   3.061410706324549E-02
   3.099918512540031E-02   3.138910687329931E-02   3.178393323300891E-02
   3.218372589695106E-02   3.258854733354292E-02   3.299846079695756E-02
   3.341353033700761E-02   3.383382080915318E-02   3.425939788463562E-02
   3.469032806073882E-02   3.512667867117954E-02   3.556851789662840E-02
   3.601591477536333E-02   3.646893921405685E-02   3.692766199869921E-02
   3.739215480565877E-02   3.786249021288165E-02   3.833874171123212E-02
   3.882098371597575E-02   3.930929157840692E-02   3.980374159762257E-02
   4.030441103244420E-02   4.081137811348961E-02   4.132472205539664E-02
   4.184452306920064E-02   4.237086237486754E-02   4.290382221398469E-02
   4.344348586261129E-02   4.398993764429039E-02   4.454326294322462E-02
   4.510354821761771E-02   4.567088101318367E-02   4.624534997682608E-02
   4.682704487048928E-02   4.741605658518383E-02   4.801247715518854E-02
   4.861639977243089E-02   4.922791880104852E-02   4.984712979213381E-02
   5.047412949866387E-02   5.110901589061852E-02   5.175188817028817E-02
   5.240284678777447E-02   5.306199345668579E-02   5.372943117003016E-02
   5.440526421630824E-02   5.508959819580848E-02   5.578254003710747E-02
   5.648419801377774E-02   5.719468176130563E-02   5.791410229422222E-02
   5.864257202344943E-02   5.938020477386455E-02   6.012711580208556E-02
   6.088342181448020E-02   6.164924098540164E-02   6.242469297565340E-02
   6.320989895118663E-02   6.400498160203254E-02   6.481006516147290E-02
   6.562527542545184E-02   6.645073977223166E-02   6.728658718229598E-02
   6.813294825850318E-02   6.898995524649330E-02   6.985774205535185E-02
   7.073644427853323E-02   7.162619921504754E-02   7.252714589091386E-02
   7.343942508088323E-02   7.436317933043517E-02   7.529855297805055E-02
   7.624569217776483E-02   7.720474492200499E-02   7.817586106471347E-02
   7.915919234476333E-02   8.015489240966768E-02   8.116311683958745E-02
   8.218402317164106E-02   8.321777092451992E-02   8.426452162341361E-02
   8.532443882524844E-02   8.639768814424365E-02   8.748443727778887E-02
   8.858485603264721E-02   8.969911635148793E-02   9.082739233975284E-02
   9.196986029286061E-02   9.312669872375327E-02   9.429808839078926E-02
   9.548421232598726E-02   9.668525586362534E-02   9.790140666919978E-02
   9.913285476874825E-02   1.003797925785417E-01   1.016424149351498E-01
   1.029209191258846E-01   1.042155049196271E-01   1.055263745980414E-01
   1.068537329871817E-01   1.081977874894968E-01   1.095587481162374E-01
   1.109368275202700E-01   1.123322410293054E-01   1.137452066795434E-01
   1.151759452497415E-01   1.166246802957121E-01   1.180916381852537E-01
   1.195770481335211E-01   1.210811422388407E-01   1.226041555189766E-01
   1.241463259478524E-01   1.257078944927353E-01   1.272891051518873E-01
   1.288902049926911E-01   1.305114441902540E-01   1.321530760664994E-01
   1.338153571297476E-01   1.354985471147968E-01   1.372029090235067E-01
   1.389287091658929E-01   1.406762172017390E-01   1.424457061827308E-01
   1.442374525951217E-01   1.460517364029340E-01   1.478888410917038E-01
   1.497490537127764E-01   1.516326649281584E-01   1.535399690559345E-01
   1.554712641162551E-01   1.574268518779026E-01   1.594070379054434E-01
   1.614121316069731E-01   1.634424462824619E-01   1.654982991727086E-01
   1.675800115089099E-01   1.696879085628537E-01   1.718223196977431E-01
   1.739835784196606E-01   1.761720224296784E-01   1.783879936766257E-01
   1.806318384105181E-01   1.829039072366605E-01   1.852045551704296E-01
   1.875341416927455E-01   1.898930308062422E-01   1.922815910921427E-01
   1.947001957678513E-01   1.971492227452692E-01   1.996290546898443E-01
   2.021400790803632E-01   2.046826882694955E-01   2.072572795451002E-01
   2.098642551923019E-01   2.125040225563496E-01   2.151769941062645E-01
   2.178835874992895E-01   2.206242256461489E-01   2.233993367771290E-01
   2.262093545089900E-01   2.290547179127195E-01   2.319358715821383E-01
   2.348532657033690E-01   2.378073561251786E-01   2.407986044302055E-01
   2.438274780070833E-01   2.468944501234704E-01   2.500000000000001E-01
   2.531446128851587E-01   2.563287801311073E-01   2.595529992704564E-01
   2.628177740940061E-01   2.661236147294649E-01   2.694710377211580E-01
   2.728605661107381E-01   2.762927295189120E-01   2.797680642281952E-01
   2.832871132667067E-01   2.868504264930182E-01   2.904585606820709E-01
   2.941120796121727E-01   2.978115541530896E-01   3.015575623552453E-01
   3.053506895400426E-01   3.091915283913213E-01   3.130806790479662E-01
   3.170187491976800E-01   3.210063541719355E-01   3.250441170421229E-01
   3.291326687169056E-01   3.332726480408008E-01   3.374647018940009E-01
   3.417094852934492E-01   3.460076614951880E-01   3.503599020979934E-01
   3.547668871483144E-01   3.592293052465312E-01   3.637478536545505E-01
   3.683232384047540E-01   3.729561744103178E-01   3.776473855769183E-01
   3.823976049158448E-01   3.872075746585334E-01   3.920780463725423E-01
   3.970097810789860E-01   4.020035493714459E-01   4.070601315363777E-01
   4.121803176750322E-01   4.173649078269109E-01   4.226147120947730E-01
   4.279305507712163E-01   4.333132544668490E-01   4.387636642400748E-01
   4.442826317285098E-01   4.498710192820524E-01   4.555297000976274E-01
   4.612595583556252E-01   4.670614893580558E-01   4.729363996684426E-01
   4.788852072534742E-01   4.849088416264387E-01   4.910082439924620E-01
   4.971843673955732E-01   5.034381768676194E-01   5.097706495790540E-01
   5.161827749916218E-01   5.226755550129641E-01   5.292500041531689E-01
   5.359071496832900E-01   5.426480317958609E-01   5.494737037674257E-01
   5.563852321231172E-01   5.633836968033024E-01   5.704701913323261E-01
   5.776458229893763E-01   5.849117129814980E-01   5.922689966187853E-01
   5.997188234917747E-01   6.072623576510723E-01   6.149007777892377E-01
   6.226352774249579E-01   6.304670650895373E-01   6.383973645157320E-01
   6.464274148289618E-01   6.545584707409255E-01   6.627918027456520E-01
   6.711286973180178E-01   6.795704571147616E-01   6.881184011780264E-01
   6.967738651414629E-01   7.055382014389254E-01   7.144127795157913E-01
   7.233989860429405E-01   7.324982251334257E-01   7.417119185618671E-01
   7.510415059866087E-01   7.604884451746663E-01   7.700542122295082E-01
   7.797403018216984E-01   7.895482274224422E-01   7.994795215400693E-01
   8.095357359594906E-01   8.197184419846688E-01   8.300292306841373E-01
   8.404697131396076E-01   8.510415206977052E-01   8.617463052248691E-01
   8.725857393654607E-01   8.835615168031178E-01   8.946753525253951E-01
   9.059289830917360E-01   9.173241669048116E-01   9.288626844852764E-01
   9.405463387499780E-01   9.523769552936656E-01   9.643563826742441E-01
   9.764864927016135E-01   9.887691807301447E-01   1.001206365954832E+00
   1.013799991711169E+00   1.026552025778804E+00   1.039464460689002E+00
   1.052539314035991E+00   1.065778628792205E+00   1.079184473627512E+00
   1.092758943232440E+00   1.106504158645484E+00   1.120422267584517E+00
   1.134515444782376E+00   1.148785892326673E+00   1.163235840003868E+00
   1.177867545647686E+00   1.192683295491901E+00   1.207685404527570E+00
   1.222876216864752E+00   1.238258106098779E+00   1.253833475681140E+00
   1.269604759295021E+00   1.285574421235572E+00   1.301744956794963E+00
   1.318118892652274E+00   1.334698787268295E+00   1.351487231285292E+00
   1.368486847931800E+00   1.385700293432506E+00   1.403130257423290E+00
   1.420779463371487E+00   1.438650669001433E+00   1.456746666725369E+00
   1.475070284079755E+00   1.493624384167082E+00   1.512411866103237E+00
   1.531435665470497E+00   1.550698754776217E+00   1.570204143917292E+00
   1.589954880650459E+00   1.609954051068516E+00   1.630204780082529E+00
   1.650710231910107E+00   1.671473610569818E+00   1.692498160381820E+00
   1.713787166474795E+00   1.735343955299260E+00   1.757171895147324E+00
   1.779274396679000E+00   1.801654913455118E+00   1.824316942476959E+00
   1.847264024732663E+00   1.870499745750521E+00   1.894027736159212E+00
   1.917851672255108E+00   1.941975276576694E+00   1.966402318486224E+00
   1.991136614758694E+00   2.016182030178219E+00   2.041542478141914E+00
   2.067221921271369E+00   2.093224372031817E+00   2.119553893359094E+00
   2.146214599294474E+00   2.173210655627502E+00   2.200546280546903E+00
   2.228225745299685E+00   2.256253374858532E+00   2.284633548597582E+00
   2.313370700976725E+00   2.342469322234484E+00   2.371933959089632E+00
   2.401769215451627E+00   2.431979753139972E+00   2.462570292612647E+00
   2.493545613703682E+00   2.524910556370014E+00   2.556670021447751E+00
   2.588828971417924E+00   2.621392431181895E+00   2.654365488846503E+00
   2.687753296519090E+00   2.721561071112536E+00   2.755794095160401E+00
   2.790457717642343E+00   2.825557354819897E+00   2.861098491082782E+00
   2.897086679805849E+00   2.933527544216803E+00   2.970426778274851E+00
   3.007790147560385E+00   3.045623490175870E+00   3.083932717658065E+00
   3.122723815901703E+00   3.162002846094808E+00   3.201775945665760E+00
   3.242049329242285E+00   3.282829289622506E+00   3.324122198758197E+00
   3.365934508750424E+00   3.408272752857691E+00   3.451143546516775E+00
   3.494553588376410E+00   3.538509661343952E+00   3.583018633645234E+00
   3.628087459897731E+00   3.673723182197237E+00   3.719932931218211E+00
   3.766723927327948E+00   3.814103481714791E+00   3.862078997530507E+00
   3.910657971047045E+00   3.959847992827856E+00   4.009656748913919E+00
   4.060092022024711E+00   4.111161692774266E+00   4.162873740902538E+00
   4.215236246522260E+00   4.268257391381465E+00   4.321945460141912E+00
   4.376308841673572E+00   4.431356030365412E+00   4.487095627452662E+00
   4.543536342360767E+00   4.600686994066264E+00   4.658556512474754E+00
   4.717153939816223E+00   4.776488432057914E+00   4.836569260334954E+00
   4.897405812399001E+00   4.959007594085083E+00   5.021384230796919E+00
   5.084545469010905E+00   5.148501177799009E+00   5.213261350370854E+00
   5.278836105635157E+00   5.345235689780838E+00   5.412470477878017E+00
   5.480550975499118E+00   5.549487820360412E+00   5.619291783984156E+00
   5.689973773381684E+00   5.761544832757648E+00   5.834016145235680E+00
   5.907399034605807E+00   5.981704967093788E+00   6.056945553152747E+00
   6.133132549277341E+00   6.210277859840712E+00   6.288393538954594E+00
   6.367491792352774E+00   6.447584979298268E+00   6.528685614514495E+00
   6.610806370140700E+00   6.693960077712034E+00   6.778159730164477E+00
   6.863418483865028E+00   6.949749660667420E+00   7.037166749993664E+00
   7.125683410941823E+00   7.215313474420259E+00   7.306070945308738E+00
   7.397970004646742E+00   7.491025011849256E+00   7.585250506950484E+00
   7.680661212875734E+00   7.777272037741919E+00   7.875098077186988E+00
   7.974154616728629E+00   8.074457134152674E+00   8.176021301931543E+00
   8.278862989673081E+00   8.382998266600238E+00   8.488443404061892E+00
   8.595214878075300E+00   8.703329371900512E+00   8.812803778647140E+00
   8.923655203913974E+00   9.035900968461737E+00   9.149558610919502E+00
   9.264645890525149E+00   9.381180789900254E+00   9.499181517859945E+00
   9.618666512258038E+00   9.739654442867996E+00   9.862164214300138E+00
   9.986214968955489E+00   1.011182609001685E+01   1.023901720447746E+01
   1.036780818620769E+01   1.049821915906050E+01   1.063027050001570E+01
   1.076398284236399E+01   1.089937707893088E+01   1.103647436534131E+01
   1.117529612332521E+01   1.131586404406470E+01   1.145820009158337E+01
   1.160232650617825E+01   1.174826580789483E+01   1.189604080004593E+01
   1.204567457277471E+01   1.219719050666261E+01   1.235061227638255E+01
   1.250596385439819E+01   1.266326951470967E+01   1.282255383664643E+01
   1.298384170870787E+01   1.314715833245212E+01   1.331252922643391E+01
   1.347998023019189E+01   1.364953750828607E+01   1.382122755438611E+01
   1.399507719541104E+01   1.417111359572096E+01   1.434936426136156E+01
   1.452985704436201E+01   1.471262014708685E+01   1.489768212664275E+01
   1.508507189934050E+01   1.527481874521334E+01   1.546695231259199E+01
   1.566150262273722E+01   1.585850007453084E+01   1.605797544922547E+01
   1.625995991525425E+01   1.646448503310094E+01   1.667158276023130E+01
   1.688128545608654E+01   1.709362588713954E+01   1.730863723201466E+01
   1.752635308667198E+01   1.774680746965673E+01   1.797003482741477E+01
   1.819607003967492E+01   1.842494842489896E+01   1.865670574580025E+01
   1.889137821493167E+01   1.912900250034397E+01   1.936961573131522E+01
   1.961325550415229E+01   1.985995988806535E+01   2.010976743111633E+01
   2.036271716624204E+01   2.061884861735326E+01   2.087820180551032E+01
   2.114081725517652E+01   2.140673600055016E+01   2.167599959197623E+01
   2.194865010243871E+01   2.222473013413458E+01   2.250428282513047E+01
   2.278735185610311E+01   2.307398145716447E+01   2.336421641477292E+01
   2.365810207873104E+01   2.395568436927174E+01   2.425700978423336E+01
   2.456212540632502E+01   2.487107891048347E+01   2.518391857132228E+01
   2.550069327067494E+01   2.582145250523271E+01   2.614624639427856E+01
   2.647512568751848E+01   2.680814177301114E+01   2.714534668519742E+01
   2.748679311303090E+01   2.783253440821059E+01   2.818262459351731E+01
   2.853711837125476E+01   2.889607113179694E+01   2.925953896224298E+01
   2.962757865518083E+01   3.000024771756136E+01   3.037760437968374E+01
   3.075970760429416E+01   3.114661709579886E+01   3.153839330959304E+01
   3.193509746150723E+01   3.233679153737224E+01   3.274353830270468E+01
   3.315540131251417E+01   3.357244492123388E+01   3.399473429277624E+01
   3.442233541071468E+01   3.485531508859383E+01   3.529374098036925E+01
   3.573768159097850E+01   3.618720628704525E+01   3.664238530771780E+01
   3.710328977564419E+01   3.756999170808525E+01   3.804256402816740E+01
   3.852108057627719E+01   3.900561612159878E+01   3.949624637379690E+01
   3.999304799484667E+01   4.049609861101209E+01   4.100547682497546E+01
   4.152126222811903E+01   4.204353541296140E+01   4.257237798575029E+01
   4.310787257921358E+01   4.365010286547108E+01   4.419915356910811E+01
   4.475511048041421E+01   4.531806046878784E+01   4.588809149631000E+01
   4.646529263148854E+01   4.704975406317512E+01   4.764156711465754E+01
   4.824082425792915E+01   4.884761912813774E+01   4.946204653821639E+01
   5.008420249369796E+01   5.071418420771627E+01   5.135209011619584E+01
   5.199801989323266E+01   5.265207446666864E+01   5.331435603386151E+01
   5.398496807765358E+01   5.466401538254105E+01   5.535160405104679E+01
   5.604784152029927E+01   5.675283657881953E+01   5.746669938351976E+01
   5.818954147691557E+01   5.892147580455465E+01   5.966261673266492E+01
   6.041308006602419E+01   6.117298306605515E+01   6.194244446914758E+01
   6.272158450521115E+01   6.351052491646176E+01   6.430938897644374E+01
   6.511830150929175E+01   6.593738890923481E+01   6.676677916034554E+01
   6.760660185653819E+01   6.845698822181764E+01   6.931807113078355E+01
   7.018998512939238E+01   7.107286645598023E+01   7.196685306255077E+01
   7.287208463633004E+01   7.378870262159313E+01   7.471685024176514E+01
   7.565667252179996E+01   7.660831631084108E+01   7.757193030516660E+01
   7.854766507142362E+01   7.953567307015452E+01   8.053610867961913E+01
   8.154912821991701E+01   8.257488997741223E+01   8.361355422946633E+01
   8.466528326948189E+01   8.573024143226110E+01   8.680859511968369E+01
   8.790051282670720E+01   8.900616516769486E+01   9.012572490307443E+01
   9.125936696633222E+01   9.240726849134722E+01   9.356960884006804E+01
   9.474656963053897E+01   9.593833476527806E+01   9.714509046001220E+01
   9.836702527277403E+01   9.960433013336399E+01   1.008571983731839E+02
    </PP_R>
    <PP_RAB>
   2.849631142357863E-06   2.885475089590695E-06   2.921769898176819E-06
   2.958521239253919E-06   2.995734855293812E-06   3.033416560999715E-06
   3.071572244214808E-06   3.110207866842223E-06   3.149329465776596E-06
   3.188943153847358E-06   3.229055120773866E-06   3.269671634132558E-06
   3.310799040336282E-06   3.352443765625928E-06   3.394612317074556E-06
   3.437311283604120E-06   3.480547337015010E-06   3.524327233028539E-06
   3.568657812342524E-06   3.613546001700181E-06   3.658998814972420E-06
   3.705023354253790E-06   3.751626810972190E-06   3.798816467012546E-06
   3.846599695854628E-06   3.894983963725155E-06   3.943976830764421E-06
   3.993585952207576E-06   4.043819079580775E-06   4.094684061912375E-06
   4.146188846959348E-06   4.198341482449146E-06   4.251150117337169E-06
   4.304623003080054E-06   4.358768494924996E-06   4.413595053215255E-06
   4.469111244712108E-06   4.525325743933424E-06   4.582247334509073E-06
   4.639884910553397E-06   4.698247478054914E-06   4.757344156283536E-06
   4.817184179215470E-06   4.877776896976039E-06   4.939131777300678E-06
   5.001258407014263E-06   5.064166493529084E-06   5.127865866361644E-06
   5.192366478668544E-06   5.257678408801691E-06   5.323811861883044E-06
   5.390777171399195E-06   5.458584800815999E-06   5.527245345213502E-06
   5.596769532941468E-06   5.667168227295673E-06   5.738452428215335E-06
   5.810633274001879E-06   5.883722043059305E-06   5.957730155656489E-06
   6.032669175711592E-06   6.108550812598960E-06   6.185386922978740E-06
   6.263189512649498E-06   6.341970738424169E-06   6.421742910029560E-06
   6.502518492029780E-06   6.584310105773857E-06   6.667130531367838E-06
   6.750992709671733E-06   6.835909744321517E-06   6.921894903776615E-06
   7.008961623393135E-06   7.097123507523147E-06   7.186394331640426E-06
   7.276788044492856E-06   7.368318770281978E-06   7.461000810869918E-06
   7.554848648014074E-06   7.649876945629948E-06   7.746100552082370E-06
   7.843534502505621E-06   7.942194021152683E-06   8.042094523774062E-06
   8.143251620026557E-06   8.245681115912255E-06   8.349399016248283E-06
   8.454421527167584E-06   8.560765058651152E-06   8.668446227092153E-06