<UPF version="2.0.1">
  <PP_INFO>
    Generated using "atomic" code by A. Dal Corso  v.7.2
    Author: ADC
    Generation date:  9Jun2023
    Pseudopotential type: USPP
    Element: Ca
    Functional: REVPBE
    Suggested minimum cutoff for wavefunctions:  45. Ry
    Suggested minimum cutoff for charge density: 274. Ry
    The Pseudo was generated with a Fully-Relativistic Calculation
    Local Potential by smoothing AE potential with Bessel fncs, cutoff radius:   1.5000
    Pseudopotential contains additional information for spin-orbit calculations.
    Valence configuration: 
    nl pn  l   occ       Rcut    Rcut US       E pseu
    3S  1  0  2.00      1.200      1.300    -3.466121
    4S  2  0  2.00      1.200      1.300    -0.274636
    3P  2  1  2.00      1.400      1.600    -2.079151
    3P  2  1  4.00      1.400      1.600    -2.051059
    4P  3  1  0.00      1.400      1.600    -0.104300
    4P  3  1  0.00      1.400      1.600    -0.103084
    Generation configuration:
    3S  1  0  2.00      1.200      1.300    -3.466119
    4S  2  0  2.00      1.200      1.300    -0.274640
    3P  2  1  2.00      1.400      1.600    -2.079153
    3P  2  1  4.00      1.400      1.600    -2.051057
    4P  3  1  0.00      1.400      1.600    -0.104303
    4P  3  1  0.00      1.400      1.600    -0.103085
    3D  3  2  0.00      1.200      1.700     0.050000
    3D  3  2  0.00      1.200      1.700     0.050000
    3D  3  2  0.00      1.200      1.700     1.000000
    3D  3  2  0.00      1.200      1.700     1.000000
    Pseudization used: troullier-martins
    <PP_INPUTFILE>
@input
title='Ca',
zed=20.,
rel=2,
config='[Ar] 4s2 4p0 3d-1',
iswitch=3,
dft='REVPBE'
/
@inputp
lpaw=.false.,
pseudotype=3,
file_pseudopw='Ca.rel-revpbe-spn-rrkjus_psl.1.0.0.UPF',
author='ADC',
lloc=-1,
rcloc=1.5,
which_augfun='PSQ',
rmatch_augfun_nc=.true.,
nlcc=.true.,
new_core_ps=.true.,
rcore=1.0,
tm=.true.
/
6
3S  1  0  2.00  0.00  1.20  1.30  0.0
4S  2  0  2.00  0.00  1.20  1.30  0.0
3P  2  1  6.00  0.00  1.40  1.60  0.0
4P  3  1  0.00  0.00  1.40  1.60  0.0
3D  3  2  0.00  0.05  1.20  1.70  0.0
3D  3  2  0.00  1.00  1.20  1.70  0.0
    </PP_INPUTFILE>
  </PP_INFO>
    <!-- END OF HUMAN READABLE SECTION -->
  <PP_HEADER generated="Generated using 'atomic' code by A. Dal Corso  v.7.2" author="ADC" date=" 9Jun2023" comment="" element="Ca" pseudo_type="USPP" relativistic="full" is_ultrasoft="true" is_paw="false" is_coulomb="false" has_so="true" has_wfc="false" has_gipaw="false" paw_as_gipaw="false" core_correction="true" functional="REVPBE" z_valence="10.0000000000000" total_psenergy="-74.9527218678730" wfc_cutoff="45.4137229439976" rho_cutoff="274.166175853452" l_max="2" l_max_rho="4" l_local="-1" mesh_size="1169" number_of_wfc="6" number_of_proj="10"/>
  <PP_MESH mesh="1169" dx="1.250000000000000E-002" xmin="-7.00000000000000" rmax="100.000000000000" zmesh="20.0000000000000">
    <PP_R>
   4.559409827772581E-05   4.616760143345111E-05   4.674831837082911E-05
   4.733633982806270E-05   4.793175768470099E-05   4.853466497599544E-05
   4.914515590743694E-05   4.976332586947557E-05   5.038927145242552E-05
   5.102309046155773E-05   5.166488193238185E-05   5.231474614612092E-05
   5.297278464538051E-05   5.363910025001484E-05   5.431379707319290E-05
   5.499698053766591E-05   5.568875739224017E-05   5.638923572845662E-05
   5.709852499748037E-05   5.781673602720289E-05   5.854398103955872E-05
   5.928037366806064E-05   6.002602897555504E-05   6.078106347220073E-05
   6.154559513367405E-05   6.231974341960247E-05   6.310362929223072E-05
   6.389737523532122E-05   6.470110527329241E-05   6.551494499059800E-05
   6.633902155134958E-05   6.717346371918634E-05   6.801840187739470E-05
   6.887396804928085E-05   6.974029591879994E-05   7.061752085144408E-05
   7.150577991539372E-05   7.240521190293478E-05   7.331595735214515E-05
   7.423815856885434E-05   7.517195964887862E-05   7.611750650053658E-05
   7.707494686744751E-05   7.804443035161661E-05   7.902610843681085E-05
   8.002013451222822E-05   8.102666389646533E-05   8.204585386178631E-05
   8.307786365869670E-05   8.412285454082706E-05   8.518098979012870E-05
   8.625243474238712E-05   8.733735681305598E-05   8.843592552341603E-05
   8.954831252706349E-05   9.067469163673076E-05   9.181523885144535E-05
   9.297013238403005E-05   9.413955268894886E-05   9.532368249050383E-05
   9.652270681138547E-05   9.773681300158336E-05   9.896619076765983E-05
   1.002110322023920E-04   1.014715318147867E-04   1.027478865604729E-04
   1.040402958724765E-04   1.053489616923817E-04   1.066740885018854E-04
   1.080158833547477E-04   1.093745559091443E-04   1.107503184604258E-04
   1.121433859742902E-04   1.135539761203703E-04   1.149823093062468E-04
   1.164286087118857E-04   1.178931003245116E-04   1.193760129739187E-04
   1.208775783682252E-04   1.223980311300792E-04   1.239376088333179E-04
   1.254965520400899E-04   1.270751043384429E-04   1.286735123803850E-04
   1.302920259204249E-04   1.319308978545961E-04   1.335903842599725E-04
   1.352707444346813E-04   1.369722409384184E-04   1.386951396334744E-04
   1.404397097262756E-04   1.422062238094484E-04   1.439949579044121E-04
   1.458061915045084E-04   1.476402076186723E-04   1.494972928156530E-04
   1.513777372687908E-04   1.532818348013571E-04   1.552098829324654E-04
   1.571621829235590E-04   1.591390398254833E-04   1.611407625261513E-04
   1.631676637988074E-04   1.652200603508991E-04   1.672982728735636E-04
   1.694026260917356E-04   1.715334488148867E-04   1.736910739884027E-04
   1.758758387456064E-04   1.780880844604365E-04   1.803281568007865E-04
   1.825964057825172E-04   1.848931858241466E-04   1.872188558022290E-04
   1.895737791074304E-04   1.919583237013082E-04   1.943728621738065E-04
   1.968177718014742E-04   1.992934346064145E-04   2.018002374159779E-04
   2.043385719232033E-04   2.069088347480218E-04   2.095114274992290E-04
   2.121467568372370E-04   2.148152345376170E-04   2.175172775554385E-04
   2.202533080904203E-04   2.230237536529001E-04   2.258290471306333E-04
   2.286696268564337E-04   2.315459366766623E-04   2.344584260205805E-04
   2.374075499705739E-04   2.403937693332595E-04   2.434175507114882E-04
   2.464793665772526E-04   2.495796953455109E-04   2.527190214489407E-04
   2.558978354136328E-04   2.591166339357363E-04   2.623759199590692E-04
   2.656762027537038E-04   2.690179979955410E-04   2.724018278468864E-04
   2.758282210380386E-04   2.792977129499050E-04   2.828108456976554E-04
   2.863681682154293E-04   2.899702363421073E-04   2.936176129081626E-04
   2.973108678236047E-04   3.010505781670280E-04   3.048373282757819E-04
   3.086717098372754E-04   3.125543219814281E-04   3.164857713742873E-04
   3.204666723128192E-04   3.244976468208944E-04   3.285793247464810E-04
   3.327123438600587E-04   3.368973499542734E-04   3.411349969448413E-04
   3.454259469727266E-04   3.497708705076009E-04   3.541704464526059E-04
   3.586253622504349E-04   3.631363139907446E-04   3.677040065189218E-04
   3.723291535462172E-04   3.770124777612635E-04   3.817547109429981E-04
   3.865565940750035E-04   3.914188774612887E-04   3.963423208435251E-04
   4.013276935197577E-04   4.063757744646106E-04   4.114873524510015E-04
   4.166632261733905E-04   4.219042043725769E-04   4.272111059620670E-04
   4.325847601560317E-04   4.380260065988714E-04   4.435356954964129E-04
   4.491146877487562E-04   4.547638550847908E-04   4.604840801984070E-04
   4.662762568864163E-04   4.721412901882106E-04   4.780800965271757E-04
   4.840936038538842E-04   4.901827517910914E-04   4.963484917805506E-04
   5.025917872316793E-04   5.089136136720939E-04   5.153149589000371E-04
   5.217968231387252E-04   5.283602191926328E-04   5.350061726057464E-04
   5.417357218218081E-04   5.485499183465739E-04   5.554498269121153E-04
   5.624365256431832E-04   5.695111062256689E-04   5.766746740771816E-04
   5.839283485197721E-04   5.912732629548309E-04   5.987105650401811E-04
   6.062414168694050E-04   6.138669951534224E-04   6.215884914043541E-04
   6.294071121217000E-04   6.373240789808534E-04   6.453406290239936E-04
   6.534580148533746E-04   6.616775048270464E-04   6.700003832570414E-04
   6.784279506100467E-04   6.869615237106071E-04   6.956024359468816E-04
   7.043520374789862E-04   7.132116954499628E-04   7.221827941993940E-04
   7.312667354797112E-04   7.404649386752207E-04   7.497788410238852E-04
   7.592098978418972E-04   7.687595827510716E-04   7.784293879091045E-04
   7.882208242427250E-04   7.981354216837804E-04   8.081747294082937E-04
   8.183403160785214E-04   8.286337700880627E-04   8.390566998100486E-04
   8.496107338484534E-04   8.602975212925691E-04   8.711187319746757E-04
   8.820760567309581E-04   8.931712076657026E-04   9.044059184188149E-04
   9.157819444367089E-04   9.273010632465942E-04   9.389650747342205E-04
   9.507758014251127E-04   9.627350887693465E-04   9.748448054298997E-04
   9.871068435746391E-04   9.995231191719715E-04   1.012095572290220E-03
   1.024826167400763E-03   1.037716893684987E-03   1.050769765345102E-03
   1.063986821918859E-03   1.077370128598239E-03   1.090921776552139E-03
   1.104643883253122E-03   1.118538592808280E-03   1.132608076294248E-03
   1.146854532096446E-03   1.161280186252579E-03   1.175887292800455E-03
   1.190678134130194E-03   1.205655021340844E-03   1.220820294601502E-03
   1.236176323516970E-03   1.251725507498007E-03   1.267470276136247E-03
   1.283413089583822E-03   1.299556438937767E-03   1.315902846629266E-03
   1.332454866817774E-03   1.349215085790124E-03   1.366186122364629E-03
   1.383370628300279E-03   1.400771288711091E-03   1.418390822485655E-03
   1.436231982711972E-03   1.454297557107624E-03   1.472590368455364E-03
   1.491113275044185E-03   1.509869171115925E-03   1.528860987317505E-03
   1.548091691158845E-03   1.567564287476544E-03   1.587281818903398E-03
   1.607247366343803E-03   1.627464049455172E-03   1.647935027135368E-03
   1.668663498016304E-03   1.689652700963728E-03   1.710905915583302E-03
   1.732426462733051E-03   1.754217705042252E-03   1.776283047436848E-03
   1.798625937671483E-03   1.821249866868212E-03   1.844158370062001E-03
   1.867355026753081E-03   1.890843461466254E-03   1.914627344317233E-03
   1.938710391586101E-03   1.963096366297991E-03   1.987789078811066E-03
   2.012792387411893E-03   2.038110198918311E-03   2.063746469289877E-03
   2.089705204245996E-03   2.115990459891816E-03   2.142606343352009E-03
   2.169557013412519E-03   2.196846681170371E-03   2.224479610691676E-03
   2.252460119677891E-03   2.280792580140470E-03   2.309481419084006E-03
   2.338531119197949E-03   2.367946219557046E-03   2.397731316330574E-03
   2.427891063500499E-03   2.458430173588679E-03   2.489353418393197E-03
   2.520665629733969E-03   2.552371700207721E-03   2.584476583952469E-03
   2.616985297421620E-03   2.649902920167791E-03   2.683234595636507E-03
   2.716985531969875E-03   2.751161002820361E-03   2.785766348174821E-03
   2.820806975188868E-03   2.856288359031765E-03   2.892216043741924E-03
   2.928595643093176E-03   2.965432841471937E-03   3.002733394765399E-03
   3.040503131260899E-03   3.078747952556612E-03   3.117473834483671E-03
   3.156686828039920E-03   3.196393060335380E-03   3.236598735549628E-03
   3.277310135901218E-03   3.318533622629280E-03   3.360275636987489E-03
   3.402542701250511E-03   3.445341419733129E-03   3.488678479822183E-03
   3.532560653021480E-03   3.576994796009863E-03   3.621987851712575E-03
   3.667546850386107E-03   3.713678910716695E-03   3.760391240932620E-03
   3.807691139930518E-03   3.855585998415837E-03   3.904083300057658E-03
   3.953190622658034E-03   4.002915639336027E-03   4.053266119726664E-03
   4.104249931194941E-03   4.155875040065128E-03   4.208149512865520E-03
   4.261081517588841E-03   4.314679324968527E-03   4.368951309771022E-03
   4.423905952104366E-03   4.479551838743235E-03   4.535897664470626E-03
   4.592952233436446E-03   4.650724460533177E-03   4.709223372788835E-03
   4.768458110777482E-03   4.828437930047441E-03   4.889172202567504E-03
   4.950670418191317E-03   5.012942186140188E-03   5.075997236504554E-03
   5.139845421764320E-03   5.204496718328335E-03   5.269961228093220E-03
   5.336249180021810E-03   5.403370931741465E-03   5.471336971162447E-03
   5.540157918116696E-03   5.609844526017189E-03   5.680407683538188E-03
   5.751858416316621E-03   5.824207888674849E-03   5.897467405365126E-03
   5.971648413335984E-03   6.046762503520835E-03   6.122821412649098E-03
   6.199837025080061E-03   6.277821374659863E-03   6.356786646601782E-03
   6.436745179390212E-03   6.517709466708585E-03   6.599692159391511E-03
   6.682706067401523E-03   6.766764161830636E-03   6.851879576927124E-03
   6.938065612147765E-03   7.025335734235907E-03   7.113703579325681E-03
   7.203182955072665E-03   7.293787842811371E-03   7.385532399739843E-03
   7.478430961131754E-03   7.572498042576330E-03   7.667748342246425E-03
   7.764196743195151E-03   7.861858315681383E-03   7.960748319524515E-03
   8.060882206488840E-03   8.162275622697921E-03   8.264944411079328E-03
   8.368904613840128E-03   8.474172474973507E-03   8.580764442796939E-03
   8.688697172522259E-03   8.797987528858079E-03   8.908652588644924E-03
   9.020709643523542E-03   9.134176202636735E-03   9.249069995365216E-03
   9.365408974097855E-03   9.483211317036767E-03   9.602495431037708E-03
   9.723279954486179E-03   9.845583760209704E-03   9.969425958426762E-03
   1.009482589973277E-02   1.022180317812370E-02   1.035037763405763E-02
   1.048056935755489E-02   1.061239869133716E-02   1.074588623400603E-02
   1.088105284326165E-02   1.101791963916170E-02   1.115650800742149E-02
   1.129683960275555E-02   1.143893635226113E-02   1.158282045884444E-02
   1.172851440468988E-02   1.187604095477291E-02   1.202542316041711E-02
   1.217668436289604E-02   1.232984819708033E-02   1.248493859513068E-02
   1.264197979023733E-02   1.280099632040651E-02   1.296201303229458E-02
   1.312505508509037E-02   1.329014795444633E-02   1.345731743645920E-02
   1.362658965170064E-02   1.379799104929866E-02   1.397154841107037E-02
   1.414728885570665E-02   1.432523984300951E-02   1.450542917818277E-02
   1.468788501617665E-02   1.487263586608703E-02   1.505971059561011E-02
   1.524913843555297E-02   1.544094898440100E-02   1.563517221294269E-02
   1.583183846895267E-02   1.603097848193354E-02   1.623262336791749E-02
   1.643680463432821E-02   1.664355418490398E-02   1.685290432468272E-02
   1.706488776504969E-02   1.727953762884873E-02   1.749688745555777E-02
   1.771697120652944E-02   1.793982327029759E-02   1.816547846795057E-02
   1.839397205857212E-02   1.862533974475065E-02   1.885961767815785E-02
   1.909684246519745E-02   1.933705117272507E-02   1.958028133383995E-02
   1.982657095374965E-02   2.007595851570834E-02   2.032848298702996E-02
   2.058418382517693E-02   2.084310098392543E-02   2.110527491960828E-02
   2.137074659743634E-02   2.163955749789937E-02   2.191174962324747E-02
   2.218736550405400E-02   2.246644820586109E-02   2.274904133590868E-02
   2.303518904994830E-02   2.332493605914242E-02   2.361832763705074E-02
   2.391540962670421E-02   2.421622844776813E-02   2.452083110379532E-02
   2.482926518957048E-02   2.514157889854706E-02   2.545782103037747E-02
   2.577804099853822E-02   2.610228883805081E-02   2.643061521329988E-02
   2.676307142594952E-02   2.709970942295937E-02   2.744058180470133E-02
   2.778574183317858E-02   2.813524344034780E-02   2.848914123654616E-02
   2.884749051902434E-02   2.921034728058680E-02   2.957776821834076E-02
   2.994981074255528E-02   3.032653298563168E-02   3.070799381118690E-02
   3.109425282325102E-02   3.148537037558051E-02   3.188140758108868E-02
   3.228242632139462E-02   3.268848925649238E-02   3.309965983454171E-02
   3.351600230178198E-02   3.393758171257073E-02   3.436446393954862E-02
   3.479671568393211E-02   3.523440448593568E-02   3.567759873532514E-02
   3.612636768210362E-02   3.658078144733211E-02   3.704091103408591E-02
   3.750682833854910E-02   3.797860616124844E-02   3.845631821842854E-02
   3.894003915357026E-02   3.942984454905384E-02   3.992581093796887E-02
   4.042801581607264E-02   4.093653765389911E-02   4.145145590902004E-02
   4.197285103846039E-02   4.250080451126993E-02   4.303539882125291E-02
   4.357671749985791E-02   4.412484512922979E-02   4.467986735542580E-02
   4.524187090179800E-02   4.581094358254390E-02   4.638717431642766E-02
   4.697065314067381E-02   4.756147122503572E-02   4.815972088604110E-02
   4.876549560141665E-02   4.937889002469409E-02   5.000000000000002E-02
   5.062892257703174E-02   5.126575602622147E-02   5.191059985409128E-02
   5.256355481880123E-02   5.322472294589299E-02   5.389420754423160E-02
   5.457211322214761E-02   5.525854590378241E-02   5.595361284563904E-02
   5.665742265334134E-02   5.737008529860364E-02   5.809171213641418E-02
   5.882241592243455E-02   5.956231083061793E-02   6.031151247104906E-02
   6.107013790800851E-02   6.183830567826426E-02   6.261613580959324E-02
   6.340374983953599E-02   6.420127083438711E-02   6.500882340842458E-02
   6.582653374338111E-02   6.665452960816017E-02   6.749294037880019E-02
   6.834189705868984E-02   6.920153229903760E-02   7.007198041959870E-02
   7.095337742966289E-02   7.184586104930625E-02   7.274957073091010E-02
   7.366464768095080E-02   7.459123488206355E-02   7.552947711538366E-02
   7.647952098316897E-02   7.744151493170669E-02   7.841560927450847E-02
   7.940195621579720E-02   8.040070987428918E-02   8.141202630727554E-02
   8.243606353500645E-02   8.347298156538217E-02   8.452294241895461E-02
   8.558611015424325E-02   8.666265089336980E-02   8.775273284801496E-02
   8.885652634570196E-02   8.997420385641047E-02   9.110594001952549E-02
   9.225191167112504E-02   9.341229787161116E-02   9.458727993368851E-02
   9.577704145069485E-02   9.698176832528774E-02   9.820164879849239E-02
   9.943687347911465E-02   1.006876353735239E-01   1.019541299158108E-01
   1.032365549983244E-01   1.045351110025928E-01   1.058500008306338E-01
   1.071814299366580E-01   1.085296063591722E-01   1.098947407534851E-01
   1.112770464246234E-01   1.126767393606605E-01   1.140940382664652E-01
   1.155291645978753E-01   1.169823425962996E-01   1.184537993237571E-01
   1.199437646983550E-01   1.214524715302145E-01   1.229801555578475E-01
   1.245270554849916E-01   1.260934130179075E-01   1.276794729031464E-01
   1.292854829657924E-01   1.309116941481851E-01   1.325583605491304E-01
   1.342257394636036E-01   1.359140914229523E-01   1.376236802356053E-01
   1.393547730282926E-01   1.411076402877851E-01   1.428825559031583E-01
   1.446797972085881E-01   1.464996450266851E-01   1.483423837123734E-01
   1.502083011973217E-01   1.520976890349333E-01   1.540108424459016E-01
   1.559480603643397E-01   1.579096454844884E-01   1.598959043080139E-01
   1.619071471918981E-01   1.639436883969338E-01   1.660058461368275E-01
   1.680939426279215E-01   1.702083041395411E-01   1.723492610449738E-01
   1.745171478730921E-01   1.767123033606235E-01   1.789350705050790E-01
   1.811857966183472E-01   1.834648333809623E-01   1.857725368970553E-01
   1.881092677499956E-01   1.904753910587331E-01   1.928712765348488E-01
   1.952972985403227E-01   1.977538361460290E-01   2.002412731909663E-01
   2.027599983422338E-01   2.053104051557607E-01   2.078928921378005E-01
   2.105078628071981E-01   2.131557257584410E-01   2.158368947255023E-01
   2.185517886464880E-01   2.213008317290968E-01   2.240844535169034E-01
   2.269030889564752E-01   2.297571784653346E-01   2.326471680007736E-01
   2.355735091295372E-01   2.385366590983803E-01   2.415370809055140E-01
   2.445752433729504E-01   2.476516212197559E-01   2.507666951362281E-01
   2.539209518590042E-01   2.571148842471144E-01   2.603489913589926E-01
   2.636237785304547E-01   2.669397574536589E-01   2.702974462570585E-01
   2.736973695863601E-01   2.771400586865013E-01   2.806260514846580E-01
   2.841558926742973E-01   2.877301338002867E-01   2.913493333450738E-01
   2.950140568159510E-01   2.987248768334164E-01   3.024823732206475E-01
   3.062871330940994E-01   3.101397509552434E-01   3.140408287834583E-01
   3.179909761300918E-01   3.219908102137031E-01   3.260409560165057E-01
   3.301420463820215E-01   3.342947221139637E-01   3.384996320763640E-01
   3.427574332949591E-01   3.470687910598519E-01   3.514343790294648E-01
   3.558548793358000E-01   3.603309826910236E-01   3.648633884953917E-01
   3.694528049465327E-01   3.740999491501041E-01   3.788055472318425E-01
   3.835703344510217E-01   3.883950553153389E-01   3.932804636972448E-01
   3.982273229517388E-01   4.032364060356438E-01   4.083084956283828E-01
   4.134443842542737E-01   4.186448744063634E-01   4.239107786718189E-01
   4.292429198588948E-01   4.346421311255004E-01   4.401092561093806E-01
   4.456451490599370E-01   4.512506749717063E-01   4.569267097195164E-01
   4.626741401953449E-01   4.684938644468968E-01   4.743867918179265E-01
   4.803538430903254E-01   4.863959506279943E-01   4.925140585225295E-01
   4.987091227407364E-01   5.049821112740028E-01   5.113340042895502E-01
   5.177657942835847E-01   5.242784862363790E-01   5.308730977693006E-01
   5.375506593038180E-01   5.443122142225072E-01   5.511588190320802E-01
   5.580915435284687E-01   5.651114709639795E-01   5.722196982165564E-01
   5.794173359611698E-01   5.867055088433607E-01   5.940853556549703E-01
   6.015580295120769E-01   6.091246980351739E-01   6.167865435316131E-01
   6.245447631803407E-01   6.324005692189616E-01   6.403551891331520E-01
   6.484098658484571E-01   6.565658579245012E-01   6.648244397516394E-01
   6.731869017500849E-01   6.816545505715382E-01   6.902287093033551E-01
   6.989107176752820E-01   7.077019322687904E-01   7.166037267290468E-01
   7.256174919795463E-01   7.347446364394474E-01   7.439865862436422E-01
   7.533447854655896E-01   7.628206963429582E-01   7.724157995061013E-01
   7.821315942094089E-01   7.919695985655713E-01   8.019313497827838E-01
   8.120184044049422E-01   8.222323385548531E-01   8.325747481805076E-01
   8.430472493044521E-01   8.536514782762931E-01   8.643890920283825E-01
   8.752617683347145E-01   8.862712060730825E-01   8.974191254905325E-01
   9.087072684721533E-01   9.201373988132527E-01   9.317113024949508E-01
   9.434307879632445E-01   9.552976864115829E-01   9.673138520669908E-01
   9.794811624798001E-01   9.918015188170166E-01   1.004276846159384E+00
   1.016909093802181E+00   1.029700235559802E+00   1.042652270074171E+00
   1.055767221127031E+00   1.069047137956168E+00   1.082494095575603E+00
   1.096110195099824E+00   1.109897564072082E+00   1.123858356796831E+00
   1.137994754676337E+00   1.152308966551530E+00   1.166803229047136E+00
   1.181479806921161E+00   1.196340993418758E+00   1.211389110630549E+00
   1.226626509855468E+00   1.242055571968142E+00   1.257678707790919E+00
   1.273498358470555E+00   1.289516995859654E+00   1.305737122902899E+00
   1.322161274028140E+00   1.338792015542407E+00   1.355631946032895E+00
   1.372683696773006E+00   1.389949932133484E+00   1.407433349998733E+00
   1.425136682188365E+00   1.443062694884052E+00   1.461214189061748E+00
   1.479594000929348E+00   1.498205002369851E+00   1.517050101390097E+00
   1.536132242575147E+00   1.555454407548384E+00   1.575019615437398E+00
   1.594830923345726E+00   1.614891426830535E+00   1.635204260386309E+00
   1.655772597934616E+00   1.676599653320048E+00   1.697688680812378E+00
   1.719042975615060E+00   1.740665874380102E+00   1.762560755729428E+00
   1.784731040782795E+00   1.807180193692348E+00   1.829911722183901E+00
   1.852929178105030E+00   1.876236157980051E+00   1.899836303571989E+00
   1.923733302451608E+00   1.947930888573599E+00   1.972432842860028E+00
   1.997242993791098E+00   2.022365218003371E+00   2.047803440895491E+00
   2.073561637241538E+00   2.099643831812100E+00   2.126054100003140E+00
   2.152796568472797E+00   2.179875415786177E+00   2.207294873068263E+00
   2.235059224665043E+00   2.263172808812939E+00   2.291640018316675E+00
   2.320465301235650E+00   2.349653161578965E+00   2.379208160009185E+00
   2.409134914554942E+00   2.439438101332522E+00   2.470122455276511E+00
   2.501192770879638E+00   2.532653902941933E+00   2.564510767329286E+00
   2.596768341741574E+00   2.629431666490424E+00   2.662505845286782E+00
   2.695996046038379E+00   2.729907501657214E+00   2.764245510877222E+00
   2.799015439082208E+00   2.834222719144191E+00   2.869872852272312E+00
   2.905971408872402E+00   2.942524029417370E+00   2.979536425328550E+00
   3.017014379868100E+00   3.054963749042669E+00   3.093390462518397E+00
   3.132300524547443E+00   3.171700014906167E+00   3.211595089845095E+00
   3.251991983050851E+00   3.292897006620188E+00   3.334316552046261E+00
   3.376257091217307E+00   3.418725177427908E+00   3.461727446402932E+00
   3.505270617334396E+00   3.549361493931347E+00   3.594006965482953E+00
   3.639214007934984E+00   3.684989684979792E+00   3.731341149160049E+00
   3.778275642986334E+00   3.825800500068794E+00   3.873923146263045E+00
   3.922651100830458E+00   3.971991977613070E+00   4.021953486223266E+00
   4.072543433248407E+00   4.123769723470652E+00   4.175640361102063E+00
   4.228163451035304E+00   4.281347200110033E+00   4.335199918395245E+00
   4.389730020487742E+00   4.444946026826917E+00   4.500856565026095E+00
   4.557470371220623E+00   4.614796291432894E+00   4.672843282954583E+00
   4.731620415746208E+00   4.791136873854348E+00   4.851401956846672E+00
   4.912425081265003E+00   4.974215782096693E+00   5.036783714264456E+00
   5.100138654134989E+00   5.164290501046542E+00   5.229249278855711E+00
   5.295025137503696E+00   5.361628354602228E+00   5.429069337039484E+00
   5.497358622606180E+00   5.566506881642118E+00   5.636524918703461E+00
   5.707423674250952E+00   5.779214226359388E+00   5.851907792448595E+00
   5.925515731036167E+00   6.000049543512273E+00   6.075520875936748E+00
   6.151941520858832E+00   6.229323419159773E+00   6.307678661918609E+00
   6.387019492301446E+00   6.467358307474449E+00   6.548707660540936E+00
   6.631080262502833E+00   6.714488984246776E+00   6.798946858555249E+00
   6.884467082142936E+00   6.971063017718765E+00   7.058748196073850E+00
   7.147536318195701E+00   7.237441257409050E+00   7.328477061543559E+00
   7.420657955128837E+00   7.513998341617049E+00   7.608512805633481E+00
   7.704216115255439E+00   7.801123224319755E+00   7.899249274759380E+00
   7.998609598969334E+00   8.099219722202417E+00   8.201095364995092E+00
   8.304252445623806E+00   8.408707082592279E+00   8.514475597150057E+00
   8.621574515842717E+00   8.730020573094215E+00   8.839830713821623E+00
   8.951022096082841E+00   9.063612093757568E+00   9.177618299261999E+00
   9.293058526297708E+00   9.409950812635024E+00   9.528313422931507E+00
   9.648164851585829E+00   9.769523825627548E+00   9.892409307643279E+00
   1.001684049873959E+01   1.014283684154325E+01   1.027041802323917E+01
   1.039960397864653E+01   1.053041489333373E+01   1.066287120677230E+01
   1.079699361553071E+01   1.093280307650821E+01   1.107032081020936E+01
   1.120956830405985E+01   1.135056731576391E+01   1.149333987670395E+01
   1.163790829538311E+01   1.178429516091093E+01   1.193252334653298E+01
   1.208261601320484E+01   1.223459661321103E+01   1.238848889382952E+01
   1.254431690104223E+01   1.270210498329235E+01   1.286187779528875E+01
   1.302366030185835E+01   1.318747778184696E+01   1.335335583206911E+01
   1.352132037130764E+01   1.369139764436353E+01   1.386361422615671E+01
   1.403799702587848E+01   1.421457329119605E+01   1.439337061251015E+01
   1.457441692726601E+01   1.475774052431863E+01   1.494337004835303E+01
   1.513133450435999E+01   1.532166326216822E+01   1.551438606103332E+01
   1.570953301428472E+01   1.590713461403090E+01   1.610722173592383E+01
   1.630982564398340E+01   1.651497799548245E+01   1.672271084589327E+01
   1.693305665389638E+01   1.714604828645222E+01   1.736171902393674E+01
   1.758010256534144E+01   1.780123303353897E+01   1.802514498061489E+01
   1.825187339326644E+01   1.848145369826944E+01   1.871392176801361E+01
   1.894931392610779E+01   1.918766695305561E+01   1.942901809200244E+01
   1.967340505455481E+01   1.992086602667280E+01   2.017143967463678E+01
   2.042516515108903E+01   2.068208210115144E+01   2.094223066862020E+01
   2.120565150223823E+01   2.147238576204672E+01   2.174247512581643E+01
   2.201596179555995E+01   2.229288850412586E+01   2.257329852187578E+01
   2.285723566344547E+01   2.314474429459098E+01   2.343586933912085E+01
   2.373065628591562E+01   2.402915119603547E+01   2.433140070991738E+01
   2.463745205466284E+01   2.494735305141710E+01   2.526115212284145E+01
   2.557889830067921E+01   2.590064123341712E+01   2.622643119404302E+01
   2.655631908790106E+01   2.689035646064585E+01   2.722859550629647E+01
   2.757108907539196E+01   2.791789068324930E+01   2.826905451832526E+01
   2.862463545068357E+01   2.898468904056832E+01   2.934927154708547E+01
   2.971843993699341E+01   3.009225189360411E+01   3.047076582579638E+01
   3.085404087714218E+01   3.124213693514807E+01   3.163511464061271E+01
   3.203303539710204E+01   3.243596138054392E+01   3.284395554894299E+01
   3.325708165221812E+01   3.367540424216347E+01   3.409898868253477E+01
   3.452790115926269E+01   3.496220869079429E+01   3.540197913856500E+01
   3.584728121760200E+01   3.629818450726107E+01   3.675475946209867E+01
   3.721707742288035E+01   3.768521062772810E+01   3.815923222340759E+01
   3.863921627675749E+01   3.912523778626279E+01   3.961737269377311E+01
   4.011569789636899E+01   4.062029125837720E+01   4.113123162353712E+01
   4.164859882732040E+01   4.217247370940517E+01   4.270293812630761E+01
   4.324007496417209E+01   4.378396815172230E+01   4.433470267337542E+01
   4.489236458252092E+01   4.545704101496666E+01   4.602882020255405E+01
   4.660779148694441E+01   4.719404533357895E+01   4.778767334581388E+01
   4.838876827923387E+01   4.899742405614521E+01   4.961373578025131E+01