<UPF version="2.0.1">
  <PP_INFO>
    Generated using "atomic" code by A. Dal Corso  v.7.2
    Author: ADC
    Generation date:  9Jun2023
    Pseudopotential type: USPP
    Element: Cr
    Functional: REVPBE
    Suggested minimum cutoff for wavefunctions:  48. Ry
    Suggested minimum cutoff for charge density: 457. Ry
    The Pseudo was generated with a Fully-Relativistic Calculation
    Local Potential by smoothing AE potential with Bessel fncs, cutoff radius:   1.4000
    Pseudopotential contains additional information for spin-orbit calculations.
    Valence configuration: 
    nl pn  l   occ       Rcut    Rcut US       E pseu
    3S  1  0  2.00      0.750      1.530    -5.729689
    4S  2  0  2.00      0.750      1.530    -0.356893
    3P  2  1  2.00      1.000      1.350    -3.668182
    3P  2  1  4.00      1.000      1.350    -3.592353
    3D  3  2  4.00      1.100      1.650    -0.438118
    3D  3  2  0.00      1.100      1.650    -0.431576
    Generation configuration:
    3S  1  0  2.00      0.750      1.530    -5.729691
    4S  2  0  2.00      0.750      1.530    -0.356896
    3P  2  1  2.00      1.000      1.350    -3.668181
    3P  2  1  4.00      1.000      1.350    -3.592347
    4P  3  1  0.00      1.000      1.350     7.000000
    4P  3  1  0.00      1.000      1.350     7.000000
    3D  3  2  4.00      1.100      1.650    -0.438119
    3D  3  2  0.00      1.100      1.650    -0.431572
    3D  3  2  0.00      1.100      1.650     0.050000
    3D  3  2  0.00      1.100      1.650     0.050000
    Pseudization used: troullier-martins
    <PP_INPUTFILE>
@input
title='Cr',
zed=24.,
rel=2,
config='[Ar] 4s2 4p0 3d4',
iswitch=3,
dft='REVPBE'
/
@inputp
lpaw=.false.,
pseudotype=3,
file_pseudopw='Cr.rel-revpbe-spn-rrkjus_psl.1.0.0.UPF',
author='ADC',
lloc=-1,
rcloc=1.4,
which_augfun='PSQ',
rmatch_augfun_nc=.true.,
nlcc=.true.,
new_core_ps=.true.,
rcore=0.8,
tm=.true.
/
6
3S  1  0  2.00  0.00  0.75  1.53  0.0
4S  2  0  2.00  0.00  0.75  1.53  0.0
3P  2  1  6.00  0.00  1.00  1.35  0.0
4P  3  1  0.00  7.00  1.00  1.35  0.0
3D  3  2  4.00  0.00  1.10  1.65  0.0
3D  3  2  0.00  0.05  1.10  1.65  0.0
    </PP_INPUTFILE>
  </PP_INFO>
    <!-- END OF HUMAN READABLE SECTION -->
  <PP_HEADER generated="Generated using 'atomic' code by A. Dal Corso  v.7.2" author="ADC" date=" 9Jun2023" comment="" element="Cr" pseudo_type="USPP" relativistic="full" is_ultrasoft="true" is_paw="false" is_coulomb="false" has_so="true" has_wfc="false" has_gipaw="false" paw_as_gipaw="false" core_correction="true" functional="REVPBE" z_valence="14.0000000000000" total_psenergy="-174.282023859971" wfc_cutoff="48.0316238811699" rho_cutoff="457.150052582821" l_max="2" l_max_rho="4" l_local="-1" mesh_size="1183" number_of_wfc="6" number_of_proj="10"/>
  <PP_MESH mesh="1183" dx="1.250000000000000E-002" xmin="-7.00000000000000" rmax="100.000000000000" zmesh="24.0000000000000">
    <PP_R>
   3.799508189810485E-05   3.847300119454260E-05   3.895693197569092E-05
   3.944694985671892E-05   3.994313140391749E-05   4.044555414666287E-05
   4.095429658953078E-05   4.146943822456297E-05   4.199105954368794E-05
   4.251924205129811E-05   4.305406827698487E-05   4.359562178843411E-05
   4.414398720448376E-05   4.469925020834570E-05   4.526149756099408E-05
   4.583081711472160E-05   4.640729782686680E-05   4.699102977371385E-05
   4.758210416456698E-05   4.818061335600240E-05   4.878665086629894E-05
   4.940031139005053E-05   5.002169081296253E-05   5.065088622683395E-05
   5.128799594472837E-05   5.193311951633540E-05   5.258635774352561E-05
   5.324781269610102E-05   5.391758772774367E-05   5.459578749216501E-05
   5.528251795945798E-05   5.597788643265528E-05   5.668200156449558E-05
   5.739497337440071E-05   5.811691326566661E-05   5.884793404287007E-05
   5.958814992949477E-05   6.033767658577898E-05   6.109663112678763E-05
   6.186513214071195E-05   6.264329970739885E-05   6.343125541711382E-05
   6.422912238953960E-05   6.503702529301384E-05   6.585509036400904E-05
   6.668344542685684E-05   6.752221991372111E-05   6.837154488482191E-05
   6.923155304891392E-05   7.010237878402255E-05   7.098415815844058E-05
   7.187702895198926E-05   7.278113067754666E-05   7.369660460284669E-05
   7.462359377255290E-05   7.556224303060896E-05   7.651269904287113E-05
   7.747511032002505E-05   7.844962724079073E-05   7.943640207541985E-05
   8.043558900948788E-05   8.144734416798612E-05   8.247182563971652E-05
   8.350919350199329E-05   8.455960984565558E-05   8.562323880039412E-05
   8.670024656039705E-05   8.779080141031808E-05   8.889507375157117E-05
   9.001323612895644E-05   9.114546325762021E-05   9.229193205035487E-05
   9.345282164524181E-05   9.462831343364196E-05   9.581859108853901E-05
   9.702384059323808E-05   9.824425027042638E-05   9.948001081159889E-05
   1.007313153068543E-04   1.019983592750660E-04   1.032813406944316E-04
   1.045804600334083E-04   1.058959202820358E-04   1.072279269836542E-04
   1.085766882670208E-04   1.099424148788301E-04   1.113253202166438E-04
   1.127256203622344E-04   1.141435341153487E-04   1.155792830278954E-04
   1.170330914385630E-04   1.185051865078736E-04   1.199957982536768E-04
   1.215051595870903E-04   1.230335063488936E-04   1.245810773463775E-04
   1.261481143906590E-04   1.277348623344643E-04   1.293415691103879E-04
   1.309684857696325E-04   1.326158665212361E-04   1.342839687717928E-04
   1.359730531656729E-04   1.376833836257492E-04   1.394152273946363E-04
   1.411688550764463E-04   1.429445406790723E-04   1.447425616570022E-04
   1.465631989546720E-04   1.484067370503637E-04   1.502734640006554E-04
   1.521636714854310E-04   1.540776548534555E-04   1.560157131685242E-04
   1.579781492561920E-04   1.599652697510901E-04   1.619773851448388E-04
   1.640148098345618E-04   1.660778621720121E-04   1.681668645133149E-04
   1.702821432693361E-04   1.724240289566849E-04   1.745928562493575E-04
   1.767889640310309E-04   1.790126954480142E-04   1.812643979628654E-04
   1.835444234086836E-04   1.858531280440834E-04   1.881908726088611E-04
   1.905580223803614E-04   1.929549472305519E-04   1.953820216838171E-04
   1.978396249754782E-04   2.003281411110496E-04   2.028479589262401E-04
   2.053994721477105E-04   2.079830794545924E-04   2.105991845407839E-04
   2.132481961780273E-04   2.159305282797802E-04   2.186465999658910E-04
   2.213968356280865E-04   2.241816649962842E-04   2.270015232057387E-04
   2.298568508650321E-04   2.327480941249208E-04   2.356757047480462E-04
   2.386401401795244E-04   2.416418636184228E-04   2.446813440901355E-04
   2.477590565196706E-04   2.508754818058566E-04   2.540311068964849E-04
   2.572264248643962E-04   2.604619349845234E-04   2.637381428119061E-04
   2.670555602606826E-04   2.704147056840786E-04   2.738161039554008E-04
   2.772602865500489E-04   2.807477916285611E-04   2.842791641207012E-04
   2.878549558106055E-04   2.914757254230007E-04   2.951420387105049E-04
   2.988544685420291E-04   3.026135949922871E-04   3.064200054324348E-04
   3.102742946218477E-04   3.141770648010529E-04   3.181289257858317E-04
   3.221304950625029E-04   3.261823978844072E-04   3.302852673696043E-04
   3.344397445997981E-04   3.386464787205088E-04   3.429061270425013E-04
   3.472193551444921E-04   3.515868369771474E-04   3.560092549683891E-04
   3.604873001300264E-04   3.650216721657262E-04   3.696130795803441E-04
   3.742622397906302E-04   3.789698792373256E-04   3.837367334986725E-04
   3.885635474053469E-04   3.934510751568421E-04   3.984000804393131E-04
   4.034113365449035E-04   4.084856264925762E-04   4.136237431504588E-04
   4.188264893597328E-04   4.240946780600782E-04   4.294291324166975E-04
   4.348306859489377E-04   4.403001826605273E-04   4.458384771714553E-04
   4.514464348515067E-04   4.571249319554782E-04   4.628748557600961E-04
   4.686971047026527E-04   4.745925885213907E-04   4.805622283976513E-04
   4.866069570998101E-04   4.927277191290257E-04   4.989254708668175E-04
   5.052011807245041E-04   5.115558292945187E-04   5.179904095036285E-04
   5.245059267680833E-04   5.311033991507112E-04   5.377838575199947E-04
   5.445483457111455E-04   5.513979206892053E-04   5.583336527142012E-04
   5.653566255083722E-04   5.724679364255059E-04   5.796686966224013E-04
   5.869600312324885E-04   5.943430795416356E-04   6.018189951661617E-04
   6.093889462330926E-04   6.170541155626839E-04   6.248157008532377E-04
   6.326749148682477E-04   6.406329856258930E-04   6.486911565909204E-04
   6.568506868689375E-04   6.651128514031504E-04   6.734789411735781E-04
   6.819502633987678E-04   6.905281417400522E-04   6.992139165083738E-04
   7.080089448737111E-04   7.169146010771410E-04   7.259322766455631E-04
   7.350633806091318E-04   7.443093397214188E-04   7.536715986823458E-04
   7.631516203639241E-04   7.727508860388286E-04   7.824708956118504E-04
   7.923131678542607E-04   8.022792406411221E-04   8.123706711915831E-04
   8.225890363121992E-04   8.329359326433096E-04   8.434129769085163E-04
   8.540218061673025E-04   8.647640780708226E-04   8.756414711209179E-04
   8.866556849323823E-04   8.978084404985321E-04   9.091014804601155E-04
   9.205365693776018E-04   9.321154940069000E-04   9.438400635785405E-04
   9.557121100803721E-04   9.677334885438157E-04   9.799060773337128E-04
   9.922317784418282E-04   1.004712517784036E-03   1.017350245501251E-03
   1.030146936264142E-03   1.043104589581673E-03   1.056225230113539E-03
   1.069510907986518E-03   1.082963699114806E-03   1.096585705524388E-03
   1.110379055681479E-03   1.124345904825104E-03   1.138488435303857E-03
   1.152808856916899E-03   1.167309407259243E-03   1.181992352071379E-03
   1.196859985593310E-03   1.211914630923020E-03   1.227158640379470E-03
   1.242594395870155E-03   1.258224309263271E-03   1.274050822764587E-03
   1.290076409299037E-03   1.306303572897120E-03   1.322734849086165E-03
   1.339372805286503E-03   1.356220041212643E-03   1.373279189279474E-03
   1.390552915013587E-03   1.408043917469773E-03   1.425754929652751E-03
   1.443688718944209E-03   1.461848087535210E-03   1.480235872864040E-03
   1.498854948059569E-03   1.517708222390176E-03   1.536798641718334E-03
   1.556129188960901E-03   1.575702884555212E-03   1.595522786931028E-03
   1.615591992988417E-03   1.635913638581659E-03   1.656490899009221E-03
   1.677326989509910E-03   1.698425165765259E-03   1.719788724408231E-03
   1.741421003538330E-03   1.763325383243180E-03   1.785505286126674E-03
   1.807964177843766E-03   1.830705567641976E-03   1.853733008909730E-03
   1.877050099731576E-03   1.900660483450392E-03   1.924567849236672E-03
   1.948775932664957E-03   1.973288516297539E-03   1.998109430275478E-03
   2.023242552917082E-03   2.048691811323899E-03   2.074461181994331E-03
   2.100554691444974E-03   2.126976416839767E-03   2.153730486627058E-03
   2.180821081184684E-03   2.208252433473160E-03   2.236028829697089E-03
   2.264154609974896E-03   2.292634169016968E-03   2.321471956812351E-03
   2.350672479324057E-03   2.380240299193137E-03   2.410180036451604E-03
   2.440496369244314E-03   2.471194034559948E-03   2.502277828971165E-03
   2.533752609384082E-03   2.565623293797177E-03   2.597894862069726E-03
   2.630572356699933E-03   2.663660883612817E-03   2.697165612958023E-03
   2.731091779917682E-03   2.765444685524400E-03   2.800229697489574E-03
   2.835452251042093E-03   2.871117849777608E-03   2.907232066518486E-03
   2.943800544184567E-03   2.980828996674886E-03   3.018323209760479E-03
   3.056289041988422E-03   3.094732425597246E-03   3.133659367443850E-03
   3.173075949942098E-03   3.212988332013198E-03   3.253402750048049E-03
   3.294325518881695E-03   3.335763032780022E-03   3.377721766438887E-03
   3.420208275995784E-03   3.463229200054273E-03   3.506791260721267E-03
   3.550901264657368E-03   3.595566104140439E-03   3.640792758142518E-03
   3.686588293420305E-03   3.732959865619363E-03   3.779914720392188E-03
   3.827460194530372E-03   3.875603717110980E-03   3.924352810657362E-03
   3.973715092314569E-03   4.023698275039535E-03   4.074310168806254E-03
   4.125558681826098E-03   4.177451821783490E-03   4.229997697087129E-03
   4.283204518136933E-03   4.337080598606945E-03   4.391634356744350E-03
   4.446874316684842E-03   4.502809109784555E-03   4.559447475968706E-03
   4.616798265097246E-03   4.674870438347658E-03   4.733673069615157E-03
   4.793215346930518E-03   4.853506573895707E-03   4.914556171137605E-03
   4.976373677779987E-03   5.038968752934029E-03   5.102351177207581E-03
   5.166530854233384E-03   5.231517812216552E-03   5.297322205501485E-03
   5.363954316158510E-03   5.431424555590487E-03   5.499743466159592E-03
   5.568921722834602E-03   5.638970134858864E-03   5.709899647439270E-03
   5.781721343456471E-03   5.854446445196590E-03   5.928086316104734E-03
   6.002652462560554E-03   6.078156535676143E-03   6.154610333116536E-03
   6.232025800943129E-03   6.310415035480275E-03   6.389790285205354E-03
   6.470163952662626E-03   6.551548596401152E-03   6.633956932937096E-03
   6.717401838740700E-03   6.801896352248268E-03   6.887453675899440E-03
   6.974087178200107E-03   7.061810395811256E-03   7.150637035664115E-03
   7.240580977101882E-03   7.331656274048398E-03   7.423877157204104E-03
   7.517258036269618E-03   7.611813502197279E-03   7.707558329471014E-03
   7.804507478414879E-03   7.902676097530639E-03   8.002079525864757E-03
   8.102733295405149E-03   8.204653133508088E-03   8.307854965355634E-03
   8.412354916443978E-03   8.518169315103087E-03   8.625314695048028E-03
   8.733807797962411E-03   8.843665576114297E-03   8.954905195005027E-03
   9.067544036051372E-03   9.181599699301412E-03   9.297090006184578E-03
   9.414033002296289E-03   9.532446960217605E-03   9.652350382370370E-03
   9.773762003908238E-03   9.896700795644092E-03   1.002118596701426E-02
   1.014723696908003E-02   1.027487349756694E-02   1.040411549594223E-02
   1.053498315853110E-02   1.066749693367209E-02   1.080167752691215E-02
   1.093754590424197E-02   1.107512329537194E-02   1.121443119704933E-02
   1.135549137641720E-02   1.149832587441555E-02   1.164295700922531E-02
   1.178940737975554E-02   1.193769986917459E-02   1.208785764848564E-02
   1.223990418014721E-02   1.239386322173919E-02   1.254975882967509E-02
   1.270761536296081E-02   1.286745748700083E-02   1.302931017745224E-02
   1.319319872412722E-02   1.335914873494461E-02   1.352718613993124E-02
   1.369733719527351E-02   1.386962848741999E-02   1.404408693723560E-02
   1.422073980420807E-02   1.439961469070727E-02   1.458073954629815E-02
   1.476414267210787E-02   1.494985272524799E-02   1.513789872329214E-02
   1.532831004881010E-02   1.552111645395888E-02   1.571634806513154E-02
   1.591403538766454E-02   1.611420931060422E-02   1.631690111153329E-02
   1.652214246145804E-02   1.672996542975695E-02   1.694040248919164E-02
   1.715348652098077E-02   1.736925081993786E-02   1.758772909967357E-02
   1.780895549786362E-02   1.803296458158281E-02   1.825979135270623E-02
   1.848947125337834E-02   1.872204017155091E-02   1.895753444659057E-02
   1.919599087495692E-02   1.943744671595202E-02   1.968193969754229E-02
   1.992950802225351E-02   2.018019037314011E-02   2.043402591982943E-02
   2.069105432464207E-02   2.095131574878921E-02   2.121485085864789E-02
   2.148170083211518E-02   2.175190736504234E-02   2.202551267774989E-02
   2.230255952162460E-02   2.258309118579947E-02   2.286715150391777E-02
   2.315478486098215E-02   2.344603620028983E-02   2.374095103045513E-02
   2.403957543252029E-02   2.434195606715567E-02   2.464814018195063E-02
   2.495817561879607E-02   2.527211082135973E-02   2.558999484265575E-02
   2.591187735270918E-02   2.623780864631709E-02   2.656783965090723E-02
   2.690202193449551E-02   2.724040771374365E-02   2.758304986211809E-02
   2.793000191815165E-02   2.828131809380894E-02   2.863705328295718E-02
   2.899726306994342E-02   2.936200373827974E-02   2.973133227943761E-02
   3.010530640175302E-02   3.048398453944342E-02   3.086742586173826E-02
   3.125569028212425E-02   3.164883846770703E-02   3.204693184869045E-02
   3.245003262797522E-02   3.285820379087821E-02   3.327150911497406E-02
   3.369001318006053E-02   3.411378137824925E-02   3.454287992418336E-02
   3.497737586538365E-02   3.541733709272494E-02   3.586283235104409E-02
   3.631393124988159E-02   3.677070427435816E-02   3.723322279618817E-02
   3.770155908483167E-02   3.817578631878658E-02   3.865597859702305E-02
   3.914221095056151E-02   3.963455935419643E-02   4.013310073836759E-02
   4.063791300118055E-02   4.114907502057841E-02   4.166666666666669E-02
   4.219076881419312E-02   4.272146335518456E-02   4.325883321174273E-02
   4.380296234900102E-02   4.435393578824415E-02   4.491183962019300E-02
   4.547676101845635E-02   4.604878825315201E-02   4.662801070469921E-02
   4.721451887778445E-02   4.780840441550303E-02   4.840976011367848E-02
   4.901867993536212E-02   4.963525902551494E-02   5.025959372587421E-02
   5.089178159000710E-02   5.153192139855355E-02   5.218011317466104E-02
   5.283645819961333E-02   5.350105902865592E-02   5.417401950702048E-02
   5.485544478615093E-02   5.554544134013347E-02   5.624411698233348E-02
   5.695158088224154E-02   5.766794358253133E-02   5.839331701633224E-02
   5.912781452471907E-02   5.987155087442187E-02   6.062464227575842E-02
   6.138720640079234E-02   6.215936240171963E-02   6.294123092948638E-02
   6.373293415264081E-02   6.453459577642225E-02   6.534634106209039E-02
   6.616829684649767E-02   6.700059156190764E-02   6.784335525606294E-02
   6.869671961250537E-02   6.956081797115181E-02   7.043578534912884E-02
   7.132175846186938E-02   7.221887574447483E-02   7.312727737334580E-02
   7.404710528808496E-02   7.497850321367540E-02   7.592161668293791E-02
   7.687659305927086E-02   7.784358155967597E-02   7.882273327807376E-02
   7.981420120891237E-02   8.081814027107312E-02   8.183470733207700E-02
   8.286406123259553E-02   8.390636281126990E-02   8.496177492984235E-02
   8.603046249860363E-02   8.711259250216069E-02   8.820833402552815E-02
   8.931785828054833E-02   9.044133863264348E-02   9.157895062790428E-02
   9.273087202051954E-02   9.389728280055039E-02   9.507836522205436E-02
   9.627430383156271E-02   9.748528549691633E-02   9.871149943646422E-02
   9.995313724862913E-02   1.012103929418454E-01   1.024834629648729E-01
   1.037725462374930E-01   1.050778441815896E-01   1.063995607526220E-01
   1.077379024714936E-01   1.090930784568209E-01   1.104653004576087E-01
   1.118547828863363E-01   1.132617428524603E-01   1.146864001963377E-01
   1.161289775235771E-01   1.175897002398209E-01   1.190687965859652E-01
   1.205664976738234E-01   1.220830375222376E-01   1.236186530936445E-01
   1.251735843311015E-01   1.267480741957777E-01   1.283423687049180E-01
   1.299567169702831E-01   1.315913712370737E-01   1.332465869233449E-01
   1.349226226599151E-01   1.366197403307781E-01   1.383382051140229E-01
   1.400782855232679E-01   1.418402534496175E-01   1.436243842041448E-01
   1.454309565609101E-01   1.472602528005196E-01   1.491125587542325E-01
   1.509881638486227E-01   1.528873611508019E-01   1.548104474142127E-01
   1.567577231249963E-01   1.587294925489443E-01   1.607260637790407E-01
   1.627477487836022E-01   1.647948634550241E-01   1.668677276591386E-01
   1.689666652851949E-01   1.710920042964673E-01   1.732440767815004E-01
   1.754232190059984E-01   1.776297714653675E-01   1.798640789379186E-01
   1.821264905387400E-01   1.844173597742473E-01   1.867370445974195E-01
   1.890859074637294E-01   1.914643153877788E-01   1.938726400006447E-01
   1.963112576079477E-01   1.987805492486502E-01   2.012809007545950E-01
   2.038127028107920E-01   2.063763510164632E-01   2.089722459468567E-01
   2.116007932158368E-01   2.142624035392620E-01   2.169574927991605E-01
   2.196864821087122E-01   2.224497978780491E-01   2.252478718808821E-01
   2.280811413219667E-01   2.309500489054177E-01   2.338550429038817E-01
   2.367965772285811E-01   2.397751115002389E-01   2.427911111208948E-01
   2.458450473466258E-01   2.489373973611803E-01   2.520686443505396E-01
   2.552392775784162E-01   2.584497924627028E-01   2.617006906528820E-01
   2.649924801084098E-01   2.683256751780859E-01   2.717007966804215E-01
   2.751183719850179E-01   2.785789350949697E-01   2.820830267303033E-01
   2.856311944124659E-01   2.892239925498766E-01   2.928619825245540E-01
   2.965457327798333E-01   3.002758189091863E-01   3.040528237461598E-01
   3.078773374554439E-01   3.117499576250868E-01   3.156712893598687E-01
   3.196419453758514E-01   3.236625460961157E-01   3.277337197477040E-01
   3.318561024597824E-01   3.360303383630365E-01   3.402570796903190E-01
   3.445369868785614E-01   3.488707286719695E-01   3.532589822265157E-01
   3.577024332157457E-01   3.622017759379170E-01   3.667577134244839E-01
   3.713709575499475E-01   3.760422291430887E-01   3.807722580995970E-01
   3.855617834961207E-01   3.904115537057473E-01   3.953223265149388E-01
   4.002948692419379E-01   4.053299588566620E-01   4.104283821021079E-01
   4.155909356172803E-01   4.208184260616690E-01   4.261116702412919E-01
   4.314714952363206E-01   4.368987385303158E-01   4.423942481410838E-01
   4.479588827531817E-01   4.535935118520893E-01   4.592990158600669E-01
   4.650762862737239E-01   4.709262258033162E-01   4.768497485137970E-01
   4.828477799676416E-01   4.889212573694672E-01   4.950711297124752E-01
   5.012983579267308E-01   5.076039150293116E-01   5.139887862763443E-01
   5.204539693169505E-01   5.270004743491347E-01   5.336293242776268E-01
   5.403415548737142E-01   5.471382149370844E-01   5.540203664596995E-01
   5.609890847917374E-01   5.680454588096152E-01   5.751905910861292E-01
   5.824255980627350E-01   5.897516102239920E-01   5.971697722742056E-01
   6.046812433162886E-01   6.122871970328728E-01   6.199888218697018E-01
   6.277873212213246E-01   6.356839136191319E-01   6.436798329217511E-01
   6.517763285078407E-01   6.599746654713093E-01   6.682761248189865E-01
   6.766820036707851E-01   6.851936154623776E-01   6.938122901504230E-01
   7.025393744203767E-01   7.113762318969109E-01   7.203242433569854E-01
   7.293848069455954E-01   7.385593383942354E-01   7.478492712421104E-01
   7.572560570601278E-01   7.667811656777106E-01   7.764260854124591E-01
   7.861923233027038E-01   7.960814053429858E-01   8.060948767224924E-01
   8.162343020665001E-01   8.265012656808471E-01   8.368973717994864E-01
   8.474242448351509E-01   8.580835296331681E-01   8.688768917284757E-01
   8.798060176058594E-01   8.908726149634730E-01   9.020784129796695E-01
   9.134251625831863E-01   9.249146367267352E-01   9.365486306640260E-01
   9.483289622302807E-01   9.602574721262745E-01   9.723360242059468E-01
   9.845665057676345E-01   9.969508278489646E-01   1.009490925525458E+00
   1.022188758212890E+00   1.035046309973452E+00   1.048065589825766E+00
   1.061248632058796E+00   1.074597496549711E+00   1.088114269085749E+00
   1.101801061690117E+00   1.115660012952006E+00   1.129693288360746E+00
   1.143903080644171E+00   1.158291610111237E+00   1.172861124998944E+00
   1.187613901823637E+00   1.202552245736710E+00   1.217678490884790E+00
   1.232995000774457E+00   1.248504168641543E+00   1.264208417825081E+00
   1.280110202145956E+00   1.296212006290320E+00   1.312516346197831E+00
   1.329025769454771E+00   1.345742855692112E+00   1.362670216988590E+00
   1.379810498278847E+00   1.397166377766706E+00   1.414740567343649E+00
   1.432535813012550E+00   1.450554895316752E+00   1.468800629774523E+00
   1.487275867318996E+00   1.505983494743623E+00   1.524926435153250E+00
   1.544107648420858E+00   1.563530131650042E+00   1.583196919643324E+00
   1.603111085376340E+00   1.623275740477999E+00   1.643694035716690E+00
   1.664369161492582E+00   1.685304348336142E+00   1.706502867412909E+00
   1.727968031034615E+00   1.749703193176750E+00   1.771711750002617E+00
   1.793997140393998E+00   1.816562846488480E+00   1.839412394223552E+00
   1.862549353887536E+00   1.885977340677449E+00   1.909700015263896E+00
   1.933721084363041E+00   1.958044301315804E+00   1.982673466674321E+00
   2.007612428795785E+00   2.032865084443768E+00   2.058435379397092E+00
   2.084327309066365E+00   2.110544919118278E+00   2.137092306107739E+00
   2.163973618117978E+00   2.191193055408686E+00   2.218754871072318E+00
   2.246663371698649E+00   2.274922918047678E+00   2.303537925731018E+00
   2.332512865901840E+00   2.361852265953492E+00   2.391560710226927E+00
   2.421642840727002E+00   2.452103357847809E+00   2.482947021107125E+00
   2.514178649890083E+00   2.545803124202224E+00   2.577825385431998E+00
   2.610250437122869E+00   2.643083345755139E+00   2.676329241537579E+00
   2.709993319209042E+00   2.744080838850156E+00   2.778597126705217E+00
   2.813547576014423E+00   2.848937647856590E+00   2.884772872002443E+00
   2.921058847778664E+00   2.957801244942789E+00   2.995005804569128E+00
   3.032678339945820E+00   3.070824737483160E+00   3.109450957633374E+00
   3.148563035821945E+00   3.188167083390662E+00   3.228269288552537E+00
   3.268875917358715E+00   3.309993314677559E+00   3.351627905186055E+00
   3.393786194373673E+00   3.436474769558876E+00   3.479700300918386E+00
   3.523469542529420E+00   3.567789333425027E+00   3.612666598662704E+00
   3.658108350406452E+00   3.704121689022430E+00   3.750713804188412E+00
   3.797891976017185E+00   3.845663576194079E+00   3.894036069128819E+00
   3.943017013121839E+00   3.992614061545290E+00   4.042834964038893E+00
   4.093687567720836E+00   4.145179818413911E+00   4.197319761887047E+00
   4.250115545112490E+00   4.303575417538785E+00   4.357707732379759E+00
   4.412520947919747E+00   4.468023628835190E+00   4.524224447532904E+00
   4.581132185505150E+00   4.638755734701765E+00   4.697104098919551E+00
   4.756186395209126E+00   4.816011855299490E+00   4.876589827040497E+00
   4.937929775863473E+00   5.000041286260227E+00   5.062934063280624E+00
   5.126617934049027E+00   5.191102849299811E+00   5.256398884932174E+00
   5.322516243584539E+00   5.389465256228707E+00   5.457256383784113E+00
   5.525900218752361E+00   5.595407486872314E+00   5.665789048796040E+00
   5.737055901785780E+00   5.809219181432304E+00   5.882290163394875E+00
   5.956280265163084E+00   6.031201047840875E+00   6.107064217952966E+00
   6.183881629274031E+00   6.261665284680874E+00   6.340427338027901E+00
   6.420180096046199E+00   6.500936020266463E+00   6.582707728966150E+00
   6.665507999141112E+00   6.749349768502015E+00   6.834246137495910E+00
   6.920210371353171E+00   7.007255902160233E+00   7.095396330958381E+00
   7.184645429868930E+00   7.275017144245179E+00   7.366525594851352E+00
   7.459185080069035E+00   7.553010078131307E+00   7.648015249385000E+00
   7.744215438581423E+00   7.841625677195854E+00   7.940261185776257E+00
   8.040137376321525E+00   8.141269854689623E+00   8.243674423036065E+00
   8.347367082282993E+00   8.452364034619377E+00   8.558681686032640E+00
   8.666336648872109E+00   8.775345744444772E+00   8.885726005643585E+00
   8.997494679608929E+00   9.110669230423508E+00   9.225267341841132E+00
   9.341306920049879E+00   9.458806096469921E+00   9.577783230586627E+00
   9.698256912819263E+00   9.820245967425775E+00   9.943769455444153E+00
   1.006884667767070E+01   1.019549717767586E+01   1.032374074485793E+01
   1.045359741753519E+01   1.058508748607696E+01   1.071823149607396E+01
   1.085305025154863E+01   1.098956481820580E+01   1.112779652672426E+01
   1.126776697608970E+01   1.140949803696961E+01   1.155301185513059E+01
   1.169833085489873E+01   1.184547774266337E+01   1.199447551042513E+01
   1.214534743938834E+01   1.229811710359886E+01   1.245280837362752E+01
   1.260944542029999E+01   1.276805271847351E+01   1.292865505086110E+01
   1.309127751190394E+01   1.325594551169242E+01   1.342268477993652E+01
   1.359152136998617E+01   1.376248166290204E+01   1.393559237157772E+01
   1.411088054491365E+01   1.428837357204352E+01   1.446809918661395E+01
   1.465008547111787E+01   1.483436086128248E+01   1.502095415051240E+01
   1.520989449438870E+01   1.540121141522454E+01   1.559493480667801E+01
   1.579109493842316E+01   1.598972246087968E+01   1.619084841000203E+01
   1.639450421212900E+01   1.660072168889400E+01   1.680953306219731E+01
   1.702097095924086E+01   1.723506841762620E+01   1.745185889051683E+01
   1.767137625186519E+01   1.789365480170560E+01   1.811872927151369E+01
   1.834663482963329E+01   1.857740708677155E+01   1.881108210156315E+01
   1.904769638620456E+01   1.928728691215915E+01   1.952989111593404E+01
   1.977554690492969E+01   2.002429266336289E+01   2.027616725826448E+01
   2.053121004555237E+01   2.078946087618092E+01   2.105096010236788E+01
   2.131574858389934E+01   2.158386769451427E+01   2.185535932836919E+01
   2.213026590658421E+01   2.240863038387154E+01   2.269049625524706E+01
   2.297590756282663E+01   2.326490890270775E+01   2.355754543193772E+01
   2.385386287556964E+01   2.415390753380693E+01   2.445772628923789E+01
   2.476536661416118E+01   2.507687657800343E+01   2.539230485483032E+01
   2.571170073095182E+01   2.603511411262339E+01   2.636259553384392E+01
   2.669419616425170E+01   2.702996781711994E+01   2.736996295745249E+01
   2.771423471018177E+01   2.806283686846956E+01   2.841582390211231E+01
   2.877325096605224E+01   2.913517390899524E+01   2.950164928213750E+01
   2.987273434800166E+01   3.024848708938422E+01   3.062896621841556E+01
   3.101423118573362E+01   3.140434218977342E+01   3.179936018617299E+01
   3.219934689729791E+01   3.260436482188566E+01   3.301447724481092E+01
   3.342974824697416E+01   3.385024271531433E+01   3.427602635294760E+01
   3.470716568943367E+01   3.514372809117098E+01   3.558578177192302E+01
   3.603339580347674E+01   3.648664012643525E+01   3.694558556114618E+01
   3.741030381876743E+01   3.788086751247221E+01   3.835735016879504E+01
   3.883982623912035E+01   3.932837111131579E+01   3.982306112151156E+01
   4.032397356602823E+01   4.083118671345434E+01   4.134477981687609E+01