<UPF version="2.0.1">
  <PP_INFO>
    Generated using "atomic" code by A. Dal Corso  v.7.2
    Author: ADC
    Generation date:  9Jun2023
    Pseudopotential type: USPP
    Element:  K
    Functional: PBESOL
    Suggested minimum cutoff for wavefunctions:  41. Ry
    Suggested minimum cutoff for charge density: 277. Ry
    The Pseudo was generated with a Fully-Relativistic Calculation
    Local Potential by smoothing AE potential with Bessel fncs, cutoff radius:   1.5000
    Pseudopotential contains additional information for spin-orbit calculations.
    Valence configuration: 
    nl pn  l   occ       Rcut    Rcut US       E pseu
    3S  1  0  2.00      1.200      1.300    -2.591822
    4S  2  0  1.00      1.200      1.300    -0.169123
    3P  2  1  2.00      1.400      1.600    -1.394539
    3P  2  1  4.00      1.400      1.600    -1.374876
    4P  3  1  0.00      1.400      1.600    -0.058769
    4P  3  1  0.00      1.400      1.600    -0.058227
    Generation configuration:
    3S  1  0  2.00      1.200      1.300    -2.591817
    4S  2  0  1.00      1.200      1.300    -0.169125
    3P  2  1  2.00      1.400      1.600    -1.394539
    3P  2  1  4.00      1.400      1.600    -1.374871
    4P  3  1  0.00      1.400      1.600    -0.058769
    4P  3  1  0.00      1.400      1.600    -0.058227
    3D  3  2  0.00      1.200      1.700     0.050000
    3D  3  2  0.00      1.200      1.700     0.050000
    3D  3  2  0.00      1.200      1.700     1.000000
    3D  3  2  0.00      1.200      1.700     1.000000
    Pseudization used: troullier-martins
    <PP_INPUTFILE>
@input
title='K',
zed=19.,
rel=2,
config='[Ar] 4s1 4p0 3d-1',
iswitch=3,
dft='PBESOL'
/
@inputp
lpaw=.false.,
pseudotype=3,
file_pseudopw='K.rel-pbesol-spn-rrkjus_psl.1.0.0.UPF',
author='ADC',
lloc=-1,
rcloc=1.5,
which_augfun='PSQ',
rmatch_augfun_nc=.true.,
nlcc=.true.,
new_core_ps=.true.,
rcore=1.0,
tm=.true.
/
6
3S  1  0  2.00  0.00  1.20  1.30  0.0
4S  2  0  1.00  0.00  1.20  1.30  0.0
3P  2  1  6.00  0.00  1.40  1.60  0.0
4P  3  1  0.00  0.00  1.40  1.60  0.0
3D  3  2  0.00  0.05  1.20  1.70  0.0
3D  3  2  0.00  1.00  1.20  1.70  0.0
    </PP_INPUTFILE>
  </PP_INFO>
    <!-- END OF HUMAN READABLE SECTION -->
  <PP_HEADER generated="Generated using 'atomic' code by A. Dal Corso  v.7.2" author="ADC" date=" 9Jun2023" comment="" element=" K" pseudo_type="USPP" relativistic="full" is_ultrasoft="true" is_paw="false" is_coulomb="false" has_so="true" has_wfc="false" has_gipaw="false" paw_as_gipaw="false" core_correction="true" functional="PBESOL" z_valence="9.00000000000000" total_psenergy="-58.6016034997881" wfc_cutoff="40.8853644219556" rho_cutoff="276.823096064812" l_max="2" l_max_rho="4" l_local="-1" mesh_size="1165" number_of_wfc="6" number_of_proj="10"/>
  <PP_MESH mesh="1165" dx="1.250000000000000E-002" xmin="-7.00000000000000" rmax="100.000000000000" zmesh="19.0000000000000">
    <PP_R>
   4.799378766076401E-05   4.859747519310643E-05   4.920875617982012E-05
   4.982772613480284E-05   5.045448177336946E-05   5.108912102736363E-05
   5.173174306045993E-05   5.238244828365849E-05   5.304133837097423E-05
   5.370851627532393E-05   5.438408624461248E-05   5.506815383802203E-05
   5.576082594250580E-05   5.646221078948931E-05   5.717241797178200E-05
   5.789155846070096E-05   5.861974462341070E-05   5.935709024048065E-05
   6.010371052366355E-05   6.085972213389778E-05   6.162524319953550E-05
   6.240039333480067E-05   6.318529365847899E-05   6.398006681284288E-05
   6.478483698281478E-05   6.559972991537103E-05   6.642487293919024E-05
   6.726039498454865E-05   6.810642660346569E-05   6.896309999010316E-05
   6.983054900142061E-05   7.070890917809089E-05   7.159831776567863E-05
   7.249891373608511E-05   7.341083780926309E-05   7.433423247520430E-05
   7.526924201620391E-05   7.621601252940503E-05   7.717469194962648E-05
   7.814543007247826E-05   7.912837857776697E-05   8.012369105319640E-05
   8.113152301836581E-05   8.215203194907012E-05   8.318537730190616E-05
   8.423172053918760E-05   8.529122515417404E-05   8.636405669661716E-05
   8.745038279862811E-05   8.855037320087060E-05   8.966419977908284E-05
   9.079203657093380E-05   9.193405980321683E-05   9.309044791938530E-05
   9.426138160743525E-05   9.544704382813765E-05   9.664761984362669E-05
   9.786329724634742E-05   9.909426598836723E-05   1.003407184110567E-04
   1.016028492751426E-04   1.028808557911404E-04   1.041749376501683E-04
   1.054852970551494E-04   1.068121387524071E-04   1.081556700636557E-04
   1.095161009183963E-04   1.108936438867176E-04   1.122885142125110E-04
   1.137009298471029E-04   1.151311114833097E-04   1.165792825899219E-04
   1.180456694466212E-04   1.195305011793372E-04   1.210340097960493E-04
   1.225564302230376E-04   1.240980003415912E-04   1.256589610251776E-04
   1.272395561770791E-04   1.288400327685044E-04   1.304606408771768E-04
   1.321016337264105E-04   1.337632677246768E-04   1.354458025056684E-04
   1.371495009688683E-04   1.388746293206274E-04   1.406214571157606E-04
   1.423902572996646E-04   1.441813062509668E-04   1.459948838247099E-04
   1.478312733960796E-04   1.496907619046825E-04   1.515736398993812E-04
   1.534802015836930E-04   1.554107448617604E-04   1.573655713848979E-04
   1.593449865987271E-04   1.613492997909023E-04   1.633788241394373E-04
   1.654338767616411E-04   1.675147787636667E-04   1.696218552906856E-04
   1.717554355776920E-04   1.739158530009464E-04   1.761034451300669E-04
   1.783185537807743E-04   1.805615250683018E-04   1.828327094614765E-04
   1.851324618374804E-04   1.874611415373016E-04   1.898191124218805E-04
   1.922067429289654E-04   1.946244061306806E-04   1.970724797918200E-04
   1.995513464288741E-04   2.020613933697981E-04   2.046030128145332E-04
   2.071766018962886E-04   2.097825627435942E-04   2.124213025431347E-04
   2.150932336033719E-04   2.177987734189704E-04   2.205383447360305E-04
   2.233123756181442E-04   2.261212995132810E-04   2.289655553215142E-04
   2.318455874636003E-04   2.347618459504211E-04   2.377147864532982E-04
   2.407048703751933E-04   2.437325649228024E-04   2.467983431795585E-04
   2.499026841795515E-04   2.530460729823784E-04   2.562290007489349E-04
   2.594519648181606E-04   2.627154687847483E-04   2.660200225778323E-04
   2.693661425406661E-04   2.727543515113013E-04   2.761851789042834E-04
   2.796591607933724E-04   2.831768399953063E-04   2.867387661546173E-04
   2.903454958295143E-04   2.939975925788474E-04   2.976956270501636E-04
   3.014401770688729E-04   3.052318277285340E-04   3.090711714822764E-04
   3.129588082353734E-04   3.168953454389768E-04   3.208813981850336E-04
   3.249175893023951E-04   3.290045494541348E-04   3.331429172360920E-04
   3.373333392766517E-04   3.415764703377835E-04   3.458729734173484E-04
   3.502235198526934E-04   3.546287894255509E-04   3.590894704682541E-04
   3.636062599712912E-04   3.681798636922114E-04   3.728109962659010E-04
   3.775003813162473E-04   3.822487515692048E-04   3.870568489672861E-04
   3.919254247854918E-04   3.968552397486984E-04   4.018470641505243E-04
   4.069016779736879E-04   4.120198710118828E-04   4.172024429931844E-04
   4.224502037050081E-04   4.277639731206427E-04   4.331445815273700E-04
   4.385928696562005E-04   4.441096888132388E-04   4.496959010127021E-04
   4.553523791116123E-04   4.610800069461804E-04   4.668796794699084E-04
   4.727523028934276E-04   4.786987948260956E-04   4.847200844193758E-04
   4.908171125120172E-04   4.969908317770638E-04   5.032422068707112E-04
   5.095722145830360E-04   5.159818439906225E-04   5.224720966111059E-04
   5.290439865596624E-04   5.356985407074672E-04   5.424367988421442E-04
   5.492598138302371E-04   5.561686517817187E-04   5.631643922165752E-04
   5.702481282334822E-04   5.774209666806041E-04   5.846840283285424E-04
   5.920384480454560E-04   5.994853749743883E-04   6.070259727128227E-04
   6.146614194944969E-04   6.223929083735062E-04   6.302216474107170E-04
   6.381488598625315E-04   6.461757843720236E-04   6.543036751624780E-04
   6.625338022333684E-04   6.708674515587931E-04   6.793059252884143E-04
   6.878505419509206E-04   6.965026366600489E-04   7.052635613232015E-04
   7.141346848526807E-04   7.231173933795865E-04   7.322130904704017E-04
   7.414231973463013E-04   7.507491531052240E-04   7.601924149467304E-04
   7.697544583996959E-04   7.794367775528639E-04   7.892408852883002E-04
   7.991683135177867E-04   8.092206134221807E-04   8.193993556937942E-04
   8.297061307818158E-04   8.401425491408215E-04   8.507102414824144E-04
   8.614108590300225E-04   8.722460737769081E-04   8.832175787474196E-04
   8.943270882615298E-04   9.055763382027044E-04   9.169670862891324E-04
   9.285011123483770E-04   9.401802185954765E-04   9.520062299145420E-04
   9.639809941439042E-04   9.761063823648360E-04   9.883842891939163E-04
   1.000816633079066E-03   1.013405356599312E-03   1.026152426768316E-03
   1.039059835341725E-03   1.052129599128391E-03   1.065363760305494E-03
   1.078764386737645E-03   1.092333572299987E-03   1.106073437205370E-03
   1.119986128335641E-03   1.134073819577093E-03   1.148338712160146E-03
   1.162783035003286E-03   1.177409045061347E-03   1.192219027678156E-03
   1.207215296943628E-03   1.222400196055346E-03   1.237776097684690E-03
   1.253345404347573E-03   1.269110548779836E-03   1.285073994317370E-03
   1.301238235281021E-03   1.317605797366323E-03   1.334179238038155E-03
   1.350961146930339E-03   1.367954146250281E-03   1.385160891188701E-03
   1.402584070334499E-03   1.420226406094868E-03   1.438090655120661E-03
   1.456179608737136E-03   1.474496093380096E-03   1.493042971037532E-03
   1.511823139696812E-03   1.530839533797499E-03   1.550095124689857E-03
   1.569592921099143E-03   1.589335969595711E-03   1.609327355071058E-03
   1.629570201219836E-03   1.650067671027941E-03   1.670822967266734E-03
   1.691839332993477E-03   1.713120052058075E-03   1.734668449616177E-03
   1.756487892648741E-03   1.778581790488135E-03   1.800953595350844E-03
   1.823606802876896E-03   1.846544952676055E-03   1.869771628880893E-03
   1.893290460706825E-03   1.917105123019170E-03   1.941219336907369E-03
   1.965636870266401E-03   1.990361538385531E-03   2.015397204544456E-03
   2.040747780616948E-03   2.066417227682095E-03   2.092409556643227E-03
   2.118728828854624E-03   2.145379156756117E-03   2.172364704515661E-03
   2.199689688679996E-03   2.227358378833490E-03   2.255375098265273E-03
   2.283744224644757E-03   2.312470190705654E-03   2.341557484938606E-03
   2.371010652292517E-03   2.400834294884706E-03   2.431033072720006E-03
   2.461611704418894E-03   2.492574967954786E-03   2.523927701400604E-03
   2.555674803684735E-03   2.587821235356504E-03   2.620372019361260E-03
   2.653332241825230E-03   2.686707052850232E-03   2.720501667318389E-03
   2.754721365706969E-03   2.789371494913465E-03   2.824457469091060E-03
   2.859984770494605E-03   2.895958950337223E-03   2.932385629657707E-03
   2.969270500198809E-03   3.006619325296594E-03   3.044437940780973E-03
   3.082732255887554E-03   3.121508254180987E-03   3.160771994489893E-03
   3.200529611853577E-03   3.240787318480644E-03   3.281551404719654E-03
   3.322828240042021E-03   3.364624274037242E-03   3.406946037420661E-03
   3.449800143053914E-03   3.493193286978189E-03   3.537132249460515E-03
   3.581623896053170E-03   3.626675178666452E-03   3.672293136654930E-03
   3.718484897917347E-03   3.765257680010382E-03   3.812618791276394E-03
   3.860575631985375E-03   3.909135695491259E-03   3.958306569402758E-03
   4.008095936768966E-03   4.058511577279829E-03   4.109561368481745E-03
   4.161253287008457E-03   4.213595409827397E-03   4.266595915501751E-03
   4.320263085468359E-03   4.374605305331714E-03   4.429631066174232E-03
   4.485348965882992E-03   4.541767710493186E-03   4.598896115548444E-03
   4.656743107478279E-03   4.715317724992879E-03   4.774629120495396E-03
   4.834686561512049E-03   4.895499432140186E-03   4.957077234514562E-03
   5.019429590292088E-03   5.082566242155201E-03   5.146497055334215E-03
   5.211232019148755E-03   5.276781248568618E-03   5.343154985794268E-03
   5.410363601857179E-03   5.478417598240352E-03   5.547327608519178E-03
   5.617104400022959E-03   5.687758875517332E-03   5.759302074907839E-03
   5.831745176964943E-03   5.905099501070726E-03   5.979376508987566E-03
   6.054587806649075E-03   6.130745145973525E-03   6.207860426700133E-03
   6.285945698248404E-03   6.365013161600879E-03   6.445075171209576E-03
   6.526144236926381E-03   6.608233025957751E-03   6.691354364843981E-03
   6.775521241463381E-03   6.860746807061668E-03   6.947044378306854E-03
   7.034427439370024E-03   7.122909644032249E-03   7.212504817818025E-03
   7.303226960155541E-03   7.395090246564113E-03   7.488109030869138E-03
   7.582297847444910E-03   7.677671413485653E-03   7.774244631305098E-03
   7.872032590665004E-03   7.971050571132978E-03   8.071314044469920E-03
   8.172838677047527E-03   8.275640332296193E-03   8.379735073183700E-03
   8.485139164725094E-03   8.591869076524128E-03   8.699941485346661E-03
   8.809373277726450E-03   8.920181552603691E-03   9.032383623996778E-03
   9.145997023707641E-03   9.261039504061135E-03   9.377529040678867E-03
   9.495483835287939E-03   9.614922318564983E-03   9.735863153016017E-03
   9.858325235892479E-03   9.982327702143964E-03   1.010788992740811E-02
   1.023503153103808E-02   1.036377237916811E-02   1.049413258781764E-02
   1.062613252603450E-02   1.075979281907758E-02   1.089513435163961E-02
   1.103217827111041E-02   1.117094599088122E-02   1.131145919369056E-02
   1.145373983501226E-02   1.159781014648600E-02   1.174369263939105E-02
   1.189141010816373E-02   1.204098563395908E-02   1.219244258825731E-02
   1.234580463651567E-02   1.250109574186622E-02   1.265834016886012E-02
   1.281756248725899E-02   1.297878757587403E-02   1.314204062645335E-02
   1.330734714761824E-02   1.347473296884896E-02   1.364422424452061E-02
   1.381584745798986E-02   1.398962942573298E-02   1.416559730153600E-02
   1.434377858073751E-02   1.452420110452491E-02   1.470689306428460E-02
   1.489188300600700E-02   1.507919983474685E-02   1.526887281913976E-02
   1.546093159597542E-02   1.565540617482846E-02   1.585232694274748E-02
   1.605172466900312E-02   1.625363050989579E-02   1.645807601362389E-02
   1.666509312521333E-02   1.687471419150898E-02   1.708697196622894E-02
   1.730189961508233E-02   1.751953072095156E-02   1.773989928913971E-02
   1.796303975268388E-02   1.818898697773550E-02   1.841777626900818E-02
   1.864944337529415E-02   1.888402449505009E-02   1.912155628205323E-02
   1.936207585112855E-02   1.960562078394806E-02   1.985222913490300E-02
   2.010193943704995E-02   2.035479070813165E-02   2.061082245667364E-02
   2.087007468815753E-02   2.113258791127194E-02   2.139840314424206E-02
   2.166756192123888E-02   2.194010629886887E-02   2.221607886274556E-02
   2.249552273414352E-02   2.277848157673618E-02   2.306499960341839E-02
   2.335512158321474E-02   2.364889284827483E-02   2.394635930095651E-02
   2.424756742099821E-02   2.455256427278150E-02   2.486139751268499E-02
   2.517411539653075E-02   2.549076678712435E-02   2.581140116188980E-02
   2.613606862060051E-02   2.646481989320743E-02   2.679770634776576E-02
   2.713477999846128E-02   2.747609351373769E-02   2.782170022452618E-02
   2.817165413257844E-02   2.852600991890460E-02   2.888482295231719E-02
   2.924814929808272E-02   2.961604572668189E-02   2.998856972268017E-02
   3.036577949370984E-02   3.074773397956505E-02   3.113449286141133E-02
   3.152611657111083E-02   3.192266630066493E-02   3.232420401177569E-02
   3.273079244552739E-02   3.314249513219001E-02   3.355937640114598E-02
   3.398150139094170E-02   3.440893605946566E-02   3.484174719425443E-02
   3.528000242292840E-02   3.572377022375867E-02   3.617311993636697E-02
   3.662812177256012E-02   3.708884682730072E-02   3.755536708981594E-02
   3.802775545484591E-02   3.850608573403379E-02   3.899043266745885E-02
   3.948087193531485E-02   3.997748016973520E-02   4.048033496676689E-02
   4.098951489849501E-02   4.150509952531983E-02   4.202716940838828E-02
   4.255580612218172E-02   4.309109226726222E-02   4.363311148317899E-02
   4.418194846153724E-02   4.473768895923150E-02   4.530041981184516E-02
   4.587022894721885E-02   4.644720539918925E-02   4.703143932150084E-02
   4.762302200189263E-02   4.822204587636200E-02   4.882860454360807E-02
   4.944279277965664E-02   5.006470655266917E-02   5.069444303793801E-02
   5.133210063307016E-02   5.197777897336220E-02   5.263157894736845E-02
   5.329360271266499E-02   5.396395371181207E-02   5.464273668851714E-02
   5.533005770400129E-02   5.602602415357157E-02   5.673074478340168E-02
   5.744432970752380E-02   5.816689042503411E-02   5.889853983751479E-02
   5.963939226667509E-02   6.038956347221435E-02   6.114917066990966E-02
   6.191833254993110E-02   6.269716929538729E-02   6.348580260110427E-02
   6.428435569264054E-02   6.509295334554133E-02   6.591172190483499E-02
   6.674078930477473E-02   6.758028508882853E-02   6.843034042992061E-02
   6.929108815092748E-02   7.016266274543174E-02   7.104520039873703E-02
   7.193883900914722E-02   7.284371820951326E-02   7.375997938905125E-02
   7.468776571543462E-02   7.562722215716447E-02   7.657849550622116E-02
   7.754173440100084E-02   7.851708934954058E-02   7.950471275303543E-02
   8.050475892965155E-02   8.151738413863863E-02   8.254274660474575E-02
   8.358100654294442E-02   8.463232618346229E-02   8.569686979713213E-02
   8.677480372105942E-02   8.786629638461281E-02   8.897151833574168E-02
   9.009064226762448E-02   9.122384304565241E-02   9.237129773475260E-02
   9.353318562705469E-02   9.470968826990576E-02   9.590098949423735E-02
   9.710727544328951E-02   9.832873460169596E-02   9.956555782493529E-02
   1.008179383691525E-01   1.020860719213555E-01   1.033701566299920E-01
   1.046703931359101E-01   1.059869846037093E-01   1.073201367534851E-01
   1.086700578929730E-01   1.100369589500977E-01   1.114210535059303E-01
   1.128225578280611E-01   1.142416909043918E-01   1.156786744773528E-01
   1.171337330785510E-01   1.186070940638531E-01   1.200989876489108E-01
   1.216096469451318E-01   1.231393079961048E-01   1.246882098144811E-01
   1.262565944193210E-01   1.278447068739099E-01   1.294527953240500E-01
   1.310811110368333E-01   1.327299084399026E-01   1.343994451612067E-01
   1.360899820692551E-01   1.378017833138791E-01   1.395351163675057E-01
   1.412902520669511E-01   1.430674646557393E-01   1.448670318269529E-01
   1.466892347666238E-01   1.485343581976685E-01   1.504026904243771E-01
   1.522945233774612E-01   1.542101526596686E-01   1.561498775919720E-01
   1.581140012603387E-01   1.601028305630876E-01   1.621166762588438E-01
   1.641558530150944E-01   1.662206794573563E-01   1.683114782189619E-01
   1.704285759914717E-01   1.725723035757198E-01   1.747429959335026E-01
   1.769409922399174E-01   1.791666359363590E-01   1.814202747841830E-01
   1.837022609190443E-01   1.860129509059195E-01   1.883527057948200E-01
   1.907218911772076E-01   1.931208772431182E-01   1.955500388390056E-01
   1.980097555263111E-01   2.005004116407717E-01   2.030223963524724E-01
   2.055761037266555E-01   2.081619327852936E-01   2.107802875694382E-01
   2.134315772023514E-01   2.161162159534324E-01   2.188346233029479E-01
   2.215872240075770E-01   2.243744481667800E-01   2.271967312900024E-01
   2.300545143647242E-01   2.329482439253651E-01   2.358783721230562E-01
   2.388453567962897E-01   2.418496615424574E-01   2.448917557902880E-01
   2.479721148731970E-01   2.510912201035582E-01   2.542495588479095E-01
   2.574476246031057E-01   2.606859170734273E-01   2.639649422486611E-01
   2.672852124831623E-01   2.706472465759099E-01   2.740515698515711E-01
   2.774987142425839E-01   2.809892183722726E-01   2.845236276390089E-01
   2.881024943014316E-01   2.917263775647382E-01   2.953958436680610E-01
   2.991114659729445E-01   3.028738250529333E-01   3.066835087842882E-01
   3.105411124378432E-01   3.144472387720172E-01   3.184024981269973E-01
   3.224075085201047E-01   3.264628957423615E-01   3.305692934562720E-01
   3.347273432948334E-01   3.389376949617928E-01   3.432010063331640E-01
   3.475179435600226E-01   3.518891811725933E-01   3.563154021856463E-01
   3.607972982052201E-01   3.653355695366862E-01   3.699309252941735E-01
   3.745840835113683E-01   3.792957712537090E-01   3.840667247319913E-01
   3.888976894174028E-01   3.937894201580044E-01   3.987426812966762E-01
   4.037582467905492E-01   4.088369003319356E-01   4.139794354707840E-01
   4.191866557386725E-01   4.244593747743619E-01   4.297984164509292E-01
   4.352046150044986E-01   4.406788151645931E-01   4.462218722861251E-01
   4.518346524830472E-01   4.575180327636847E-01   4.632729011677691E-01
   4.691001569051969E-01   4.750007104965330E-01   4.809754839152804E-01
   4.870254107319420E-01   4.931514362598913E-01   4.993545177030805E-01
   5.056356243056057E-01   5.119957375031520E-01   5.184358510763468E-01
   5.249569713060382E-01   5.315601171305293E-01   5.382463203047897E-01
   5.450166255616682E-01   5.518720907751358E-01   5.588137871255795E-01
   5.658427992671768E-01   5.729602254973760E-01   5.801671779285055E-01
   5.874647826615460E-01   5.948541799620837E-01   6.023365244384804E-01
   6.099129852222841E-01   6.175847461509060E-01   6.253530059526003E-01
   6.332189784337652E-01   6.411838926686041E-01   6.492489931911717E-01
   6.574155401898323E-01   6.656848097041701E-01   6.740580938243707E-01
   6.825367008931127E-01   6.911219557100012E-01   6.998151997385678E-01
   7.086177913158788E-01   7.175311058647771E-01   7.265565361087948E-01
   7.356954922897705E-01   7.449494023882004E-01   7.543197123463651E-01
   7.638078862942592E-01   7.734154067783657E-01   7.831437749933076E-01
   7.929945110164102E-01   8.029691540452193E-01   8.130692626380014E-01
   8.232964149572726E-01   8.336522090163908E-01   8.441382629292461E-01
   8.547562151630971E-01   8.655077247945823E-01   8.763944717689554E-01
   8.874181571625811E-01   8.985805034487295E-01   9.098832547667184E-01
   9.213281771944363E-01   9.329170590242973E-01   9.446517110426658E-01
   9.565339668127930E-01   9.685656829613186E-01   9.807487394683693E-01
   9.930850399613100E-01   1.005576512012192E+00   1.018225107438938E+00
   1.031032802610316E+00   1.044001598754754E+00   1.057133522273036E+00
   1.070430625054927E+00   1.083894984799791E+00   1.097528705341232E+00
   1.111333916975823E+00   1.125312776795966E+00   1.139467469026951E+00
   1.153800205368235E+00   1.168313225339034E+00   1.183008796628243E+00
   1.197889215448776E+00   1.212956806896347E+00   1.228213925312775E+00
   1.243662954653854E+00   1.259306308861850E+00   1.275146432242684E+00
   1.291185799847861E+00   1.307426917861203E+00   1.323872323990441E+00
   1.340524587863742E+00   1.357386311431214E+00   1.374460129371473E+00
   1.391748709503305E+00   1.409254753202533E+00   1.426980995824100E+00
   1.444930207129480E+00   1.463105191719457E+00   1.481508789472350E+00
   1.500143875987752E+00   1.519013363035844E+00   1.538120199012366E+00
   1.557467369399314E+00   1.577057897231422E+00   1.596894843568523E+00
   1.616981307973839E+00   1.637320428998299E+00   1.657915384670945E+00
   1.678769392995501E+00   1.699885712453195E+00   1.721267642511904E+00
   1.742918524141701E+00   1.764841740336892E+00   1.787040716644609E+00
   1.809518921700063E+00   1.832279867768529E+00   1.855327111294135E+00
   1.878664253455574E+00   1.902294940728787E+00   1.926222865456737E+00
   1.950451766426347E+00   1.974985429452685E+00   1.999827687970515E+00
   2.024982423633271E+00   2.050453566919578E+00   2.076245097747397E+00
   2.102361046095892E+00   2.128805492635127E+00   2.155582569363675E+00
   2.182696460254251E+00   2.210151401907474E+00   2.237951684213832E+00
   2.266101651023997E+00   2.294605700827554E+00   2.323468287440277E+00
   2.352693920700045E+00   2.382287167171515E+00   2.412252650859658E+00
   2.442595053932263E+00   2.473319117451542E+00   2.504429642114932E+00
   2.535931489005202E+00   2.567829580350023E+00   2.600128900291064E+00
   2.632834495662777E+00   2.665951476780982E+00   2.699485018241354E+00
   2.733440359727972E+00   2.767822806832025E+00   2.802637731880823E+00
   2.837890574777240E+00   2.873586843849699E+00   2.909732116712865E+00
   2.946332041139166E+00   2.983392335941254E+00   3.020918791865591E+00
   3.058917272497265E+00   3.097393715176179E+00   3.136354131924789E+00
   3.175804610387474E+00   3.215751314781757E+00   3.256200486861470E+00
   3.297158446892045E+00   3.338631594638071E+00   3.380626410363258E+00
   3.423149455843001E+00   3.466207375389671E+00   3.509806896890800E+00
   3.553954832860324E+00   3.598658081503061E+00   3.643923627792560E+00
   3.689758544562523E+00   3.736169993611944E+00   3.783165226824162E+00
   3.830751587299983E+00   3.878936510505044E+00   3.927727525431631E+00
   3.977132255775088E+00   4.027158421125047E+00   4.077813838171626E+00
   4.129106421926798E+00   4.181044186961127E+00   4.233635248656069E+00
   4.286887824472007E+00   4.340810235232265E+00   4.395410906423225E+00
   4.450698369510846E+00   4.506681263273719E+00   4.563368335152890E+00
   4.620768442618676E+00   4.678890554554648E+00   4.737743752659047E+00
   4.797337232863813E+00   4.857680306771468E+00   4.918782403110088E+00
   4.980653069206534E+00   5.043301972478261E+00   5.106738901943865E+00
   5.170973769752635E+00   5.236016612733361E+00   5.301877593962585E+00
   5.368567004352620E+00   5.436095264259518E+00   5.504472925111275E+00
   5.573710671056523E+00   5.643819320633924E+00   5.714809828462616E+00
   5.786693286953875E+00   5.859480928044334E+00   5.933184124951012E+00
   6.007814393948371E+00   6.083383396167777E+00   6.159902939419574E+00
   6.237384980038070E+00   6.315841624749761E+00   6.395285132564998E+00
   6.475727916693508E+00   6.557182546483971E+00   6.639661749388009E+00
   6.723178412948890E+00   6.807745586815209E+00   6.893376484779933E+00
   6.980084486845088E+00   7.067883141312396E+00   7.156786166900262E+00
   7.246807454887301E+00   7.337961071282911E+00   7.430261259025105E+00
   7.523722440206001E+00   7.618359218325316E+00   7.714186380572167E+00
   7.811218900135618E+00   7.909471938544263E+00   8.008960848035244E+00
   8.109701173953093E+00   8.211708657178690E+00   8.314999236588822E+00
   8.419589051546668E+00   8.525494444423597E+00   8.632731963152729E+00
   8.741318363814532E+00   8.851270613255030E+00   8.962605891736903E+00
   9.075341595623913E+00   9.189495340099175E+00   9.305084961917498E+00
   9.422128522192466E+00   9.540644309218493E+00   9.660650841328421E+00
   9.782166869787060E+00   9.905211381721079E+00   1.002980360308580E+01
   1.015596300166929E+01   1.028370929013426E+01   1.041306242909819E+01
   1.054404263025220E+01   1.067667035951921E+01   1.081096634025176E+01
   1.094695155647003E+01   1.108464725614077E+01   1.122407495449716E+01
   1.136525643740075E+01   1.150821376474548E+01   1.165296927390459E+01
   1.179954558322090E+01   1.194796559554095E+01   1.209825250179363E+01
   1.225042978461381E+01   1.240452122201151E+01   1.256055089108735E+01
   1.271854317179457E+01   1.287852275074845E+01   1.304051462508370E+01
   1.320454410636024E+01   1.337063682451827E+01   1.353881873188289E+01
   1.370911610721932E+01   1.388155555983891E+01   1.405616403375696E+01
   1.423296881190278E+01   1.441199752038266E+01   1.459327813279654E+01
   1.477683897460892E+01   1.496270872757479E+01   1.515091643422121E+01
   1.534149150238527E+01   1.553446370980908E+01   1.572986320879266E+01
   1.592772053090525E+01   1.612806659175602E+01   1.633093269582455E+01
   1.653635054135234E+01   1.674435222529569E+01   1.695497024834087E+01
   1.716823751998253E+01   1.738418736366573E+01   1.760285352199291E+01
   1.782427016199619E+01   1.804847188047602E+01   1.827549370940709E+01
   1.850537112141204E+01   1.873814003530418E+01   1.897383682169988E+01
   1.921249830870152E+01   1.945416178765205E+01   1.969886501896169E+01
   1.994664623800820E+01   2.019754416111117E+01   2.045159799158152E+01
   2.070884742584716E+01   2.096933265965558E+01   2.123309439435450E+01
   2.150017384325161E+01   2.177061273805415E+01   2.204445333538968E+01
   2.232173842340866E+01   2.260251132847023E+01   2.288681592191204E+01
   2.317469662690521E+01   2.346619842539564E+01   2.376136686513239E+01
   2.406024806678470E+01   2.436288873114840E+01   2.466933614644300E+01
   2.497963819570066E+01   2.529384336424786E+01   2.561200074728145E+01
   2.593416005753983E+01   2.626037163307063E+01   2.659068644509626E+01
   2.692515610597812E+01   2.726383287728118E+01   2.760676967794002E+01
   2.795402009252743E+01   2.830563837962721E+01   2.866167948031207E+01
   2.902219902672838E+01   2.938725335078874E+01   2.975689949297396E+01
   3.013119521124586E+01   3.051019899007192E+01   3.089397004956365E+01
   3.128256835472991E+01   3.167605462484643E+01   3.207449034294356E+01
   3.247793776541283E+01   3.288645993173481E+01   3.330012067432916E+01
   3.371898462852847E+01   3.414311724267781E+01   3.457258478836104E+01
   3.500745437075592E+01   3.544779393911944E+01   3.589367229740503E+01
   3.634515911501336E+01   3.680232493767820E+01   3.726524119848948E+01
   3.773398022905473E+01   3.820861527080113E+01   3.868922048641965E+01
   3.917587097145300E+01   3.966864276602958E+01   4.016761286674483E+01
   4.067285923869211E+01   4.118446082764504E+01   4.170249757239274E+01
   4.222705041723052E+01   4.275820132460758E+01   4.329603328793381E+01
   4.384063034454779E+01   4.439207758884756E+01   4.495046118558697E+01
   4.551586838333904E+01   4.608838752812873E+01   4.666810807723729E+01
   4.725512061317991E+01   4.784951685785963E+01   4.845138968689900E+01
   4.906083314415201E+01   4.967794245639889E+01   5.030281404822514E+01
   5.093554555708829E+01   5.157623584857391E+01   5.222498503184349E+01