<UPF version="2.0.1">
  <PP_INFO>
    Generated using "atomic" code by A. Dal Corso  v.7.2
    Author: ADC
    Generation date:  9Jun2023
    Pseudopotential type: USPP
    Element: Mo
    Functional: PBESOL
    Suggested minimum cutoff for wavefunctions:  49. Ry
    Suggested minimum cutoff for charge density: 306. Ry
    The Pseudo was generated with a Fully-Relativistic Calculation
    Local Potential by smoothing AE potential with Bessel fncs, cutoff radius:   1.4000
    Pseudopotential contains additional information for spin-orbit calculations.
    Valence configuration: 
    nl pn  l   occ       Rcut    Rcut US       E pseu
    4S  1  0  2.00      1.100      1.150    -4.914979
    5S  2  0  2.00      1.100      1.150    -0.359577
    4P  2  1  2.00      1.000      1.600    -3.133951
    4P  2  1  4.00      1.000      1.600    -2.948237
    4D  3  2  4.00      1.300      1.600    -0.420407
    4D  3  2  0.00      1.300      1.600    -0.403791
    Generation configuration:
    4S  1  0  2.00      1.100      1.150    -4.914976
    5S  2  0  2.00      1.100      1.150    -0.359587
    4P  2  1  2.00      1.000      1.600    -3.133955
    4P  2  1  4.00      1.000      1.600    -2.948236
    5P  3  1  0.00      1.000      1.600    -2.500000
    5P  3  1  0.00      1.000      1.600    -2.500000
    4D  3  2  4.00      1.300      1.600    -0.420419
    4D  3  2  0.00      1.300      1.600    -0.403784
    4D  3  2  0.00      1.300      1.600     1.000000
    4D  3  2  0.00      1.300      1.600     1.000000
    Pseudization used: troullier-martins
    <PP_INPUTFILE>
@input
title='Mo',
zed=42.,
rel=2,
config='[Kr] 5s2 5p0 4d4',
iswitch=3,
dft='PBESOL'
/
@inputp
lpaw=.false.,
pseudotype=3,
file_pseudopw='Mo.rel-pbesol-spn-rrkjus_psl.1.0.0.UPF',
author='ADC',
lloc=-1,
rcloc=1.4,
which_augfun='PSQ',
rmatch_augfun_nc=.true.,
nlcc=.true.,
new_core_ps=.true.,
rcore=1.2,
tm=.true.
/
6
4S  1  0  2.00  0.00  1.10  1.15  0.0
5S  2  0  2.00  0.00  1.10  1.15  0.0
4P  2  1  6.00  0.00  1.00  1.60  0.0
5P  3  1  0.00 -2.50  1.00  1.60  0.0
4D  3  2  4.00  0.00  1.30  1.60  0.0
4D  3  2  0.00  1.00  1.30  1.60  0.0
    </PP_INPUTFILE>
  </PP_INFO>
    <!-- END OF HUMAN READABLE SECTION -->
  <PP_HEADER generated="Generated using 'atomic' code by A. Dal Corso  v.7.2" author="ADC" date=" 9Jun2023" comment="" element="Mo" pseudo_type="USPP" relativistic="full" is_ultrasoft="true" is_paw="false" is_coulomb="false" has_so="true" has_wfc="false" has_gipaw="false" paw_as_gipaw="false" core_correction="true" functional="PBESOL" z_valence="14.0000000000000" total_psenergy="-138.731713207046" wfc_cutoff="49.0087921281602" rho_cutoff="306.466362616076" l_max="2" l_max_rho="4" l_local="-1" mesh_size="1229" number_of_wfc="6" number_of_proj="10"/>
  <PP_MESH mesh="1229" dx="1.250000000000000E-002" xmin="-7.00000000000000" rmax="100.000000000000" zmesh="42.0000000000000">
    <PP_R>
   2.171147537034563E-05   2.198457211116720E-05   2.226110398610910E-05
   2.254111420383938E-05   2.282464651652428E-05   2.311174522666450E-05
   2.340245519401759E-05   2.369682184260741E-05   2.399489116782168E-05
   2.429670974359892E-05   2.460232472970564E-05   2.491178387910520E-05
   2.522513554541929E-05   2.554242869048326E-05   2.586371289199661E-05
   2.618903835126948E-05   2.651845590106674E-05   2.685201701355077E-05
   2.718977380832399E-05   2.753177906057281E-05   2.787808620931368E-05
   2.822874936574316E-05   2.858382332169288E-05   2.894336355819083E-05
   2.930742625413050E-05   2.967606829504880E-05   3.004934728201463E-05
   3.042732154062915E-05   3.081005013013924E-05   3.119759285266572E-05
   3.159001026254742E-05   3.198736367580302E-05   3.238971517971176E-05
   3.279712764251469E-05   3.320966472323807E-05   3.362739088164004E-05
   3.405037138828272E-05   3.447867233473085E-05   3.491236064387865E-05
   3.535150408040683E-05   3.579617126137077E-05   3.624643166692218E-05
   3.670235565116548E-05   3.716401445315077E-05   3.763148020800517E-05
   3.810482595820391E-05   3.858412566498349E-05   3.906945421989824E-05
   3.956088745652224E-05   4.005850216229860E-05   4.056237609053748E-05
   4.107258797256529E-05   4.158921753002666E-05   4.211234548734097E-05
   4.264205358431595E-05   4.317842458891941E-05   4.372154231021207E-05
   4.427149161144288E-05   4.482835842330898E-05   4.539222975738277E-05
   4.596319371970736E-05   4.654133952456350E-05   4.712675750840944E-05
   4.771953914399617E-05   4.831977705466033E-05   4.892756502879664E-05
   4.954299803451261E-05   5.016617223446748E-05   5.079718500089781E-05
   5.143613493083225E-05   5.208312186149726E-05   5.273824688591707E-05
   5.340161236870961E-05   5.407332196208112E-05   5.475348062202229E-05
   5.544219462470747E-05   5.613957158310078E-05   5.684572046377080E-05
   5.756075160391675E-05   5.828477672860912E-05   5.901790896824663E-05
   5.976026287623330E-05   6.051195444687758E-05   6.127310113351666E-05
   6.204382186686901E-05   6.282423707361717E-05   6.361446869522501E-05
   6.441464020699111E-05   6.522487663734210E-05   6.604530458736878E-05
   6.687605225060745E-05   6.771724943307065E-05   6.856902757352960E-05
   6.943151976405162E-05   7.030486077079635E-05   7.118918705507286E-05
   7.208463679466227E-05   7.299134990540818E-05   7.390946806307877E-05
   7.483913472550429E-05   7.578049515499206E-05   7.673369644102444E-05
   7.769888752324163E-05   7.867621921471386E-05   7.966584422550648E-05
   8.066791718654075E-05   8.168259467375559E-05   8.271003523257270E-05
   8.375039940266973E-05   8.480384974306500E-05   8.587055085751739E-05
   8.695066942024627E-05   8.804437420197457E-05   8.915183609629954E-05
   9.027322814639542E-05   9.140872557205151E-05   9.255850579705072E-05
   9.372274847689245E-05   9.490163552686406E-05   9.609535115046567E-05
   9.730408186819206E-05   9.852801654667706E-05   9.976734642820427E-05
   1.010222651605891E-04   1.022929688274367E-04   1.035796559787802E-04
   1.048825276621049E-04   1.062017874537619E-04   1.075376414907778E-04
   1.088902985030636E-04   1.102599698460297E-04   1.116468695336098E-04
   1.130512142717018E-04   1.144732234920283E-04   1.159131193864229E-04
   1.173711269415489E-04   1.188474739740528E-04   1.203423911661622E-04
   1.218561121017299E-04   1.233888733027315E-04   1.249409142662234E-04
   1.265124775017637E-04   1.281038085693053E-04   1.297151561175650E-04
   1.313467719228755E-04   1.329989109285262E-04   1.346718312845978E-04
   1.363657943882996E-04   1.380810649248130E-04   1.398179109086489E-04
   1.415766037255261E-04   1.433574181747752E-04   1.451606325122771E-04
   1.469865284939407E-04   1.488353914197277E-04   1.507075101782321E-04
   1.526031772918186E-04   1.545226889623306E-04   1.564663451173719E-04
   1.584344494571708E-04   1.604273095020349E-04   1.624452366404007E-04
   1.644885461774889E-04   1.665575573845718E-04   1.686525935488600E-04
   1.707739820240166E-04   1.729220542813069E-04   1.750971459613913E-04
   1.772995969267701E-04   1.795297513148874E-04   1.817879575919038E-04
   1.840745686071445E-04   1.863899416482327E-04   1.887344384969167E-04
   1.911084254855989E-04   1.935122735545765E-04   1.959463583100007E-04
   1.984110600825669E-04   2.009067639869414E-04   2.034338599819367E-04
   2.059927429314437E-04   2.085838126661292E-04   2.112074740459109E-04
   2.138641370232173E-04   2.165542167070432E-04   2.192781334278128E-04
   2.220363128030554E-04   2.248291858039098E-04   2.276571888224646E-04
   2.305207637399449E-04   2.334203579957578E-04   2.363564246574050E-04
   2.393294224912759E-04   2.423398160343304E-04   2.453880756666843E-04
   2.484746776851072E-04   2.516001043774442E-04   2.547648440979744E-04
   2.579693913437182E-04   2.612142468317018E-04   2.644999175771978E-04
   2.678269169729444E-04   2.711957648693661E-04   2.746069876558008E-04
   2.780611183427487E-04   2.815586966451576E-04   2.851002690667529E-04
   2.886863889854309E-04   2.923176167397249E-04   2.959945197163591E-04
   2.997176724389047E-04   3.034876566575493E-04   3.073050614399970E-04
   3.111704832635117E-04   3.150845261081173E-04   3.190478015509721E-04
   3.230609288619270E-04   3.271245351002891E-04   3.312392552128008E-04
   3.354057321328505E-04   3.396246168809346E-04   3.438965686663781E-04
   3.482222549903386E-04   3.526023517501051E-04   3.570375433447072E-04
   3.615285227818558E-04   3.660759917862246E-04   3.706806609090974E-04
   3.753432496393929E-04   3.800644865160859E-04   3.848451092420446E-04
   3.896858647992959E-04   3.945875095657442E-04   3.995508094333565E-04
   4.045765399278349E-04   4.096654863297948E-04   4.148184437974646E-04
   4.200362174909325E-04   4.253196226979536E-04   4.306694849613405E-04
   4.360866402079567E-04   4.415719348793306E-04   4.471262260639145E-04
   4.527503816310061E-04   4.584452803663555E-04   4.642118121094761E-04
   4.700508778926853E-04   4.759633900818912E-04   4.819502725191522E-04
   4.880124606670299E-04   4.941509017547558E-04   5.003665549262388E-04
   5.066603913899328E-04   5.130333945705898E-04   5.194865602629232E-04
   5.260208967872010E-04   5.326374251468000E-04   5.393371791877374E-04
   5.461212057602126E-04   5.529905648821804E-04   5.599463299049787E-04
   5.669895876810447E-04   5.741214387337351E-04   5.813429974292865E-04
   5.886553921509380E-04   5.960597654752416E-04   6.035572743505939E-04
   6.111490902780103E-04   6.188363994941749E-04   6.266204031567931E-04
   6.345023175322735E-04   6.424833741857734E-04   6.505648201736326E-04
   6.587479182382281E-04   6.670339470052815E-04   6.754242011836453E-04
   6.839199917676056E-04   6.925226462417256E-04   7.012335087882688E-04
   7.100539404972312E-04   7.189853195790119E-04   7.280290415797642E-04
   7.371865195994499E-04   7.464591845126402E-04   7.558484851920941E-04
   7.653558887351445E-04   7.749828806929388E-04   7.847309653025563E-04
   7.946016657220496E-04   8.045965242684418E-04   8.147171026587150E-04
   8.249649822538339E-04   8.353417643058343E-04   8.458490702080230E-04
   8.564885417483254E-04   8.672618413658152E-04   8.781706524104765E-04
   8.892166794062290E-04   9.004016483172639E-04   9.117273068177301E-04
   9.231954245648098E-04   9.348077934752337E-04   9.465662280052694E-04
   9.584725654342345E-04   9.705286661515768E-04   9.827364139475606E-04
   9.950977163076171E-04   1.007614504710388E-03   1.020288734929528E-03
   1.033122387339295E-03   1.046117467223986E-03   1.059276005091274E-03
   1.072600056989472E-03   1.086091704828795E-03   1.099753056706669E-03
   1.113586247237119E-03   1.127593437884308E-03   1.141776817300273E-03
   1.156138601666904E-03   1.170681035042228E-03   1.185406389711046E-03
   1.200316966539985E-03   1.215415095337010E-03   1.230703135215462E-03
   1.246183474962676E-03   1.261858533413234E-03   1.277730759826908E-03
   1.293802634271369E-03   1.310076668009696E-03   1.326555403892772E-03
   1.343241416756604E-03   1.360137313824650E-03   1.377245735115202E-03
   1.394569353853893E-03   1.412110876891399E-03   1.429873045126380E-03
   1.447858633933761E-03   1.466070453598387E-03   1.484511349754129E-03
   1.503184203828533E-03   1.522091933493038E-03   1.541237493118870E-03
   1.560623874238675E-03   1.580254106013943E-03   1.600131255708328E-03
   1.620258429166910E-03   1.640638771301490E-03   1.661275466581992E-03
   1.682171739534038E-03   1.703330855242792E-03   1.724756119863131E-03
   1.746450881136241E-03   1.768418528912712E-03   1.790662495682200E-03
   1.813186257109770E-03   1.835993332578970E-03   1.859087285741742E-03
   1.882471725075255E-03   1.906150304445727E-03   1.930126723679364E-03
   1.954404729140448E-03   1.978988114316728E-03   2.003880720412152E-03
   2.029086436947067E-03   2.054609202365965E-03   2.080453004652867E-03
   2.106621881954460E-03   2.133119923211065E-03   2.159951268795536E-03
   2.187120111160213E-03   2.214630695491989E-03   2.242487320375635E-03
   2.270694338465468E-03   2.299256157165448E-03   2.328177239317859E-03
   2.357462103900627E-03   2.387115326733422E-03   2.417141541192645E-03
   2.447545438935390E-03   2.478331770632540E-03   2.509505346711057E-03
   2.541071038105624E-03   2.573033777019746E-03   2.605398557696403E-03
   2.638170437198426E-03   2.671354536198662E-03   2.704956039780089E-03
   2.738980198246010E-03   2.773432327940404E-03   2.808317812078632E-03
   2.843642101588563E-03   2.879410715962302E-03   2.915629244118618E-03
   2.952303345276220E-03   2.989438749838030E-03   3.027041260286563E-03
   3.065116752090577E-03   3.103671174623136E-03   3.142710552091196E-03
   3.182240984476916E-03   3.222268648490779E-03   3.262799798536726E-03
   3.303840767689412E-03   3.345397968683766E-03   3.387477894916991E-03
   3.430087121463174E-03   3.473232306100653E-03   3.516920190352306E-03
   3.561157600538931E-03   3.605951448845871E-03   3.651308734403059E-03
   3.697236544378643E-03   3.743742055086373E-03   3.790832533106912E-03
   3.838515336423257E-03   3.886797915570439E-03   3.935687814799680E-03
   3.985192673257204E-03   4.035320226177861E-03   4.086078306093780E-03
   4.137474844058219E-03   4.189517870884799E-03   4.242215518402345E-03
   4.295576020725496E-03   4.349607715541303E-03   4.404319045412008E-03
   4.459718559094217E-03   4.515814912874651E-03   4.572616871922718E-03
   4.630133311660086E-03   4.688373219147478E-03   4.747345694488934E-03
   4.807059952253702E-03   4.867525322916049E-03   4.928751254313159E-03
   4.990747313121378E-03   5.053523186351027E-03   5.117088682860016E-03
   5.181453734886499E-03   5.246628399600807E-03   5.312622860676902E-03
   5.379447429883594E-03   5.447112548695774E-03   5.515628789925926E-03
   5.585006859376136E-03   5.655257597510909E-03   5.726391981151006E-03
   5.798421125188590E-03   5.871356284323966E-03   5.945208854824134E-03
   6.019990376303489E-03   6.095712533526908E-03   6.172387158235515E-03
   6.250026230995413E-03   6.328641883069682E-03   6.408246398313903E-03
   6.488852215095540E-03   6.570471928237458E-03   6.653118290985890E-03
   6.736804217003165E-03   6.821542782385480E-03   6.907347227706082E-03
   6.994230960084118E-03   7.082207555279539E-03   7.171290759814338E-03
   7.261494493120461E-03   7.352832849714761E-03   7.445320101401283E-03
   7.538970699501270E-03   7.633799277111207E-03   7.729820651389281E-03
   7.827049825870578E-03   7.925501992811421E-03   8.025192535563200E-03
   8.126137030976041E-03   8.228351251832728E-03   8.331851169313226E-03
   8.436652955490211E-03   8.542772985855993E-03   8.650227841881223E-03
   8.759034313605772E-03   8.869209402262216E-03   8.980770322932310E-03
   9.093734507236882E-03   9.208119606059556E-03   9.323943492304740E-03
   9.441224263690309E-03   9.559980245575399E-03   9.680229993823791E-03
   9.801992297703300E-03   9.925286182821633E-03   1.005013091409918E-02
   1.017654599877921E-02   1.030455118947589E-02   1.043416648726070E-02
   1.056541214478762E-02   1.069830866945766E-02   1.083287682662318E-02
   1.096913764283252E-02   1.110711240911544E-02   1.124682268430988E-02
   1.138829029843058E-02   1.153153735608006E-02   1.167658623990253E-02
   1.182345961408118E-02   1.197218042787955E-02   1.212277191922737E-02
   1.227525761835153E-02   1.242966135145277E-02   1.258600724442851E-02
   1.274431972664263E-02   1.290462353474256E-02   1.306694371652444E-02
   1.323130563484694E-02   1.339773497159419E-02   1.356625773168865E-02
   1.373690024715445E-02   1.390968918123181E-02   1.408465153254322E-02
   1.426181463931204E-02   1.444120618363413E-02   1.462285419580329E-02
   1.480678705869096E-02   1.499303351218120E-02   1.518162265766127E-02
   1.537258396256886E-02   1.556594726499637E-02   1.576174277835320E-02
   1.596000109608666E-02   1.616075319646225E-02   1.636403044740410E-02
   1.656986461139624E-02   1.677828785044556E-02   1.698933273110721E-02
   1.720303222957315E-02   1.741941973682481E-02   1.763852906385043E-02
   1.786039444692815E-02   1.808505055297545E-02   1.831253248496597E-02
   1.854287578741441E-02   1.877611645193040E-02   1.901229092284232E-02
   1.925143610289173E-02   1.949358935899958E-02   1.973878852810478E-02
   1.998707192307637E-02   2.023847833869996E-02   2.049304705773948E-02
   2.075081785707519E-02   2.101183101391895E-02   2.127612731210752E-02
   2.154374804847524E-02   2.181473503930662E-02   2.208913062687031E-02
   2.236697768603515E-02   2.264831963096939E-02   2.293320042192434E-02
   2.322166457210317E-02   2.351375715461623E-02   2.380952380952382E-02
   2.410901075096750E-02   2.441226477439117E-02   2.471933326385299E-02
   2.503026419942916E-02   2.534510616471095E-02   2.566390835439600E-02
   2.598672058197505E-02   2.631359328751543E-02   2.664457754554240E-02
   2.697972507301968E-02   2.731908823743030E-02   2.766272006495913E-02
   2.801067424877835E-02   2.836300515743711E-02   2.871976784335669E-02
   2.908101805143263E-02   2.944681222774488E-02   2.981720752837774E-02
   3.019226182835047E-02   3.057203373066052E-02   3.095658257544028E-02
   3.134596844922910E-02   3.174025219436198E-02   3.213949541847628E-02
   3.254376050413802E-02   3.295311061858933E-02   3.336760972361842E-02
   3.378732258555376E-02   3.421231478538393E-02   3.464265272900481E-02
   3.507840365759562E-02   3.551963565812550E-02   3.596641767399222E-02
   3.641881951579475E-02   3.687691187224128E-02   3.734076632119451E-02
   3.781045534085581E-02   3.828605232109009E-02   3.876763157489311E-02
   3.925526835000307E-02   3.974903884065818E-02   4.024902019950220E-02
   4.075529054963965E-02   4.126792899684276E-02   4.178701564191189E-02
   4.231263159319141E-02   4.284485897924308E-02   4.338378096167880E-02
   4.392948174815477E-02   4.448204660552912E-02   4.504156187318501E-02
   4.560811497652136E-02   4.618179444061321E-02   4.676268990404400E-02
   4.735089213291174E-02   4.794649303501137E-02   4.854958567419562E-02
   4.916026428491636E-02   4.977862428694897E-02   5.040476230030180E-02
   5.103877616031333E-02   5.168076493293913E-02   5.233082893023101E-02
   5.298906972601116E-02   5.365559017174308E-02   5.433049441260249E-02
   5.501388790375012E-02   5.570587742680934E-02   5.640657110655098E-02
   5.711607842778807E-02   5.783451025248307E-02   5.856197883707025E-02
   5.929859784999599E-02   6.004448238947974E-02   6.079974900149829E-02
   6.156451569799636E-02   6.233890197532625E-02   6.312302883291923E-02
   6.391701879219218E-02   6.472099591569158E-02   6.553508582647870E-02
   6.635941572775837E-02   6.719411442275480E-02   6.803931233483726E-02
   6.889514152789909E-02   6.976173572699292E-02   7.063923033922544E-02
   7.152776247491512E-02   7.242747096901583E-02   7.333849640281030E-02
   7.426098112587604E-02   7.519506927832784E-02   7.614090681333993E-02
   7.709864151995148E-02   7.806842304615894E-02   7.905040292229878E-02
   8.004473458472454E-02   8.105157339978145E-02   8.207107668808276E-02
   8.310340374909149E-02   8.414871588601122E-02   8.520717643099000E-02
   8.627895077064152E-02   8.736420637188681E-02   8.846311280812157E-02
   8.957584178571218E-02   9.070256717082530E-02   9.184346501659467E-02
   9.299871359062986E-02   9.416849340287092E-02   9.535298723379348E-02
   9.655238016296848E-02   9.776685959798130E-02   9.899661530371452E-02
   1.002418394319991E-01   1.015027265516386E-01   1.027794736788106E-01
   1.040722803078514E-01   1.053813484424271E-01   1.067068826270968E-01
   1.080490899792739E-01   1.094081802215879E-01   1.107843657146541E-01
   1.121778614902558E-01   1.135888852849430E-01   1.150176575740543E-01
   1.164644016061668E-01   1.179293434379790E-01   1.194127119696324E-01
   1.209147389804782E-01   1.224356591652926E-01   1.239757101709488E-01
   1.255351326335499E-01   1.271141702160281E-01   1.287130696462183E-01
   1.303320807554096E-01   1.319714565173816E-01   1.336314530879324E-01
   1.353123298449035E-01   1.370143494287079E-01   1.387377777833685E-01
   1.404828841980719E-01   1.422499413492459E-01   1.440392253431655E-01
   1.458510157590950E-01   1.476855956929730E-01   1.495432518016468E-01
   1.514242743476628E-01   1.533289572446205E-01   1.552575981030980E-01
   1.572104982771531E-01   1.591879629114113E-01   1.611903009887448E-01
   1.632178253785520E-01   1.652708528856438E-01   1.673497042997452E-01
   1.694547044456190E-01   1.715861822338207E-01   1.737444707120913E-01
   1.759299071173965E-01   1.781428329286210E-01   1.803835939199250E-01
   1.826525402147722E-01   1.849500263406376E-01   1.872764112844023E-01
   1.896320585484471E-01   1.920173362074494E-01   1.944326169658966E-01
   1.968782782163208E-01   1.993547020982683E-01   2.018622755580090E-01
   2.044013904089975E-01   2.069724433930955E-01   2.095758362425622E-01
   2.122119757428272E-01   2.148812737960507E-01   2.175841474854840E-01
   2.203210191406405E-01   2.230923164032842E-01   2.258984722942507E-01
   2.287399252811073E-01   2.316171193466640E-01   2.345305040583474E-01
   2.374805346384459E-01   2.404676720352394E-01   2.434923829950239E-01
   2.465551401350404E-01   2.496564220173233E-01   2.527967132234765E-01
   2.559765044303896E-01   2.591962924869082E-01   2.624565804914668E-01
   2.657578778706994E-01   2.691007004590378E-01   2.724855705793126E-01
   2.759130171243666E-01   2.793835756396956E-01   2.828977884071287E-01
   2.864562045295604E-01   2.900593800167495E-01   2.937078778721967E-01
   2.974022681811146E-01   3.011431281995056E-01   3.049310424443581E-01
   3.087666027849795E-01   3.126504085354768E-01   3.165830665483997E-01
   3.205651913095642E-01   3.245974050340658E-01   3.286803377635024E-01
   3.328146274644200E-01   3.370009201279954E-01   3.412398698709747E-01
   3.455321390378792E-01   3.498783983044988E-01   3.542793267826868E-01
   3.587356121264713E-01   3.632479506395039E-01   3.678170473838578E-01
   3.724436162901947E-01   3.771283802693197E-01   3.818720713251351E-01
   3.866754306690201E-01   3.915392088356444E-01   3.964641658002417E-01
   4.014510710973581E-01   4.065007039410919E-01   4.116138533468488E-01
   4.167913182546260E-01   4.220339076538488E-01   4.273424407097773E-01
   4.327177468915016E-01   4.381606661015489E-01   4.436720488071194E-01
   4.492527561729736E-01   4.549036601959918E-01   4.606256438414242E-01
   4.664196011808572E-01   4.722864375319127E-01   4.782270695997066E-01
   4.842424256200862E-01   4.903334455046675E-01   4.965010809877004E-01
   5.027462957747768E-01   5.090700656934132E-01   5.154733788455255E-01
   5.219572357618207E-01   5.285226495581344E-01   5.351706460937292E-01
   5.419022641315889E-01   5.487185555007283E-01   5.556205852605410E-01
   5.626094318672197E-01   5.696861873422655E-01   5.768519574431188E-01
   5.841078618359372E-01   5.914550342705440E-01   5.988946227575804E-01
   6.064277897478833E-01   6.140557123141208E-01   6.217795823347138E-01
   6.296006066800667E-01   6.375200074011461E-01   6.455390219204263E-01
   6.536589032252408E-01   6.618809200635638E-01   6.702063571422536E-01
   6.786365153277927E-01   6.871727118495484E-01   6.958162805055941E-01
   7.045685718711183E-01   7.134309535094530E-01   7.224048101857603E-01
   7.314915440834032E-01   7.406925750230399E-01   7.500093406844750E-01
   7.594432968312980E-01   7.689959175383498E-01   7.786686954220517E-01
   7.884631418736268E-01   7.983807872952607E-01   8.084231813392277E-01
   8.185918931500286E-01   8.288885116095726E-01   8.393146455854419E-01
   8.498719241822832E-01   8.605619969963559E-01   8.713865343732859E-01
   8.823472276690618E-01   8.934457895143100E-01   9.046839540818995E-01
   9.160634773579084E-01   9.275861374159996E-01   9.392537346952513E-01
   9.510680922814752E-01   9.630310561920813E-01   9.751444956645197E-01
   9.874103034483517E-01   9.998303961010002E-01   1.012406714287210E+00
   1.025141223082284E+00   1.038035912279132E+00   1.051092796699173E+00
   1.064313916507163E+00   1.077701337529971E+00   1.091257151579369E+00
   1.104983476778881E+00   1.118882457894745E+00   1.132956266671040E+00
   1.147207102169020E+00   1.161637191110725E+00   1.176248788226910E+00
   1.191044176609352E+00   1.206025668067587E+00   1.221195603490136E+00
   1.236556353210273E+00   1.252110317376392E+00   1.267859926327039E+00
   1.283807640970656E+00   1.299955953170102E+00   1.316307386132010E+00
   1.332864494801051E+00   1.349629866259139E+00   1.366606120129672E+00
   1.383795908986858E+00   1.401201918770176E+00   1.418826869204071E+00
   1.436673514222905E+00   1.454744642401271E+00   1.473043077389713E+00
   1.491571678355925E+00   1.510333340431508E+00   1.529330995164331E+00
   1.548567610976596E+00   1.568046193628661E+00   1.587769786688696E+00
   1.607741472008242E+00   1.627964370203766E+00   1.648441641144254E+00
   1.669176484444951E+00   1.690172139967308E+00   1.711431888325216E+00
   1.732959051397611E+00   1.754756992847520E+00   1.776829118647642E+00
   1.799178877612540E+00   1.821809761937521E+00   1.844725307744307E+00
   1.867929095633551E+00   1.891424751244319E+00   1.915215945820603E+00
   1.939306396784956E+00   1.963699868319358E+00   1.988400171953364E+00
   2.013411167159668E+00   2.038736761957158E+00   2.064380913521545E+00
   2.090347628803687E+00   2.116640965155674E+00   2.143265030964807E+00
   2.170223986295535E+00   2.197522043539474E+00   2.225163468073611E+00
   2.253152578926765E+00   2.281493749454452E+00   2.310191408022225E+00
   2.339250038697620E+00   2.368674181950806E+00   2.398468435364027E+00
   2.428637454349995E+00   2.459185952879306E+00   2.490118704217005E+00
   2.521440541668427E+00   2.553156359334394E+00   2.585271112875945E+00
   2.617789820288658E+00   2.650717562686723E+00   2.684059485096886E+00
   2.717820797262358E+00   2.752006774456851E+00   2.786622758308855E+00
   2.821674157636270E+00   2.857166449291558E+00   2.893105179017499E+00
   2.929495962313729E+00   2.966344485314178E+00   3.003656505675528E+00
   3.041437853476879E+00   3.079694432130690E+00   3.118432219305208E+00
   3.157657267858492E+00   3.197375706784179E+00   3.237593742169166E+00
   3.278317658163303E+00   3.319553817961317E+00   3.361308664797071E+00
   3.403588722950334E+00   3.446400598766214E+00   3.489750981687409E+00
   3.533646645299446E+00   3.578094448389071E+00   3.623101336015943E+00
   3.668674340597828E+00   3.714820583009407E+00   3.761547273694943E+00
   3.808861713794921E+00   3.856771296286865E+00   3.905283507140520E+00
   3.954405926487527E+00   4.004146229805848E+00   4.054512189119075E+00
   4.105511674210818E+00   4.157152653854388E+00   4.209443197057915E+00
   4.262391474325163E+00   4.316005758932175E+00   4.370294428219999E+00
   4.425265964903670E+00   4.480928958397631E+00   4.537292106157861E+00
   4.594364215040871E+00   4.652154202679784E+00   4.710671098877752E+00
   4.769924047018853E+00   4.829922305496787E+00   4.890675249161508E+00
   4.952192370784063E+00   5.014483282539870E+00   5.077557717510620E+00
   5.141425531205103E+00   5.206096703099147E+00   5.271581338194933E+00
   5.337889668599931E+00   5.405032055125669E+00   5.473018988906643E+00
   5.541861093039579E+00   5.611569124243300E+00   5.682153974539515E+00
   5.753626672954685E+00   5.825998387243348E+00   5.899280425633103E+00
   5.973484238591538E+00   6.048621420615406E+00   6.124703712042261E+00
   6.201743000884929E+00   6.279751324689030E+00   6.358740872413860E+00
   6.438723986336971E+00   6.519713163982632E+00   6.601721060074624E+00
   6.684760488513560E+00   6.768844424379070E+00   6.853986005957216E+00
   6.940198536793337E+00   7.027495487770774E+00   7.115890499215728E+00
   7.205397383028568E+00   7.296030124842007E+00   7.387802886206343E+00
   7.480730006802250E+00   7.574826006681382E+00   7.670105588535155E+00
   7.766583639992096E+00   7.864275235944022E+00   7.963195640901556E+00
   8.063360311379228E+00   8.164784898310581E+00   8.267485249493685E+00
   8.371477412067353E+00   8.476777635018559E+00   8.583402371721373E+00
   8.691368282507831E+00   8.800692237271164E+00   8.911391318101717E+00
   9.023482821956092E+00   9.136984263359816E+00   9.251913377144019E+00
   9.368288121216574E+00   9.486126679367999E+00   9.605447464112750E+00
   9.726269119566203E+00   9.848610524357829E+00   9.972490794581047E+00
   1.009792928678011E+01   1.022494560097463E+01   1.035355958372211E+01
   1.048379133121902E+01   1.061566119244089E+01   1.074918977232180E+01
   1.088439793497403E+01   1.102130680694808E+01   1.115993778053374E+01
   1.130031251710268E+01   1.144245295049308E+01   1.158638129043685E+01
   1.173212002602992E+01   1.187969192924624E+01   1.202912005849593E+01
   1.218042776222820E+01   1.233363868257958E+01   1.248877675906811E+01
   1.264586623233384E+01   1.280493164792659E+01   1.296599786014118E+01
   1.312909003590093E+01   1.329423365869014E+01   1.346145453253584E+01
   1.363077878603979E+01   1.380223287646110E+01   1.397584359385022E+01
   1.415163806523496E+01   1.432964375885910E+01   1.450988848847447E+01
   1.469240041768675E+01   1.487720806435622E+01   1.506434030505367E+01
   1.525382637957240E+01   1.544569589549710E+01   1.563997883282999E+01
   1.583670554867529E+01   1.603590678198261E+01   1.623761365834989E+01
   1.644185769488699E+01   1.664867080514014E+01   1.685808530407857E+01
   1.707013391314381E+01   1.728484976536241E+01   1.750226641052317E+01
   1.772241782041921E+01   1.794533839415624E+01   1.817106296352742E+01
   1.839962679845595E+01   1.863106561250609E+01   1.886541556846338E+01
   1.910271328398523E+01   1.934299583732248E+01   1.958630077311291E+01
   1.983266610824781E+01   2.008213033781199E+01   2.033473244109886E+01
   2.059051188770099E+01   2.084950864367729E+01   2.111176317779782E+01
   2.137731646786710E+01   2.164621000712698E+01   2.191848581074002E+01
   2.219418642235448E+01   2.247335492075188E+01   2.275603492657804E+01
   2.304227060915899E+01   2.333210669340248E+01   2.362558846678634E+01