<UPF version="2.0.1">
  <PP_INFO>
    Generated using "atomic" code by A. Dal Corso  v.7.2
    Author: ADC
    Generation date:  9Jun2023
    Pseudopotential type: USPP
    Element: Ni
    Functional: REVPBE
    Suggested minimum cutoff for wavefunctions:  75. Ry
    Suggested minimum cutoff for charge density: 477. Ry
    The Pseudo was generated with a Fully-Relativistic Calculation
    Local Potential by smoothing AE potential with Bessel fncs, cutoff radius:   1.5000
    Pseudopotential contains additional information for spin-orbit calculations.
    Valence configuration: 
    nl pn  l   occ       Rcut    Rcut US       E pseu
    3S  1  0  2.00      0.800      1.200    -8.162181
    4S  2  0  2.00      0.800      1.200    -0.409281
    3P  2  1  2.00      1.000      1.200    -5.351976
    3P  2  1  4.00      1.000      1.200    -5.189950
    3D  3  2  4.00      1.000      1.400    -0.656981
    3D  3  2  4.00      1.000      1.400    -0.639425
    Generation configuration:
    3S  1  0  2.00      0.800      1.200    -8.162183
    4S  2  0  2.00      0.800      1.200    -0.409281
    3P  2  1  2.00      1.000      1.200    -5.351977
    3P  2  1  4.00      1.000      1.200    -5.189949
    4P  3  1  0.00      1.000      1.200     7.000000
    4P  3  1  0.00      1.000      1.200     7.000000
    3D  3  2  4.00      1.000      1.400    -0.656981
    3D  3  2  4.00      1.000      1.400    -0.639419
    3D  3  2  0.00      1.000      1.400     4.000000
    3D  3  2  0.00      1.000      1.400     4.000000
    Pseudization used: troullier-martins
    <PP_INPUTFILE>
@input
title='Ni',
zed=28.,
rel=2,
config='[Ar] 4s2 4p0 3d8',
iswitch=3,
dft='REVPBE'
/
@inputp
lpaw=.false.,
pseudotype=3,
file_pseudopw='Ni.rel-revpbe-spn-rrkjus_psl.1.0.0.UPF',
author='ADC',
lloc=-1,
rcloc=1.5,
which_augfun='PSQ',
rmatch_augfun_nc=.true.,
nlcc=.true.,
new_core_ps=.true.,
rcore=0.8,
tm=.true.
/
6
3S  1  0  2.00  0.00  0.80  1.20  0.0
4S  2  0  2.00  0.00  0.80  1.20  0.0
3P  2  1  6.00  0.00  1.00  1.20  0.0
4P  3  1  0.00  7.00  1.00  1.20  0.0
3D  3  2  8.00  0.00  1.00  1.40  0.0
3D  3  2  0.00  4.00  1.00  1.40  0.0
    </PP_INPUTFILE>
  </PP_INFO>
    <!-- END OF HUMAN READABLE SECTION -->
  <PP_HEADER generated="Generated using 'atomic' code by A. Dal Corso  v.7.2" author="ADC" date=" 9Jun2023" comment="" element="Ni" pseudo_type="USPP" relativistic="full" is_ultrasoft="true" is_paw="false" is_coulomb="false" has_so="true" has_wfc="false" has_gipaw="false" paw_as_gipaw="false" core_correction="true" functional="REVPBE" z_valence="18.0000000000000" total_psenergy="-339.143828080125" wfc_cutoff="74.6433518306136" rho_cutoff="477.404007342514" l_max="2" l_max_rho="4" l_local="-1" mesh_size="1195" number_of_wfc="6" number_of_proj="10"/>
  <PP_MESH mesh="1195" dx="1.250000000000000E-002" xmin="-7.00000000000000" rmax="100.000000000000" zmesh="28.0000000000000">
    <PP_R>
   3.256721305551844E-05   3.297685816675079E-05   3.339165597916365E-05
   3.381167130575907E-05   3.423696977478642E-05   3.466761783999675E-05
   3.510368279102638E-05   3.554523276391112E-05   3.599233675173251E-05
   3.644506461539838E-05   3.690348709455846E-05   3.736767581865781E-05
   3.783770331812893E-05   3.831364303572488E-05   3.879556933799492E-05
   3.928355752690422E-05   3.977768385160012E-05   4.027802552032616E-05
   4.078466071248599E-05   4.129766859085920E-05   4.181712931397052E-05
   4.234312404861474E-05   4.287573498253931E-05   4.341504533728624E-05
   4.396113938119575E-05   4.451410244257320E-05   4.507402092302194E-05
   4.564098231094373E-05   4.621507519520886E-05   4.679638927899857E-05
   4.738501539382113E-05   4.798104551370453E-05   4.858457276956764E-05
   4.919569146377204E-05   4.981449708485710E-05   5.044108632246006E-05
   5.107555708242408E-05   5.171800850209627E-05   5.236854096581796E-05
   5.302725612061025E-05   5.369425689205616E-05   5.436964750038327E-05
   5.505353347674823E-05   5.574602167972615E-05   5.644722031200775E-05
   5.715723893730587E-05   5.787618849747524E-05   5.860418132984736E-05
   5.934133118478335E-05   6.008775324344790E-05   6.084356413580621E-05
   6.160888195884794E-05   6.238382629503999E-05   6.316851823101145E-05
   6.396308037647392E-05   6.476763688337911E-05   6.558231346531811E-05
   6.640723741716433E-05   6.724253763496348E-05   6.808834463607416E-05
   6.894479057956104E-05   6.981200928684525E-05   7.069013626261416E-05
   7.157930871599426E-05   7.247966558199050E-05   7.339134754319496E-05
   7.431449705176891E-05   7.524925835170122E-05   7.619577750134672E-05
   7.715420239624838E-05   7.812468279224589E-05   7.910737032887560E-05
   8.010241855306440E-05   8.110998294312167E-05   8.213022093303343E-05
   8.316329193706121E-05   8.420935737465117E-05   8.526858069565619E-05
   8.634112740587512E-05   8.742716509291368E-05   8.852686345236995E-05
   8.964039431434995E-05   9.076793167031637E-05   9.190965170027499E-05
   9.306573280030352E-05   9.423635561042577E-05   9.542170304283752E-05
   9.662196031048667E-05   9.783731495601315E-05   9.906795688105316E-05
   1.003140783759112E-04   1.015758741496060E-04   1.028535413602944E-04
   1.041472796460774E-04   1.054572911561945E-04   1.067837805826093E-04
   1.081269551919934E-04   1.094870248581122E-04   1.108642020946182E-04
   1.122587020882564E-04   1.136707427324881E-04   1.151005446615366E-04
   1.165483312848624E-04   1.180143288220708E-04   1.194987663382597E-04
   1.210018757798111E-04   1.225238920106334E-04   1.240650528488590E-04
   1.256255991040046E-04   1.272057746145975E-04   1.288058262862761E-04
   1.304260041303694E-04   1.320665613029619E-04   1.337277541444493E-04
   1.354098422195931E-04   1.371130883580773E-04   1.388377586955761E-04
   1.405841227153387E-04   1.423524532902961E-04   1.441430267256985E-04
   1.459561228022881E-04   1.477920248200156E-04   1.496510196423064E-04
   1.515333977408836E-04   1.534394532411550E-04   1.553694839681703E-04
   1.573237914931573E-04   1.593026811806429E-04   1.613064622361667E-04
   1.633354477545955E-04   1.653899547690445E-04   1.674703043004147E-04
   1.695768214075528E-04   1.717098352380425E-04   1.738696790796344E-04
   1.760566904123233E-04   1.782712109610792E-04   1.805135867492434E-04
   1.827841681525948E-04   1.850833099540973E-04   1.874113713993352E-04
   1.897687162526456E-04   1.921557128539579E-04   1.945727341763475E-04
   1.970201578843133E-04   1.994983663927893E-04   2.020077469268967E-04
   2.045486915824495E-04   2.071215973872195E-04   2.097268663629733E-04
   2.123649055882891E-04   2.150361272621628E-04   2.177409487684157E-04
   2.204797927409110E-04   2.232530871295915E-04   2.260612652673481E-04
   2.289047659377280E-04   2.317840334434960E-04   2.346995176760578E-04
   2.376516741857562E-04   2.406409642530524E-04   2.436678549606010E-04
   2.467328192662333E-04   2.498363360768577E-04   2.529788903232899E-04
   2.561609730360250E-04   2.593830814219604E-04   2.626457189420870E-04
   2.659493953901552E-04   2.692946269723310E-04   2.726819363878558E-04
   2.761118529107168E-04   2.795849124723491E-04   2.831016577453751E-04
   2.866626382283984E-04   2.902684103318647E-04   2.939195374650011E-04
   2.976165901238503E-04   3.013601459804120E-04   3.051507899729050E-04
   3.089891143971655E-04   3.128757189991938E-04   3.168112110688664E-04
   3.207962055348259E-04   3.248313250605648E-04   3.289172001417193E-04
   3.330544692045831E-04   3.372437787058647E-04   3.414857832336969E-04
   3.457811456099173E-04   3.501305369936367E-04   3.545346369861076E-04
   3.589941337369138E-04   3.635097240514956E-04   3.680821135000264E-04
   3.727120165276609E-04   3.774001565661662E-04   3.821472661469617E-04
   3.869540870155772E-04   3.918213702475528E-04   3.967498763657967E-04
   4.017403754594166E-04   4.067936473040492E-04   4.119104814837011E-04
   4.170916775141230E-04   4.223380449677364E-04   4.276504036001294E-04
   4.330295834781464E-04   4.384764251095874E-04   4.439917795745386E-04
   4.495765086583571E-04   4.552314849863239E-04   4.609575921599955E-04
   4.667557248952676E-04   4.726267891621760E-04   4.785717023264581E-04
   4.845913932928905E-04   4.906868026504337E-04   4.968588828192011E-04
   5.031085981992759E-04   5.094369253214020E-04   5.158448529995671E-04
   5.223333824855079E-04   5.289035276251576E-04   5.355563150170608E-04
   5.422927841727838E-04   5.491139876793369E-04   5.560209913636461E-04
   5.630148744590893E-04   5.700967297741289E-04   5.772676638630670E-04
   5.845287971989439E-04   5.918812643486163E-04   5.993262141500347E-04
   6.068648098917523E-04   6.144982294946922E-04   6.222276656961970E-04
   6.300543262363987E-04   6.379794340469304E-04   6.460042274420107E-04
   6.541299603119349E-04   6.623579023189959E-04   6.706893390958717E-04
   6.791255724465092E-04   6.876679205495333E-04   6.963177181642141E-04
   7.050763168390279E-04   7.139450851228367E-04   7.229254087787282E-04
   7.320186910005449E-04   7.412263526321337E-04   7.505498323893583E-04
   7.599905870848991E-04   7.695500918558847E-04   7.792298403943847E-04
   7.890313451808015E-04   7.989561377202000E-04   8.090057687816061E-04
   8.191818086403190E-04   8.294858473232705E-04   8.399194948574681E-04
   8.504843815215671E-04   8.611821581006026E-04   8.720144961439298E-04
   8.829830882264071E-04   8.940896482128624E-04   9.053359115258909E-04
   9.167236354170155E-04   9.282545992412624E-04   9.399306047351898E-04
   9.517534762984102E-04   9.637250612786602E-04   9.758472302604489E-04
   9.881218773573422E-04   1.000550920507922E-03   1.013136301775468E-03
   1.025879987651408E-03   1.038783969362588E-03   1.051850263182403E-03
   1.065080910745847E-03   1.078477979368518E-03   1.092043562369646E-03
   1.105779779399175E-03   1.119688776768960E-03   1.133772727788141E-03
   1.148033833102717E-03   1.162474321039408E-03   1.177096447953834E-03
   1.191902498583074E-03   1.206894786402663E-03   1.222075653988073E-03
   1.237447473380751E-03   1.253012646458751E-03   1.268773605312034E-03
   1.284732812622488E-03   1.300892762048723E-03   1.317255978615715E-03
   1.333825019109344E-03   1.350602472475896E-03   1.367590960226595E-03
   1.384793136847215E-03   1.402211690212851E-03   1.419849342007904E-03
   1.437708848151352E-03   1.455792999227365E-03   1.474104620921341E-03
   1.492646574461426E-03   1.511421757065583E-03   1.530433102394292E-03
   1.549683581008942E-03   1.569176200835979E-03   1.588914007636912E-03
   1.608900085484208E-03   1.629137557243193E-03   1.649629585060004E-03
   1.670379370855678E-03   1.691390156826462E-03   1.712665225950410E-03
   1.734207902500356E-03   1.756021552563342E-03   1.778109584566569E-03
   1.800475449809978E-03   1.823122643005515E-03   1.846054702823192E-03
   1.869275212444015E-03   1.892787800119851E-03   1.916596139740362E-03
   1.940703951407053E-03   1.965115002014544E-03   1.989833105839158E-03
   2.014862125134906E-03   2.040205970736975E-03   2.065868602672803E-03
   2.091854030780840E-03   2.118166315337098E-03   2.144809567689570E-03
   2.171787950900642E-03   2.199105680397580E-03   2.226767024631194E-03
   2.254776305742800E-03   2.283137900239557E-03   2.311856239678306E-03
   2.340935811358013E-03   2.370381159020914E-03   2.400196883562492E-03
   2.430387643750365E-03   2.460958156952235E-03   2.491913199872988E-03
   2.523257609301057E-03   2.554996282864188E-03   2.587134179794697E-03
   2.619676321704362E-03   2.652627793369068E-03   2.685993743523300E-03
   2.719779385664655E-03   2.753989998868455E-03   2.788630928612613E-03
   2.823707587612881E-03   2.859225456668591E-03   2.895190085519046E-03
   2.931607093710673E-03   2.968482171475092E-03   3.005821080618229E-03
   3.043629655420601E-03   3.081913803548948E-03   3.120679506979301E-03
   3.159932822931690E-03   3.199679884816597E-03   3.239926903193304E-03
   3.280680166740319E-03   3.321946043237983E-03   3.363730980563453E-03
   3.406041507698202E-03   3.448884235748172E-03   3.492265858976789E-03
   3.536193155850941E-03   3.580672990100134E-03   3.625712311788967E-03
   3.671318158403086E-03   3.717497655948810E-03   3.764258020066585E-03
   3.811606557158436E-03   3.859550665529618E-03   3.908097836544605E-03
   3.957255655797640E-03   4.007031804297992E-03   4.057434059670135E-03
   4.108470297369015E-03   4.160148491910606E-03   4.212476718117948E-03
   4.265463152382846E-03   4.319116073943453E-03   4.373443866177927E-03
   4.428455017914329E-03   4.484158124757045E-03   4.540561890429845E-03
   4.597675128135865E-03   4.655506761934704E-03   4.714065828136793E-03
   4.773361476715373E-03   4.833402972736169E-03   4.894199697805088E-03
   4.955761151534117E-03   5.018096953025649E-03   5.081216842375487E-03
   5.145130682194761E-03   5.209848459150979E-03   5.275380285528459E-03
   5.341736400808396E-03   5.408927173268807E-03   5.476963101604589E-03
   5.545854816567965E-03   5.615613082629560E-03   5.686248799660368E-03
   5.757773004634885E-03   5.830196873355659E-03   5.903531722199520E-03
   5.977789009885806E-03   6.052980339266790E-03   6.129117459140671E-03
   6.206212266087328E-03   6.284276806327199E-03   6.363323277603518E-03
   6.443364031088244E-03   6.524411573311953E-03   6.606478568118012E-03
   6.689577838641325E-03   6.773722369311975E-03   6.858925307884077E-03
   6.945199967490128E-03   7.032559828721217E-03   7.121018541733401E-03
   7.210589928380552E-03   7.301287984374074E-03   7.393126881469738E-03
   7.486120969682067E-03   7.580284779526541E-03   7.675633024290023E-03
   7.772180602329748E-03   7.869942599401211E-03   7.968934291015353E-03
   8.069171144825391E-03   8.170668823043662E-03   8.273443184888889E-03
   8.377510289064204E-03   8.482886396266364E-03   8.589587971726509E-03
   8.697631687782885E-03   8.807034426485947E-03   8.917813282236200E-03
   9.029985564455233E-03   9.143568800290363E-03   9.258580737353273E-03
   9.375039346493119E-03   9.492962824604522E-03   9.612369597470855E-03
   9.733278322643311E-03   9.855707892356185E-03   9.979677436478835E-03
   1.010520632550475E-02   1.023231417357822E-02   1.036102084155912E-02
   1.049134644012618E-02   1.062331133291931E-02   1.075693613972151E-02
   1.089224173968069E-02   1.102924927457214E-02   1.116798015210192E-02
   1.130845604925190E-02   1.145069891566681E-02   1.159473097708392E-02
   1.174057473880587E-02   1.188825298921713E-02   1.203778880334480E-02
   1.218920554646406E-02   1.234252687774909E-02   1.249777675396984E-02
   1.265497943323532E-02   1.281415947878399E-02   1.297534176282183E-02
   1.313855147040866E-02   1.330381410339332E-02   1.347115548439847E-02
   1.364060176085532E-02   1.381217940908933E-02   1.398591523845711E-02
   1.416183639553546E-02   1.433997036836310E-02   1.452034499073569E-02
   1.470298844655495E-02   1.488792927423245E-02   1.507519637114877E-02
   1.526481899816881E-02   1.545682678421384E-02   1.565124973089105E-02
   1.584811821718143E-02   1.604746300418649E-02   1.624931523993477E-02
   1.645370646424878E-02   1.666066861367316E-02   1.687023402646482E-02
   1.708243544764586E-02   1.729730603412009E-02   1.751487935985380E-02
   1.773518942112177E-02   1.795827064181933E-02   1.818415787884105E-02
   1.841288642752730E-02   1.864449202717915E-02   1.887901086664277E-02
   1.911647958996394E-02   1.935693530211383E-02   1.960041557478667E-02
   1.984695845227041E-02   2.009660245739128E-02   2.034938659753297E-02
   2.060535037073167E-02   2.086453377184772E-02   2.112697729881483E-02
   2.139272195896806E-02   2.166180927545120E-02   2.193428129370493E-02
   2.221018058803644E-02   2.248955026827179E-02   2.277243398649191E-02
   2.305887594385330E-02   2.334892089749455E-02   2.364261416752979E-02
   2.394000164412998E-02   2.424112979469338E-02   2.454604567110616E-02
   2.485479691709436E-02   2.516743177566835E-02   2.548399909666082E-02
   2.580454834435973E-02   2.612912960523722E-02   2.645779359577565E-02
   2.679059167039222E-02   2.712757582946317E-02   2.746879872744896E-02
   2.781431368112161E-02   2.816417467789560E-02   2.851843638426348E-02
   2.887715415433760E-02   2.924038403849936E-02   2.960818279215717E-02
   2.998060788461456E-02   3.035771750804995E-02   3.073957058660922E-02
   3.112622678561279E-02   3.151774652087842E-02   3.191419096816129E-02
   3.231562207271286E-02   3.272210255895993E-02   3.313369594030547E-02
   3.355046652905272E-02   3.397247944645408E-02   3.439980063288651E-02
   3.483249685815475E-02   3.527063573192435E-02   3.571428571428573E-02
   3.616351612645125E-02   3.661839716158676E-02   3.707899989577949E-02
   3.754539629914373E-02   3.801765924706642E-02   3.849586253159400E-02
   3.898008087296258E-02   3.947038993127315E-02   3.996686631831360E-02
   4.046958760952953E-02   4.097863235614545E-02   4.149408009743870E-02
   4.201601137316753E-02   4.254450773615566E-02   4.307965176503504E-02
   4.362152707714894E-02   4.417021834161733E-02   4.472581129256660E-02
   4.528839274252571E-02   4.585805059599079E-02   4.643487386316041E-02
   4.701895267384365E-02   4.761037829154297E-02   4.820924312771441E-02
   4.881564075620703E-02   4.942966592788400E-02   5.005141458542763E-02
   5.068098387833064E-02   5.131847217807589E-02   5.196397909350721E-02
   5.261760548639343E-02   5.327945348718825E-02   5.394962651098833E-02
   5.462822927369212E-02   5.531536780836192E-02   5.601114948179176E-02
   5.671568301128371E-02   5.742907848163513E-02   5.815144736233967E-02
   5.888290252500460E-02   5.962355826098727E-02   6.037353029925329E-02
   6.113293582445947E-02   6.190189349526414E-02   6.268052346286783E-02
   6.346894738978712E-02   6.426728846886462E-02   6.507567144251820E-02
   6.589422262223217E-02   6.672306990829369E-02   6.756234280977751E-02
   6.841217246478203E-02   6.927269166091982E-02   7.014403485606599E-02
   7.102633819936760E-02   7.191973955251706E-02   7.282437851129343E-02
   7.374039642737454E-02   7.466793643042345E-02   7.560714345045270E-02
   7.655816424047000E-02   7.752114739940870E-02   7.849624339534653E-02
   7.948360458901674E-02   8.048338525761463E-02   8.149574161890373E-02
   8.252083185562518E-02   8.355881614021400E-02   8.460985665982647E-02
   8.567411764168210E-02   8.675176537872462E-02   8.784296825560538E-02
   8.894789677499400E-02   9.006672358421962E-02   9.119962350224743E-02
   9.234677354699454E-02   9.350835296298936E-02   9.468454324937885E-02
   9.587552818828826E-02   9.708149387353737E-02   9.830262873971805E-02
   9.953912359163755E-02   1.007911716341322E-01   1.020589685022559E-01
   1.033427122918486E-01   1.046426035904894E-01   1.059588455088382E-01
   1.072916437123727E-01   1.086412064535238E-01   1.100077446042155E-01
   1.113914716888141E-01   1.127926039174918E-01   1.142113602200099E-01
   1.156479622799272E-01   1.171026345692384E-01   1.185756043834482E-01
   1.200671018770868E-01   1.215773600996722E-01   1.231066150321242E-01
   1.246551056236372E-01   1.262230738290168E-01   1.278107646464850E-01
   1.294184261559623E-01   1.310463095578302E-01   1.326946692121823E-01
   1.343637626785683E-01   1.360538507562379E-01   1.377651975248920E-01
   1.394980703859448E-01   1.412527401043064E-01   1.430294808506902E-01
   1.448285702444527E-01   1.466502893969719E-01   1.484949229555718E-01
   1.503627591479987E-01   1.522540898274578E-01   1.541692105182159E-01
   1.561084204617771E-01   1.580720226636406E-01   1.600603239406453E-01
   1.620736349689109E-01   1.641122703323818E-01   1.661765485719812E-01
   1.682667922353837E-01   1.703833279274145E-01   1.725264863610814E-01
   1.746966024092503E-01   1.768940151569685E-01   1.791190679544486E-01
   1.813721084707172E-01   1.836534887479389E-01   1.859635652564233E-01
   1.883026989503248E-01   1.906712553240421E-01   1.930696044693275E-01
   1.954981211331143E-01   1.979571847760724E-01   2.004471796318986E-01
   2.029684947673552E-01   2.055215241430619E-01   2.081066666750527E-01
   2.107243262971079E-01   2.133749120238688E-01   2.160588380147482E-01
   2.187765236386425E-01   2.215283935394596E-01   2.243148777024702E-01
   2.271364115214941E-01   2.299934358669308E-01   2.328863971546470E-01
   2.358157474157296E-01   2.387819443671169E-01   2.417854514831171E-01
   2.448267380678279E-01   2.479062793284657E-01   2.510245564496177E-01
   2.541820566684285E-01   2.573792733507311E-01   2.606167060681370E-01
   2.638948606760947E-01   2.672142493929315E-01   2.705753908798875E-01
   2.739788103221584E-01   2.774250395109564E-01   2.809146169266034E-01
   2.844480878226706E-01   2.880260043111741E-01   2.916489254488449E-01
   2.953174173244812E-01   2.990320531474024E-01   3.027934133370135E-01
   3.066020856134963E-01   3.104586650896431E-01   3.143637543638433E-01
   3.183179636142408E-01   3.223219106940760E-01   3.263762212282260E-01
   3.304815287109606E-01   3.346384746049263E-01   3.388477084413761E-01
   3.431098879216610E-01   3.474256790199960E-01   3.517957560875211E-01
   3.562208019576688E-01   3.607015080528592E-01   3.652385744925359E-01
   3.698327102025605E-01   3.744846330259849E-01   3.791950698352147E-01
   3.839647566455843E-01   3.887944387303623E-01   3.936848707372002E-01
   3.986368168060491E-01   4.036510506885568E-01   4.087283558689688E-01
   4.138695256865499E-01   4.190753634595433E-01   4.243466826106931E-01
   4.296843067943407E-01   4.350890700251243E-01   4.405618168082950E-01
   4.461034022716719E-01   4.517146922992583E-01   4.573965636665372E-01
   4.631499041774693E-01   4.689756128032151E-01   4.748745998225996E-01
   4.808477869643463E-01   4.868961075510987E-01   4.930205066452537E-01
   4.992219411966300E-01   5.055013801919931E-01   5.118598048064620E-01
   5.182982085568187E-01   5.248175974567482E-01   5.314189901740302E-01
   5.381034181897069E-01   5.448719259592559E-01   5.517255710757867E-01
   5.586654244352921E-01   5.656925704039795E-01   5.728081069877027E-01
   5.800131460035302E-01   5.873088132534665E-01   5.946962487003625E-01
   6.021766066460372E-01   6.097510559116379E-01   6.174207800202732E-01
   6.251869773819390E-01   6.330508614807732E-01   6.410136610646661E-01
   6.490766203372524E-01   6.572409991523234E-01   6.655080732106792E-01
   6.738791342594604E-01   6.823554902939878E-01   6.909384657621364E-01
   6.996294017712857E-01   7.084296562978690E-01   7.173406043995598E-01
   7.263636384301293E-01   7.355001682570013E-01   7.447516214815506E-01
   7.541194436621652E-01   7.636050985401198E-01   7.732100682682882E-01
   7.829358536427311E-01   7.927839743372017E-01   8.027559691405938E-01
   8.128533961973835E-01   8.230778332510925E-01   8.334308778908115E-01
   8.439141478008295E-01   8.545292810133983E-01   8.652779361646782E-01
   8.761617927539058E-01   8.871825514058160E-01   8.983419341363705E-01
   9.096416846218248E-01   9.210835684711812E-01   9.326693735020707E-01
   9.444009100201001E-01   9.562800111017191E-01   9.683085328806396E-01
   9.804883548378612E-01   9.928213800953457E-01   1.005309535713381E+00
   1.017954772991689E+00   1.030759067774323E+00   1.043724420758391E+00
   1.056852857806678E+00   1.070146430264179E+00   1.083607215278640E+00
   1.097237316125105E+00   1.111038862534560E+00   1.125014011026713E+00
   1.139164945246947E+00   1.153493876307525E+00   1.168003043133078E+00
   1.182694712810440E+00   1.197571180942891E+00   1.212634772008842E+00
   1.227887839725043E+00   1.243332767414359E+00   1.258971968378163E+00
   1.274807886273425E+00   1.290842995494534E+00   1.307079801559929E+00
   1.323520841503593E+00   1.340168684271465E+00   1.357025931122849E+00
   1.374095216036862E+00   1.391379206124000E+00   1.408880602042877E+00
   1.426602138422213E+00   1.444546584288122E+00   1.462716743496779E+00
   1.481115455172528E+00   1.499745594151500E+00   1.518610071430814E+00
   1.537711834623426E+00   1.557053868418697E+00   1.576639195048759E+00
   1.596470874760745E+00   1.616552006294957E+00   1.636885727369053E+00
   1.657475215168321E+00   1.678323686842118E+00   1.699434400006561E+00
   1.720810653253530E+00   1.742455786666087E+00   1.764373182340365E+00
   1.786566264914027E+00   1.809038502101381E+00   1.831793405235205E+00
   1.854834529815410E+00   1.878165476064588E+00   1.901789889490559E+00
   1.925711461455984E+00   1.949933929755153E+00   1.974461079198016E+00
   1.999296742201577E+00   2.024444799388708E+00   2.049909180194509E+00
   2.075693863480287E+00   2.101802878155265E+00   2.128240303806107E+00
   2.155010271334357E+00   2.182116963601906E+00   2.209564616084569E+00
   2.237357517533888E+00   2.265500010647262E+00   2.293996492746496E+00
   2.322851416464893E+00   2.352069290442991E+00   2.381654680033043E+00
   2.411612208012362E+00   2.441946555305648E+00   2.472662461716380E+00
   2.503764726667426E+00   2.535258209950962E+00   2.567147832487824E+00
   2.599438577096417E+00   2.632135489271280E+00   2.665243677971464E+00
   2.698768316418810E+00   2.732714642906282E+00   2.767087961616461E+00
   2.801893643450327E+00   2.837137126866479E+00   2.872823918730904E+00
   2.908959595177433E+00   2.945549802479037E+00   2.982600257930045E+00
   3.020116750739503E+00   3.058105142935738E+00   3.096571370282318E+00
   3.135521443205530E+00   3.174961447733512E+00   3.214897546447211E+00
   3.255335979443302E+00   3.296283065309210E+00   3.337745202110416E+00
   3.379728868390148E+00   3.422240624181677E+00   3.465287112033337E+00
   3.508875058046431E+00   3.553011272926209E+00   3.597702653046040E+00
   3.642956181524992E+00   3.688778929318959E+00   3.735178056325508E+00
   3.782160812502640E+00   3.829734539001592E+00   3.877906669313918E+00
   3.926684730432986E+00   3.976076344030084E+00   4.026089227645330E+00
   4.076731195893537E+00   4.128010161685277E+00   4.179934137463283E+00
   4.232511236454405E+00   4.285749673937338E+00   4.339657768526249E+00
   4.394243943470594E+00   4.449516727971266E+00   4.505484758513292E+00
   4.562156780215319E+00   4.619541648196035E+00   4.677648328957811E+00
   4.736485901787738E+00   4.796063560176269E+00   4.856390613253749E+00
   4.917476487244954E+00   4.979330726941975E+00   5.041962997195607E+00
   5.105383084425500E+00   5.169600898149321E+00   5.234626472531113E+00
   5.300469967949169E+00   5.367141672583607E+00   5.434652004023915E+00
   5.503011510896742E+00   5.572230874514111E+00   5.642320910542415E+00
   5.713292570692381E+00   5.785156944430298E+00   5.857925260710780E+00
   5.931608889731289E+00   6.006219344708771E+00   6.081768283678612E+00
   6.158267511316226E+00   6.235728980781582E+00   6.314164795586874E+00
   6.393587211487744E+00   6.474008638398263E+00   6.555441642330000E+00
   6.637898947355505E+00   6.721393437596446E+00   6.805938159236791E+00
   6.891546322561307E+00   6.978231304019677E+00   7.066006648316628E+00
   7.154886070528280E+00   7.244883458245181E+00   7.336012873742263E+00
   7.428288556176094E+00   7.521724923809805E+00   7.616336576265931E+00
   7.712138296807654E+00   7.809145054648721E+00   7.907372007292399E+00
   8.006834502899896E+00   8.107548082688504E+00   8.209528483359966E+00
   8.312791639559368E+00   8.417353686364951E+00   8.523230961809274E+00
   8.630440009432027E+00   8.738997580865021E+00   8.848920638449654E+00
   8.960226357887306E+00   9.072932130923109E+00   9.187055568063391E+00
   9.302614501327394E+00   9.419626987033544E+00   9.538111308620790E+00
   9.658085979505456E+00   9.779569745973948E+00   9.902581590111936E+00
   1.002714073277034E+01   1.015326663656860E+01   1.028097900893582E+01
   1.041029780519001E+01   1.054124323165616E+01   1.067383574882359E+01
   1.080809607454285E+01   1.094404518726301E+01   1.108170432930951E+01
   1.122109501020337E+01   1.136223901002207E+01   1.150515838280273E+01
   1.164987545998814E+01   1.179641285391603E+01   1.194479346135233E+01
   1.209504046706884E+01   1.224717734746587E+01   1.240122787424053E+01
   1.255721611810103E+01   1.271516645252784E+01   1.287510355758206E+01
   1.303705242376175E+01   1.320103835590675E+01   1.336708697715258E+01
   1.353522423293414E+01   1.370547639503972E+01   1.387787006571603E+01
   1.405243218182486E+01   1.422919001905200E+01   1.440817119616912E+01
   1.458940367934930E+01   1.477291578653674E+01   1.495873619187157E+01
   1.514689393017016E+01   1.533741840146194E+01   1.553033937558317E+01
   1.572568699682853E+01   1.592349178866133E+01   1.612378465848270E+01
   1.632659690246105E+01   1.653196021042213E+01   1.673990667080061E+01
   1.695046877565402E+01   1.716367942573962E+01   1.737957193565527E+01
   1.759818003904488E+01   1.781953789386936E+01   1.804368008774389E+01
   1.827064164334229E+01   1.850045802386937E+01   1.873316513860216E+01
   1.896879934850076E+01   1.920739747188989E+01   1.944899679021177E+01
   1.969363505385140E+01   1.994135048803522E+01   2.019218179880376E+01
   2.044616817905969E+01   2.070334931469166E+01   2.096376539077534E+01
   2.122745709785244E+01   2.149446563828865E+01   2.176483273271170E+01
   2.203860062653013E+01   2.231581209653434E+01   2.259651045758050E+01
   2.288073956935860E+01   2.316854384324566E+01   2.345996824924499E+01
   2.375505832301294E+01   2.405386017297391E+01   2.435642048752484E+01
   2.466278654233049E+01   2.497300620771021E+01   2.528712795611786E+01
   2.560520086971571E+01   2.592727464804362E+01   2.625339961578476E+01
   2.658362673062882E+01   2.691800759123436E+01   2.725659444529113E+01
   2.759944019768393E+01   2.794659841875913E+01   2.829812335269508E+01
   2.865406992597785E+01   2.901449375598371E+01   2.937945115966937E+01
   2.974899916237171E+01   3.012319550671798E+01   3.050209866164830E+01
   3.088576783155149E+01   3.127426296551593E+01   3.166764476669673E+01
   3.206597470180066E+01   3.246931501069047E+01   3.287772871611003E+01
   3.329127963353172E+01   3.371003238112782E+01   3.413405238986706E+01
   3.456340591373849E+01   3.499816004010372E+01   3.543838270017951E+01