<UPF version="2.0.1">
  <PP_INFO>
    Generated using "atomic" code by A. Dal Corso  v.7.2
    Author: ADC
    Generation date:  9Jun2023
    Pseudopotential type: PAW
    Element:  P
    Functional:  SLA  PW   PBX  PBC
    Suggested minimum cutoff for wavefunctions:  34. Ry
    Suggested minimum cutoff for charge density: 171. Ry
    The Pseudo was generated with a Scalar-Relativistic Calculation
    Local Potential by smoothing AE potential with Bessel fncs, cutoff radius:   1.8000
    Valence configuration: 
    nl pn  l   occ       Rcut    Rcut US       E pseu
    3S  1  0  2.00      1.500      1.800    -1.026728
    3P  2  1  3.00      1.500      1.800    -0.404748
    Generation configuration:
    3S  1  0  2.00      1.500      1.800    -1.026724
    3S  1  0  0.00      1.500      1.800     6.000000
    3P  2  1  3.00      1.500      1.800    -0.404746
    3P  2  1  0.00      1.500      1.800     3.000000
    3D  3  2  0.00      1.500      1.800     0.100000
    3D  3  2  0.00      1.500      1.800     0.300000
    Pseudization used: troullier-martins
    <PP_INPUTFILE>
@input
title='P',
zed=15.,
rel=1,
config='[Ne] 3s2 3p3 3d-1',
iswitch=3,
dft='PBE'
/
@inputp
lpaw=.true.,
pseudotype=3,
file_pseudopw='P.pbe-n-kjpaw_psl.1.0.0.UPF',
author='ADC',
lloc=-1,
rcloc=1.8,
which_augfun='PSQ',
rmatch_augfun_nc=.true.,
nlcc=.true.,
new_core_ps=.true.,
rcore=1.5,
tm=.true.
/
6
3S  1  0  2.00  0.00  1.50  1.80  0.0
3S  1  0  0.00  6.00  1.50  1.80  0.0
3P  2  1  3.00  0.00  1.50  1.80  0.0
3P  2  1  0.00  3.00  1.50  1.80  0.0
3D  3  2  0.00  0.10  1.50  1.80  0.0
3D  3  2  0.00  0.30  1.50  1.80  0.0
    </PP_INPUTFILE>
  </PP_INFO>
    <!-- END OF HUMAN READABLE SECTION -->
  <PP_HEADER generated="Generated using 'atomic' code by A. Dal Corso  v.7.2" author="ADC" date=" 9Jun2023" comment="" element=" P" pseudo_type="PAW" relativistic="scalar" is_ultrasoft="true" is_paw="true" is_coulomb="false" has_so="false" has_wfc="true" has_gipaw="false" paw_as_gipaw="false" core_correction="true" functional=" SLA  PW   PBX  PBC" z_valence="5.00000000000000" total_psenergy="-55.1421978988770" wfc_cutoff="34.4140526395110" rho_cutoff="171.193624239552" l_max="2" l_max_rho="4" l_local="-1" mesh_size="1147" number_of_wfc="2" number_of_proj="6"/>
  <PP_MESH mesh="1147" dx="1.250000000000000E-002" xmin="-7.00000000000000" rmax="100.000000000000" zmesh="15.0000000000000">
    <PP_R>
   6.079213103696775E-05   6.155680191126815E-05   6.233109116110548E-05
   6.311511977075026E-05   6.390901024626799E-05   6.471288663466059E-05
   6.552687454324924E-05   6.635110115930076E-05   6.718569526990070E-05
   6.803078728207697E-05   6.888650924317580E-05   6.975299486149457E-05
   7.063037952717400E-05   7.151880033335313E-05   7.241839609759053E-05
   7.332930738355455E-05   7.425167652298689E-05   7.518564763794216E-05
   7.613136666330717E-05   7.708898136960384E-05   7.805864138607830E-05
   7.904049822408085E-05   8.003470530074005E-05   8.104141796293431E-05
   8.206079351156540E-05   8.309299122613664E-05   8.413817238964097E-05
   8.519650031376163E-05   8.626814036438986E-05   8.735325998746400E-05
   8.845202873513276E-05   8.956461829224845E-05   9.069120250319293E-05
   9.183195739904114E-05   9.298706122506658E-05   9.415669446859211E-05
   9.534103988719163E-05   9.654028253724637E-05   9.775460980286020E-05
   9.898421142513913E-05   1.002292795318382E-04   1.014900086673821E-04
   1.027665958232634E-04   1.040592404688222E-04   1.053681445824145E-04
   1.066935126829709E-04   1.080355518619538E-04   1.093944718157151E-04
   1.107704848782623E-04   1.121638060544361E-04   1.135746530535049E-04
   1.150032463231828E-04   1.164498090840746E-04   1.179145673645547E-04
   1.193977500360847E-04   1.208995888489744E-04   1.224203184685938E-04
   1.239601765120401E-04   1.255194035852652E-04   1.270982433206718E-04
   1.286969424151806E-04   1.303157506687778E-04   1.319549210235465E-04
   1.336147096031893E-04   1.352953757530489E-04   1.369971820806306E-04
   1.387203944966353E-04   1.404652822565089E-04   1.422321180025139E-04
   1.440211778063303E-04   1.458327412121923E-04   1.476670912805678E-04
   1.495245146323869E-04   1.514053014938271E-04   1.533097457416624E-04
   1.552381449491809E-04   1.571908004326822E-04   1.591680172985582E-04
   1.611701044909669E-04   1.631973748401055E-04   1.652501451110906E-04
   1.673287360534532E-04   1.694334724512572E-04   1.715646831738467E-04
   1.737227012272332E-04   1.759078638061281E-04   1.781205123466300E-04
   1.803609925795751E-04   1.826296545845579E-04   1.849268528446326E-04
   1.872529463017008E-04   1.896082984125978E-04   1.919932772058829E-04
   1.944082553393445E-04   1.968536101582298E-04   1.993297237542040E-04
   2.018369830250544E-04   2.043757797351429E-04   2.069465105766206E-04
   2.095495772314120E-04   2.121853864339778E-04   2.148543500348684E-04
   2.175568850650766E-04   2.202934138011988E-04   2.230643638314181E-04
   2.258701681223141E-04   2.287112650865156E-04   2.315880986512036E-04
   2.345011183274752E-04   2.374507792805820E-04   2.404375424010487E-04
   2.434618743766896E-04   2.465242477655288E-04   2.496251410696387E-04
   2.527650388099072E-04   2.559444316017442E-04   2.591638162317420E-04
   2.624236957352989E-04   2.657245794752194E-04   2.690669832213039E-04
   2.724514292309378E-04   2.758784463306958E-04   2.793485699989720E-04
   2.828623424496494E-04   2.864203127168227E-04   2.900230367405846E-04
   2.936710774538937E-04   2.973650048705335E-04   3.011053961741778E-04
   3.048928358085782E-04   3.087279155688830E-04   3.126112346941074E-04
   3.165433999607652E-04   3.205250257776793E-04   3.245567342819842E-04
   3.286391554363368E-04   3.327729271273478E-04   3.369586952652543E-04
   3.411971138848437E-04   3.454888452476483E-04   3.498345599454256E-04
   3.542349370049384E-04   3.586906639940547E-04   3.632024371291819E-04
   3.677709613840514E-04   3.723969505998733E-04   3.770811275968739E-04
   3.818242242872390E-04   3.866269817894764E-04   3.914901505442168E-04
   3.964144904314729E-04   4.014007708893706E-04   4.064497710343759E-04
   4.115622797830338E-04   4.167390959752374E-04   4.219810284990498E-04
   4.272888964170922E-04   4.326635290945258E-04   4.381057663286413E-04
   4.436164584800783E-04   4.491964666056978E-04   4.548466625931218E-04
   4.605679292969688E-04   4.663611606768011E-04   4.722272619368079E-04
   4.781671496672466E-04   4.841817519876595E-04   4.902720086918958E-04
   4.964388713949563E-04   5.026833036816846E-04   5.090062812573308E-04
   5.154087921000047E-04   5.218918366150516E-04   5.284564277913668E-04
   5.351035913596769E-04   5.418343659528141E-04   5.486498032680020E-04
   5.555509682311873E-04   5.625389391634358E-04   5.696148079494226E-04
   5.767796802080423E-04   5.840346754651619E-04   5.913809273285505E-04
   5.988195836650084E-04   6.063518067797210E-04   6.139787735978760E-04
   6.217016758485551E-04   6.295217202509474E-04   6.374401287029008E-04
   6.454581384718455E-04   6.535770023881218E-04   6.617979890407341E-04
   6.701223829755724E-04   6.785514848961251E-04   6.870866118667160E-04
   6.957290975183003E-04   7.044802922568437E-04   7.133415634743285E-04
   7.223142957624108E-04   7.313998911287652E-04   7.405997692161538E-04
   7.499153675242443E-04   7.593481416342251E-04   7.688995654362422E-04
   7.785711313596962E-04   7.883643506064412E-04   7.982807533869082E-04
   8.083218891592066E-04   8.184893268712299E-04   8.287846552058055E-04
   8.392094828289332E-04   8.497654386411379E-04   8.604541720319915E-04
   8.712773531378328E-04   8.822366731027285E-04   8.933338443427219E-04
   9.045706008133956E-04   9.159486982808096E-04   9.274699145958421E-04
   9.391360499719816E-04   9.509489272666171E-04   9.629103922658586E-04
   9.750223139729481E-04   9.872865849002942E-04   9.997051213651803E-04
   1.012279863789196E-03   1.025012777001429E-03   1.037905850545473E-03
   1.050961098990300E-03   1.064180562245041E-03   1.077566305877725E-03
   1.091120421438028E-03   1.104845026784084E-03   1.118742266413398E-03
   1.132814311797938E-03   1.147063361723426E-03   1.161491642632901E-03
   1.176101408974611E-03   1.190894943554270E-03   1.205874557891753E-03
   1.221042592582278E-03   1.236401417662126E-03   1.251953432978961E-03
   1.267701068566817E-03   1.283646785025795E-03   1.299793073906533E-03
   1.316142458099519E-03   1.332697492229295E-03   1.349460763053626E-03
   1.366434889867684E-03   1.383622524913316E-03   1.401026353793469E-03
   1.418649095891812E-03   1.436493504797651E-03   1.454562368736185E-03
   1.472858511004163E-03   1.491384790411040E-03   1.510144101725665E-03
   1.529139376128595E-03   1.548373581670105E-03   1.567849723733940E-03
   1.587570845506925E-03   1.607540028454458E-03   1.627760392802002E-03
   1.648235098022627E-03   1.668967343330677E-03   1.689960368181663E-03
   1.711217452778429E-03   1.732741918583690E-03   1.754537128839021E-03
   1.776606489090366E-03   1.798953447720166E-03   1.821581496486171E-03
   1.844494171067038E-03   1.867695051614788E-03   1.891187763314207E-03
   1.914975976949296E-03   1.939063409476832E-03   1.963453824607153E-03
   1.988151033392247E-03   2.013158894821233E-03   2.038481316423340E-03
   2.064122254878459E-03   2.090085716635393E-03   2.116375758537863E-03
   2.142996488458405E-03   2.169952065940229E-03   2.197246702847158E-03
   2.224884664021739E-03   2.252870267951637E-03   2.281207887444402E-03
   2.309901950310735E-03   2.338956940056336E-03   2.368377396582464E-03
   2.398167916895311E-03   2.428333155824282E-03   2.458877826749334E-03
   2.489806702337441E-03   2.521124615288339E-03   2.552836459089644E-03
   2.584947188781467E-03   2.617461821730655E-03   2.650385438414754E-03
   2.683723183215857E-03   2.717480265224415E-03   2.751661959053170E-03
   2.786273605661328E-03   2.821320613189088E-03   2.856808457802679E-03
   2.892742684550025E-03   2.929128908227161E-03   2.965972814255568E-03
   3.003280159570521E-03   3.041056773520627E-03   3.079308558778675E-03
   3.118041492263932E-03   3.157261626076062E-03   3.196975088440765E-03
   3.237188084667332E-03   3.277906898118239E-03   3.319137891190929E-03
   3.360887506311958E-03   3.403162266943628E-03   3.445968778603293E-03
   3.489313729895494E-03   3.533203893557055E-03   3.577646127515342E-03
   3.622647375959833E-03   3.668214670427149E-03   3.714355130899761E-03
   3.761075966918491E-03   3.808384478709020E-03   3.856288058322566E-03
   3.904794190790902E-03   3.953910455295916E-03   4.003644526353865E-03
   4.054004175014531E-03   4.104997270075483E-03   4.156631779311562E-03
   4.208915770719894E-03   4.261857413780506E-03   4.315464980732837E-03
   4.369746847868291E-03   4.424711496839040E-03   4.480367515983319E-03
   4.536723601667348E-03   4.593788559644172E-03   4.651571306429578E-03
   4.710080870695307E-03   4.769326394679817E-03   4.829317135616767E-03
   4.890062467181476E-03   4.951571880955593E-03   5.013854987910160E-03
   5.076921519907357E-03   5.140781331221116E-03   5.205444400076878E-03
   5.270920830210713E-03   5.337220852448036E-03   5.404354826302219E-03
   5.472333241593255E-03   5.541166720086838E-03   5.610866017154026E-03
   5.681442023451789E-03   5.752905766624702E-03   5.825268413028028E-03
   5.898541269472488E-03   5.972735784990981E-03   6.047863552627501E-03
   6.123936311248595E-03   6.200965947377569E-03   6.278964497051779E-03
   6.357944147703310E-03   6.437917240063254E-03   6.518896270090006E-03
   6.600893890921756E-03   6.683922914853583E-03   6.767996315339406E-03
   6.853127229019093E-03   6.939328957771112E-03   7.026614970790959E-03
   7.114998906695747E-03   7.204494575655288E-03   7.295115961549929E-03
   7.386877224155594E-03   7.479792701356252E-03   7.573876911384251E-03
   7.669144555088828E-03   7.765610518233131E-03   7.863289873820168E-03
   7.962197884447979E-03   8.062350004694446E-03   8.163761883532130E-03
   8.266449366773416E-03   8.370428499546483E-03   8.475715528802377E-03
   8.582326905853616E-03   8.690279288944780E-03   8.799589545855349E-03
   8.910274756535363E-03   9.022352215774182E-03   9.135839435902831E-03
   9.250754149530353E-03   9.367114312314543E-03   9.484938105767575E-03
   9.604243940096886E-03   9.725050457081828E-03   9.847376532986457E-03
   9.971241281509006E-03   1.009666405676844E-02   1.022366445632857E-02
   1.035226232426020E-02   1.048247775424184E-02   1.061433109269935E-02
   1.074784294198512E-02   1.088303416359723E-02   1.101992588143910E-02
   1.115853948512017E-02   1.129889663329801E-02   1.144101925706258E-02
   1.158492956336301E-02   1.173065003847744E-02   1.187820345152657E-02
   1.202761285803139E-02   1.217890160351565E-02   1.233209332715362E-02
   1.248721196546381E-02   1.264428175604902E-02   1.280332724138361E-02
   1.296437327264824E-02   1.312744501361294E-02   1.329256794456901E-02
   1.345976786631036E-02   1.362907090416494E-02   1.380050351207684E-02
   1.397409247673986E-02   1.414986492178288E-02   1.432784831200804E-02
   1.450807045768220E-02   1.469055951888226E-02   1.487534400989532E-02
   1.506245280367406E-02   1.525191513634817E-02   1.544376061179259E-02
   1.563801920625318E-02   1.583472127303055E-02   1.603389754722282E-02
   1.623557915052805E-02   1.643979759610710E-02   1.664658479350757E-02
   1.685597305364977E-02   1.706799509387534E-02   1.728268404305944E-02
   1.750007344678716E-02   1.772019727259511E-02   1.794308991527893E-02
   1.816878620226751E-02   1.839732139906488E-02   1.862873121476049E-02
   1.886305180760886E-02   1.910031979067934E-02   1.934057223757703E-02
   1.958384668823553E-02   1.983018115478271E-02   2.007961412748015E-02
   2.033218458073729E-02   2.058793197920133E-02   2.084689628392359E-02
   2.110911795860355E-02   2.137463797591138E-02   2.164349782388999E-02
   2.191573951243762E-02   2.219140557987198E-02   2.247053909957696E-02
   2.275318368673292E-02   2.303938350513164E-02   2.332918327407703E-02
   2.362262827537259E-02   2.391976436039678E-02   2.422063795726742E-02
   2.452529607809616E-02   2.483378632633421E-02   2.514615690421047E-02
   2.546245662026327E-02   2.578273489696676E-02   2.610704177845328E-02
   2.643542793833287E-02   2.676794468761112E-02   2.710464398270662E-02
   2.744557843356924E-02   2.779080131190057E-02   2.814036655947771E-02
   2.849432879658179E-02   2.885274333053249E-02   2.921566616432996E-02
   2.958315400540534E-02   2.995526427448145E-02   3.033205511454491E-02
   3.071358539993107E-02   3.109991474552324E-02   3.149110351606766E-02
   3.188721283560562E-02   3.228830459702418E-02   3.269444147172709E-02
   3.310568691942731E-02   3.352210519806274E-02   3.394376137383662E-02
   3.437072133138429E-02   3.480305178406774E-02   3.524082028439983E-02
   3.568409523459936E-02   3.613294589727915E-02   3.658744240626844E-02
   3.704765577757144E-02   3.751365792046372E-02   3.798552164872822E-02
   3.846332069203246E-02   3.894712970744907E-02   3.943702429112102E-02
   3.993308099007371E-02   4.043537731417558E-02   4.094399174824920E-02
   4.145900376433469E-02   4.198049383410735E-02   4.250854344145157E-02
   4.304323509519282E-02   4.358465234198983E-02   4.413287977938895E-02
   4.468800306904264E-02   4.525010895009431E-02   4.581928525273150E-02
   4.639562091190948E-02   4.697920598124758E-02   4.757013164710019E-02
   4.816849024280483E-02   4.877437526310947E-02   4.938788137878122E-02
   5.000910445139881E-02   5.063814154833125E-02   5.127509095790472E-02
   5.192005220476035E-02   5.257312606540512E-02   5.323441458395849E-02
   5.390402108809685E-02   5.458205020519881E-02   5.526860787869338E-02
   5.596380138461385E-02   5.666773934835990E-02   5.738053176167054E-02
   5.810228999981055E-02   5.883312683897305E-02   5.957315647390107E-02
   6.032249453573067E-02   6.108125811005853E-02   6.184956575523688E-02
   6.262753752089840E-02   6.341529496671429E-02   6.421296118138814E-02
   6.502066080188887E-02   6.583852003292545E-02   6.666666666666669E-02
   6.750523010270899E-02   6.835434136829528E-02   6.921413313878837E-02
   7.008473975840164E-02   7.096629726119065E-02   7.185894339230879E-02
   7.276281762953014E-02   7.367806120504321E-02   7.460481712751872E-02
   7.554323020445512E-02   7.649344706480485E-02   7.745561618188557E-02
   7.842988789657940E-02   7.941641444082390E-02   8.041534996139874E-02
   8.142685054401136E-02   8.245107423768568E-02   8.348818107945766E-02
   8.453833311938133E-02   8.560169444584947E-02   8.667843121123277E-02
   8.776871165784147E-02   8.887270614421355E-02   8.999058717173357E-02
   9.112252941158647E-02   9.226870973205012E-02   9.342930722613159E-02
   9.460450323955052E-02   9.579448139907500E-02   9.699942764121346E-02
   9.821953024126774E-02   9.945497984275140E-02   1.007059694871782E-01
   1.019726946442253E-01   1.032553532422756E-01   1.045541456993446E-01
   1.058692749543963E-01   1.072009464990522E-01   1.085493684097007E-01
   1.099147513800086E-01   1.112973087538429E-01   1.126972565586061E-01
   1.141148135389910E-01   1.155502011911597E-01   1.170036437973533E-01
   1.184753684609359E-01   1.199656051418806E-01   1.214745866927007E-01
   1.230025488948334E-01   1.245497304954815E-01   1.261163732449180E-01
   1.277027219342598E-01   1.293090244337170E-01   1.309355317313232E-01
   1.325824979721529E-01   1.342501804980318E-01   1.359388398877477E-01
   1.376487399977658E-01   1.393801480034571E-01   1.411333344408451E-01
   1.429085732488773E-01   1.447061418122296E-01   1.465263210046469E-01
   1.483693952328312E-01   1.502356524808806E-01   1.521253843552870E-01
   1.540388861305003E-01   1.559764567950661E-01   1.579383990983428E-01
   1.599250195978066E-01   1.619366287069526E-01   1.639735407437967E-01
   1.660360739799888E-01   1.681245506905433E-01   1.702392972041952E-01
   1.723806439543898E-01   1.745489255309135E-01   1.767444807321739E-01
   1.789676526181381E-01   1.812187885639364E-01   1.834982403141404E-01
   1.858063640377234E-01   1.881435203837135E-01   1.905100745375443E-01
   1.929063962781175E-01   1.953328600355802E-01   1.977898449498312E-01
   2.002777349297623E-01   2.027969187132443E-01   2.053477899278689E-01
   2.079307471524529E-01   2.105461939793179E-01   2.131945390773518E-01
   2.158761962558642E-01   2.185915845292450E-01   2.213411281824366E-01
   2.241252568372287E-01   2.269444055193880E-01   2.297990147266318E-01
   2.326895304974562E-01   2.356164044808314E-01   2.385800940067720E-01
   2.415810621577963E-01   2.446197778412831E-01   2.476967158627404E-01
   2.508123569999941E-01   2.539671880783108E-01   2.571617020464651E-01
   2.603963980537636E-01   2.636717815280386E-01   2.669883642546217E-01
   2.703466644563118E-01   2.737472068743477E-01   2.771905228504006E-01
   2.806771504095975E-01   2.842076343445880E-01   2.877825263006697E-01
   2.914023848619840E-01   2.950677756387957E-01   2.987792713558711E-01
   3.025374519419670E-01   3.063429046204461E-01   3.101962240010315E-01
   3.140980121727163E-01   3.180488787978403E-01   3.220494412073521E-01
   3.261003244972672E-01   3.302021616263412E-01   3.343555935149708E-01
   3.385612691453389E-01   3.428198456628192E-01   3.471319884786567E-01
   3.514983713739396E-01   3.559196766048786E-01   3.603965950094113E-01
   3.649298261151468E-01   3.695200782486684E-01   3.741680686462107E-01
   3.788745235657298E-01   3.836401784003822E-01   3.884657777934317E-01
   3.933520757546013E-01   3.982998357778885E-01   4.033098309608633E-01
   4.083828441254659E-01   4.135196679403245E-01   4.187211050446111E-01
   4.239879681734557E-01   4.293210802849375E-01   4.347212746886743E-01
   4.401893951760287E-01   4.457262961519515E-01   4.513328427684853E-01
   4.570099110599454E-01   4.627583880798026E-01   4.685791720392864E-01
   4.744731724477332E-01   4.804413102546981E-01   4.864845179938557E-01
   4.926037399287102E-01   4.987999322001389E-01   5.050740629757899E-01
   5.114271126013622E-01   5.178600737537852E-01   5.243739515963264E-01
   5.309697639356518E-01   5.376485413808584E-01   5.444113275045104E-01
   5.512591790056983E-01   5.581931658751512E-01   5.652143715624252E-01
   5.723238931451931E-01   5.795228415006672E-01   5.868123414791742E-01
   5.941935320799161E-01   6.016675666289418E-01   6.092356129593551E-01
   6.168988535937933E-01   6.246584859291957E-01   6.325157224239020E-01
   6.404717907871006E-01   6.485279341706591E-01   6.566854113633727E-01
   6.649454969876485E-01   6.733094816986704E-01   6.817786723860669E-01
   6.903543923781130E-01   6.990379816485053E-01   7.078307970257340E-01
   7.167342124050907E-01   7.257496189633430E-01   7.348784253761070E-01
   7.441220580379582E-01   7.534819612853060E-01   7.629595976220751E-01
   7.725564479482264E-01   7.822740117911475E-01   7.921138075399604E-01
   8.020773726827692E-01   8.121662640468986E-01   8.223820580421507E-01
   8.327263509071209E-01   8.432007589586156E-01   8.538069188442028E-01
   8.645464877979427E-01   8.754211438993349E-01   8.864325863355192E-01
   8.975825356667798E-01   9.088727340953843E-01   9.203049457378067E-01
   9.318809569003760E-01   9.436025763583872E-01   9.554716356387291E-01
   9.674899893060617E-01   9.796595152525965E-01   9.919821149915229E-01
   1.004459713954119E+00   1.017094261790611E+00   1.029887732674802E+00
   1.042842125612545E+00   1.055959464754095E+00   1.069241799710378E+00
   1.082691205873256E+00   1.096309784739804E+00   1.110099664240677E+00
   1.124062999072603E+00   1.138201971035057E+00   1.152518789371177E+00
   1.167015691112953E+00   1.181694941430777E+00   1.196558833987377E+00
   1.211609691296204E+00   1.226849865084337E+00   1.242281736659934E+00
   1.257907717284326E+00   1.273730248548777E+00   1.289751802755988E+00
   1.305974883306400E+00   1.322402025089356E+00   1.339035794879178E+00
   1.355878791736241E+00   1.372933647413069E+00   1.390203026765561E+00
   1.407689628169375E+00   1.425396183941557E+00   1.443325460767471E+00
   1.461480260133098E+00   1.479863418762776E+00   1.498477809062442E+00
   1.517326339568449E+00   1.536411955402039E+00   1.555737638729515E+00
   1.575306409228215E+00   1.595121324558343E+00   1.615185480840733E+00
   1.635502013140624E+00   1.656074095957523E+00   1.676904943721225E+00
   1.697997811294073E+00   1.719355994479538E+00   1.740982830537199E+00
   1.762881698704187E+00   1.785056020723209E+00   1.807509261377194E+00
   1.830244929030674E+00   1.853266576177979E+00   1.876577799998310E+00
   1.900182242917819E+00   1.924083593178736E+00   1.948285585415664E+00
   1.972792001239131E+00   1.997606669826468E+00   2.022733468520129E+00
   2.048176323433529E+00   2.073939210064512E+00   2.100026153916530E+00
   2.126441231127634E+00   2.153188569107380E+00   2.180272347181745E+00
   2.207696797246155E+00   2.235466204426730E+00   2.263584907749838E+00
   2.292057300820080E+00   2.320887832506803E+00   2.350081007639238E+00
   2.379641387710393E+00   2.409573591589797E+00   2.439882296245201E+00
   2.470572237473373E+00   2.501648210640068E+00   2.533115071429319E+00
   2.564977736602144E+00   2.597241184764799E+00   2.629910457146704E+00
   2.662990658388130E+00   2.696486957337827E+00   2.730404587860655E+00
   2.764748849655385E+00   2.799525109082801E+00   2.834738800004187E+00
   2.870395424630396E+00   2.906500554381569E+00   2.943059830757683E+00
   2.980078966220057E+00   3.017563745083919E+00   3.055520024422233E+00
   3.093953734980866E+00   3.132870882105287E+00   3.172277546678913E+00
   3.212179886073256E+00   3.252584135110029E+00   3.293496607035348E+00
   3.334923694506185E+00   3.376871870589244E+00   3.419347689772382E+00
   3.462357788988764E+00   3.505908888653898E+00   3.550007793715710E+00
   3.594661394717838E+00   3.639876668876286E+00   3.685660681169629E+00
   3.732020585442944E+00   3.778963625525588E+00   3.826497136363082E+00
   3.874628545163203E+00   3.923365372556494E+00   3.972715233771399E+00
   4.022685839824133E+00   4.073284998723558E+00   4.124520616691196E+00
   4.176400699396591E+00   4.228933353208223E+00   4.282126786460126E+00
   4.335989310734467E+00   4.390529342160250E+00   4.445755402728348E+00
   4.501676121623077E+00   4.558300236570544E+00   4.615636595203910E+00
   4.673694156445862E+00   4.732481991908462E+00   4.792009287310605E+00
   4.852285343913311E+00   4.913319579973057E+00   4.975121532213398E+00
   5.037700857315112E+00   5.101067333425060E+00   5.165230861684060E+00
   5.230201467773943E+00   5.295989303484093E+00   5.362604648297688E+00
   5.430057910997876E+00   5.498359631294202E+00   5.567520481469418E+00
   5.637551268047072E+00   5.708462933480044E+00   5.780266557860327E+00
   5.852973360650323E+00   5.926594702435889E+00   6.001142086701460E+00
   6.076627161627496E+00   6.153061721910526E+00   6.230457710606111E+00
   6.308827220994943E+00   6.388182498472464E+00   6.468535942462229E+00
   6.549900108353338E+00   6.632287709462258E+00   6.715711619019275E+00
   6.800184872179985E+00   6.885720668062057E+00   6.972332371807615E+00
   7.060033516671595E+00   7.148837806136304E+00   7.238759116052647E+00
   7.329811496808241E+00   7.422009175522823E+00   7.515366558271282E+00
   7.609898232334602E+00   7.705618968479184E+00   7.802543723264794E+00
   7.900687641381555E+00   8.000066058016364E+00   8.100694501248999E+00
   8.202588694478443E+00   8.305764558879696E+00   8.410238215891479E+00
   8.516025989735262E+00   8.623144409965931E+00   8.731610214054580E+00
   8.841440350003777E+00   8.952651978995702E+00   9.065262478073665E+00
   9.179289442857248E+00   9.294750690291687E+00   9.411664261431801E+00
   9.530048424260935E+00   9.649921676545400E+00   9.771302748724745E+00
   9.894210606838449E+00   1.001866445548940E+01   1.014468374084464E+01
   1.027228815367392E+01   1.040149763242634E+01   1.053233236634584E+01
   1.066481279862578E+01   1.079895962960322E+01   1.093479381999346E+01
   1.107233659416507E+01   1.121160944345637E+01   1.135263412953341E+01
   1.149543268779029E+01   1.164002743079229E+01   1.178644095176216E+01
   1.193469612811046E+01   1.208481612501009E+01   1.223682439901600E+01
   1.239074470173028E+01   1.254660108351337E+01   1.270441789724201E+01
   1.286421980211444E+01   1.302603176750340E+01   1.318987907685770E+01
   1.335578733165279E+01   1.352378245539100E+01   1.369389069765222E+01
   1.386613863819538E+01   1.404055319111164E+01   1.421716160902974E+01
   1.439599148737429E+01   1.457707076867761E+01   1.476042774694581E+01
   1.494609107207981E+01   1.513408975435187E+01   1.532445316893860E+01
   1.551721106051082E+01   1.571239354788124E+01   1.591003112871064E+01
   1.611015468427312E+01   1.631279548428137E+01   1.651798519177269E+01
   1.672575586805631E+01   1.693613997772314E+01   1.714917039371833E+01
   1.736488040247780E+01   1.758330370912928E+01   1.780447444275881E+01
   1.802842716174352E+01   1.825519685915137E+01   1.848481896820895E+01
   1.871732936783797E+01   1.895276438826140E+01   1.919116081668021E+01
   1.943255590302135E+01   1.967698736575817E+01   1.992449339780404E+01
   2.017511267247999E+01   2.042888434955762E+01   2.068584808137776E+01
   2.094604401904630E+01   2.120951281870787E+01   2.147629564789844E+01
   2.174643419197787E+01   2.201997066064326E+01   2.229694779452435E+01
   2.257740887186184E+01   2.286139771526963E+01   2.314895869858232E+01
   2.344013675378859E+01   2.373497737805196E+01   2.403352664081985E+01
   2.433583119102193E+01   2.464193826435926E+01   2.495189569068481E+01
   2.526575190147706E+01   2.558355593740748E+01   2.590535745600325E+01
   2.623120673940641E+01   2.656115470223040E+01   2.689525289951570E+01
   2.723355353478537E+01   2.757610946820192E+01   2.792297422482693E+01
   2.827420200298430E+01   2.862984768272895E+01   2.898996683442191E+01
   2.935461572741326E+01   2.972385133883448E+01   3.009773136250103E+01
   3.047631421792729E+01   3.085965905945464E+01   3.124782578549447E+01
   3.164087504788750E+01   3.203886826138062E+01   3.244186761322317E+01
   3.284993607288379E+01   3.326313740188947E+01   3.368153616378860E+01
   3.410519773423895E+01   3.453418831122283E+01   3.496857492539070E+01
   3.540842545053474E+01   3.585380861419446E+01   3.630479400839530E+01
   3.676145210052262E+01   3.722385424433240E+01   3.769207269110034E+01
   3.816618060091142E+01   3.864625205409109E+01   3.913236206278063E+01
   3.962458658265788E+01   4.012300252480548E+01   4.062768776772851E+01
   4.113872116952291E+01   4.165618258019743E+01   4.218015285415027E+01
   4.271071386280273E+01   4.324794850739190E+01   4.379194073192399E+01
   4.434277553629082E+01   4.490053898955129E+01   4.546531824337970E+01
   4.603720154568359E+01   4.661627825439238E+01   4.720263885142001E+01
   4.779637495680266E+01   4.839757934301475E+01   4.900634594946489E+01
   4.962276989717380E+01   5.024694750363746E+01   5.087897629787678E+01
   5.151895503567666E+01   5.216698371501705E+01   5.282316359169747E+01
   5.348759719515865E+01   5.416038834450293E+01   5.484164216471616E+01
   5.553146510309386E+01   5.622996494587357E+01   5.693725083507682E+01
   5.765343328556278E+01   5.837862420229639E+01   5.911293689783390E+01
   5.985648611002789E+01   6.060938801995554E+01   6.137176027007207E+01
   6.214372198259255E+01   6.292539377810526E+01   6.371689779441851E+01
   6.451835770564517E+01   6.532989874152695E+01   6.615164770700174E+01
   6.698373300201740E+01   6.782628464159409E+01   6.867943427613965E+01
   6.954331521202026E+01   7.041806243238968E+01   7.130381261828089E+01
   7.220070416996241E+01   7.310887722856397E+01   7.402847369797367E+01
   7.495963726701071E+01   7.590251343187734E+01   7.685724951889257E+01
   7.782399470751241E+01   7.880290005363946E+01   7.979411851322557E+01
   8.079780496617182E+01   8.181411624052845E+01   8.284321113699978E+01
   8.388525045375711E+01   8.494039701156360E+01   8.600881567921581E+01