<UPF version="2.0.1">
  <PP_INFO>
    Generated using "atomic" code by A. Dal Corso  v.7.2
    Author: ADC
    Generation date:  9Jun2023
    Pseudopotential type: USPP
    Element: Pd
    Functional: PBESOL
    Suggested minimum cutoff for wavefunctions:  58. Ry
    Suggested minimum cutoff for charge density: 548. Ry
    The Pseudo was generated with a Fully-Relativistic Calculation
    Local Potential by smoothing AE potential with Bessel fncs, cutoff radius:   1.2000
    Pseudopotential contains additional information for spin-orbit calculations.
    Valence configuration: 
    nl pn  l   occ       Rcut    Rcut US       E pseu
    4S  1  0  2.00      0.800      1.400    -6.791141
    5S  2  0  2.00      0.800      1.400    -0.402362
    4P  2  1  2.00      0.900      1.300    -4.495935
    4P  2  1  4.00      0.900      1.300    -4.162658
    4D  3  2  4.00      1.100      1.600    -0.732289
    4D  3  2  4.00      1.100      1.600    -0.695085
    Generation configuration:
    4S  1  0  2.00      0.800      1.400    -6.791146
    5S  2  0  2.00      0.800      1.400    -0.402368
    4P  2  1  2.00      0.900      1.300    -4.495934
    4P  2  1  4.00      0.900      1.300    -4.162645
    5P  2  1  0.00      0.900      1.300    -2.500000
    5P  2  1  0.00      0.900      1.300    -2.500000
    4D  3  2  4.00      1.100      1.600    -0.732291
    4D  3  2  4.00      1.100      1.600    -0.695077
    4D  3  2  0.00      1.100      1.600     0.500000
    4D  3  2  0.00      1.100      1.600     0.500000
    Pseudization used: troullier-martins
    <PP_INPUTFILE>
@input
title='Pd',
zed=46.,
rel=2,
config='[Kr] 5s2 5p0 4d8',
iswitch=3,
dft='PBESOL'
/
@inputp
lpaw=.false.,
pseudotype=3,
file_pseudopw='Pd.rel-pbesol-spn-rrkjus_psl.1.0.0.UPF',
author='ADC',
lloc=-1,
rcloc=1.2,
which_augfun='PSQ',
rmatch_augfun_nc=.true.,
nlcc=.true.,
new_core_ps=.true.,
rcore=1.0,
tm=.true.
/
6
4S  1  0  2.00  0.00  0.80  1.40  0.0
5S  2  0  2.00  0.00  0.80  1.40  0.0
4P  2  1  6.00  0.00  0.90  1.30  0.0
5P  2  1  0.00 -2.50  0.90  1.30  0.0
4D  3  2  8.00  0.00  1.10  1.60  0.0
4D  3  2  0.00  0.50  1.10  1.60  0.0
    </PP_INPUTFILE>
  </PP_INFO>
    <!-- END OF HUMAN READABLE SECTION -->
  <PP_HEADER generated="Generated using 'atomic' code by A. Dal Corso  v.7.2" author="ADC" date=" 9Jun2023" comment="" element="Pd" pseudo_type="USPP" relativistic="full" is_ultrasoft="true" is_paw="false" is_coulomb="false" has_so="true" has_wfc="false" has_gipaw="false" paw_as_gipaw="false" core_correction="true" functional="PBESOL" z_valence="18.0000000000000" total_psenergy="-258.775168962964" wfc_cutoff="58.0450290879674" rho_cutoff="548.466364469901" l_max="2" l_max_rho="4" l_local="-1" mesh_size="1235" number_of_wfc="6" number_of_proj="10"/>
  <PP_MESH mesh="1235" dx="1.250000000000000E-002" xmin="-7.00000000000000" rmax="100.000000000000" zmesh="46.0000000000000">
    <PP_R>
   1.982352099031557E-05   2.007287018845700E-05   2.032535581340396E-05
   2.058101731654900E-05   2.083989464552217E-05   2.110202825043280E-05
   2.136745909018997E-05   2.163622863890242E-05   2.190837889235892E-05
   2.218395237459032E-05   2.246299214451385E-05   2.274554180266127E-05
   2.303164549799152E-05   2.332134793478906E-05   2.361469437964908E-05
   2.391173066855040E-05   2.421250321401746E-05   2.451705901237244E-05
   2.482544565107843E-05   2.513771131617517E-05   2.545390479980814E-05
   2.577407550785245E-05   2.609827346763263E-05   2.642654933573945E-05
   2.675895440594524E-05   2.709554061721847E-05   2.743636056183945E-05
   2.778146749361792E-05   2.813091533621409E-05   2.848475869156435E-05
   2.884305284841286E-05   2.920585379095058E-05   2.957321820756291E-05
   2.994520349968733E-05   3.032186779078258E-05   3.070326993541047E-05
   3.108946952843205E-05   3.148052691431947E-05   3.187650319658485E-05
   3.227746024732798E-05   3.268346071690375E-05   3.309456804371155E-05
   3.351084646410762E-05   3.393236102244200E-05   3.435917758122211E-05
   3.479136283140357E-05   3.522898430281101E-05   3.567211037468969E-05
   3.612081028638986E-05   3.657515414818568E-05   3.703521295222987E-05
   3.750105858364657E-05   3.797276383176347E-05   3.845040240148523E-05
   3.893404892481021E-05   3.942377897249163E-05   3.991966906584581E-05
   4.042179668870872E-05   4.093024029954298E-05   4.144507934369732E-05
   4.196639426581976E-05   4.249426652242754E-05   4.302877859463471E-05
   4.357001400103998E-05   4.411805731077682E-05   4.467299415672737E-05
   4.523491124890281E-05   4.580389638799205E-05   4.638003847908061E-05
   4.696342754554249E-05   4.755415474310620E-05   4.815231237409820E-05
   4.875799390186529E-05   4.937129396537841E-05   4.999230839402035E-05
   5.062113422255899E-05   5.125786970630941E-05   5.190261433648638E-05
   5.255546885575008E-05   5.321653527394746E-05   5.388591688405127E-05
   5.456371827829997E-05   5.525004536454040E-05   5.594500538277609E-05
   5.664870692192388E-05   5.736125993678090E-05   5.808277576520545E-05
   5.881336714551362E-05   5.955314823409497E-05   6.030223462324975E-05
   6.106074335925028E-05   6.182879296062973E-05   6.260650343670094E-05
   6.339399630630800E-05   6.419139461681406E-05   6.499882296332740E-05
   6.581640750816990E-05   6.664427600059007E-05   6.748255779672410E-05
   6.833138387980826E-05   6.919088688064493E-05   7.006120109832666E-05
   7.094246252122061E-05   7.183480884821701E-05   7.273837951024504E-05
   7.365331569205895E-05   7.457976035429857E-05   7.551785825582725E-05
   7.646775597635062E-05   7.742960193932021E-05   7.840354643512458E-05
   7.938974164457268E-05   8.038834166267244E-05   8.139950252270827E-05
   8.242338222062191E-05   8.346014073969921E-05   8.450994007556805E-05
   8.557294426151051E-05   8.664931939409328E-05   8.773923365912083E-05
   8.884285735791450E-05   8.996036293392254E-05   9.109192499966477E-05
   9.223772036401610E-05   9.339792805983348E-05   9.457272937192976E-05
   9.576230786540013E-05   9.696684941430439E-05   9.818654223071015E-05
   9.942157689410159E-05   1.006721463811575E-04   1.019384460959046E-04
   1.032206739002495E-04   1.045190301448954E-04   1.058337177006470E-04
   1.071649419901098E-04   1.085129110197873E-04   1.098778354125829E-04
   1.112599284407099E-04   1.126594060590158E-04   1.140764869387257E-04
   1.155113925016103E-04   1.169643469545831E-04   1.184355773247332E-04
   1.199253134947994E-04   1.214337882390891E-04   1.229612372598502E-04
   1.245078992240997E-04   1.260740158009162E-04   1.276598316992011E-04
   1.292655947059151E-04   1.308915557247947E-04   1.325379688155574E-04
   1.342050912335980E-04   1.358931834701861E-04   1.376025092931684E-04
   1.393333357881822E-04   1.410859334003888E-04   1.428605759767309E-04
   1.446575408087212E-04   1.464771086757710E-04   1.483195638890614E-04
   1.501851943359681E-04   1.520742915250438E-04   1.539871506315678E-04
   1.559240705436674E-04   1.578853539090194E-04   1.598713071821399E-04
   1.618822406722683E-04   1.639184685918537E-04   1.659803091056513E-04
   1.680680843804363E-04   1.701821206353429E-04   1.723227481928370E-04
   1.744903015303294E-04   1.766851193324394E-04   1.789075445439137E-04
   1.811579244232132E-04   1.834366105967726E-04   1.857439591139422E-04
   1.880803305026225E-04   1.904460898255963E-04   1.928416067375708E-04
   1.952672555429375E-04   1.977234152542569E-04   2.002104696514813E-04
   2.027288073419202E-04   2.052788218209611E-04   2.078609115335546E-04
   2.104754799364714E-04   2.131229355613441E-04   2.158036920785003E-04
   2.185181683615997E-04   2.212667885530843E-04   2.240499821304509E-04
   2.268681839733588E-04   2.297218344315794E-04   2.326113793938028E-04
   2.355372703573079E-04   2.384999644985104E-04   2.414999247443979E-04
   2.445376198448623E-04   2.476135244459430E-04   2.507281191639920E-04
   2.538818906607705E-04   2.570753317194917E-04   2.603089413218179E-04
   2.635832247258282E-04   2.668986935449663E-04   2.702558658279801E-04
   2.736552661398695E-04   2.770974256438493E-04   2.805828821843451E-04
   2.841121803710324E-04   2.876858716639332E-04   2.913045144595832E-04
   2.949686741782812E-04   2.986789233524379E-04   3.024358417160355E-04
   3.062400162952114E-04   3.100920414999838E-04   3.139925192171278E-04
   3.179420589042222E-04   3.219412776848786E-04   3.259908004451675E-04
   3.300912599312597E-04   3.342432968482920E-04   3.384475599604802E-04
   3.427047061924891E-04   3.470154007320784E-04   3.513803171340407E-04
   3.558001374254441E-04   3.602755522122012E-04   3.648072607869777E-04
   3.693959712384579E-04   3.740424005619866E-04   3.787472747715981E-04
   3.835113290134601E-04   3.883353076807403E-04   3.932199645299195E-04
   3.981660627985691E-04   4.031743753246062E-04   4.082456846670524E-04
   4.133807832283099E-04   4.185804733779767E-04   4.238455675782173E-04
   4.291768885107126E-04   4.345752692052050E-04   4.400415531696607E-04
   4.455765945220708E-04   4.511812581239074E-04   4.568564197152615E-04
   4.626029660516777E-04   4.684217950427124E-04   4.743138158922342E-04
   4.802799492404879E-04   4.863211273079478E-04   4.924382940409776E-04
   4.986324052593246E-04   5.049044288054690E-04   5.112553446958502E-04
   5.176861452739974E-04   5.241978353655842E-04   5.307914324354355E-04
   5.374679667465087E-04   5.442284815208728E-04   5.510740331027162E-04
   5.580056911234008E-04   5.650245386685946E-04   5.721316724475068E-04
   5.793282029642497E-04   5.866152546913584E-04   5.939939662454906E-04
   6.014654905653387E-04   6.090309950917787E-04   6.166916619502848E-04
   6.244486881356398E-04   6.323032856989668E-04   6.402566819371150E-04
   6.483101195844284E-04   6.564648570069239E-04   6.647221683989151E-04
   6.730833439821064E-04   6.815496902071932E-04   6.901225299579990E-04
   6.988032027581754E-04   7.075930649805093E-04   7.164934900588558E-04
   7.255058687027409E-04   7.346316091146643E-04   7.438721372101311E-04
   7.532288968404570E-04   7.627033500183704E-04   7.722969771464558E-04
   7.820112772484710E-04   7.918477682035703E-04   8.018079869834785E-04
   8.118934898926440E-04   8.221058528114149E-04   8.324466714422753E-04
   8.429175615591742E-04   8.535201592599960E-04   8.642561212222025E-04
   8.751271249616924E-04   8.861348690949179E-04   8.972810736042945E-04
   9.085674801069547E-04   9.199958521268765E-04   9.315679753704388E-04
   9.432856580054430E-04   9.551507309436396E-04   9.671650481268157E-04
   9.793304868164743E-04   9.916489478871610E-04   1.004122356123481E-03
   1.016752660520847E-03   1.029541834590020E-03   1.042491876665467E-03
   1.055604810217608E-03   1.068882684168991E-03   1.082327573214433E-03
   1.095941578145204E-03   1.109726826177270E-03   1.123685471283682E-03
   1.137819694531139E-03   1.152131704420779E-03   1.166623737233264E-03
   1.181298057378206E-03   1.196156957747983E-03   1.211202760076009E-03
   1.226437815299508E-03   1.241864503926854E-03   1.257485236409532E-03
   1.273302453518772E-03   1.289318626726929E-03   1.305536258593652E-03
   1.321957883156913E-03   1.338586066328962E-03   1.355423406297249E-03
   1.372472533930400E-03   1.389736113189296E-03   1.407216841543316E-03
   1.424917450391834E-03   1.442840705490991E-03   1.460989407385865E-03
   1.479366391848048E-03   1.497974530318752E-03   1.516816730357471E-03
   1.535895936096296E-03   1.555215128699940E-03   1.574777326831554E-03
   1.594585587124394E-03   1.614643004659433E-03   1.634952713448965E-03
   1.655517886926312E-03   1.676341738441668E-03   1.697427521764199E-03
   1.718778531590450E-03   1.740398104059142E-03   1.762289617272463E-03
   1.784456491823888E-03   1.806902191332664E-03   1.829630222985009E-03
   1.852644138082105E-03   1.875947532595012E-03   1.899544047726531E-03
   1.923437370480159E-03   1.947631234236189E-03   1.972129419335055E-03
   1.996935753668020E-03   2.022054113275294E-03   2.047488422951667E-03
   2.073242656859775E-03   2.099320839151062E-03   2.125727044594567E-03
   2.152465399213616E-03   2.179540080930516E-03   2.206955320219371E-03
   2.234715400767096E-03   2.262824660142754E-03   2.291287490475313E-03
   2.320108339139918E-03   2.349291709452811E-03   2.378842161374977E-03
   2.408764312224650E-03   2.439062837398778E-03   2.469742471103560E-03
   2.500808007094183E-03   2.532264299423847E-03   2.564116263202229E-03
   2.596368875363471E-03   2.629027175443841E-03   2.662096266369173E-03
   2.695581315252200E-03   2.729487554199940E-03   2.763820281131210E-03
   2.798584860604440E-03   2.833786724655906E-03   2.869431373648483E-03
   2.905524377131097E-03   2.942071374708972E-03   2.979078076924836E-03
   3.016550266151202E-03   3.054493797493873E-03   3.092914599706818E-03
   3.131818676118550E-03   3.171212105570161E-03   3.211101043365149E-03
   3.251491722231198E-03   3.292390453294056E-03   3.333803627063663E-03
   3.375737714432674E-03   3.418199267687558E-03   3.461194921532398E-03
   3.504731394125583E-03   3.548815488129531E-03   3.593454091773621E-03
   3.638654179930490E-03   3.684422815205873E-03   3.730767149042147E-03
   3.777694422835765E-03   3.825211969068730E-03   3.873327212454315E-03
   3.922047671097192E-03   3.971380957668145E-03   4.021334780593572E-03
   4.071916945259937E-03   4.123135355233377E-03   4.174998013494656E-03
   4.227513023689643E-03   4.280688591395523E-03   4.334533025402940E-03
   4.389054739014249E-03   4.444262251358132E-03   4.500164188720710E-03
   4.556769285893432E-03   4.614086387537895E-03   4.672124449567840E-03
   4.730892540548542E-03   4.790399843113781E-03   4.850655655400649E-03
   4.911669392502412E-03   4.973450587939620E-03   5.036008895149758E-03
   5.099354088995602E-03   5.163496067292569E-03   5.228444852355266E-03
   5.294210592563495E-03   5.360803563947968E-03   5.428234171795948E-03
   5.496512952277099E-03   5.565650574089786E-03   5.635657840128079E-03
   5.706545689169725E-03   5.778325197585362E-03   5.851007581069215E-03
   5.924604196391581E-03   5.999126543173331E-03   6.074586265682769E-03
   6.150995154655064E-03   6.228365149134568E-03   6.306708338340335E-03
   6.386036963555064E-03   6.466363420037841E-03   6.547700258960917E-03
   6.630060189370855E-03   6.713456080174347E-03   6.797900962148998E-03
   6.883408029979421E-03   6.969990644318929E-03   7.057662333877169E-03
   7.146436797534005E-03   7.236327906479992E-03   7.327349706383792E-03
   7.419516419586821E-03   7.512842447325535E-03   7.607342371981641E-03
   7.703030959360627E-03   7.799923160998951E-03   7.898034116500247E-03
   7.997379155900923E-03   8.097973802065502E-03   8.199833773112109E-03
   8.302974984868457E-03   8.407413553358724E-03   8.513165797321720E-03
   8.620248240760717E-03   8.728677615525366E-03   8.838470863926071E-03
   8.949645141381274E-03   9.062217819098013E-03   9.176206486786210E-03
   9.291628955407106E-03   9.408503259956248E-03   9.526847662281509E-03
   9.646680653936522E-03   9.768020959070039E-03   9.890887537351602E-03
   1.001529958693404E-02   1.014127654745323E-02   1.026883810306554E-02
   1.039800418552357E-02   1.052879497729049E-02   1.066123091469361E-02
   1.079533269111760E-02   1.093112126023785E-02   1.106861783929455E-02
   1.120784391240792E-02   1.134882123393513E-02   1.149157183186951E-02
   1.163611801128240E-02   1.178248235780842E-02   1.193068774117449E-02
   1.208075731877330E-02   1.223271453928165E-02   1.238658314632442E-02
   1.254238718218450E-02   1.270015099155948E-02   1.285989922536555E-02
   1.302165684458925E-02   1.318544912418769E-02   1.335130165703778E-02
   1.351924035793522E-02   1.368929146764370E-02   1.386148155699508E-02
   1.403583753104114E-02   1.421238663325755E-02   1.439115644980074E-02
   1.457217491381825E-02   1.475547030981336E-02   1.494107127806462E-02
   1.512900681910092E-02   1.531930629823290E-02   1.551199945014137E-02
   1.570711638352331E-02   1.590468758579657E-02   1.610474392786344E-02
   1.630731666893439E-02   1.651243746141236E-02   1.672013835583850E-02
   1.693045180590011E-02   1.714341067350167E-02   1.735904823389951E-02
   1.757739818090115E-02   1.779849463213005E-02   1.802237213435654E-02
   1.824906566889582E-02   1.847861065707388E-02   1.871104296576213E-02
   1.894639891298170E-02   1.918471527357817E-02   1.942602928496774E-02
   1.967037865295565E-02   1.991780155762778E-02   2.016833665931637E-02
   2.042202310464079E-02   2.067890053262423E-02   2.093900908088744E-02
   2.120238939192028E-02   2.146908261943221E-02   2.173913043478262E-02
   2.201257503349206E-02   2.228945914183542E-02   2.256982602351795E-02
   2.285371948643532E-02   2.314118388951869E-02   2.343226414966591E-02
   2.372700574875983E-02   2.402545474077496E-02   2.432765775897350E-02
   2.463366202319189E-02   2.494351534721897E-02   2.525726614626703E-02
   2.557496344453676E-02   2.589665688287736E-02   2.622239672654307E-02
   2.655223387304718E-02   2.688621986011490E-02   2.722440687373619E-02
   2.756684775632000E-02   2.791359601495091E-02   2.826470582974982E-02
   2.862023206233961E-02   2.898023026441746E-02   2.934475668643486E-02
   2.971386828638689E-02   3.008762273871200E-02   3.046607844330378E-02
   3.084929453463604E-02   3.123733089100272E-02   3.163024814387395E-02
   3.202810768736991E-02   3.243097168785371E-02   3.283890309364507E-02
   3.325196564485607E-02   3.367022388335073E-02   3.409374316282977E-02
   3.452258965904226E-02   3.495683038012573E-02   3.539653317707632E-02
   3.584176675435063E-02   3.629260068060094E-02   3.674910539954548E-02
   3.721135224097533E-02   3.767941343189991E-02   3.815336210783259E-02
   3.863327232421825E-02   3.911921906800455E-02   3.961127826935891E-02
   4.010952681353262E-02   4.061404255287442E-02   4.112490431899501E-02
   4.164219193508471E-02   4.216598622838597E-02   4.269636904282278E-02
   4.323342325178897E-02   4.377723277109734E-02   4.432788257209166E-02
   4.488545869492364E-02   4.545004826199688E-02   4.602173949157991E-02
   4.660062171159043E-02   4.718678537355312E-02   4.778032206673267E-02
   4.838132453244497E-02   4.898988667854803E-02   4.960610359411532E-02
   5.023007156429359E-02   5.086188808534765E-02   5.150165187989438E-02
   5.214946291232824E-02   5.280542240444107E-02   5.346963285123806E-02
   5.414219803695287E-02   5.482322305126412E-02   5.551281430571583E-02
   5.621107955034450E-02   5.691812789051526E-02   5.763406980396973E-02
   5.835901715808851E-02   5.909308322737057E-02   5.983638271113273E-02
   6.058903175143156E-02   6.135114795121090E-02   6.212285039267750E-02
   6.290425965590787E-02   6.369549783768919E-02   6.449668857059714E-02
   6.530795704231381E-02   6.612943001518837E-02   6.696123584604419E-02
   6.780350450623464E-02   6.865636760195150E-02   6.951995839478864E-02
   7.039441182256440E-02   7.127986452040598E-02   7.217645484209889E-02
   7.308432288170501E-02   7.400361049545263E-02   7.493446132390166E-02
   7.587702081438788E-02   7.683143624374937E-02   7.779785674133870E-02
   7.877643331232487E-02   7.976731886128796E-02   8.077066821611099E-02
   8.178663815217199E-02   8.281538741684048E-02   8.385707675428210E-02
   8.491186893057509E-02   8.597992875914302E-02   8.706142312650710E-02
   8.815652101836254E-02   8.926539354598292E-02   9.038821397295674E-02
   9.152515774226005E-02   9.267640250366999E-02   9.384212814152275E-02
   9.502251680282088E-02   9.621775292569426E-02   9.742802326821885E-02
   9.865351693759793E-02   9.989442541971068E-02   1.011509426090320E-01
   1.024232648389292E-01   1.037115909123393E-01   1.050161221328322E-01
   1.063370623360654E-01   1.076746179216330E-01   1.090289978853166E-01
   1.104004138517409E-01   1.117890801074410E-01   1.131952136343446E-01
   1.146190341436760E-01   1.160607641102865E-01   1.175206288074167E-01
   1.189988563418957E-01   1.204956776897832E-01   1.220113267324600E-01
   1.235460402931727E-01   1.251000581740377E-01   1.266736231935104E-01
   1.282669812243265E-01   1.298803812319202E-01   1.315140753133250E-01
   1.331683187365650E-01   1.348433699805406E-01   1.365394907754167E-01
   1.382569461435182E-01   1.399960044407405E-01   1.417569373984808E-01
   1.435400201660963E-01   1.453455313538972E-01   1.471737530766800E-01
   1.490249709978083E-01   1.508994743738487E-01   1.527975560997673E-01
   1.547195127546956E-01   1.566656446482711E-01   1.586362558675616E-01
   1.606316543245794E-01   1.626521518043931E-01   1.646980640138445E-01
   1.667697106308790E-01   1.688674153544952E-01   1.709915059553238E-01
   1.731423143268430E-01   1.753201765372364E-01   1.775254328819056E-01
   1.797584279366407E-01   1.820195106114623E-01   1.843090342051386E-01
   1.866273564603891E-01   1.889748396197828E-01   1.913518504823394E-01
   1.937587604608422E-01   1.961959456398723E-01   1.986637868345723E-01
   2.011626696501500E-01   2.036929845421290E-01   2.062551268773593E-01
   2.088494969957937E-01   2.114765002730410E-01   2.141365471837085E-01
   2.168300533655375E-01   2.195574396843491E-01   2.223191322998044E-01
   2.251155627319934E-01   2.279471679288604E-01   2.308143903344785E-01
   2.337176779581817E-01   2.366574844445684E-01   2.396342691443827E-01
   2.426484971862907E-01   2.457006395495563E-01   2.487911731376332E-01
   2.519205808526825E-01   2.550893516710264E-01   2.582979807195523E-01
   2.615469693530769E-01   2.648368252326843E-01   2.681680624050491E-01
   2.715412013827568E-01   2.749567692256355E-01   2.784152996231096E-01
   2.819173329775900E-01   2.854634164889135E-01   2.890541042398432E-01
   2.926899572826456E-01   2.963715437267557E-01   3.000994388275457E-01
   3.038742250762096E-01   3.076964922907784E-01   3.115668377082813E-01
   3.154858660780636E-01   3.194541897562815E-01   3.234724288015836E-01
   3.275412110719955E-01   3.316611723230253E-01   3.358329563070006E-01
   3.400572148736560E-01   3.443346080719875E-01   3.486658042533843E-01
   3.530514801760618E-01   3.574923211108057E-01   3.619890209480467E-01
   3.665422823062835E-01   3.711528166418666E-01   3.758213443601663E-01
   3.805485949281368E-01   3.853353069882967E-01   3.901822284741446E-01
   3.950901167270232E-01   4.000597386144577E-01   4.050918706499786E-01
   4.101872991144542E-01   4.153468201789491E-01   4.205712400291265E-01
   4.258613749912175E-01   4.312180516595724E-01   4.366421070258190E-01
   4.421343886096439E-01   4.476957545912182E-01   4.533270739452916E-01
   4.590292265769702E-01   4.648031034592033E-01   4.706496067720015E-01
   4.765696500434016E-01   4.825641582922097E-01   4.886340681725354E-01
   4.947803281201464E-01   5.010038985006650E-01   5.073057517596243E-01
   5.136868725744180E-01   5.201482580081555E-01   5.266909176654563E-01
   5.333158738502035E-01   5.400241617252793E-01   5.468168294743125E-01
   5.536949384654586E-01   5.606595634172408E-01   5.677117925664777E-01
   5.748527278383218E-01   5.820834850184378E-01   5.894051939273458E-01
   5.968189985969590E-01   6.043260574493409E-01   6.119275434777098E-01
   6.196246444297238E-01   6.274185629930660E-01   6.353105169833685E-01
   6.433017395344993E-01   6.513934792912397E-01   6.595870006043899E-01
   6.678835837283247E-01   6.762845250210364E-01   6.847911371466946E-01
   6.934047492807504E-01   7.021267073176238E-01   7.109583740810038E-01
   7.199011295367896E-01   7.289563710087164E-01   7.381255133966862E-01
   7.474099893978522E-01   7.568112497304793E-01   7.663307633606209E-01
   7.759700177316499E-01   7.857305189966728E-01   7.956137922538697E-01
   8.056213817847955E-01   8.157548512956743E-01   8.260157841617344E-01
   8.364057836746120E-01   8.469264732928693E-01   8.575794968956643E-01
   8.683665190396077E-01   8.792892252188568E-01   8.903493221284744E-01
   9.015485379311038E-01   9.128886225270002E-01   9.243713478274522E-01
   9.359985080316509E-01   9.477719199070332E-01   9.596934230731576E-01
   9.717648802891491E-01   9.839881777447562E-01   9.963652253550760E-01
   1.008897957058978E+00   1.021588331121289E+00   1.034438330438776E+00
   1.047449962849975E+00   1.060625261448923E+00   1.073966284902831E+00
   1.087475117773756E+00   1.101153870844319E+00   1.115004681447516E+00
   1.129029713800684E+00   1.143231159343662E+00   1.157611237081210E+00
   1.172172193929730E+00   1.186916305068354E+00   1.201845874294444E+00
   1.216963234383569E+00   1.232270747453996E+00   1.247770805335788E+00
   1.263465829944523E+00   1.279358273659726E+00   1.295450619708065E+00
   1.311745382551348E+00   1.328245108279421E+00   1.344952375007999E+00
   1.361869793281497E+00   1.379000006480942E+00   1.396345691236998E+00
   1.413909557848196E+00   1.431694350704430E+00   1.449702848715765E+00
   1.467937865746656E+00   1.486402251055612E+00   1.505098889740405E+00
   1.524030703188868E+00   1.543200649535368E+00   1.562611724123023E+00
   1.582266959971732E+00   1.602169428252084E+00   1.622322238765239E+00
   1.642728540428841E+00   1.663391521769041E+00   1.684314411418715E+00
   1.705500478621938E+00   1.726953033744813E+00   1.748675428792724E+00
   1.770671057934090E+00   1.792943358030718E+00   1.815495809174810E+00
   1.838331935232741E+00   1.861455304395667E+00   1.884869529737063E+00
   1.908578269777279E+00   1.932585229055181E+00   1.956894158706998E+00
   1.981508857052444E+00   2.006433170188215E+00   2.031670992588949E+00
   2.057226267715742E+00   2.083102988632325E+00   2.109305198628988E+00
   2.135836991854349E+00   2.162702513955084E+00   2.189905962723677E+00
   2.217451588754343E+00   2.245343696107192E+00   2.273586642980744E+00
   2.302184842392911E+00   2.331142762870534E+00   2.360464929147602E+00
   2.390155922872252E+00   2.420220383322660E+00   2.450663008131940E+00
   2.481488554022153E+00   2.512701837547560E+00   2.544307735847215E+00
   2.576311187407029E+00   2.608717192831423E+00   2.641530815624673E+00
   2.674757182982101E+00   2.708401486591205E+00   2.742468983442873E+00
   2.776964996652802E+00   2.811894916293238E+00   2.847264200235189E+00
   2.883078375001232E+00   2.919343036629033E+00   2.956063851545760E+00
   2.993246557453451E+00   3.030896964225550E+00   3.069020954814718E+00
   3.107624486172044E+00   3.146713590177848E+00   3.186294374584156E+00
   3.226373023969060E+00   3.266955800703065E+00   3.308049045927600E+00
   3.349659180545843E+00   3.391792706225981E+00   3.434456206417122E+00
   3.477656347377971E+00   3.521399879218442E+00   3.565693636954388E+00
   3.610544541575567E+00   3.655959601127078E+00   3.701945911804373E+00
   3.748510659062051E+00   3.795661118736615E+00   3.843404658183314E+00
   3.891748737427323E+00   3.940700910329377E+00   3.990268825766087E+00
   4.040460228825090E+00   4.091282962015228E+00   4.142744966491960E+00
   4.194854283298187E+00   4.247619054620673E+00   4.301047525062295E+00
   4.355148042930257E+00   4.409929061540545E+00   4.465399140538769E+00
   4.521566947237623E+00   4.578441257971186E+00   4.636030959466218E+00
   4.694345050230746E+00   4.753392641960091E+00   4.813182960960591E+00
   4.873725349591241E+00   4.935029267723437E+00   4.997104294219110E+00
   5.059960128427441E+00   5.123606591700405E+00   5.188053628927384E+00
   5.253311310089060E+00   5.319389831830883E+00   5.386299519056311E+00
   5.454050826540100E+00   5.522654340561893E+00   5.592120780560325E+00
   5.662461000807979E+00   5.733685992107375E+00   5.805806883508308E+00
   5.878834944046799E+00   5.952781584505882E+00   6.027658359198569E+00
   6.103476967773251E+00   6.180249257041759E+00   6.257987222830502E+00
   6.336703011854786E+00   6.416408923616794E+00   6.497117412327404E+00
   6.578841088852171E+00   6.661592722681832E+00   6.745385243927530E+00
   6.830231745341185E+00   6.916145484361262E+00   7.003139885184273E+00
   7.091228540862349E+00   7.180425215427150E+00   7.270743846040551E+00
   7.362198545172339E+00   7.454803602805312E+00   7.548573488668147E+00
   7.643522854496278E+00   7.739666536321292E+00   7.837019556789080E+00
   7.935597127507150E+00   8.035414651421497E+00   8.136487725223308E+00
   8.238832141785997E+00   8.342463892632875E+00   8.447399170435844E+00
   8.553654371545568E+00   8.661246098553390E+00   8.770191162885554E+00
   8.880506587430011E+00   8.992209609196278E+00   9.105317682008781E+00
   9.219848479234013E+00   9.335819896542050E+00   9.453250054702796E+00
   9.572157302417368E+00   9.692560219185156E+00   9.814477618206860E+00
   9.937928549324116E+00   1.006293230199608E+01   1.018950840831341E+01
   1.031767664605027E+01   1.044745704175455E+01   1.057886987387712E+01
   1.071193567594037E+01   1.084667523974657E+01   1.098310961862672E+01
   1.112126013073009E+01   1.126114836235527E+01   1.140279617132305E+01
   1.154622569039176E+01   1.169145933071559E+01   1.183851978534629E+01
   1.198743003277911E+01   1.213821334054317E+01   1.229089326883707E+01
   1.244549367421025E+01   1.260203871329057E+01   1.276055284655890E+01
   1.292106084217105E+01   1.308358777982787E+01   1.324815905469408E+01
   1.341480038136617E+01   1.358353779789047E+01   1.375439766983161E+01
   1.392740669439219E+01   1.410259190458431E+01   1.427998067345347E+01
   1.445960071835570E+01   1.464148010528847E+01   1.482564725327599E+01
   1.501213093880986E+01   1.520096030034534E+01   1.539216484285435E+01
   1.558577444243565E+01   1.578181935098307E+01   1.598033020091246E+01
   1.618133800994798E+01   1.638487418596874E+01   1.659097053191634E+01
   1.679965925076413E+01   1.701097295054904E+01   1.722494464946657E+01
   1.744160778102999E+01   1.766099619929443E+01   1.788314418414657E+01
   1.810808644666104E+01   1.833585813452399E+01   1.856649483752505E+01
   1.880003259311830E+01   1.903650789205317E+01   1.927595768407627E+01
   1.951841938370475E+01   1.976393087607246E+01   2.001253052284959E+01
   2.026425716823670E+01   2.051915014503432E+01   2.077724928078865E+01
   2.103859490401473E+01   2.130322785049792E+01   2.157118946967448E+01