<UPF version="2.0.1">
  <PP_INFO>
    Generated using "atomic" code by A. Dal Corso  v.7.2
    Author: ADC
    Generation date:  9Jun2023
    Pseudopotential type: PAW
    Element: Po
    Functional:  SLA  PW   REVX PBC
    Suggested minimum cutoff for wavefunctions:  47. Ry
    Suggested minimum cutoff for charge density: 455. Ry
    The Pseudo was generated with a Scalar-Relativistic Calculation
    Local Potential by smoothing AE potential with Bessel fncs, cutoff radius:   1.9000
    Valence configuration: 
    nl pn  l   occ       Rcut    Rcut US       E pseu
    6S  1  0  2.00      1.700      1.900    -1.238214
    6P  2  1  4.00      2.000      2.100    -0.409218
    5D  3  2 10.00      0.900      1.600    -2.439670
    Generation configuration:
    6S  1  0  2.00      1.700      1.900    -1.238208
    6S  1  0  0.00      1.700      1.900     4.000000
    6P  2  1  4.00      2.000      2.100    -0.409217
    6P  2  1  0.00      2.000      2.100     6.000000
    5D  3  2 10.00      0.900      1.600    -2.439666
    5D  3  2  0.00      0.900      1.600     4.750000
    Pseudization used: troullier-martins
    <PP_INPUTFILE>
@input
title='Po',
zed=84.,
rel=1,
config='[Xe] 4f14 6s2 6p4 5d10',
iswitch=3,
dft='REVPBE'
/
@inputp
lpaw=.true.,
pseudotype=3,
file_pseudopw='Po.revpbe-dn-kjpaw_psl.1.0.0.UPF',
author='ADC',
lloc=-1,
rcloc=1.9,
which_augfun='PSQ',
rmatch_augfun_nc=.true.,
nlcc=.true.,
new_core_ps=.true.,
rcore=1.3,
tm=.true.
/
6
6S  1  0  2.00  0.00  1.70  1.90  0.0
6S  1  0  0.00  4.00  1.70  1.90  0.0
6P  2  1  4.00  0.00  2.00  2.10  0.0
6P  2  1  0.00  6.00  2.00  2.10  0.0
5D  3  2 10.00  0.00  0.90  1.60  0.0
5D  3  2  0.00  4.75  0.90  1.60  0.0
    </PP_INPUTFILE>
  </PP_INFO>
    <!-- END OF HUMAN READABLE SECTION -->
  <PP_HEADER generated="Generated using 'atomic' code by A. Dal Corso  v.7.2" author="ADC" date=" 9Jun2023" comment="" element="Po" pseudo_type="PAW" relativistic="scalar" is_ultrasoft="true" is_paw="true" is_coulomb="false" has_so="false" has_wfc="true" has_gipaw="false" paw_as_gipaw="false" core_correction="true" functional=" SLA  PW   REVX PBC" z_valence="16.0000000000000" total_psenergy="-944.972511639460" wfc_cutoff="46.6343196831686" rho_cutoff="454.992305962681" l_max="2" l_max_rho="4" l_local="-1" mesh_size="1283" number_of_wfc="3" number_of_proj="6"/>
  <PP_MESH mesh="1283" dx="1.250000000000000E-002" xmin="-7.00000000000000" rmax="100.000000000000" zmesh="84.0000000000000">
    <PP_R>
   1.085573768517281E-05   1.099228605558360E-05   1.113055199305455E-05
   1.127055710191969E-05   1.141232325826214E-05   1.155587261333225E-05
   1.170122759700879E-05   1.184841092130371E-05   1.199744558391084E-05
   1.214835487179946E-05   1.230116236485282E-05   1.245589193955260E-05
   1.261256777270964E-05   1.277121434524163E-05   1.293185644599831E-05
   1.309451917563474E-05   1.325922795053337E-05   1.342600850677538E-05
   1.359488690416199E-05   1.376588953028640E-05   1.393904310465684E-05
   1.411437468287158E-05   1.429191166084644E-05   1.447168177909541E-05
   1.465371312706525E-05   1.483803414752440E-05   1.502467364100732E-05
   1.521366077031458E-05   1.540502506506962E-05   1.559879642633286E-05
   1.579500513127371E-05   1.599368183790151E-05   1.619485758985588E-05
   1.639856382125735E-05   1.660483236161903E-05   1.681369544082002E-05
   1.702518569414136E-05   1.723933616736542E-05   1.745618032193932E-05
   1.767575204020342E-05   1.789808563068538E-05   1.812321583346109E-05
   1.835117782558274E-05   1.858200722657538E-05   1.881574010400258E-05
   1.905241297910196E-05   1.929206283249175E-05   1.953472710994912E-05
   1.978044372826112E-05   2.002925108114930E-05   2.028118804526874E-05
   2.053629398628265E-05   2.079460876501333E-05   2.105617274367049E-05
   2.132102679215797E-05   2.158921229445970E-05   2.186077115510604E-05
   2.213574580572144E-05   2.241417921165449E-05   2.269611487869139E-05
   2.298159685985368E-05   2.327066976228175E-05   2.356337875420472E-05
   2.385976957199808E-05   2.415988852733017E-05   2.446378251439832E-05
   2.477149901725630E-05   2.508308611723374E-05   2.539859250044890E-05
   2.571806746541612E-05   2.604156093074863E-05   2.636912344295853E-05
   2.670080618435480E-05   2.703666098104056E-05   2.737674031101114E-05
   2.772109731235374E-05   2.806978579155039E-05   2.842286023188540E-05
   2.878037580195837E-05   2.914238836430456E-05   2.950895448412332E-05
   2.988013143811665E-05   3.025597722343879E-05   3.063655056675833E-05
   3.102191093343451E-05   3.141211853680859E-05   3.180723434761251E-05
   3.220732010349555E-05   3.261243831867105E-05   3.302265229368439E-05
   3.343802612530372E-05   3.385862471653532E-05   3.428451378676480E-05
   3.471575988202581E-05   3.515243038539818E-05   3.559459352753643E-05
   3.604231839733114E-05   3.649567495270409E-05   3.695473403153939E-05
   3.741956736275215E-05   3.789024757749603E-05   3.836684822051222E-05
   3.884944376162081E-05   3.933810960735693E-05   3.983292211275324E-05
   4.033395859327038E-05   4.084129733687779E-05   4.135501761628635E-05
   4.187519970133486E-05   4.240192487153250E-05   4.293527542875869E-05
   4.347533471012314E-05   4.402218710098728E-05   4.457591804814977E-05
   4.513661407319771E-05   4.570436278602576E-05   4.627925289852536E-05
   4.686137423844623E-05   4.745081776343203E-05   4.804767557523284E-05
   4.865204093409603E-05   4.926400827333853E-05   4.988367321410214E-05
   5.051113258029453E-05   5.114648441371833E-05   5.178982798939011E-05
   5.244126383105245E-05   5.310089372688097E-05   5.376882074538889E-05
   5.444514925153182E-05   5.512998492301483E-05   5.582343476680489E-05
   5.652560713585092E-05   5.723661174601417E-05   5.795655969321147E-05
   5.868556347077443E-05   5.942373698702640E-05   6.017119558308112E-05
   6.092805605086495E-05   6.169443665136576E-05   6.247045713311172E-05
   6.325623875088185E-05   6.405190428465263E-05   6.485757805878249E-05
   6.567338596143776E-05   6.649945546426309E-05   6.733591564229890E-05
   6.818289719414982E-05   6.904053246240651E-05   6.990895545432443E-05
   7.078830186276303E-05   7.167870908738760E-05   7.258031625613855E-05
   7.349326424697033E-05   7.441769570986383E-05   7.535375508911604E-05
   7.630158864590932E-05   7.726134448116532E-05   7.823317255868594E-05
   7.921722472858540E-05   8.021365475101747E-05   8.122261832020033E-05
   8.224427308874443E-05   8.327877869228592E-05   8.432629677442999E-05
   8.538699101200832E-05   8.646102714065346E-05   8.754857298069567E-05
   8.864979846338505E-05   8.976487565744368E-05   9.089397879595192E-05
   9.203728430357226E-05   9.319497082411634E-05   9.436721924845836E-05
   9.555421274279945E-05   9.675613677728823E-05   9.797317915500036E-05
   9.920553004128344E-05   1.004533819934707E-04   1.017169299909683E-04
   1.029963714657218E-04   1.042919063330646E-04   1.056037370229555E-04
   1.069320685116086E-04   1.082771083535216E-04   1.096390667139064E-04
   1.110181564015277E-04   1.124145929019549E-04   1.138285944112323E-04
   1.152603818699724E-04   1.167101789978789E-04   1.181782123287025E-04
   1.196647112456379E-04   1.211699080171652E-04   1.226940378333422E-04
   1.242373388425536E-04   1.258000521887221E-04   1.273824220489872E-04
   1.289846956718591E-04   1.306071234158509E-04   1.322499587885989E-04
   1.339134584864722E-04   1.355978824346831E-04   1.373034938279004E-04
   1.390305591713743E-04   1.407793483225788E-04   1.425501345333765E-04
   1.443431944927155E-04   1.461588083698625E-04   1.479972598581795E-04
   1.498588362194524E-04   1.517438283287746E-04   1.536525307199985E-04
   1.555852416317559E-04   1.575422630540587E-04   1.595239007754861E-04
   1.615304644309635E-04   1.635622675501446E-04   1.656196276064004E-04
   1.677028660664253E-04   1.698123084404673E-04   1.719482843331890E-04
   1.741111274951693E-04   1.763011758750526E-04   1.785187716723536E-04
   1.807642613909279E-04   1.830379958931123E-04   1.853403304545487E-04
   1.876716248196964E-04   1.900322432580430E-04   1.924225546210223E-04
   1.948429323996479E-04   1.972937547828721E-04   1.997754047166782E-04
   2.022882699639174E-04   2.048327431648974E-04   2.074092218987323E-04
   2.100181087454662E-04   2.126598113489768E-04   2.153347424806702E-04
   2.180433201039783E-04   2.207859674396653E-04   2.235631130319572E-04
   2.263751908155030E-04   2.292226401831777E-04   2.321059060547380E-04
   2.350254389463426E-04   2.379816950409456E-04   2.409751362595761E-04
   2.440062303335150E-04   2.470754508773779E-04   2.501832774631194E-04
   2.533301956949664E-04   2.565166972852949E-04   2.597432801314616E-04
   2.630104483936005E-04   2.663187125734000E-04   2.696685895938687E-04
   2.730606028801063E-04   2.764952824410902E-04   2.799731649524894E-04
   2.834947938405224E-04   2.870607193668676E-04   2.906714987146433E-04
   2.943276960754690E-04   2.980298827376208E-04   3.017786371752970E-04
   3.055745451390051E-04   3.094181997470875E-04   3.133102015783966E-04
   3.172511587661367E-04   3.212416870928867E-04   3.252824100868163E-04
   3.293739591191140E-04   3.335169735026408E-04   3.377121005918226E-04
   3.419599958838028E-04   3.462613231208628E-04   3.506167543941344E-04
   3.550269702486156E-04   3.594926597895060E-04   3.640145207898821E-04
   3.685932597997249E-04   3.732295922563201E-04   3.779242425960471E-04
   3.826779443675723E-04   3.874914403464694E-04   3.923654826512781E-04
   3.973008328610248E-04   4.022982621342209E-04   4.073585513293575E-04
   4.124824911269170E-04   4.176708821529172E-04   4.229245351040115E-04
   4.282442708741627E-04   4.336309206829076E-04   4.390853262052383E-04
   4.446083397031145E-04   4.502008241586320E-04   4.558636534088650E-04
   4.615977122824049E-04   4.674038967376169E-04   4.732831140026347E-04
   4.792362827171173E-04   4.852643330757884E-04   4.913682069737803E-04
   4.975488581538085E-04   5.038072523551942E-04   5.101443674647642E-04
   5.165611936696473E-04   5.230587336119931E-04   5.296380025456371E-04
   5.363000284947359E-04   5.430458524143977E-04   5.498765283533347E-04
   5.567931236185593E-04   5.637967189421539E-04   5.708884086501366E-04
   5.780693008334521E-04   5.853405175211141E-04   5.927031948555232E-04
   6.001584832699925E-04   6.077075476685049E-04   6.153515676077309E-04
   6.230917374813382E-04   6.309292667066170E-04   6.388653799134540E-04
   6.469013171356844E-04   6.550383340048480E-04   6.632777019463860E-04
   6.716207083783020E-04   6.800686569123249E-04   6.886228675576010E-04
   6.972846769269467E-04   7.060554384456994E-04   7.149365225631902E-04
   7.239293169668806E-04   7.330352267991933E-04   7.422556748770646E-04
   7.515921019142667E-04   7.610459667465190E-04   7.706187465594352E-04
   7.803119371193376E-04   7.901270530069714E-04   8.000656278541641E-04
   8.101292145834551E-04   8.203193856507451E-04   8.306377332909960E-04
   8.410858697670190E-04   8.516654276213959E-04   8.623780599315655E-04
   8.732254405681207E-04   8.842092644563560E-04   8.953312478411000E-04
   9.065931285548852E-04   9.179966662894850E-04   9.295436428708710E-04
   9.412358625376273E-04   9.530751522228636E-04   9.650633618396819E-04
   9.772023645702242E-04   9.894940571583638E-04   1.001940360206076E-03
   1.014543218473534E-03   1.027304601182983E-03   1.040226502326434E-03
   1.053310940977230E-03   1.066559961605532E-03   1.079975634397768E-03
   1.093560055580106E-03   1.107315347745995E-03   1.121243660187818E-03
   1.135347169232734E-03   1.149628078582724E-03   1.164088619658930E-03
   1.178731051950314E-03   1.193557663366711E-03   1.208570770596322E-03
   1.223772719467695E-03   1.239165885316270E-03   1.254752673355528E-03
   1.270535519052812E-03   1.286516888509873E-03   1.302699278848202E-03
   1.319085218599213E-03   1.335677268099331E-03   1.352478019890045E-03
   1.369490099123005E-03   1.386716163970202E-03   1.404158906039316E-03
   1.421821050794282E-03   1.439705357981151E-03   1.457814622059309E-03
   1.476151672638110E-03   1.494719374919015E-03   1.513520630143281E-03
   1.532558376045288E-03   1.551835587311568E-03   1.571355276045598E-03
   1.591120492238458E-03   1.611134324245390E-03   1.631399899268363E-03
   1.651920383844706E-03   1.672698984341883E-03   1.693738947458496E-03
   1.715043560731587E-03   1.736616153050326E-03   1.758460095176153E-03
   1.780578800269465E-03   1.802975724422936E-03   1.825654367201530E-03
   1.848618272189322E-03   1.871871027543186E-03   1.895416266553456E-03
   1.919257668211629E-03   1.943398957785219E-03   1.967843907399840E-03
   1.992596336628602E-03   2.017660113088930E-03   2.043039153046890E-03
   2.068737422029109E-03   2.094758935442400E-03   2.121107759201173E-03
   2.147788010362748E-03   2.174803857770651E-03   2.202159522706004E-03
   2.229859279547108E-03   2.257907456437325E-03   2.286308435961359E-03
   2.315066655830043E-03   2.344186609573739E-03   2.373672847244467E-03
   2.403529976126851E-03   2.433762661458025E-03   2.464375627156579E-03
   2.495373656560689E-03   2.526761593175514E-03   2.558544341430008E-03
   2.590726867443249E-03   2.623314199800404E-03   2.656311430338451E-03
   2.689723714941797E-03   2.723556274347887E-03   2.757814394962963E-03
   2.792503429688068E-03   2.827628798755455E-03   2.863195990575503E-03
   2.899210562594295E-03   2.935678142161983E-03   2.972604427412067E-03
   3.009995188151744E-03   3.047856266763454E-03   3.086193579117757E-03
   3.125013115497707E-03   3.164320941534841E-03   3.204123199156951E-03
   3.244426107547770E-03   3.285235964118729E-03   3.326559145492945E-03
   3.368402108501583E-03   3.410771391192740E-03   3.453673613853041E-03
   3.497115480042059E-03   3.541103777639770E-03   3.585645379907169E-03
   3.630747246560230E-03   3.676416424857381E-03   3.722660050700642E-03
   3.769485349750635E-03   3.816899638555604E-03   3.864910325694641E-03
   3.913524912935289E-03   3.962750996405711E-03   4.012596267781600E-03
   4.063068515488021E-03   4.114175625916364E-03   4.165925584656613E-03
   4.218326477745105E-03   4.271386492927996E-03   4.325113920940611E-03
   4.379517156802886E-03   4.434604701131108E-03   4.490385161466155E-03
   4.546867253618441E-03   4.604059803029778E-03   4.661971746152370E-03
   4.720612131845154E-03   4.779990122787700E-03   4.840114996911895E-03
   4.900996148851650E-03   4.962643091410817E-03   5.025065457049590E-03
   5.088272999389605E-03   5.152275594737945E-03   5.217083243630350E-03
   5.282706072393810E-03   5.349154334728831E-03   5.416438413311592E-03
   5.484568821416262E-03   5.553556204557721E-03   5.623411342154939E-03
   5.694145149215289E-03   5.765768678040031E-03   5.838293119951266E-03
   5.911729807040592E-03   5.986090213939775E-03   6.061385959613684E-03
   6.137628809175765E-03   6.214830675726383E-03   6.293003622214256E-03
   6.372159863321314E-03   6.452311767371278E-03   6.533471858262222E-03
   6.615652817423471E-03   6.698867485797094E-03   6.783128865844324E-03
   6.868450123577225E-03   6.954844590615905E-03   7.042325766271610E-03
   7.130907319656020E-03   7.220603091817067E-03   7.311427097901643E-03
   7.403393529345480E-03   7.496516756090598E-03   7.590811328830637E-03
   7.686291981284432E-03   7.782973632498184E-03   7.880871389176598E-03
   7.980000548043329E-03   8.080376598231126E-03   8.182015223702052E-03
   8.284932305698121E-03   8.389143925222782E-03   8.494666365553604E-03
   8.601516114786576E-03   8.709709868412406E-03   8.819264531925216E-03
   8.930197223464073E-03   9.042525276487724E-03   9.156266242482987E-03
   9.271437893707204E-03   9.388058225965201E-03   9.506145461421159E-03
   9.625718051445867E-03   9.746794679499788E-03   9.869394264052389E-03
   9.993535961538187E-03   1.011923916934998E-02   1.024652352886974E-02
   1.037540892853760E-02   1.050591550695947E-02   1.063806365605376E-02
   1.077187402423762E-02   1.090736751965331E-02   1.104456531343516E-02
   1.118348884301757E-02   1.132415981548469E-02   1.146660021096217E-02
   1.161083228605158E-02   1.175687857730812E-02   1.190476190476191E-02
   1.205450537548375E-02   1.220613238719559E-02   1.235966663192649E-02
   1.251513209971458E-02   1.267255308235547E-02   1.283195417719800E-02
   1.299336029098753E-02   1.315679664375772E-02   1.332228877277120E-02
   1.348986253650984E-02   1.365954411871515E-02   1.383136003247957E-02
   1.400533712438918E-02   1.418150257871855E-02   1.435988392167835E-02
   1.454050902571631E-02   1.472340611387244E-02   1.490860376418887E-02
   1.509613091417524E-02   1.528601686533026E-02   1.547829128772014E-02
   1.567298422461455E-02   1.587012609718099E-02   1.606974770923814E-02
   1.627188025206901E-02   1.647655530929467E-02   1.668380486180921E-02
   1.689366129277688E-02   1.710615739269196E-02   1.732132636450241E-02
   1.753920182879781E-02   1.775981782906275E-02   1.798320883699611E-02
   1.820940975789737E-02   1.843845593612064E-02   1.867038316059725E-02
   1.890522767042790E-02   1.914302616054504E-02   1.938381578744655E-02
   1.962763417500154E-02   1.987451942032909E-02   2.012451009975110E-02
   2.037764527481982E-02   2.063396449842138E-02   2.089350782095594E-02
   2.115631579659570E-02   2.142242948962154E-02   2.169189048083940E-02
   2.196474087407739E-02   2.224102330276456E-02   2.252078093659251E-02
   2.280405748826068E-02   2.309089722030661E-02   2.338134495202200E-02
   2.367544606645587E-02   2.397324651750568E-02   2.427479283709781E-02
   2.458013214245818E-02   2.488931214347448E-02   2.520238115015090E-02
   2.551938808015667E-02   2.584038246646956E-02   2.616541446511551E-02
   2.649453486300558E-02   2.682779508587154E-02   2.716524720630124E-02
   2.750694395187506E-02   2.785293871340467E-02   2.820328555327549E-02
   2.855803921389403E-02   2.891725512624154E-02   2.928098941853513E-02
   2.964929892499800E-02   3.002224119473987E-02   3.039987450074914E-02
   3.078225784899818E-02   3.116945098766312E-02   3.156151441645962E-02
   3.195850939609609E-02   3.236049795784579E-02   3.276754291323935E-02
   3.317970786387919E-02   3.359705721137740E-02   3.401965616741863E-02
   3.444757076394955E-02   3.488086786349646E-02   3.531961516961272E-02
   3.576388123745756E-02   3.621373548450792E-02   3.666924820140515E-02
   3.713049056293802E-02   3.759753463916392E-02   3.807045340666997E-02
   3.854932075997574E-02   3.903421152307947E-02   3.952520146114939E-02
   4.002236729236227E-02   4.052578669989072E-02   4.103553834404138E-02
   4.155170187454574E-02   4.207435794300561E-02   4.260358821549500E-02
   4.313947538532076E-02   4.368210318594341E-02   4.423155640406078E-02
   4.478792089285609E-02   4.535128358541265E-02   4.592173250829733E-02
   4.649935679531493E-02   4.708424670143546E-02   4.767649361689674E-02
   4.827619008148424E-02   4.888342979899065E-02   4.949830765185726E-02
   5.012091971599956E-02   5.075136327581928E-02   5.138973683940531E-02
   5.203614015392571E-02   5.269067422121353E-02   5.335344131354842E-02
   5.402454498963696E-02   5.470409011079394E-02   5.539218285732706E-02
   5.608893074512790E-02   5.679444264247149E-02   5.750882878702716E-02
   5.823220080308342E-02   5.896467171898950E-02   5.970635598481621E-02
   6.045736949023909E-02   6.121782958264629E-02   6.198785508547442E-02
   6.276756631677494E-02   6.355708510801403E-02   6.435653482310916E-02
   6.516604037770478E-02   6.598572825869078E-02   6.681572654396620E-02
   6.765616492245174E-02   6.850717471435397E-02   6.936888889168424E-02
   7.024144209903595E-02   7.112497067462294E-02   7.201961267158273E-02
   7.292550787954749E-02   7.384279784648652E-02   7.477162590082342E-02
   7.571213717383138E-02   7.666447862231027E-02   7.762879905154899E-02
   7.860524913857654E-02   7.959398145570563E-02   8.059515049437238E-02
   8.160891268927598E-02   8.263542644282189E-02   8.367485214987258E-02
   8.472735222280951E-02   8.579309111691037E-02   8.687223535604566E-02
   8.796495355869825E-02   8.907141646431052E-02   9.019179695996249E-02
   9.132627010738611E-02   9.247501317031878E-02   9.363820564220113E-02
   9.481602927422353E-02   9.600866810372470E-02   9.721630848294828E-02
   9.843913910816041E-02   9.967735104913415E-02   1.009311377790045E-01
   1.022006952044988E-01   1.034862216965477E-01   1.047879181212811E-01
   1.061059878714136E-01   1.074406368980253E-01   1.087920737427420E-01
   1.101605095703202E-01   1.115461582016421E-01   1.129492361471253E-01
   1.143699626405537E-01   1.158085596733320E-01   1.172652520291737E-01
   1.187402673192229E-01   1.202338360176197E-01   1.217461914975120E-01
   1.232775700675202E-01   1.248282110086617E-01   1.263983566117382E-01
   1.279882522151948E-01   1.295981462434541E-01   1.312282902457334E-01
   1.328789389353497E-01   1.345503502295189E-01   1.362427852896563E-01
   1.379565085621833E-01   1.396917878198478E-01   1.414488942035644E-01
   1.432281022647802E-01   1.450296900083747E-01   1.468539389360984E-01
   1.487011340905573E-01   1.505715640997528E-01   1.524655212221791E-01
   1.543833013924898E-01   1.563252042677384E-01   1.582915332741999E-01
   1.602825956547821E-01   1.622987025170329E-01   1.643401688817512E-01
   1.664073137322100E-01   1.685004600639977E-01   1.706199349354873E-01
   1.727660695189396E-01   1.749391991522494E-01   1.771396633913434E-01
   1.793678060632356E-01   1.816239753197520E-01   1.839085236919289E-01
   1.862218081450974E-01   1.885641901346598E-01   1.909360356625676E-01
   1.933377153345101E-01   1.957696044178222E-01   1.982320829001208E-01
   2.007255355486791E-01   2.032503519705460E-01   2.058069266734244E-01
   2.083956591273130E-01   2.110169538269244E-01   2.136712203548887E-01
   2.163588734457508E-01   2.190803330507745E-01   2.218360244035597E-01
   2.246263780864868E-01   2.274518300979959E-01   2.303128219207121E-01
   2.332098005904286E-01   2.361432187659563E-01   2.391135347998533E-01
   2.421212128100431E-01   2.451667227523338E-01   2.482505404938502E-01
   2.513731478873884E-01   2.545350328467066E-01   2.577366894227627E-01
   2.609786178809104E-01   2.642613247790672E-01   2.675853230468646E-01
   2.709511320657945E-01   2.743592777503642E-01   2.778102926302705E-01
   2.813047159336098E-01   2.848430936711328E-01   2.884259787215594E-01
   2.920539309179686E-01   2.957275171352720E-01   2.994473113787902E-01
   3.032138948739416E-01   3.070278561570604E-01   3.108897911673569E-01
   3.148003033400333E-01   3.187600037005731E-01   3.227695109602132E-01
   3.268294516126204E-01   3.309404600317819E-01   3.351031785711268E-01
   3.393182576638963E-01   3.435863559247742E-01   3.479081402527970E-01
   3.522842859355592E-01   3.567154767547265E-01   3.612024050928802E-01
   3.657457720417016E-01   3.703462875115199E-01   3.750046703422375E-01
   3.797216484156490E-01   3.844979587691749E-01   3.893343477110259E-01
   3.942315709368134E-01   3.991903936476304E-01   4.042115906696139E-01
   4.092959465750143E-01   4.144442558047863E-01   4.196573227927209E-01
   4.249359620911416E-01   4.302809984981780E-01   4.356932671866430E-01
   4.411736138345309E-01   4.467228947571550E-01   4.523419770409497E-01
   4.580317386789542E-01   4.637930687079998E-01   4.696268673476257E-01
   4.755340461407376E-01   4.815155280960406E-01   4.875722478322598E-01
   4.937051517241758E-01   4.999151980505001E-01   5.062033571436049E-01
   5.125706115411421E-01   5.190179561395658E-01   5.255463983495863E-01
   5.321569582535817E-01   5.388506687649856E-01   5.456285757896845E-01
   5.524917383894404E-01   5.594412289473727E-01   5.664781333355202E-01
   5.736035510845100E-01   5.808185955553624E-01   5.881243941134550E-01
   5.955220883046758E-01   6.030128340337937E-01   6.105978017450682E-01
   6.182781766051365E-01   6.260551586881962E-01   6.339299631635196E-01
   6.419038204853281E-01   6.499779765850511E-01   6.581536930660052E-01
   6.664322474005256E-01   6.748149331295693E-01   6.833030600648362E-01
   6.918979544934289E-01   7.006009593850882E-01   7.094134346020355E-01
   7.183367571114524E-01   7.273723212006354E-01   7.365215386948565E-01
   7.457858391779626E-01   7.551666702157541E-01   7.646654975821654E-01
   7.742838054882978E-01   7.840230968143305E-01   7.938848933443478E-01
   8.038707360041208E-01   8.139821851018828E-01   8.242208205721268E-01
   8.345882422224753E-01   8.450860699836540E-01   8.557159441626080E-01
   8.664795256988056E-01   8.773784964237601E-01   8.884145593238212E-01
   8.995894388062700E-01   9.109048809687605E-01   9.223626538721535E-01
   9.339645478167756E-01   9.457123756221596E-01   9.576079729103013E-01
   9.696531983924779E-01   9.818499341596789E-01   9.942000859766819E-01
   1.006705583579834E+00   1.019368380978579E+00   1.032190456760773E+00
   1.045173814401843E+00   1.058320482577837E+00   1.071632515482404E+00
   1.085111993147767E+00   1.098761021769737E+00   1.112581734036806E+00
   1.126576289463383E+00   1.140746874727226E+00   1.155095704011113E+00
   1.169625019348810E+00   1.184337090975403E+00   1.199234217682013E+00
   1.214318727174997E+00   1.229592976439653E+00   1.245059352108503E+00
   1.260720270834213E+00   1.276578179667197E+00   1.292635556437973E+00
   1.308894910144329E+00   1.325358781343361E+00   1.342029742548443E+00
   1.358910398631179E+00   1.376003387228426E+00   1.393311379154428E+00
   1.410837078818135E+00   1.428583224645779E+00   1.446552589508750E+00
   1.464747981156865E+00   1.483172242657089E+00   1.501828252837764E+00
   1.520718926738440E+00   1.539847216065345E+00   1.559216109652604E+00
   1.578828633929246E+00   1.598687853392090E+00   1.618796871084583E+00
   1.639158829081651E+00   1.659776908980658E+00   1.680654332398536E+00
   1.701794361475167E+00   1.723200299383107E+00   1.744875490843705E+00
   1.766823322649723E+00   1.789047224194536E+00   1.811550668007972E+00
   1.834337170298914E+00   1.857410291504704E+00   1.880773636847471E+00
   1.904430856897460E+00   1.928385648143433E+00   1.952641753570260E+00
   1.977202963243763E+00   2.002073114902924E+00   2.027256094559537E+00
   2.052755837105409E+00   2.078576326927194E+00   2.104721598528958E+00
   2.131195737162582E+00   2.158002879466088E+00   2.185147214110000E+00
   2.212632982451835E+00   2.240464479198816E+00   2.268646053078931E+00
   2.297182107520436E+00   2.326077101339892E+00   2.355335549438876E+00
   2.384962023509427E+00   2.414961152748393E+00   2.445337624580754E+00
   2.476096185392032E+00   2.507241641269935E+00   2.538778858755310E+00
   2.570712765602551E+00   2.603048351549574E+00   2.635790669097466E+00
   2.668944834299965E+00   2.702516027562834E+00   2.736509494453322E+00
   2.770930546519789E+00   2.805784562121650E+00   2.841076987269758E+00
   2.876813336477343E+00   2.912999193621674E+00   2.949640212816552E+00
   2.986742119295769E+00   3.024310710307703E+00   3.062351856021130E+00
   3.100871500442465E+00   3.139875662344515E+00   3.179370436206930E+00
   3.219361993168485E+00   3.259856581991316E+00   3.300860530037312E+00
   3.342380244256780E+00   3.384422212189535E+00   3.426993002978608E+00
   3.470099268396669E+00   3.513747743885387E+00   3.557945249607864E+00
   3.602698691514284E+00   3.648015062421003E+00   3.693901443103171E+00
   3.740365003401125E+00   3.787413003340691E+00   3.835052794267578E+00
   3.883291819996048E+00   3.932137617972011E+00   3.981597820450778E+00
   4.031680155689614E+00   4.082392449155290E+00   4.133742624746843E+00
   4.185738706033677E+00   4.238388817509279E+00   4.291701185860687E+00
   4.345684141253916E+00   4.400346118635582E+00   4.455695659050859E+00
   4.511741410978046E+00   4.568492131679908E+00   4.625956688572010E+00
   4.684144060608287E+00   4.743063339683999E+00   4.802723732056375E+00
   4.863134559783101E+00   4.924305262178915E+00   4.986245397290523E+00
   5.048964643390055E+00   5.112472800487313E+00   5.176779791861056E+00
   5.241895665609511E+00   5.307830596220443E+00   5.374594886160899E+00
   5.442198967487016E+00   5.510653403474042E+00   5.579968890266869E+00
   5.650156258551339E+00   5.721226475246540E+00   5.793190645218424E+00
   5.866060013014962E+00   5.939845964623119E+00   6.014560029247964E+00
   6.090213881114098E+00   6.166819341289790E+00   6.244388379534053E+00
   6.322933116166918E+00   6.402465823963297E+00   6.482998930070589E+00
   6.564545017950467E+00   6.647116829345071E+00   6.730727266267919E+00
   6.815389393019897E+00   6.901116438230552E+00   6.987921796925112E+00
   7.075819032617479E+00   7.164821879429550E+00   7.254944244237234E+00
   7.346200208843377E+00   7.438604032178112E+00   7.532170152526835E+00
   7.626913189786201E+00   7.722847947748552E+00   7.819989416414997E+00
   7.918352774337647E+00   8.017953390991304E+00   8.118806829174947E+00
   8.220928847443497E+00   8.324335402570069E+00   8.429042652039286E+00
   8.535066956571903E+00   8.642424882681206E+00   8.751133205261587E+00
   8.861208910209607E+00   8.972669197078119E+00   9.085531481763709E+00
   9.199813399227976E+00   9.315532806253046E+00   9.432707784231692E+00
   9.551356641992616E+00   9.671497918661238E+00   9.793150386556457E+00
   9.916333054123905E+00   1.004106516890599E+01   1.016736622054943E+01
   1.029525594385050E+01   1.042475432183864E+01   1.055588158889891E+01
   1.068865823393355E+01   1.082310500356349E+01   1.095924290537001E+01
   1.109709321117724E+01   1.123667746037594E+01   1.137801746328902E+01
   1.152113530457949E+01   1.166605334670124E+01   1.181279423339317E+01
   1.196138089321739E+01   1.211183654314180E+01   1.226418469216780E+01
   1.241844914500362E+01   1.257465400578387E+01   1.273282368183587E+01
   1.289298288749329E+01   1.305515664795785E+01   1.321937030320958E+01
   1.338564951196620E+01   1.355402025569238E+01   1.372450884265939E+01
   1.389714191205579E+01   1.407194643814990E+01   1.424894973450457E+01
   1.442817945824497E+01   1.460966361438008E+01   1.479343056017853E+01