<UPF version="2.0.1">
  <PP_INFO>
    Generated using "atomic" code by A. Dal Corso  v.7.2
    Author: ADC
    Generation date:  9Jun2023
    Pseudopotential type: PAW
    Element: Pu
    Functional:  SLA  PW   REVX PBC
    Suggested minimum cutoff for wavefunctions:  45. Ry
    Suggested minimum cutoff for charge density: 351. Ry
    The Pseudo was generated with a Scalar-Relativistic Calculation
    Local Potential by smoothing AE potential with Bessel fncs, cutoff radius:   2.1000
    Valence configuration: 
    nl pn  l   occ       Rcut    Rcut US       E pseu
    6S  1  0  2.00      1.400      1.600    -3.930731
    7S  2  0  2.00      1.400      1.600    -0.332724
    6P  2  1  6.00      1.400      2.100    -1.895447
    6D  3  2  1.50      1.500      2.200    -0.187966
    5F  4  3  4.50      1.300      1.900    -0.500643
    Generation configuration:
    6S  1  0  2.00      1.400      1.600    -3.930775
    7S  2  0  2.00      1.400      1.600    -0.332732
    6P  2  1  6.00      1.400      2.100    -1.895480
    7P  3  1  0.00      1.400      2.100     5.000000
    6D  3  2  1.50      1.500      2.200    -0.187981
    6D  3  2  0.00      1.500      2.200     4.800000
    5F  4  3  4.50      1.300      1.900    -0.500694
    5F  4  3  0.00      1.300      1.900     3.100000
    Pseudization used: troullier-martins
    <PP_INPUTFILE>
@input
title='Pu',
zed=94.0,
rel=1,
config='[Rn] 6d1.5 7s2.0 7p0. 5f4.5',
iswitch=3,
dft='REVPBE'
/
@inputp
lpaw=.true.,
pseudotype=3,
file_pseudopw='Pu.revpbe-spfn-kjpaw_psl.1.0.0.UPF',
author='ADC',
lloc=-1,
rcloc=2.1,
which_augfun='PSQ',
rmatch_augfun_nc=.true.,
nlcc=.true.,
new_core_ps=.true.,
rcore=1.1,
tm=.true.
/
8
6S  1  0  2.00  0.00  1.40  1.60  0.0
7S  2  0  2.00  0.00  1.40  1.60  0.0
6P  2  1  6.00  0.00  1.40  2.10  0.0
7P  3  1  0.00  5.00  1.40  2.10  0.0
6D  3  2  1.50  0.00  1.50  2.20  0.0
6D  3  2  0.00  4.80  1.50  2.20  0.0
5F  4  3  4.50  0.00  1.30  1.90  0.0
5F  4  3  0.00  3.10  1.30  1.90  0.0
    </PP_INPUTFILE>
  </PP_INFO>
    <!-- END OF HUMAN READABLE SECTION -->
  <PP_HEADER generated="Generated using 'atomic' code by A. Dal Corso  v.7.2" author="ADC" date=" 9Jun2023" comment="" element="Pu" pseudo_type="PAW" relativistic="scalar" is_ultrasoft="true" is_paw="true" is_coulomb="false" has_so="false" has_wfc="true" has_gipaw="false" paw_as_gipaw="false" core_correction="true" functional=" SLA  PW   REVX PBC" z_valence="16.0000000000000" total_psenergy="-1100.38211996254" wfc_cutoff="45.2247109152273" rho_cutoff="350.662540781353" l_max="3" l_max_rho="6" l_local="-1" mesh_size="1293" number_of_wfc="5" number_of_proj="8"/>
  <PP_MESH mesh="1293" dx="1.250000000000000E-002" xmin="-7.00000000000000" rmax="100.000000000000" zmesh="94.0000000000000">
    <PP_R>
   9.700871973984215E-06   9.822893922010875E-06   9.946450717197682E-06
   1.007156166554525E-05   1.019824631589383E-05   1.032652446297775E-05
   1.045641615051850E-05   1.058794167435650E-05   1.072112158562245E-05
   1.085597669394845E-05   1.099252807071954E-05   1.113079705236615E-05
   1.127080524369798E-05   1.141257452127975E-05   1.155612703684955E-05
   1.170148522077998E-05   1.184867178558301E-05   1.199770972945886E-05
   1.214862233988944E-05   1.230143319727721E-05   1.245616617862952E-05
   1.261284546128950E-05   1.277149552671384E-05   1.293214116429803E-05
   1.309480747524980E-05   1.325951987651117E-05   1.342630410472994E-05
   1.359518622028111E-05   1.376619261133881E-05   1.393934999799957E-05
   1.411468543645736E-05   1.429222632323114E-05   1.447200039944568E-05
   1.465403575516614E-05   1.483836083378722E-05   1.502500443647746E-05
   1.521399572667951E-05   1.540536423466697E-05   1.559913986215854E-05
   1.579535288699029E-05   1.599403396784651E-05   1.619521414905034E-05
   1.639892486541436E-05   1.660519794715247E-05   1.681406562485337E-05
   1.702556053451664E-05   1.723971572265220E-05   1.745656465144389E-05
   1.767614120397802E-05   1.789847968953767E-05   1.812361484896355E-05
   1.835158186008236E-05   1.858241634320340E-05   1.881615436668426E-05
   1.905283245256670E-05   1.929248758228314E-05   1.953515720243518E-05
   1.978087923064469E-05   2.002969206147848E-05   2.028163457244762E-05
   2.053674613008201E-05   2.079506659608156E-05   2.105663633354465E-05
   2.132149621327488E-05   2.158968762016738E-05   2.186125245967510E-05
   2.213623316435669E-05   2.241467270050674E-05   2.269661457486923E-05
   2.298210284143569E-05   2.327118210832856E-05   2.356389754477146E-05
   2.386029488814685E-05   2.416042045114263E-05   2.446432112898868E-05
   2.477204440678419E-05   2.508363836691737E-05   2.539915169657844E-05
   2.571863369536706E-05   2.604213428299556E-05   2.636970400708892E-05
   2.670139405108296E-05   2.703725624222190E-05   2.737734305965638E-05
   2.772170764264360E-05   2.807040379885023E-05   2.842348601276011E-05
   2.878100945418752E-05   2.914302998689754E-05   2.950960417733498E-05
   2.988078930346290E-05   3.025664336371242E-05   3.063722508604514E-05
   3.102259393712944E-05   3.141281013163241E-05   3.180793464162830E-05
   3.220802920612570E-05   3.261315634071429E-05   3.302337934733307E-05
   3.343876232416149E-05   3.385937017563476E-05   3.428526862258539E-05
   3.471652421251222E-05   3.515320432997853E-05   3.559537720714119E-05
   3.604311193441183E-05   3.649647847125250E-05   3.695554765710695E-05
   3.742039122246945E-05   3.789108180009287E-05   3.836769293633756E-05
   3.885029910266323E-05   3.933897570726524E-05   3.983379910685724E-05
   4.033484661860221E-05   4.084219653219323E-05   4.135592812208650E-05
   4.187612165988812E-05   4.240285842689671E-05   4.293622072680382E-05
   4.347629189855390E-05   4.402315632936635E-05   4.457689946792106E-05
   4.513760783771000E-05   4.570536905055681E-05   4.628027182030605E-05
   4.686240597668517E-05   4.745186247934045E-05   4.804873343204965E-05
   4.865311209711354E-05   4.926509290992815E-05   4.988477149374054E-05
   5.051224467459019E-05   5.114761049643819E-05   5.179096823648684E-05
   5.244241842069204E-05   5.310206283947039E-05   5.377000456360441E-05
   5.444634796034740E-05   5.513119870973112E-05   5.582466382107856E-05
   5.652685164972421E-05   5.723787191394490E-05   5.795783571210350E-05
   5.868685554000821E-05   5.942504530849042E-05   6.017252036120328E-05
   6.092939749264452E-05   6.169579496640581E-05   6.247183253365162E-05
   6.325763145183079E-05   6.405331450362297E-05   6.485900601612381E-05
   6.567483188027136E-05   6.650091957051661E-05   6.733739816474199E-05
   6.818439836442960E-05   6.904205251508391E-05   6.991049462691084E-05
   7.078986039575717E-05   7.168028722431348E-05   7.258191424358327E-05
   7.349488233462268E-05   7.441933415055337E-05   7.535541413885232E-05
   7.630326856392233E-05   7.726304552994565E-05   7.823489500402591E-05
   7.921896883962068E-05   8.021542080026882E-05   8.122440658361661E-05
   8.224608384574544E-05   8.328061222580611E-05   8.432815337096280E-05
   8.538887096165057E-05   8.646293073715118E-05   8.755050052148968E-05
   8.865175024965754E-05   8.976685199416529E-05   9.089597999192915E-05
   9.203931067149610E-05   9.319702268061094E-05   9.436929691413041E-05
   9.555631654228856E-05   9.675826703931718E-05   9.797533621242702E-05
   9.920771423115241E-05   1.004555936570661E-04   1.017191694738672E-04
   1.029986391178477E-04   1.042942025087428E-04   1.056060620809682E-04
   1.069344228152509E-04   1.082794922706583E-04   1.096414806170292E-04
   1.110206006678139E-04   1.124170679133261E-04   1.138311005544141E-04
   1.152629195365549E-04   1.167127485843774E-04   1.181808142366203E-04
   1.196673458815284E-04   1.211725757926955E-04   1.226967391653578E-04
   1.242400741531430E-04   1.258028219052832E-04   1.273852266042939E-04
   1.289875355041287E-04   1.306099989688133E-04   1.322528705115647E-04
   1.339164068344042E-04   1.356008678682667E-04   1.373065168136157E-04
   1.390336201815691E-04   1.407824478355418E-04   1.425532730334131E-04
   1.443463724702227E-04   1.461620263214058E-04   1.480005182865706E-04
   1.498621356338269E-04   1.517471692446729E-04   1.536559136594455E-04
   1.555886671233428E-04   1.575457316330257E-04   1.595274129838053E-04
   1.615340208174249E-04   1.635658686704408E-04   1.656232740232137E-04
   1.677065583495160E-04   1.698160471667618E-04   1.719520700868710E-04
   1.741149608677705E-04   1.763050574655453E-04   1.785227020872444E-04
   1.807682412443518E-04   1.830420258069296E-04   1.853444110584416E-04
   1.876757567512677E-04   1.900364271629155E-04   1.924267911529393E-04
   1.948472222205764E-04   1.972980985631052E-04   1.997798031349405E-04
   2.022927237074708E-04   2.048372529296482E-04   2.074137883893404E-04
   2.100227326754551E-04   2.126644934408450E-04   2.153394834660042E-04
   2.180481207235666E-04   2.207908284436143E-04   2.235680351798088E-04
   2.263801748763529E-04   2.292276869357954E-04   2.321110162876891E-04
   2.350306134581111E-04   2.379869346400596E-04   2.409804417647337E-04
   2.440116025737120E-04   2.470808906920380E-04   2.501887857022246E-04
   2.533357732191902E-04   2.565223449661369E-04   2.597489988513834E-04
   2.630162390461638E-04   2.663245760634058E-04   2.696745268374994E-04
   2.730666148050684E-04   2.765013699867590E-04   2.799793290700565E-04
   2.835010354931434E-04   2.870670395298137E-04   2.906778983754528E-04
   2.943341762341019E-04   2.980364444066151E-04   3.017852813799266E-04
   3.055812729174408E-04   3.094250121505583E-04   3.133170996713541E-04
   3.172581436264224E-04   3.212487598118989E-04   3.252895717696819E-04
   3.293812108848606E-04   3.335243164843711E-04   3.377195359368931E-04
   3.419675247540007E-04   3.462689466925897E-04   3.506244738585890E-04
   3.550347868119796E-04   3.595005746731336E-04   3.640225352304897E-04
   3.686013750495854E-04   3.732378095834578E-04   3.779325632844358E-04
   3.826863697173369E-04   3.874999716740876E-04   3.923741212897874E-04
   3.973095801602300E-04   4.023071194609051E-04   4.073675200674964E-04
   4.124915726778937E-04   4.176800779357427E-04   4.229338465555459E-04
   4.282536994493389E-04   4.336404678549599E-04   4.390949934659314E-04
   4.446181285629778E-04   4.502107361471948E-04   4.558736900748956E-04
   4.616078751941529E-04   4.674141874830577E-04   4.732935341897183E-04
   4.792468339740194E-04   4.852750170511639E-04   4.913790253370225E-04
   4.975598125953083E-04   5.038183445866056E-04   5.101555992192710E-04
   5.165725667022337E-04   5.230702496997190E-04   5.296496634879143E-04
   5.363118361136103E-04   5.430578085548342E-04   5.498886348835042E-04
   5.568053824301320E-04   5.638091319505940E-04   5.709009777950015E-04
   5.780820280786968E-04   5.853534048553961E-04   5.927162442925151E-04
   6.001716968486954E-04   6.077209274535669E-04   6.153651156897711E-04
   6.231054559772716E-04   6.309431577599867E-04   6.388794456947657E-04
   6.469155598427444E-04   6.550527558631089E-04   6.632923052092918E-04
   6.716354953276426E-04   6.800836298585914E-04   6.886380288403463E-04
   6.973000289151528E-04   7.060709835381446E-04   7.149522631888275E-04
   7.239452555852151E-04   7.330513659006657E-04   7.422720169834433E-04
   7.516086495790383E-04   7.610627225552900E-04   7.706357131303350E-04
   7.803291171034270E-04   7.901444490886585E-04   8.000832427516213E-04
   8.101470510490463E-04   8.203374464714547E-04   8.306560212888635E-04
   8.411043877995818E-04   8.516841785821335E-04   8.623970467503540E-04
   8.732446662116897E-04   8.842287319287507E-04   8.953509601841533E-04
   9.066130888486897E-04   9.180168776528780E-04   9.295641084619195E-04
   9.412565855541204E-04   9.530961359028161E-04   9.650846094618352E-04
   9.772238794545631E-04   9.895158426666334E-04   1.001962419742305E-03
   1.014565555484571E-03   1.027327219159030E-03   1.040249404801597E-03
   1.053334131530067E-03   1.066583443859614E-03   1.079999412022246E-03
   1.093584132290281E-03   1.107339727303901E-03   1.121268346402813E-03
   1.135372165962087E-03   1.149653389732227E-03   1.164114249183499E-03
   1.178757003854616E-03   1.193583941705785E-03   1.208597379476210E-03
   1.223799663046090E-03   1.239193167803159E-03   1.254780299013857E-03
   1.270563492199146E-03   1.286545213515071E-03   1.302727960138106E-03
   1.319114260655332E-03   1.335706675459545E-03   1.352507797149315E-03
   1.369520250934088E-03   1.386746695044380E-03   1.404189821147130E-03
   1.421852354766281E-03   1.439737055708646E-03   1.457846718495133E-03
   1.476184172797397E-03   1.494752283879980E-03   1.513553953048017E-03
   1.532592118100567E-03   1.551869753789653E-03   1.571389872285073E-03
   1.591155523645054E-03   1.611169796292836E-03   1.631435817499239E-03
   1.651956753871309E-03   1.672735811847103E-03   1.693776238196705E-03
   1.715081320529540E-03   1.736654387808068E-03   1.758498810867942E-03
   1.780618002944708E-03   1.803015420207129E-03   1.825694562297221E-03
   1.848658972877076E-03   1.871912240182570E-03   1.895457997584027E-03
   1.919299924153945E-03   1.943441745241858E-03   1.967887233056429E-03
   1.992640207254863E-03   2.017704535539737E-03   2.043084134263342E-03
   2.068782969039612E-03   2.094805055363767E-03   2.121154459239737E-03
   2.147835297815483E-03   2.174851740026320E-03   2.202208007246305E-03
   2.229908373947850E-03   2.257957168369608E-03   2.286358773192773E-03
   2.315117626225883E-03   2.344238221098233E-03   2.373725107962020E-03
   2.403582894203308E-03   2.433816245161942E-03   2.464429884860520E-03
   2.495428596742529E-03   2.526817224419768E-03   2.558600672429173E-03
   2.590783906999157E-03   2.623371956825602E-03   2.656369913857592E-03
   2.689782934093048E-03   2.723616238384363E-03   2.757875113254166E-03
   2.792564911721355E-03   2.827691054137518E-03   2.863259029033872E-03
   2.899274393978859E-03   2.935742776446524E-03   2.972669874695823E-03
   3.010061458660989E-03   3.047923370853087E-03   3.086261527272930E-03
   3.125081918335457E-03   3.164390609805752E-03   3.204193743746832E-03
   3.244497539479355E-03   3.285308294553404E-03   3.326632385732488E-03
   3.368476269989929E-03   3.410846485517773E-03   3.453749652748402E-03
   3.497192475388981E-03   3.541181741468933E-03   3.585724324400579E-03
   3.630827184053125E-03   3.676497367840155E-03   3.722742011820803E-03
   3.769568341814775E-03   3.816983674531401E-03   3.864995418712887E-03
   3.913611076291941E-03   3.962838243563969E-03   4.012684612374012E-03
   4.063157971318607E-03   4.114266206962780E-03   4.166017305072331E-03
   4.218419351861628E-03   4.271480535257093E-03   4.325209146176587E-03
   4.379613579824878E-03   4.434702337005410E-03   4.490484025448571E-03
   4.546967361156669E-03   4.604161169765824E-03   4.662074387924994E-03
   4.720716064692341E-03   4.780095362949168E-03   4.840221560831635E-03
   4.901104053180489E-03   4.962752353009026E-03   5.025176092989520E-03
   5.088385026958343E-03   5.152389031440028E-03   5.217198107190493E-03
   5.282822380759678E-03   5.349272106073842E-03   5.416557666037759E-03
   5.484689574157067E-03   5.553678476181023E-03   5.623535151765930E-03
   5.694270516159472E-03   5.765895621906248E-03   5.838421660574751E-03
   5.911859964506080E-03   5.986222008584638E-03   6.061519412031098E-03
   6.137763940217945E-03   6.214967506507830E-03   6.293142174115056E-03
   6.372300157990485E-03   6.452453826730145E-03   6.533615704507851E-03
   6.615798473032132E-03   6.699014973527768E-03   6.783278208742272E-03
   6.868601344977577E-03   6.954997714147314E-03   7.042480815859939E-03
   7.131064319528081E-03   7.220762066504411E-03   7.311588072244387E-03
   7.403556528496194E-03   7.496681805518230E-03   7.590978454324497E-03
   7.686461208958217E-03   7.783144988794065E-03   7.881044900869343E-03
   7.980176242244490E-03   8.080554502393285E-03   8.182195365623094E-03
   8.285114713525587E-03   8.389328627458264E-03   8.494853391057206E-03
   8.601705492781412E-03   8.709901628489171E-03   8.819458704046816E-03
   8.930393837970294E-03   9.042724364099983E-03   9.156467834309128E-03
   9.271642021246364E-03   9.388264921112721E-03   9.506354756473575E-03
   9.625929979105958E-03   9.747009272881682E-03   9.869611556686735E-03
   9.993755987377406E-03   1.011946196277356E-02   1.024674912468960E-02
   1.037563736200354E-02   1.050614681376470E-02   1.063829787234043E-02
   1.077211118660250E-02   1.090760766515350E-02   1.104480847959389E-02
   1.118373506783005E-02   1.132440913742404E-02   1.146685266898545E-02
   1.161108791960587E-02   1.175713742633668E-02   1.190502400971044E-02
   1.205477077730667E-02   1.220640112736248E-02   1.235993875242855E-02
   1.251540764307118E-02   1.267283209162084E-02   1.283223669596788E-02
   1.299364636340607E-02   1.315708631452431E-02   1.332258208714750E-02
   1.349015954032681E-02   1.365984485838023E-02   1.383166455498395E-02
   1.400564547731513E-02   1.418181481024684E-02   1.436020008059578E-02
   1.454082916142337E-02   1.472373027639098E-02   1.490893200416993E-02
   1.509646328290700E-02   1.528635341474601E-02   1.547863207040640E-02
   1.567332929381932E-02   1.587047550682203E-02   1.607010151391142E-02
   1.627223850705723E-02   1.647691807057589E-02   1.668417218606563E-02
   1.689403323740366E-02   1.710653401580621E-02   1.732170772495224E-02
   1.753958798617158E-02   1.776020884369834E-02   1.798360476999034E-02
   1.820981067111559E-02   1.843886189220634E-02   1.867079422298191E-02
   1.890564390334084E-02   1.914344762902350E-02   1.938424255734585E-02
   1.962806631300533E-02   1.987495699395982E-02   2.012495317738053E-02
   2.037809392567975E-02   2.063441879261441E-02   2.089396782946647E-02
   2.115678159130099E-02   2.142290114330295E-02   2.169236806719379E-02
   2.196522446772859E-02   2.224151297927507E-02   2.252127677247527E-02
   2.280455956099106E-02   2.309140560833450E-02   2.338185973478407E-02
   2.367596732438797E-02   2.397377433205542E-02   2.427532729073728E-02
   2.458067331869686E-02   2.488986012687226E-02   2.520293602633129E-02
   2.551994993582020E-02   2.584095138940733E-02   2.616599054422288E-02
   2.649511818829608E-02   2.682838574849095E-02   2.716584529854179E-02
   2.750754956718986E-02   2.785355194642236E-02   2.820390649981498E-02
   2.855866797097948E-02   2.891789179211752E-02   2.928163409268197E-02
   2.964995170814736E-02   3.002290218889044E-02   3.040054380918261E-02
   3.078293557629534E-02   3.117013723972024E-02   3.156220930050498E-02
   3.195921302070675E-02   3.236121043296452E-02   3.276826435019184E-02
   3.318043837539142E-02   3.359779691159329E-02   3.402040517191784E-02
   3.444832918976556E-02   3.488163582913485E-02   3.532039279506967E-02
   3.576466864423862E-02   3.621453279564703E-02   3.667005554148379E-02
   3.713130805810471E-02   3.759836241715395E-02   3.807129159682533E-02
   3.855016949326536E-02   3.903507093211964E-02   3.952607168022453E-02
   4.002324845744587E-02   4.052667894866662E-02   4.103644181592528E-02
   4.155261671070696E-02   4.207528428638914E-02   4.260452621084389E-02
   4.314042517919869E-02   4.368306492675760E-02   4.423253024208521E-02
   4.478890698025492E-02   4.535228207626404E-02   4.592274355861752E-02
   4.650038056308255E-02   4.708528334661634E-02   4.767754330146880E-02
   4.827725296946282E-02   4.888450605645416E-02   4.949939744697312E-02
   5.012202321905047E-02   5.075248065922985E-02   5.139086827776895E-02
   5.203728582403199E-02   5.269183430207572E-02   5.335461598643151E-02
   5.402573443808599E-02   5.470529452066264E-02   5.539340241680693E-02
   5.609016564477760E-02   5.679569307524658E-02   5.751009494831031E-02
   5.823348289071491E-02   5.896596993329815E-02   5.970767052865064E-02
   6.045870056899943E-02   6.121917740431631E-02   6.198921986065400E-02
   6.276894825871297E-02   6.355848443264178E-02   6.435795174907392E-02
   6.516747512640414E-02   6.598718105430711E-02   6.681719761350177E-02
   6.765765449576421E-02   6.850868302419215E-02   6.937041617372462E-02
   7.024298859191946E-02   7.112653661999227E-02   7.202119831411999E-02
   7.292711346701257E-02   7.384442362975573E-02   7.477327213392869E-02
   7.571380411399999E-02   7.666616653000502E-02   7.763050819050889E-02
   7.860697977585801E-02   7.959573386172429E-02   8.059692494294519E-02
   8.161070945766419E-02   8.263724581177423E-02   8.367669440366909E-02
   8.472921764930613E-02   8.579498000758377E-02   8.687414800603889E-02
   8.796689026686674E-02   8.907337753326881E-02   9.019378269613168E-02
   9.132828082104145E-02   9.247704917563838E-02   9.364026725731503E-02
   9.481811682126320E-02   9.601078190887370E-02   9.721844887649285E-02
   9.844130642454148E-02   9.967954562699931E-02   1.009333599612610E-01
   1.022029453383671E-01   1.034885001336158E-01   1.047902252175595E-01
   1.061083239873907E-01   1.074430023987240E-01   1.087944689977766E-01
   1.101629349539542E-01   1.115486140928466E-01   1.129517229296384E-01
   1.143724807029400E-01   1.158111094090441E-01   1.172678338366128E-01
   1.187428816018018E-01   1.202364831838254E-01   1.217488719609694E-01
   1.232802842470574E-01   1.248309593283746E-01   1.264011395010575E-01
   1.279910701089526E-01   1.296009995819519E-01   1.312311794748113E-01
   1.328818645064554E-01   1.345533125997791E-01   1.362457849219472E-01
   1.379595459252036E-01   1.396948633881917E-01   1.414520084577956E-01
   1.432312556915074E-01   1.450328831003273E-01   1.468571721922032E-01
   1.487044080160174E-01   1.505748792061256E-01   1.524688780274568E-01
   1.543867004211801E-01   1.563286460509463E-01   1.582950183497111E-01
   1.602861245671467E-01   1.623022758176507E-01   1.643437871289577E-01
   1.664109774913636E-01   1.685041699075684E-01   1.706236914431455E-01
   1.727698732776473E-01   1.749430507563517E-01   1.771435634426612E-01
   1.793717551711600E-01   1.816279741013389E-01   1.839125727719963E-01
   1.862259081563222E-01   1.885683417176771E-01   1.909402394660707E-01
   1.933419720153518E-01   1.957739146411176E-01   1.982364473393513E-01
   2.007299548857967E-01   2.032548268960815E-01   2.058114578865938E-01
   2.084002473361277E-01   2.110215997483014E-01   2.136759247147625E-01
   2.163636369791875E-01   2.190851565020855E-01   2.218409085264193E-01
   2.246313236440492E-01   2.274568378630144E-01   2.303178926756603E-01
   2.332149351276220E-01   2.361484178876771E-01   2.391187993184747E-01
   2.421265435481568E-01   2.451721205428786E-01   2.482560061802417E-01
   2.513786823236513E-01   2.545406368976080E-01   2.577423639639467E-01
   2.609843637990358E-01   2.642671429719452E-01   2.675912144235997E-01
   2.709570975469265E-01   2.743653182680114E-01   2.778164091282764E-01
   2.813109093676894E-01   2.848493650090227E-01   2.884323289431692E-01
   2.920603610155331E-01   2.957340281135072E-01   2.994539042550495E-01
   3.032205706783754E-01   3.070346159327770E-01   3.108966359705846E-01
   3.148072342402869E-01   3.187670217808194E-01   3.227766173170419E-01
   3.268366473564142E-01   3.309477462868902E-01   3.351105564760420E-01
   3.393257283714310E-01   3.435939206022414E-01   3.479158000821933E-01
   3.522920421137481E-01   3.567233304936271E-01   3.612103576196550E-01
   3.657538245989490E-01   3.703544413574686E-01   3.750129267509422E-01
   3.797300086771904E-01   3.845064241898611E-01   3.893429196135959E-01
   3.942402506606446E-01   3.991991825489470E-01   4.042204901216998E-01
   4.093049579684271E-01   4.144533805475743E-01   4.196665623106442E-01
   4.249453178278931E-01   4.302904719156108E-01   4.357028597649981E-01
   4.411833270726678E-01   4.467327301727873E-01   4.523519361708809E-01
   4.580418230793185E-01   4.638032799545057E-01   4.696372070358005E-01
   4.755445158861794E-01   4.815261295346679E-01   4.875829826205691E-01
   4.937160215394999E-01   4.999262045912692E-01   5.062145021296138E-01
   5.125818967138174E-01   5.190293832622387E-01   5.255579692077682E-01
   5.321686746552422E-01   5.388625325408368E-01   5.456405887934651E-01
   5.525039024982071E-01   5.594535460617923E-01   5.664906053801665E-01
   5.736161800081656E-01   5.808313833313222E-01   5.881373427398344E-01
   5.955351998047250E-01   6.030261104562109E-01   6.106112451643216E-01
   6.182917891217876E-01   6.260689424292277E-01   6.339439202826701E-01
   6.419179531634255E-01   6.499922870303551E-01   6.581681835145525E-01
   6.664469201164772E-01   6.748297904055675E-01   6.833181042223606E-01
   6.919131878831597E-01   7.006163843872740E-01   7.094290536268639E-01
   7.183525725994271E-01   7.273883356229590E-01   7.365377545538153E-01
   7.458022590073183E-01   7.551832965811376E-01   7.646823330814795E-01
   7.743008527521241E-01   7.840403585063388E-01   7.939023721617126E-01
   8.038884346779435E-01   8.140001063976159E-01   8.242389672900096E-01
   8.346066171979697E-01   8.451046760878873E-01   8.557347843028225E-01
   8.664986028188100E-01   8.773978135043939E-01   8.884341193834178E-01
   8.996092449011285E-01   9.109249361936240E-01   9.223829613606904E-01
   9.339851107420729E-01   9.457331971972163E-01   9.576290563885308E-01
   9.696745470682175E-01   9.818715513687010E-01   9.942219750967198E-01
   1.006727748031108E+00   1.019390824224329E+00   1.032213182307803E+00
   1.045196825801064E+00   1.058343783424828E+00   1.071656109417969E+00
   1.085135883858508E+00   1.098785212988626E+00   1.112606229543768E+00
   1.126601093085893E+00   1.140771990340899E+00   1.155121135540316E+00
   1.169650770767273E+00   1.184363166306833E+00   1.199260621000736E+00
   1.214345462606585E+00   1.229620048161572E+00   1.245086764350765E+00
   1.260748027880035E+00   1.276606285853675E+00   1.292664016156755E+00
   1.308923727842305E+00   1.325387961523356E+00   1.342059289769917E+00
   1.358940317510946E+00   1.376033682441372E+00   1.393342055434242E+00
   1.410868140958050E+00   1.428614677499314E+00   1.446584437990478E+00
   1.464780230243178E+00   1.483204897386971E+00   1.501861318313585E+00
   1.520752408126745E+00   1.539881118597670E+00   1.559250438626289E+00
   1.578863394708263E+00   1.598723051407883E+00   1.618832511836911E+00
   1.639194918139455E+00   1.659813451982927E+00   1.680691335055187E+00
   1.701831829567943E+00   1.723238238766472E+00   1.744913907445764E+00
   1.766862222473150E+00   1.789086613317506E+00   1.811590552585119E+00
   1.834377556562280E+00   1.857451185764727E+00   1.880815045493962E+00
   1.904472786400605E+00   1.928428105054802E+00   1.952684744523830E+00
   1.977246494956959E+00   2.002117194177665E+00   2.027300728283300E+00
   2.052801032252304E+00   2.078622090559052E+00   2.104767937796442E+00
   2.131242659306296E+00   2.158050391817713E+00   2.185195324093440E+00
   2.212681697584368E+00   2.240513807092282E+00   2.268696001440916E+00
   2.297232684155472E+00   2.326128314150683E+00   2.355387406427523E+00
   2.385014532778692E+00   2.415014322502958E+00   2.445391463128500E+00
   2.476150701145344E+00   2.507296842747007E+00   2.538834754581486E+00
   2.570769364511668E+00   2.603105662385325E+00   2.635848700814791E+00
   2.669003595966432E+00   2.702575528360075E+00   2.736569743678457E+00
   2.770991553586883E+00   2.805846336563183E+00   2.841139538738108E+00
   2.876876674746306E+00   2.913063328587985E+00   2.949705154501428E+00
   2.986807877846485E+00   3.024377295999159E+00   3.062419279257480E+00
   3.100939771758725E+00   3.139944792408218E+00   3.179440435819793E+00
   3.219432873268083E+00   3.259928353652812E+00   3.300933204475175E+00
   3.342453832826537E+00   3.384496726389554E+00   3.427068454451878E+00
   3.470175668932639E+00   3.513825105421797E+00   3.558023584232610E+00
   3.602778011467314E+00   3.648095380096217E+00   3.693982771050370E+00
   3.740447354327966E+00   3.787496390114675E+00   3.835137229918061E+00
   3.883377317716265E+00   3.932224191121159E+00   3.981685482556087E+00
   4.031768920448467E+00   4.082482330437364E+00   4.133833636596264E+00
   4.185830862671235E+00   4.238482133334638E+00   4.291795675454633E+00
   4.345779819380644E+00   4.400443000244987E+00   4.455793759280893E+00
   4.511840745157070E+00   4.568592715329088E+00   4.626058537407752E+00
   4.684247190544669E+00   4.743167766835289E+00   4.802829472739527E+00
   4.863241630520312E+00   4.924413679700208E+00   4.986355178536352E+00
   5.049075805513962E+00   5.112585360858611E+00   5.176893768067528E+00
   5.242011075460178E+00   5.307947457748320E+00   5.374713217625841E+00
   5.442318787378555E+00   5.510774730514282E+00   5.580091743413409E+00
   5.650280657000224E+00   5.721352438435287E+00   5.793318192829036E+00
   5.866189164977013E+00   5.939976741116872E+00   6.014692450707502E+00
   6.090347968230547E+00   6.166955115014536E+00   6.244525861082015E+00
   6.323072327019875E+00   6.402606785873215E+00   6.483141665063060E+00
   6.564689548328124E+00   6.647263177691079E+00   6.730875455449511E+00
   6.815539446191924E+00   6.901268378839132E+00   6.988075648711274E+00
   7.075974819620876E+00   7.164979625992228E+00   7.255103975007399E+00
   7.346361948779295E+00   7.438767806551977E+00   7.532335986928724E+00
   7.627081110128084E+00   7.723017980268312E+00   7.820161587680568E+00
   7.918527111251138E+00   8.018129920793212E+00   8.118985579448422E+00
   8.221109846118617E+00   8.324518677928253E+00   8.429228232717682E+00
   8.535254871567870E+00   8.642615161356851E+00   8.751325877348323E+00
   8.861404005812851E+00   8.972866746681952E+00   9.085731516235663E+00
   9.200015949823849E+00   9.315737904621765E+00   9.432915462420302E+00
   9.551566932451259E+00   9.671710854248225E+00   9.793366000543415E+00
   9.916551380200939E+00   1.004128624118701E+01   1.016759007357742E+01
   1.029548261260295E+01   1.042498384173302E+01   1.055611399579815E+01
   1.068889356415171E+01   1.082334329387140E+01   1.095948419300101E+01
   1.109733753383302E+01   1.123692485623240E+01   1.137826797100227E+01