<UPF version="2.0.1">
  <PP_INFO>
    Generated using "atomic" code by A. Dal Corso  v.7.2
    Author: ADC
    Generation date:  9Jun2023
    Pseudopotential type: USPP
    Element: Ra
    Functional: REVPBE
    Suggested minimum cutoff for wavefunctions:  78. Ry
    Suggested minimum cutoff for charge density: 523. Ry
    The Pseudo was generated with a Scalar-Relativistic Calculation
    Local Potential by smoothing AE potential with Bessel fncs, cutoff radius:   2.1000
    Valence configuration: 
    nl pn  l   occ       Rcut    Rcut US       E pseu
    6S  1  0  2.00      1.200      2.000    -2.568753
    7S  2  0  2.00      1.200      2.000    -0.237679
    6P  2  1  6.00      1.200      2.200    -1.218044
    5D  3  2 10.00      0.850      1.500    -5.086314
    Generation configuration:
    6S  1  0  2.00      1.200      2.000    -2.568758
    7S  2  0  2.00      1.200      2.000    -0.237685
    7S  2  0  0.00      1.200      2.000     6.000000
    6P  2  1  6.00      1.200      2.200    -1.218056
    7P  3  1  0.00      1.200      2.200     6.500000
    5D  3  2 10.00      0.850      1.500    -5.086374
    5D  3  2 -2.00      0.850      1.500    -3.200000
    Pseudization used: troullier-martins
    <PP_INPUTFILE>
@input
title='Ra',
zed=88.,
rel=1,
config='[Xe] 4f14.0 5d10.0 6s2.0 6p6.0 6d0. 7s2. 7p0.',
iswitch=3,
dft='REVPBE'
/
@inputp
lpaw=.false.,
pseudotype=3,
file_pseudopw='Ra.revpbe-spdn-rrkjus_psl.1.0.0.UPF',
author='ADC',
lloc=-1,
rcloc=2.1,
which_augfun='PSQ',
rmatch_augfun_nc=.true.,
nlcc=.true.,
new_core_ps=.true.,
rcore=1.2,
tm=.true.
/
7
6S  1  0  2.00  0.00  1.20  2.00  0.0
7S  2  0  2.00  0.00  1.20  2.00  0.0
7S  2  0  0.00  6.00  1.20  2.00  0.0
6P  2  1  6.00  0.00  1.20  2.20  0.0
7P  3  1  0.00  6.50  1.20  2.20  0.0
5D  3  2 10.00  0.00  0.85  1.50  0.0
5D  3  2 -2.00 -3.20  0.85  1.50  0.0
    </PP_INPUTFILE>
  </PP_INFO>
    <!-- END OF HUMAN READABLE SECTION -->
  <PP_HEADER generated="Generated using 'atomic' code by A. Dal Corso  v.7.2" author="ADC" date=" 9Jun2023" comment="" element="Ra" pseudo_type="USPP" relativistic="scalar" is_ultrasoft="true" is_paw="false" is_coulomb="false" has_so="false" has_wfc="false" has_gipaw="false" paw_as_gipaw="false" core_correction="true" functional="REVPBE" z_valence="20.0000000000000" total_psenergy="-315.632302854685" wfc_cutoff="78.2778522525984" rho_cutoff="523.395455385775" l_max="2" l_max_rho="4" l_local="-1" mesh_size="1287" number_of_wfc="4" number_of_proj="7"/>
  <PP_MESH mesh="1287" dx="1.250000000000000E-002" xmin="-7.00000000000000" rmax="100.000000000000" zmesh="88.0000000000000">
    <PP_R>
   1.036229506311950E-05   1.049263668942071E-05   1.062461781155207E-05
   1.075825905183243E-05   1.089358129197750E-05   1.103060567636260E-05
   1.116935361532658E-05   1.130984678851717E-05   1.145210714827853E-05
   1.159615692308130E-05   1.174201862099588E-05   1.188971503320930E-05
   1.203926923758648E-05   1.219070460227610E-05   1.234404478936202E-05
   1.249931375856044E-05   1.265653577096367E-05   1.281573539283105E-05
   1.297693749942736E-05   1.314016727890975E-05   1.330545023626335E-05
   1.347281219728651E-05   1.364227931262615E-05   1.381387806186380E-05
   1.398763525765319E-05   1.416357804990965E-05   1.434173393005244E-05
   1.452213073530028E-05   1.470479665302100E-05   1.488976022513591E-05
   1.507705035257945E-05   1.526669629981508E-05   1.545872769940788E-05
   1.565317455665474E-05   1.585006725427271E-05   1.604943655714638E-05
   1.625131361713494E-05   1.645572997793972E-05   1.666271758003299E-05
   1.687230876564871E-05   1.708453628383605E-05   1.729943329557650E-05
   1.751703337896534E-05   1.773737053445832E-05   1.796047919018429E-05
   1.818639420732459E-05   1.841515088556030E-05   1.864678496858779E-05
   1.888133264970379E-05   1.911883057746070E-05   1.935931586139289E-05
   1.960282607781525E-05   1.984939927569454E-05   2.009907398259455E-05
   2.035188921069625E-05   2.060788446289335E-05   2.086709973896485E-05
   2.112957554182501E-05   2.139535288385202E-05   2.166447329329632E-05
   2.193697882076942E-05   2.221291204581440E-05   2.249231608355905E-05
   2.277523459145272E-05   2.306171177608789E-05   2.335179240010749E-05
   2.364552178919920E-05   2.394294583917766E-05   2.424411102315577E-05
   2.454906439880630E-05   2.485785361571460E-05   2.517052692282406E-05
   2.548713317597504E-05   2.580772184553871E-05   2.613234302414700E-05
   2.646104743451947E-05   2.679388643738901E-05   2.713091203952697E-05
   2.747217690186936E-05   2.781773434774526E-05   2.816763837120862E-05
   2.852194364547498E-05   2.888070553146430E-05   2.924398008645114E-05
   2.961182407282384E-05   2.998429496695365E-05   3.036145096817558E-05
   3.074335100788212E-05   3.113005475873146E-05   3.152162264397146E-05
   3.191811584688083E-05   3.231959632032918E-05   3.272612679645730E-05
   3.313777079647918E-05   3.355459264060735E-05   3.397665745810296E-05
   3.440403119745245E-05   3.483678063667208E-05   3.527497339374214E-05
   3.571867793717250E-05   3.616796359670076E-05   3.662290057412530E-05
   3.708355995427441E-05   3.755001371611343E-05   3.802233474399172E-05
   3.850059683903081E-05   3.898487473065607E-05   3.947524408827333E-05
   3.997178153309237E-05   4.047456465009920E-05   4.098367200017875E-05
   4.149918313239026E-05   4.202117859639695E-05   4.254973995505205E-05
   4.308494979714327E-05   4.362689175029732E-05   4.417565049404694E-05
   4.473131177306231E-05   4.529396241054876E-05   4.586369032181317E-05
   4.644058452800076E-05   4.702473517000496E-05   4.761623352255204E-05
   4.821517200846296E-05   4.882164421309477E-05   4.943574489896328E-05
   5.005757002055007E-05   5.068721673929547E-05   5.132478343878031E-05
   5.197036974009856E-05   5.262407651742325E-05   5.328600591376831E-05
   5.395626135694861E-05   5.463494757574079E-05   5.532217061624731E-05
   5.601803785846650E-05   5.672265803307065E-05   5.743614123839562E-05
   5.815859895764381E-05   5.889014407630369E-05   5.963089089978846E-05
   6.038095517129631E-05   6.114045408989569E-05   6.190950632883783E-05
   6.268823205409967E-05   6.347675294316023E-05   6.427519220401260E-05
   6.508367459441574E-05   6.590232644138803E-05   6.673127566094605E-05
   6.757065177809198E-05   6.842058594705181E-05   6.928121097176861E-05
   7.015266132665349E-05   7.103507317759728E-05   7.192858440324713E-05
   7.283333461654981E-05   7.374946518656689E-05   7.467711926056386E-05
   7.561644178637697E-05   7.656757953506213E-05   7.753068112382758E-05
   7.850589703925605E-05   7.949337966081837E-05   8.049328328468316E-05
   8.150576414782612E-05   8.253098045244194E-05   8.356909239066405E-05
   8.462026216959482E-05   8.568465403665078E-05   8.676243430522684E-05
   8.785377138068262E-05   8.895883578665652E-05   9.007780019171025E-05
   9.121083943630857E-05   9.235813056013876E-05   9.351985282977307E-05
   9.469618776667965E-05   9.588731917558566E-05   9.709343317319705E-05
   9.831471821727993E-05   9.955136513610714E-05   1.008035671582757E-04
   1.020715199428991E-04   1.033554216101797E-04   1.046554727723652E-04
   1.059718765650946E-04   1.073048386791388E-04   1.086545673925399E-04
   1.100212736031555E-04   1.114051708616117E-04   1.128064754046706E-04
   1.142254061890180E-04   1.156621849254759E-04   1.171170361136448E-04
   1.185901870769830E-04   1.200818679983256E-04   1.215923119558514E-04
   1.231217549595018E-04   1.246704359878577E-04   1.262385970254808E-04
   1.278264831007235E-04   1.294343423240156E-04   1.310624259266322E-04
   1.327109882999482E-04   1.343802870351888E-04   1.360705829636775E-04
   1.377821401975920E-04   1.395152261712324E-04   1.412701116828078E-04
   1.430470709367500E-04   1.448463815865576E-04   1.466683247781804E-04
   1.485131851939488E-04   1.503812510970560E-04   1.522728143766003E-04
   1.541881705931924E-04   1.561276190251380E-04   1.580914627152003E-04
   1.600800085179514E-04   1.620935671477188E-04   1.641324532271350E-04
   1.661969853362980E-04   1.682874860625502E-04   1.704042820508830E-04
   1.725477040549766E-04   1.747180869888799E-04   1.769157699793419E-04
   1.791410964188012E-04   1.813944140190410E-04   1.836760748655213E-04
   1.859864354723912E-04   1.883258568381961E-04   1.906947045022838E-04
   1.930933486019212E-04   1.955221639301293E-04   1.979815299942445E-04
   2.004718310752178E-04   2.029934562876597E-04   2.055467996406398E-04
   2.081322600992520E-04   2.107502416469532E-04   2.134011533486865E-04
   2.160854094147984E-04   2.188034292657606E-04   2.215556375977045E-04
   2.243424644487816E-04   2.271643452663572E-04   2.300217209750499E-04
   2.329150380456279E-04   2.358447485647698E-04   2.388113103057049E-04
   2.418151867997406E-04   2.448568474086906E-04   2.479367673982133E-04
   2.510554280120732E-04   2.542133165473364E-04   2.574109264305110E-04
   2.606487572946470E-04   2.639273150574043E-04   2.672471120001035E-04
   2.706086668477714E-04   2.740125048501918E-04   2.774591578639777E-04
   2.809491644356750E-04   2.844830698859108E-04   2.880614263946016E-04
   2.916847930872322E-04   2.953537361222199E-04   2.990688287793786E-04
   3.028306515494941E-04   3.066397922250282E-04   3.104968459919610E-04
   3.144024155227907E-04   3.183571110707025E-04   3.223615505649216E-04
   3.264163597072663E-04   3.305221720699145E-04   3.346796291944010E-04
   3.388893806918603E-04   3.431520843445284E-04   3.474684062085238E-04
   3.518390207179192E-04   3.562646107901237E-04   3.607458679325904E-04
   3.652834923508644E-04   3.698781930579936E-04   3.745306879853110E-04
   3.792417040946145E-04   3.840119774917563E-04   3.888422535416594E-04
   3.937332869847844E-04   3.986858420550573E-04   4.037006925992837E-04
   4.087786221980644E-04   4.139204242882300E-04   4.191269022868184E-04
   4.243988697166093E-04   4.297371503332396E-04   4.351425782539166E-04
   4.406159980877501E-04   4.461582650677252E-04   4.517702451843332E-04
   4.574528153208847E-04   4.632068633905253E-04   4.690332884749721E-04
   4.749330009649991E-04   4.809069227026854E-04   4.869559871254567E-04
   4.930811394119361E-04   4.992833366296298E-04   5.055635478844718E-04
   5.119227544722480E-04   5.183619500319250E-04   5.248821407009105E-04
   5.314843452722611E-04   5.381695953538742E-04   5.449389355296759E-04
   5.517934235228406E-04   5.587341303610635E-04   5.657621405439085E-04
   5.728785522122657E-04   5.800844773199365E-04   5.873810418073794E-04
   5.947693857776410E-04   6.022506636744981E-04   6.098260444628424E-04
   6.174967118113352E-04   6.252638642773549E-04   6.331287154942776E-04
   6.410924943611065E-04   6.491564452344920E-04   6.573218281231645E-04
   6.655899188848128E-04   6.739620094254403E-04   6.824394079012270E-04
   6.910234389229316E-04   6.997154437628664E-04   7.085167805644708E-04
   7.174288245545273E-04   7.264529682580408E-04   7.355906217158245E-04
   7.448432127048223E-04   7.542121869612000E-04   7.636990084062475E-04
   7.733051593751161E-04   7.830321408484384E-04   7.928814726868599E-04
   8.028546938685182E-04   8.129533627295143E-04   8.231790572074034E-04
   8.335333750877516E-04   8.440179342537944E-04   8.546343729392319E-04
   8.653843499842086E-04   8.762695450945084E-04   8.872916591040132E-04
   8.984524142404623E-04   9.097535543945517E-04   9.211968453924236E-04
   9.327840752715776E-04   9.445170545602563E-04   9.563976165603455E-04
   9.684276176338277E-04   9.806089374928470E-04   9.929434794934140E-04
   1.005433170932810E-03   1.018079963350735E-03   1.030885832834233E-03
   1.043852780326465E-03   1.056982831939358E-03   1.070278039270190E-03
   1.083740479722155E-03   1.097372256828964E-03   1.111175500583524E-03
   1.125152367770754E-03   1.139305042304588E-03   1.153635735569217E-03
   1.168146686764618E-03   1.182840163256440E-03   1.197718460930277E-03
   1.212783904550411E-03   1.228038848123060E-03   1.243485675264192E-03
   1.259126799571976E-03   1.274964665003907E-03   1.291001746258679E-03
   1.307240549162868E-03   1.323683611062466E-03   1.340333501219347E-03
   1.357192821212724E-03   1.374264205345644E-03   1.391550321056613E-03
   1.409053869336378E-03   1.426777585149969E-03   1.444724237864041E-03
   1.462896631679594E-03   1.481297606070133E-03   1.499930036225343E-03
   1.518796833500346E-03   1.537900945870599E-03   1.557245358392528E-03
   1.576833093669947E-03   1.596667212326343E-03   1.616750813483109E-03
   1.637087035243787E-03   1.657679055184402E-03   1.678530090849964E-03
   1.699643400257217E-03   1.721022282403711E-03   1.742670077783278E-03
   1.764590168907989E-03   1.786785980836678E-03   1.809260981710117E-03
   1.832018683292918E-03   1.855062641522255E-03   1.878396457063484E-03
   1.902023775872756E-03   1.925948289766706E-03   1.950173736999304E-03
   1.974703902845968E-03   1.999542620195018E-03   2.024693770146574E-03
   2.050161282618987E-03   2.075949136962894E-03   2.102061362583004E-03
   2.128502039567694E-03   2.155275299326538E-03   2.182385325235843E-03
   2.209836353292314E-03   2.237632672774933E-03   2.265778626915173E-03
   2.294278613575630E-03   2.323137085937205E-03   2.352358553194917E-03
   2.381947581262476E-03   2.411908793485718E-03   2.442246871365007E-03
   2.472966555286738E-03   2.504072645264022E-03   2.535570001686703E-03
   2.567463546080806E-03   2.599758261877529E-03   2.632459195191919E-03
   2.665571455611338E-03   2.699100216993843E-03   2.733050718276616E-03
   2.767428264294554E-03   2.802238226609165E-03   2.837486044347882E-03
   2.873177225053938E-03   2.909317345546933E-03   2.945912052794223E-03
   2.982967064793265E-03   3.020488171465076E-03   3.058481235558908E-03
   3.096952193568326E-03   3.135907056658786E-03   3.175351911606902E-03
   3.215292921751510E-03   3.255736327956706E-03   3.296688449586993E-03
   3.338155685494692E-03   3.380144515019780E-03   3.422661499002298E-03
   3.465713280807492E-03   3.509306587363863E-03   3.553448230214249E-03
   3.598145106580151E-03   3.643404200439440E-03   3.689232583617611E-03
   3.735637416892775E-03   3.782625951114542E-03   3.830205528336982E-03
   3.878383582965838E-03   3.927167642920166E-03   3.976565330808585E-03
   4.026584365120328E-03   4.077232561431270E-03   4.128517833625129E-03
   4.180448195130027E-03   4.233031760170603E-03   4.286276745035875E-03
   4.340191469363057E-03   4.394784357437515E-03   4.450063939509081E-03
   4.506038853124921E-03   4.562717844479168E-03   4.620109769779537E-03
   4.678223596631121E-03   4.737068405437597E-03   4.796653390820063E-03
   4.856987863053714E-03   4.918081249522584E-03   4.979943096192607E-03
   5.042583069103182E-03   5.106010955877521E-03   5.170236667251974E-03
   5.235270238624613E-03   5.301121831623279E-03   5.367801735693351E-03
   5.435320369705503E-03   5.503688283583667E-03   5.572916159953481E-03
   5.643014815811474E-03   5.713995204215241E-03   5.785868415994880E-03
   5.858645681485958E-03   5.932338372284274E-03   6.006958003022699E-03
   6.082516233170345E-03   6.159024868854402E-03   6.236495864704848E-03
   6.314941325722404E-03   6.394373509169954E-03   6.474804826487764E-03
   6.556247845232805E-03   6.638715291042455E-03   6.722220049622901E-03
   6.806775168762564E-03   6.892393860370837E-03   6.979089502542477E-03
   7.066875641647958E-03   7.155765994450117E-03   7.245774450247427E-03
   7.336915073044231E-03   7.429202103748267E-03   7.522649962395844E-03
   7.617273250404995E-03   7.713086752856984E-03   7.810105440806505E-03
   7.908344473620934E-03   8.007819201349018E-03   8.108545167119350E-03
   8.210538109569005E-03   8.313813965302751E-03   8.418388871383161E-03
   8.524279167852068E-03   8.631501400283736E-03   8.740072322370123E-03
   8.850008898538696E-03   8.961328306603147E-03   9.074047940447470E-03
   9.188185412743782E-03   9.303758557704343E-03   9.420785433868191E-03
   9.539284326922816E-03   9.659273752561346E-03   9.780772459375661E-03
   9.903799431785888E-03   1.002837389300677E-02   1.015451530805132E-02
   1.028224338677227E-02   1.041157808694180E-02   1.054253961736992E-02
   1.067514844106223E-02   1.080942527841721E-02   1.094539111046389E-02
   1.108306718214015E-02   1.122247500561229E-02   1.136363636363637E-02
   1.150657331296176E-02   1.165130818777761E-02   1.179786360320256E-02
   1.194626245881846E-02   1.209652794224841E-02   1.224868353277991E-02
   1.240275300503355E-02   1.255876043267782E-02   1.271673019219069E-02
   1.287668696666849E-02   1.303865574968264E-02   1.320266184918504E-02
   1.336873089146240E-02   1.353688882514044E-02   1.370716192523842E-02
   1.387957679727466E-02   1.405416038142370E-02   1.423093995672574E-02
   1.440994314534909E-02   1.459119791690616E-02   1.477473259282377E-02
   1.496057585076843E-02   1.514875672912731E-02   1.533930463154550E-02
   1.553224933152042E-02   1.572762097705400E-02   1.592545009536334E-02
   1.612576759765066E-02   1.632860478393324E-02   1.653399334793411E-02
   1.674196538203427E-02   1.695255338228717E-02   1.716579025349629E-02
   1.738170931435658E-02   1.760034430266061E-02   1.782172938057011E-02
   1.804589913995391E-02   1.827288860779299E-02   1.850273325165353E-02
   1.873546898522874E-02   1.897113217395049E-02   1.920975964067150E-02
   1.945138867141892E-02   1.969605702122041E-02   1.994380292000340E-02
   2.019466507856863E-02   2.044868269463875E-02   2.070589545898307E-02
   2.096634356161933E-02   2.123006769809345E-02   2.149710907583830E-02
   2.176750942061247E-02   2.204131098301994E-02   2.231855654511191E-02
   2.259928942707151E-02   2.288355349398270E-02   2.317139316268427E-02
   2.346285340871008E-02   2.375797977331655E-02   2.405681837059859E-02
   2.435941589469500E-02   2.466581962708458E-02   2.497607744397390E-02
   2.529023782377805E-02   2.560834985469556E-02   2.593046324237846E-02
   2.625662831769892E-02   2.658689604461355E-02   2.692131802812660E-02
   2.725994652235340E-02   2.760283443868511E-02   2.795003535405626E-02
   2.830160351931627E-02   2.865759386770624E-02   2.901806202344237E-02
   2.938306431040736E-02   2.975265776095116E-02   3.012690012480236E-02
   3.050584987809172E-02   3.088956623248916E-02   3.127810914445574E-02
   3.167153932461195E-02   3.206991824722388E-02   3.247330815980869E-02
   3.288177209286093E-02   3.329537386970117E-02   3.371417811644851E-02
   3.413825027211858E-02   3.456765659884847E-02   3.500246419225037E-02
   3.544274099189538E-02   3.588855579192919E-02   3.633997825182133E-02
   3.679707890724957E-02   3.725992918112131E-02   3.772860139473351E-02
   3.820316877907307E-02   3.868370548625933E-02   3.917028660113041E-02
   3.966298815297548E-02   4.016188712741445E-02   4.066706147842705E-02
   4.117859014053345E-02   4.169655304112780E-02   4.222103111296711E-02
   4.275210630681718E-02   4.328986160425752E-02   4.383438103064746E-02
   4.438574966825515E-02   4.494405366955204E-02   4.550938027067417E-02
   4.608181780505314E-02   4.666145571721835E-02   4.724838457677284E-02
   4.784269609254503E-02   4.844448312691840E-02   4.905383971034143E-02
   4.967086105602000E-02   5.029564357479473E-02   5.092828489020531E-02
   5.156888385374437E-02   5.221754056030330E-02   5.287435636381219E-02
   5.353943389307663E-02   5.421287706781370E-02   5.489479111488955E-02
   5.558528258476145E-02   5.628445936812634E-02   5.699243071277911E-02
   5.770930724068277E-02   5.843520096525327E-02   5.917022530886195E-02
   5.991449512055789E-02   6.066812669401340E-02   6.143123778569511E-02
   6.220394763326365E-02   6.298637697420484E-02   6.377864806469501E-02
   6.458088469870393E-02   6.539321222733788E-02   6.621575757842586E-02
   6.704864927635250E-02   6.789201746214008E-02   6.874599391378351E-02
   6.961071206684079E-02   7.048630703528259E-02   7.137291563260417E-02
   7.227067639320267E-02   7.317972959402343E-02   7.410021727647859E-02
   7.503228326864125E-02   7.597607320771901E-02   7.693173456280999E-02
   7.789941665794525E-02   7.887927069542089E-02   7.987144977942383E-02
   8.087610893995453E-02   8.189340515705081E-02   8.292349738531631E-02
   8.396654657875742E-02   8.502271571593277E-02   8.609216982541873E-02
   8.717507601159584E-02   8.827160348075884E-02   8.938192356755563E-02
   9.050620976175883E-02   9.164463773537358E-02   9.279738537008698E-02
   9.396463278506220E-02   9.514656236508259E-02   9.634335878904975E-02
   9.755520905883973E-02   9.878230252852283E-02   1.000248309339501E-01
   1.012829884227130E-01   1.025569715844787E-01   1.038469794817083E-01
   1.051532136807602E-01   1.064758782833856E-01   1.078151799586197E-01
   1.091713279750740E-01   1.105445342336351E-01   1.119350133005749E-01
   1.133429824410764E-01   1.147686616531825E-01   1.162122737021705E-01
   1.176740441553602E-01   1.191542014173589E-01   1.206529767657501E-01
   1.221706043872314E-01   1.237073214142062E-01   1.252633679618364E-01
   1.268389871655611E-01   1.284344252190862E-01   1.300499314128537E-01
   1.316857581729931E-01   1.333421611007638E-01   1.350193990124932E-01
   1.367177339800175E-01   1.384374313716304E-01   1.401787598935484E-01
   1.419419916318956E-01   1.437274020952186E-01   1.455352702575346E-01
   1.473658786019220E-01   1.492195131646594E-01   1.510964635799180E-01
   1.529970231250193E-01   1.549214887662587E-01   1.568701612053080E-01
   1.588433449262004E-01   1.608413482429069E-01   1.628644833475106E-01
   1.649130663589878E-01   1.669874173726017E-01   1.690878605099187E-01
   1.712147239694522E-01   1.733683400779451E-01   1.755490453422958E-01
   1.777571805021384E-01   1.799930905830844E-01   1.822571249506327E-01
   1.845496373647596E-01   1.868709860351939E-01   1.892215336773881E-01
   1.916016475691937E-01   1.940116996082484E-01   1.964520663700869E-01
   1.989231291669806E-01   2.014252741075188E-01   2.039588921569392E-01
   2.065243791982167E-01   2.091221360939211E-01   2.117525687488525E-01
   2.144160881734647E-01   2.171131105480870E-01   2.198440572879525E-01
   2.226093551090455E-01   2.254094360947765E-01   2.282447377634963E-01
   2.311157031368593E-01   2.340227808090458E-01   2.369664250168570E-01
   2.399470957106890E-01   2.429652586264018E-01   2.460213853580917E-01
   2.491159534317781E-01   2.522494463800187E-01   2.554223538174616E-01
   2.586351715173493E-01   2.618884014889840E-01   2.651825520561673E-01
   2.685181379366276E-01   2.718956803224449E-01   2.753157069614885E-01
   2.787787522398791E-01   2.822853572654869E-01   2.858360699524816E-01
   2.894314451069442E-01   2.930720445135577E-01   2.967584370233861E-01
   3.004911986427591E-01   3.042709126232743E-01   3.080981695529308E-01
   3.119735674484104E-01   3.158977118485191E-01   3.198712159088029E-01
   3.238947004973556E-01   3.279687942918300E-01   3.320941338776699E-01
   3.362713638475792E-01   3.405011369022389E-01   3.447841139522947E-01
   3.491209642216243E-01   3.535123653519054E-01   3.579590035084995E-01
   3.624615734876649E-01   3.670207788251215E-01   3.716373319059793E-01
   3.763119540760492E-01   3.810453757545563E-01   3.858383365482678E-01
   3.906915853670591E-01   3.956058805409324E-01   4.005819899385064E-01
   4.056206910869988E-01   4.107227712937153E-01   4.158890277690683E-01
   4.211202677511431E-01   4.264173086318298E-01   4.317809780845430E-01
   4.372121141935472E-01   4.427115655849089E-01   4.482801915590972E-01
   4.539188622252495E-01   4.596284586371297E-01   4.654098729307934E-01
   4.712640084639860E-01   4.771917799572956E-01   4.831941136370773E-01
   4.892719473801811E-01   4.954262308604946E-01   5.016579256973324E-01
   5.079680056056916E-01   5.143574565483953E-01   5.208272768901533E-01
   5.273784775535568E-01   5.340120821770376E-01   5.407291272748148E-01
   5.475306623988504E-01   5.544177503028459E-01   5.613914671082979E-01
   5.684529024726451E-01   5.756031597595302E-01   5.828433562112014E-01
   5.901746231230849E-01   5.975981060205509E-01   6.051149648379051E-01
   6.127263740996315E-01   6.204335231039123E-01   6.282376161084595E-01
   6.361398725186835E-01   6.441415270782253E-01   6.522438300618890E-01
   6.604480474710004E-01   6.687554612312205E-01   6.771673693928522E-01
   6.856850863336591E-01   6.943099429642429E-01   7.030432869359994E-01
   7.118864828516916E-01   7.208409124786743E-01   7.299079749647942E-01
   7.390890870570115E-01   7.483856833227699E-01   7.577992163741502E-01
   7.673311570948426E-01   7.769829948699790E-01   7.867562378188482E-01
   7.966524130305447E-01   8.066730668025788E-01   8.168197648824894E-01
   8.270940927124962E-01   8.374976556772254E-01   8.480320793545566E-01
   8.586990097696213E-01   8.695001136519988E-01   8.804370786961466E-01
   8.915116138251040E-01   9.027254494575160E-01   9.140803377780149E-01
   9.255780530110016E-01   9.372203916978754E-01   9.490091729777418E-01
   9.609462388716600E-01   9.730334545704621E-01   9.852727087261921E-01
   9.976659137472143E-01   1.010215006097027E+00   1.022921946596840E+00
   1.035788720731960E+00   1.048817338962021E+00   1.062009837035133E+00
   1.075368276305956E+00   1.088894744057806E+00   1.102591353828789E+00
   1.116460245742046E+00   1.130503586840158E+00   1.144723571423740E+00
   1.159122421394316E+00   1.173702386601487E+00   1.188465745194480E+00
   1.203414803978113E+00   1.218551898773234E+00   1.233879394781701E+00
   1.249399686955950E+00   1.265115200373208E+00   1.281028390614423E+00
   1.297141744147944E+00   1.313457778718043E+00   1.329979043738317E+00
   1.346708120690038E+00   1.363647623525517E+00   1.380800199076534E+00
   1.398168527467916E+00   1.415755322536312E+00   1.433563332254229E+00
   1.451595339159420E+00   1.469854160789647E+00   1.488342650122940E+00
   1.507063696023371E+00   1.526020223692449E+00   1.545215195126193E+00
   1.564651609577940E+00   1.584332504026992E+00   1.604260953653148E+00
   1.624440072317205E+00   1.644873013047511E+00   1.665562968532627E+00
   1.686513171620190E+00   1.707726895822057E+00   1.729207455825791E+00
   1.750958208012600E+00   1.772982550981762E+00   1.795283926081677E+00
   1.817865817947576E+00   1.840731755046004E+00   1.863885310226157E+00
   1.887330101278138E+00   1.911069791498245E+00   1.935108090261377E+00
   1.959448753600618E+00   1.984095584794140E+00   2.009052434959460E+00
   2.034323203655191E+00   2.059911839490356E+00   2.085822340741363E+00
   2.112058755976752E+00   2.138625184689778E+00   2.165525777938979E+00
   2.192764738996779E+00   2.220346324006261E+00   2.248274842646200E+00
   2.276554658804453E+00   2.305190191259830E+00   2.334185914372538E+00
   2.363546358783303E+00   2.393276112121302E+00   2.423379819720978E+00
   2.453862185347890E+00   2.484727971933684E+00   2.515982002320309E+00
   2.547629160013603E+00   2.579674389946342E+00   2.612122699250898E+00
   2.644979158041617E+00   2.678248900207030E+00   2.711937124212042E+00
   2.746049093910190E+00   2.780590139366143E+00   2.815565657688527E+00
   2.850981113873234E+00   2.886842041657353E+00   2.923154044383807E+00
   2.959922795876898E+00   2.997154041328855E+00   3.034853598197524E+00
   3.073027357115372E+00   3.111681282809893E+00   3.150821415035616E+00
   3.190453869517836E+00   3.230584838908193E+00   3.271220593752308E+00
   3.312367483469548E+00   3.354031937345142E+00   3.396220465534779E+00
   3.438939660081816E+00   3.482196195947322E+00   3.525996832053027E+00
   3.570348412337438E+00   3.615257866825205E+00   3.660732212709961E+00
   3.706778555450773E+00   3.753404089882374E+00   3.800616101339379E+00
   3.848421966794632E+00   3.896829156011868E+00   3.945845232712895E+00
   3.995477855759418E+00   4.045734780349767E+00   4.096623859230656E+00
   4.148153043924192E+00   4.200330385970329E+00   4.253164038184911E+00
   4.306662255933589E+00   4.360833398421730E+00   4.415685930000555E+00
   4.471228421489728E+00   4.527469551516545E+00   4.584418107871994E+00
   4.642082988883870E+00   4.700473204807145E+00   4.759597879231863E+00
   4.819466250508689E+00   4.880087673192436E+00   4.941471619503734E+00
   5.003627680809078E+00   5.066565569119513E+00   5.130295118608131E+00
   5.194826287146697E+00   5.260169157861586E+00   5.326333940709284E+00
   5.393330974071732E+00   5.461170726371697E+00   5.529863797708495E+00
   5.599420921514281E+00   5.669852966231160E+00   5.741170937009421E+00
   5.813385977427093E+00   5.886509371231164E+00   5.960552544100687E+00
   6.035527065432058E+00   6.111444650146783E+00   6.188317160521925E+00
   6.266156608043628E+00   6.344975155283932E+00   6.424785117801195E+00
   6.505598966064448E+00   6.587429327401892E+00   6.670288987973970E+00
   6.754190894771230E+00   6.839148157637298E+00   6.925174051317359E+00
   7.012282017532314E+00   7.100485667079107E+00   7.189798781957433E+00
   7.280235317523192E+00   7.371809404669073E+00   7.464535352032498E+00
   7.558427648231390E+00   7.653500964128062E+00   7.749770155121539E+00
   7.847250263468793E+00   7.945956520635066E+00   8.045904349673863E+00
   8.147109367636817E+00   8.249587388013879E+00   8.353354423204243E+00
   8.458426687018262E+00   8.564820597210932E+00   8.672552778047178E+00
   8.781640062899431E+00   8.892099496877906E+00   9.003948339493887E+00
   9.117204067356589E+00   9.231884376903908E+00   9.348007187167527E+00
   9.465590642572819E+00   9.584653115773904E+00   9.705213210524459E+00
   9.827289764584565E+00   9.950901852664158E+00   1.007606878940351E+01
   1.020281013239112E+01   1.033114568521969E+01   1.046109550058047E+01
   1.059267988339646E+01   1.072591939399521E+01   1.086083485132134E+01
   1.099744733618952E+01   1.113577819457846E+01   1.127584904096621E+01
   1.141768176170751E+01   1.156129851845354E+01   1.170672175161471E+01
   1.185397418386709E+01   1.200307882370279E+01   1.215405896902515E+01
   1.230693821078905E+01   1.246174043668704E+01   1.261848983488188E+01
   1.277721089778592E+01   1.293792842588818E+01   1.310066753162942E+01