<UPF version="2.0.1">
  <PP_INFO>
    Generated using "atomic" code by A. Dal Corso  v.7.2
    Author: ADC
    Generation date:  9Jun2023
    Pseudopotential type: USPP
    Element: Rb
    Functional: REVPBE
    Suggested minimum cutoff for wavefunctions:  35. Ry
    Suggested minimum cutoff for charge density: 259. Ry
    The Pseudo was generated with a Fully-Relativistic Calculation
    Local Potential by smoothing AE potential with Bessel fncs, cutoff radius:   1.5000
    Pseudopotential contains additional information for spin-orbit calculations.
    Valence configuration: 
    nl pn  l   occ       Rcut    Rcut US       E pseu
    4S  1  0  2.00      1.300      1.500    -2.344062
    5S  2  0  1.00      1.300      1.500    -0.160013
    4P  2  1  2.00      1.400      1.600    -1.218123
    4P  2  1  4.00      1.400      1.600    -1.153781
    5P  3  1  0.00      1.400      1.600    -0.057015
    5P  3  1  0.00      1.400      1.600    -0.055072
    Generation configuration:
    4S  1  0  2.00      1.300      1.500    -2.344054
    5S  2  0  1.00      1.300      1.500    -0.160015
    4P  2  1  2.00      1.400      1.600    -1.218124
    4P  2  1  4.00      1.400      1.600    -1.153771
    5P  3  1  0.00      1.400      1.600    -0.057007
    5P  3  1  0.00      1.400      1.600    -0.055061
    4D  3  2  0.00      1.200      1.800     0.050000
    4D  3  2  0.00      1.200      1.800     0.050000
    4D  3  2  0.00      1.200      1.800     1.000000
    4D  3  2  0.00      1.200      1.800     1.000000
    Pseudization used: troullier-martins
    <PP_INPUTFILE>
@input
title='Rb',
zed=37.,
rel=2,
config='[Kr] 5s1 5p0 4d-1',
iswitch=3,
dft='REVPBE'
/
@inputp
lpaw=.false.,
pseudotype=3,
file_pseudopw='Rb.rel-revpbe-spn-rrkjus_psl.1.0.0.UPF',
author='ADC',
lloc=-1,
rcloc=1.5,
which_augfun='PSQ',
rmatch_augfun_nc=.true.,
nlcc=.true.,
new_core_ps=.true.,
rcore=1.2,
tm=.true.
/
6
4S  1  0  2.00  0.00  1.30  1.50  0.0
5S  2  0  1.00  0.00  1.30  1.50  0.0
4P  2  1  6.00  0.00  1.40  1.60  0.0
5P  3  1  0.00  0.00  1.40  1.60  0.0
4D  3  2  0.00  0.05  1.20  1.80  0.0
4D  3  2  0.00  1.00  1.20  1.80  0.0
    </PP_INPUTFILE>
  </PP_INFO>
    <!-- END OF HUMAN READABLE SECTION -->
  <PP_HEADER generated="Generated using 'atomic' code by A. Dal Corso  v.7.2" author="ADC" date=" 9Jun2023" comment="" element="Rb" pseudo_type="USPP" relativistic="full" is_ultrasoft="true" is_paw="false" is_coulomb="false" has_so="true" has_wfc="false" has_gipaw="false" paw_as_gipaw="false" core_correction="true" functional="REVPBE" z_valence="9.00000000000000" total_psenergy="-59.1100415271570" wfc_cutoff="34.6228929759793" rho_cutoff="258.747032548483" l_max="2" l_max_rho="4" l_local="-1" mesh_size="1219" number_of_wfc="6" number_of_proj="10"/>
  <PP_MESH mesh="1219" dx="1.250000000000000E-002" xmin="-7.00000000000000" rmax="100.000000000000" zmesh="37.0000000000000">
    <PP_R>
   2.464545852850044E-05   2.495546023429790E-05   2.526936128152925E-05
   2.558721071787173E-05   2.590905820794648E-05   2.623495404107862E-05
   2.656494913915510E-05   2.689909506458139E-05   2.723744402833812E-05
   2.758004889813931E-05   2.792696320669289E-05   2.827824116006537E-05
   2.863393764615162E-05   2.899410824325127E-05   2.935880922875291E-05
   2.972809758792752E-05   3.010203102283252E-05   3.048066796132790E-05
   3.086406756620561E-05   3.125228974443400E-05   3.164539515651823E-05
   3.204344522597872E-05   3.244650214894867E-05   3.285462890389229E-05
   3.326788926144543E-05   3.368634779437972E-05   3.411006988769228E-05
   3.453912174882228E-05   3.497357041799589E-05   3.541348377870162E-05
   3.585893056829707E-05   3.630998038874937E-05   3.676670371751064E-05
   3.722917191853019E-05   3.769745725340537E-05   3.817163289267248E-05
   3.865177292723985E-05   3.913795237996474E-05   3.963024721737576E-05
   4.012873436154289E-05   4.063349170209655E-05   4.114459810839815E-05
   4.166213344186352E-05   4.218617856844141E-05   4.271681537124911E-05
   4.325412676336660E-05   4.379819670079207E-05   4.434911019556016E-05
   4.490695332902524E-05   4.547181326531192E-05   4.604377826493443E-05
   4.662293769858763E-05   4.720938206111134E-05   4.780320298563029E-05
   4.840449325787216E-05   4.901334683066528E-05   4.962985883861911E-05
   5.025412561298922E-05   5.088624469672912E-05   5.152631485973180E-05
   5.217443611426241E-05   5.283070973058560E-05   5.349523825278910E-05
   5.416812551480646E-05   5.484947665664146E-05   5.553939814079619E-05
   5.623799776890620E-05   5.694538469858471E-05   5.766166946047860E-05
   5.838696397553931E-05   5.912138157251041E-05   5.986503700563559E-05
   6.061804647258928E-05   6.138052763263263E-05   6.215259962499827E-05
   6.293438308750577E-05   6.372600017541169E-05   6.452757458049659E-05
   6.533923155039198E-05   6.616109790815090E-05   6.699330207206375E-05
   6.783597407572429E-05   6.868924558834752E-05   6.955324993534324E-05
   7.042812211914860E-05   7.131399884032221E-05   7.221101851890407E-05
   7.311932131604396E-05   7.403904915590184E-05   7.497034574782402E-05
   7.591335660879764E-05   7.686822908618832E-05   7.783511238076332E-05
   7.881415757000454E-05   7.980551763171477E-05   8.080934746792054E-05
   8.182580392907608E-05   8.285504583857143E-05   8.389723401754888E-05
   8.495253131003190E-05   8.602110260836937E-05   8.710311487900072E-05
   8.819873718854455E-05   8.930814073021572E-05   9.043149885057492E-05
   9.156898707661383E-05   9.272078314318201E-05   9.388706702075821E-05
   9.506802094357103E-05   9.626382943807378E-05   9.747467935177650E-05
   9.870075988244172E-05   9.994226260764681E-05   1.011993815147184E-04
   1.024723130310435E-04   1.037612560547612E-04   1.050664119858414E-04
   1.063879847575536E-04   1.077261808683322E-04   1.090812094140421E-04
   1.104532821206504E-04   1.118426133773091E-04   1.132494202698535E-04
   1.146739226147227E-04   1.161163429933065E-04   1.175769067867235E-04
   1.190558422110380E-04   1.205533803529190E-04   1.220697552057478E-04
   1.236052037061804E-04   1.251599657711688E-04   1.267342843354489E-04
   1.283284053894994E-04   1.299425780179781E-04   1.315770544386423E-04
   1.332320900417581E-04   1.349079434300059E-04   1.366048764588869E-04
   1.383231542776393E-04   1.400630453706682E-04   1.418248215994969E-04
   1.436087582452453E-04   1.454151340516438E-04   1.472442312685873E-04
   1.490963356962371E-04   1.509717367296784E-04   1.528707274041381E-04
   1.547936044407726E-04   1.567406682930310E-04   1.587122231936014E-04
   1.607085772019485E-04   1.627300422524475E-04   1.647769342031253E-04
   1.668495728850137E-04   1.689482821521233E-04   1.710733899320472E-04
   1.732252282771995E-04   1.754041334166997E-04   1.776104458089086E-04
   1.798445101946263E-04   1.821066756509586E-04   1.843972956458602E-04
   1.867167280933657E-04   1.890653354095140E-04   1.914434845689762E-04
   1.938515471623973E-04   1.962898994544565E-04   1.987589224426604E-04
   2.012590019168742E-04   2.037905285196019E-04   2.063538978070260E-04
   2.089495103108127E-04   2.115777716006966E-04   2.142390923478514E-04
   2.169338883890582E-04   2.196625807916814E-04   2.224255959194603E-04
   2.252233654991300E-04   2.280563266878794E-04   2.309249221416578E-04
   2.338296000843415E-04   2.367708143777683E-04   2.397490245926556E-04
   2.427646960804088E-04   2.458183000458329E-04   2.489103136207605E-04
   2.520412199386034E-04   2.552115082098435E-04   2.584216737984733E-04
   2.616722182993969E-04   2.649636496168062E-04   2.682964820435408E-04
   2.716712363414483E-04   2.750884398227535E-04   2.785486264324525E-04
   2.820523368317434E-04   2.856001184825042E-04   2.891925257328359E-04
   2.928301199036800E-04   2.965134693765264E-04   3.002431496822245E-04
   3.040197435909099E-04   3.078438412030643E-04   3.117160400417198E-04
   3.156369451458228E-04   3.196071691647735E-04   3.236273324541519E-04
   3.276980631726513E-04   3.318199973802283E-04   3.359937791374887E-04
   3.402200606063243E-04   3.444995021518127E-04   3.488327724454020E-04
   3.532205485693917E-04   3.576635161227278E-04   3.621623693281305E-04
   3.667178111405658E-04   3.713305533570849E-04   3.760013167280441E-04
   3.807308310697222E-04   3.855198353783583E-04   3.903690779456183E-04
   3.952793164755195E-04   4.002513182028220E-04   4.052858600129109E-04
   4.103837285631877E-04   4.155457204059847E-04   4.207726421130294E-04
   4.260653104014730E-04   4.314245522615029E-04   4.368512050855642E-04
   4.423461167992008E-04   4.479101459935474E-04   4.535441620594857E-04
   4.592490453234883E-04   4.650256871851725E-04   4.708749902565815E-04
   4.767978685032206E-04   4.827952473868663E-04   4.888680640101703E-04
   4.950172672630860E-04   5.012438179711320E-04   5.075486890455245E-04
   5.139328656351960E-04   5.203973452807279E-04   5.269431380702161E-04
   5.335712667971021E-04   5.402827671199846E-04   5.470786877244430E-04
   5.539600904868988E-04   5.609280506405336E-04   5.679836569432981E-04
   5.751280118480317E-04   5.823622316747236E-04   5.896874467849398E-04
   5.971048017584444E-04   6.046154555720433E-04   6.122205817806749E-04
   6.199213687007819E-04   6.277190195959886E-04   6.356147528651110E-04
   6.436098022325373E-04   6.517054169409966E-04   6.599028619467578E-04
   6.682034181172811E-04   6.766083824313553E-04   6.851190681817553E-04
   6.937368051804442E-04   7.024629399663608E-04   7.112988360158193E-04
   7.202458739555537E-04   7.293054517784456E-04   7.384789850619613E-04
   7.477679071893399E-04   7.571736695735628E-04   7.666977418841379E-04
   7.763416122767414E-04   7.861067876257426E-04   7.959947937596565E-04
   8.060071756995597E-04   8.161454979005000E-04   8.264113444959486E-04
   8.368063195453215E-04   8.473320472846186E-04   8.579901723802149E-04
   8.687823601858397E-04   8.797102970027954E-04   8.907756903434424E-04
   9.019802691980021E-04   9.133257843047177E-04   9.248140084234062E-04
   9.364467366124601E-04   9.482257865093254E-04   9.601529986145125E-04
   9.722302365791802E-04   9.844593874963306E-04   9.968423621956762E-04
   1.009381095542206E-03   1.022077546738516E-03   1.034933699630937E-03
   1.047951563019514E-03   1.061133170971887E-03   1.074480583141117E-03
   1.087995885087509E-03   1.101681188604493E-03   1.115538632048582E-03
   1.129570380673511E-03   1.143778626968549E-03   1.158165591001086E-03
   1.172733520763524E-03   1.187484692524525E-03   1.202421411184690E-03
   1.217546010636698E-03   1.232860854129984E-03   1.248368334640003E-03
   1.264070875242135E-03   1.279970929490295E-03   1.296070981800310E-03
   1.312373547838107E-03   1.328881174912800E-03   1.345596442374701E-03
   1.362521962018361E-03   1.379660378490660E-03   1.397014369704038E-03
   1.414586647254930E-03   1.432379956847455E-03   1.450397078722436E-03
   1.468640828091824E-03   1.487114055578574E-03   1.505819647662066E-03
   1.524760527129118E-03   1.543939653530684E-03   1.563360023644283E-03
   1.583024671942258E-03   1.602936671065912E-03   1.623099132305621E-03
   1.643515206086972E-03   1.664188082463033E-03   1.685120991612795E-03
   1.706317204345903E-03   1.727780032613719E-03   1.749512830026826E-03
   1.771518992379037E-03   1.793801958177989E-03   1.816365209182426E-03
   1.839212270946222E-03   1.862346713369259E-03   1.885772151255234E-03
   1.909492244876475E-03   1.933510700545872E-03   1.957831271195986E-03
   1.982457756965463E-03   2.007394005792808E-03   2.032643914017633E-03
   2.058211426989469E-03   2.084100539684236E-03   2.110315297328464E-03
   2.136859796031370E-03   2.163738183424880E-03   2.190954659311710E-03
   2.218513476321590E-03   2.246418940575745E-03   2.274675412359740E-03
   2.303287306804779E-03   2.332259094577582E-03   2.361595302578930E-03
   2.391300514651008E-03   2.421379372293641E-03   2.451836575389527E-03
   2.482676882938620E-03   2.513905113801717E-03   2.545526147453424E-03
   2.577544924744585E-03   2.609966448674293E-03   2.642795785171624E-03
   2.676038063887198E-03   2.709698478994696E-03   2.743782290002462E-03
   2.778294822575308E-03   2.813241469366667E-03   2.848627690861200E-03
   2.884459016228006E-03   2.920741044184576E-03   2.957479443871593E-03
   2.994679955738754E-03   3.032348392441724E-03   3.070490639750372E-03
   3.109112657468444E-03   3.148220480364783E-03   3.187820219116284E-03
   3.227918061262694E-03   3.268520272173424E-03   3.309633196026539E-03
   3.351263256800033E-03   3.393416959275601E-03   3.436100890055018E-03
   3.479321718589304E-03   3.523086198220857E-03   3.567401167238655E-03
   3.612273549946769E-03   3.657710357746290E-03   3.703718690230878E-03
   3.750305736296089E-03   3.797478775262653E-03   3.845245178013882E-03
   3.893612408147386E-03   3.942588023141282E-03   3.992179675535050E-03
   4.042395114125272E-03   4.093242185176395E-03   4.144728833646716E-03
   4.196863104429811E-03   4.249653143611558E-03   4.303107199742981E-03
   4.357233625129102E-03   4.412040877134012E-03   4.467537519502339E-03
   4.523732223697366E-03   4.580633770255950E-03   4.638251050160507E-03
   4.696593066228247E-03   4.755668934517880E-03   4.815487885754014E-03
   4.876059266769482E-03   4.937392541965803E-03   4.999497294792009E-03
   5.062383229242084E-03   5.126060171371224E-03   5.190538070831194E-03
   5.255827002424962E-03   5.321937167680921E-03   5.388878896446898E-03
   5.456662648504202E-03   5.525299015202002E-03   5.594798721112235E-03
   5.665172625705347E-03   5.736431725047112E-03   5.808587153516774E-03
   5.881650185546836E-03   5.955632237384700E-03   6.030544868876483E-03
   6.106399785273268E-03   6.183208839060068E-03   6.260984031807807E-03
   6.339737516048586E-03   6.419481597174545E-03   6.500228735360601E-03
   6.581991547511373E-03   6.664782809232609E-03   6.748615456827395E-03
   6.833502589317473E-03   6.919457470490004E-03   7.006493530970044E-03
   7.094624370319117E-03   7.183863759160180E-03   7.274225641329295E-03
   7.365724136054397E-03   7.458373540161438E-03   7.552188330308308E-03
   7.647183165246836E-03   7.743372888113247E-03   7.840772528747444E-03
   7.939397306041431E-03   8.039262630317316E-03   8.140384105735194E-03
   8.242777532731333E-03   8.346458910487025E-03   8.451444439428484E-03
   8.557750523758198E-03   8.665393774018128E-03   8.774391009685129E-03
   8.884759261799033E-03   8.996515775623775E-03   9.109678013342011E-03
   9.224263656783615E-03   9.340290610188502E-03   9.457777003004203E-03
   9.576741192718617E-03   9.697201767728425E-03   9.819177550243550E-03
   9.942687599228174E-03   1.006775121337873E-02   1.019438793413938E-02
   1.032261754875538E-02   1.045246009336490E-02   1.058393585612971E-02
   1.071706538040522E-02   1.085186946795045E-02   1.098836918217836E-02
   1.112658585144699E-02   1.126654107239212E-02   1.140825671330177E-02
   1.155175491753316E-02   1.169705810697263E-02   1.184418898553917E-02
   1.199317054273189E-02   1.214402605722221E-02   1.229677910049118E-02
   1.245145354051259E-02   1.260807354548239E-02   1.276666358759500E-02
   1.292724844686714E-02   1.308985321500980E-02   1.325450329934882E-02
   1.342122442679486E-02   1.359004264786327E-02   1.376098434074458E-02
   1.393407621542606E-02   1.410934531786530E-02   1.428681903421615E-02
   1.446652509510785E-02   1.464849157997804E-02   1.483274692146018E-02
   1.501931990982626E-02   1.520823969748530E-02   1.539953580353847E-02
   1.559323811839154E-02   1.578937690842530E-02   1.598798282072474E-02
   1.618908688786772E-02   1.639272053277388E-02   1.659891557361454E-02
   1.680770422878433E-02   1.701911912193541E-02   1.723319328707496E-02
   1.744996017372682E-02   1.766945365215804E-02   1.789170801867120E-02
   1.811675800096323E-02   1.834463876355175E-02   1.857538591326953E-02
   1.880903550482817E-02   1.904562404645172E-02   1.928518850558116E-02
   1.952776631465061E-02   1.977339537693627E-02   2.002211407247887E-02
   2.027396126408060E-02   2.052897630337754E-02   2.078719903698840E-02
   2.104866981274068E-02   2.131342948597505E-02   2.158151942592912E-02
   2.185298152220142E-02   2.212785819129682E-02   2.240619238325407E-02
   2.268802758835696E-02   2.297340784392969E-02   2.326237774121779E-02
   2.355498243235563E-02   2.385126763742151E-02   2.415127965158152E-02
   2.445506535232324E-02   2.476267220678049E-02   2.507414827915009E-02
   2.538954223820206E-02   2.570890336488417E-02   2.603228156002222E-02
   2.635972735211711E-02   2.669129190524005E-02   2.702702702702704E-02
   2.736698517677391E-02   2.771121947363323E-02   2.805978370491420E-02
   2.841273233448715E-02   2.877012051129351E-02   2.913200407796302E-02
   2.949843957953925E-02   2.986948427231481E-02   3.024519613277786E-02
   3.062563386667099E-02   3.101085691816413E-02   3.140092547914280E-02
   3.179590049861327E-02   3.219584369222590E-02   3.260081755191841E-02
   3.301088535568028E-02   3.342611117744014E-02   3.384655989707743E-02
   3.427229721056000E-02   3.470338964020925E-02   3.513990454509437E-02
   3.558191013155736E-02   3.602947546387036E-02   3.648267047502712E-02
   3.694156597767019E-02   3.740623367515546E-02   3.787674617275605E-02
   3.835317698900697E-02   3.883560056719257E-02   3.932409228697843E-02
   3.981872847618962E-02   4.031958642273705E-02   4.082674438669387E-02
   4.134028161252377E-02   4.186027834146307E-02   4.238681582405864E-02
   4.291997633286335E-02   4.345984317529145E-02   4.400650070663542E-02
   4.456003434324673E-02   4.512053057588226E-02   4.568807698321871E-02
   4.626276224553690E-02   4.684467615857827E-02   4.743390964757566E-02
   4.803055478146052E-02   4.863470478724891E-02   4.924645406460837E-02
   4.986589820060813E-02   5.049313398465468E-02   5.112825942361542E-02
   5.177137375713235E-02   5.242257747312851E-02   5.308197232350940E-02
   5.374966134006197E-02   5.442574885055344E-02   5.511034049503287E-02
   5.580354324233749E-02   5.650546540680693E-02   5.721621666520745E-02
   5.793590807386919E-02   5.866465208603901E-02   5.940256256945142E-02
   6.014975482412078E-02   6.090634560035701E-02   6.167245311700823E-02
   6.244819707993257E-02   6.323369870070249E-02   6.402908071554436E-02
   6.483446740451619E-02   6.564998461092673E-02   6.647575976099866E-02
   6.731192188377924E-02   6.815860163130133E-02   6.901593129899805E-02
   6.988404484637425E-02   7.076307791793790E-02   7.165316786439481E-02
   7.255445376411003E-02   7.346707644483909E-02   7.439117850573258E-02
   7.532690433961761E-02   7.627440015555950E-02   7.723381400170717E-02
   7.820529578842600E-02   7.918899731172169E-02   8.018507227695860E-02
   8.119367632287662E-02   8.221496704590987E-02   8.324910402481170E-02
   8.429624884558902E-02   8.535656512675051E-02   8.643021854487236E-02
   8.751737686048547E-02   8.861820994428853E-02   8.973288980369051E-02
   9.086159060968731E-02   9.200448872407624E-02   9.316176272701288E-02
   9.433359344491467E-02   9.552016397871543E-02   9.672165973247515E-02
   9.793826844234983E-02   9.917018020592558E-02   1.004175875119218E-01
   1.016806852702679E-01   1.029596708425584E-01   1.042547440728912E-01
   1.055661073190934E-01   1.068939654843400E-01   1.082385260491710E-01
   1.095999991039102E-01   1.109785973814923E-01   1.123745362907030E-01
   1.137880339498368E-01   1.152193112207789E-01   1.166685917435148E-01
   1.181361019710746E-01   1.196220712049172E-01   1.211267316307586E-01
   1.226503183548515E-01   1.241930694407214E-01   1.257552259463641E-01
   1.273370319619120E-01   1.289387346477731E-01   1.305605842732508E-01
   1.322028342556489E-01   1.338657411998680E-01   1.355495649385017E-01
   1.372545685724347E-01   1.389810185119537E-01   1.407291845183744E-01
   1.424993397461917E-01   1.442917607857616E-01   1.461067277065181E-01
   1.479445241007352E-01   1.498054371278385E-01   1.516897575592746E-01
   1.535977798239445E-01   1.555298020542090E-01   1.574861261324723E-01
   1.594670577383519E-01   1.614729063964413E-01   1.635039855246743E-01
   1.655606124832970E-01   1.676431086244559E-01   1.697517993424099E-01
   1.718870141243739E-01   1.740490866020017E-01   1.762383546035166E-01
   1.784551602064981E-01   1.806998497913317E-01   1.829727740953319E-01
   1.852742882675455E-01   1.876047519242443E-01   1.899645292051161E-01
   1.923539888301621E-01   1.947735041573100E-01   1.972234532407523E-01
   1.997042188900177E-01   2.022161887297860E-01   2.047597552604554E-01
   2.073353159194712E-01   2.099432731434264E-01   2.125840344309431E-01
   2.152580124063453E-01   2.179656248841318E-01   2.207072949342609E-01
   2.234834509482561E-01   2.262945267061424E-01   2.291409614442264E-01
   2.320231999237269E-01   2.349416925002705E-01   2.378968951942598E-01
   2.408892697621281E-01   2.439192837684899E-01   2.469874106591980E-01
   2.500941298353216E-01   2.532399267280523E-01   2.564252928745548E-01
   2.596507259947705E-01   2.629167300691861E-01   2.662238154175835E-01
   2.695724987787764E-01   2.729633033913529E-01   2.763967590754325E-01
   2.798734023154512E-01   2.833937763439886E-01   2.869584312266489E-01
   2.905679239480097E-01   2.942228184986526E-01   2.979236859632866E-01
   3.016711046099830E-01   3.054656599805294E-01   3.093079449819223E-01
   3.131985599790107E-01   3.171381128883031E-01   3.211272192729569E-01
   3.251665024389605E-01   3.292565935325265E-01   3.333981316387097E-01
   3.375917638812652E-01   3.418381455237631E-01   3.461379400719741E-01
   3.504918193775444E-01   3.549004637429736E-01   3.593645620279132E-01
   3.638848117568026E-01   3.684619192278585E-01   3.730965996234352E-01
   3.777895771217741E-01   3.825415850101569E-01   3.873533657994848E-01
   3.922256713402953E-01   3.971592629402418E-01   4.021549114830498E-01
   4.072133975489673E-01   4.123355115367342E-01   4.175220537870818E-01
   4.227738347077886E-01   4.280916749003088E-01   4.334764052879913E-01
   4.389288672459147E-01   4.444499127323530E-01   4.500404044218960E-01
   4.557012158402444E-01   4.614332315006989E-01   4.672373470423689E-01
   4.731144693701159E-01   4.790655167962608E-01   4.850914191840716E-01
   4.911931180930559E-01   4.973715669260825E-01   5.036277310783518E-01
   5.099625880882404E-01   5.163771277900449E-01   5.228723524686437E-01
   5.294492770161081E-01   5.361089290902793E-01   5.428523492753425E-01
   5.496805912444221E-01   5.565947219242172E-01   5.635958216617140E-01
   5.706849843929899E-01   5.778633178141447E-01   5.851319435543803E-01
   5.924919973512560E-01   5.999446292281526E-01   6.074910036739628E-01
   6.151322998250469E-01   6.228697116494754E-01   6.307044481335871E-01
   6.386377334708980E-01   6.466708072533824E-01   6.548049246651619E-01
   6.630413566786314E-01   6.713813902530500E-01   6.798263285356317E-01
   6.883774910651648E-01   6.970362139781912E-01   7.058038502177832E-01
   7.146817697449406E-01   7.236713597526523E-01   7.327740248826462E-01
   7.419911874448679E-01   7.513242876397210E-01   7.607747837830988E-01
   7.703441525342511E-01   7.800338891265145E-01   7.898455076009446E-01
   7.997805410428911E-01   8.098405418215412E-01   8.200270818324847E-01
   8.303417527433226E-01   8.407861662423696E-01   8.513619542904852E-01
   8.620707693760680E-01   8.729142847732621E-01   8.838941948034101E-01
   8.950122150997926E-01   9.062700828757013E-01   9.176695571958802E-01
   9.292124192513838E-01   9.409004726378932E-01   9.527355436375287E-01
   9.647194815042134E-01   9.768541587526203E-01   9.891414714507570E-01
   1.001583339516232E+00   1.014181707016244E+00   1.026938542471346E+00
   1.039855839163031E+00   1.052935615445189E+00   1.066179915059474E+00
   1.079590807454647E+00   1.093170388109930E+00   1.106920778862428E+00
   1.120844128238669E+00   1.134942611790325E+00   1.149218432434130E+00
   1.163673820796107E+00   1.178311035560095E+00   1.193132363820683E+00
   1.208140121440564E+00   1.223336653412399E+00   1.238724334225230E+00
   1.254305568235486E+00   1.270082790042684E+00   1.286058464869830E+00
   1.302235088948617E+00   1.318615189909471E+00   1.335201327176492E+00
   1.351996092367372E+00   1.369002109698342E+00   1.386222036394209E+00
   1.403658563103553E+00   1.421314414319148E+00   1.439192348803666E+00
   1.457295160020745E+00   1.475625676571467E+00   1.494186762636336E+00
   1.512981318422815E+00   1.532012280618482E+00   1.551282622849898E+00
   1.570795356147244E+00   1.590553529414795E+00   1.610560229907324E+00
   1.630818583712486E+00   1.651331756239280E+00   1.672102952712647E+00
   1.693135418674294E+00   1.714432440489820E+00   1.735997345862213E+00
   1.757833504351811E+00   1.779944327902804E+00   1.802333271376357E+00
   1.825003833090437E+00   1.847959555366437E+00   1.871204025082666E+00
   1.894740874234809E+00   1.918573780503431E+00   1.942706467828624E+00
   1.967142706991883E+00   1.991886316205293E+00   2.016941161708135E+00
   2.042311158370991E+00   2.068000270307456E+00   2.094012511493538E+00
   2.120351946394842E+00   2.147022690601660E+00   2.174028911472035E+00
   2.201374828782923E+00   2.229064715389542E+00   2.257102897893007E+00
   2.285493757316380E+00   2.314241729789207E+00   2.343351307240673E+00
   2.372827038101482E+00   2.402673528014549E+00   2.432895440554646E+00
   2.463497497957093E+00   2.494484481855618E+00   2.525861234029505E+00
   2.557632657160112E+00   2.589803715596945E+00   2.622379436133336E+00
   2.655364908791894E+00   2.688765287619834E+00   2.722585791494301E+00
   2.756831704937832E+00   2.791508378944077E+00   2.826621231813898E+00
   2.862175750001998E+00   2.898177488974177E+00   2.934632074075397E+00
   2.971545201408746E+00   3.008922638725469E+00   3.046770226326196E+00
   3.085093877973487E+00   3.123899581815885E+00   3.163193401323565E+00
   3.202981476235766E+00   3.243270023520147E+00   3.284065338344188E+00
   3.325373795058828E+00   3.367201848194472E+00   3.409556033469518E+00
   3.452442968811592E+00   3.495869355391594E+00   3.539841978670776E+00
   3.584367709460991E+00   3.629453504998257E+00   3.675106410029864E+00
   3.721333557915101E+00   3.768142171739873E+00   3.815539565445325E+00
   3.863533144970649E+00   3.912130409410297E+00   3.961338952185708E+00
   4.011166462231804E+00   4.061620725198405E+00   4.112709624666746E+00
   4.164441143381318E+00   4.216823364497165E+00   4.269864472842908E+00
   4.323572756199640E+00   4.377956606595902E+00   4.433024521618969E+00
   4.488785105742598E+00   4.545247071671502E+00   4.602419241702734E+00
   4.660310549104171E+00   4.718930039510386E+00   4.778286872336012E+00
   4.838390322206942E+00   4.899249780409496E+00   4.960874756357837E+00
   5.023274879079842E+00   5.086459898721635E+00   5.150439688071086E+00
   5.215224244100448E+00   5.280823689528404E+00   5.347248274401772E+00
   5.414508377697077E+00   5.482614508942299E+00   5.551577309859010E+00
   5.621407556025153E+00   5.692116158558772E+00   5.763714165822867E+00
   5.836212765151738E+00   5.909623284599032E+00   5.983957194707761E+00
   6.059226110302624E+00   6.135441792304814E+00   6.212616149569704E+00
   6.290761240747630E+00   6.369889276168070E+00   6.450012619747558E+00
   6.531143790921535E+00   6.613295466600557E+00   6.696480483151090E+00
   6.780711838401206E+00   6.866002693671541E+00   6.952366375831756E+00
   7.039816379382892E+00   7.128366368565926E+00   7.218030179496814E+00
   7.308821822328453E+00   7.400755483439744E+00   7.493845527652276E+00
   7.588106500474852E+00   7.683553130376241E+00   7.780200331086569E+00
   7.878063203927573E+00   7.977157040172230E+00   8.077497323434070E+00
   8.179099732086483E+00   8.281980141712548E+00   8.386154627585579E+00
   8.491639467180931E+00   8.598451142719407E+00   8.706606343742608E+00
   8.816121969720758E+00   8.927015132693214E+00   9.039303159942307E+00
   9.153003596700746E+00   9.268134208893091E+00   9.384712985911751E+00
   9.502758143427805E+00   9.622288126237283E+00   9.743321611143182E+00
   9.865877509873753E+00   9.989974972037539E+00   1.011563338811546E+01
   1.024287239249070E+01   1.037171186651655E+01   1.050217194162294E+01
   1.063427300246206E+01   1.076803569009340E+01   1.090348090520907E+01
   1.104062981139947E+01   1.117950383846024E+01   1.132012468574065E+01
   1.146251432553418E+01   1.160669500651174E+01   1.175268925719807E+01
   1.190051988949186E+01   1.205021000223019E+01   1.220178298479772E+01
   1.235526252078133E+01   1.251067259167080E+01   1.266803748060586E+01
   1.282738177617061E+01   1.298873037623539E+01   1.315210849184723E+01
   1.331754165116910E+01   1.348505570346870E+01   1.365467682315754E+01
   1.382643151388065E+01   1.400034661265790E+01   1.417644929407731E+01
   1.435476707454111E+01   1.453532781656532E+01   1.471815973313323E+01
   1.490329139210376E+01   1.509075172067530E+01   1.528057000990555E+01
   1.547277591928842E+01   1.566739948138828E+01   1.586447110653269E+01
   1.606402158756401E+01   1.626608210465087E+01   1.647068423016021E+01
   1.667785993359037E+01   1.688764158656653E+01   1.710006196789876E+01
   1.731515426870381E+01   1.753295209759131E+01   1.775348948591513E+01
   1.797680089309087E+01   1.820292121198025E+01   1.843188577434312E+01
   1.866373035635821E+01   1.889849118421313E+01   1.913620493976487E+01
   1.937690876627135E+01   1.962064027419517E+01   1.986743754708036E+01
   2.011733914750289E+01   2.037038412309627E+01   2.062661201265275E+01
   2.088606285230135E+01   2.114877718176367E+01   2.141479605068816E+01
   2.168416102506432E+01   2.195691419371741E+01   2.223309817488493E+01
   2.251275612287589E+01   2.279593173481361E+01   2.308266925746358E+01
   2.337301349414707E+01   2.366700981174178E+01   2.396470414777050E+01
   2.426614301757887E+01   2.457137352160360E+01   2.488044335273192E+01
   2.519340080375374E+01   2.551029477490754E+01   2.583117478152102E+01
   2.615609096174804E+01   2.648509408440282E+01   2.681823555689260E+01