<UPF version="2.0.1">
  <PP_INFO>
    Generated using "atomic" code by A. Dal Corso  v.7.2
    Author: ADC
    Generation date:  9Jun2023
    Pseudopotential type: USPP
    Element: Rh
    Functional: REVPBE
    Suggested minimum cutoff for wavefunctions:  54. Ry
    Suggested minimum cutoff for charge density: 452. Ry
    The Pseudo was generated with a Fully-Relativistic Calculation
    Local Potential by smoothing AE potential with Bessel fncs, cutoff radius:   1.2000
    Pseudopotential contains additional information for spin-orbit calculations.
    Valence configuration: 
    nl pn  l   occ       Rcut    Rcut US       E pseu
    4S  1  0  2.00      0.900      1.400    -6.316591
    5S  2  0  2.00      0.900      1.400    -0.384286
    4P  2  1  2.00      0.900      1.300    -4.148539
    4P  2  1  4.00      0.900      1.300    -3.859722
    4D  3  2  4.00      1.100      1.700    -0.650178
    4D  3  2  3.00      1.100      1.700    -0.619080
    Generation configuration:
    4S  1  0  2.00      0.900      1.400    -6.316594
    5S  2  0  2.00      0.900      1.400    -0.384293
    4P  2  1  2.00      0.900      1.300    -4.148536
    4P  2  1  4.00      0.900      1.300    -3.859704
    5P  2  1  0.00      0.900      1.300    -2.500000
    5P  2  1  0.00      0.900      1.300    -2.500000
    4D  3  2  4.00      1.100      1.700    -0.650179
    4D  3  2  3.00      1.100      1.700    -0.619073
    4D  3  2  0.00      1.100      1.700     0.500000
    4D  3  2  0.00      1.100      1.700     0.500000
    Pseudization used: troullier-martins
    <PP_INPUTFILE>
@input
title='Rh',
zed=45.,
rel=2,
config='[Kr] 5s2 5p0 4d7',
iswitch=3,
dft='REVPBE'
/
@inputp
lpaw=.false.,
pseudotype=3,
file_pseudopw='Rh.rel-revpbe-spn-rrkjus_psl.1.0.0.UPF',
author='ADC',
lloc=-1,
rcloc=1.2,
which_augfun='PSQ',
rmatch_augfun_nc=.true.,
nlcc=.true.,
new_core_ps=.true.,
rcore=1.0,
tm=.true.
/
6
4S  1  0  2.00  0.00  0.90  1.40  0.0
5S  2  0  2.00  0.00  0.90  1.40  0.0
4P  2  1  6.00  0.00  0.90  1.30  0.0
5P  2  1  0.00 -2.50  0.90  1.30  0.0
4D  3  2  7.00  0.00  1.10  1.70  0.0
4D  3  2  0.00  0.50  1.10  1.70  0.0
    </PP_INPUTFILE>
  </PP_INFO>
    <!-- END OF HUMAN READABLE SECTION -->
  <PP_HEADER generated="Generated using 'atomic' code by A. Dal Corso  v.7.2" author="ADC" date=" 9Jun2023" comment="" element="Rh" pseudo_type="USPP" relativistic="full" is_ultrasoft="true" is_paw="false" is_coulomb="false" has_so="true" has_wfc="false" has_gipaw="false" paw_as_gipaw="false" core_correction="true" functional="REVPBE" z_valence="17.0000000000000" total_psenergy="-225.810040038090" wfc_cutoff="54.3974703676100" rho_cutoff="452.336749046495" l_max="2" l_max_rho="4" l_local="-1" mesh_size="1233" number_of_wfc="6" number_of_proj="10"/>
  <PP_MESH mesh="1233" dx="1.250000000000000E-002" xmin="-7.00000000000000" rmax="100.000000000000" zmesh="45.0000000000000">
    <PP_R>
   2.026404367898925E-05   2.051893397042272E-05   2.077703038703516E-05
   2.103837325691676E-05   2.130300341542266E-05   2.157096221155353E-05
   2.184229151441642E-05   2.211703371976692E-05   2.239523175663357E-05
   2.267692909402566E-05   2.296216974772527E-05   2.325099828716486E-05
   2.354345984239134E-05   2.383960011111771E-05   2.413946536586351E-05
   2.444310246118485E-05   2.475055884099563E-05   2.506188254598072E-05
   2.537712222110239E-05   2.569632712320128E-05   2.601954712869276E-05
   2.634683274136029E-05   2.667823510024669E-05   2.701380598764477E-05
   2.735359783718847E-05   2.769766374204554E-05   2.804605746321366E-05
   2.839883343792054E-05   2.875604678812996E-05   2.911775332915467E-05
   2.948400957837759E-05   2.985487276408282E-05   3.023040083439764E-05
   3.061065246634704E-05   3.099568707502219E-05   3.138556482286404E-05
   3.178034662906388E-05   3.218009417908212E-05   3.258486993428673E-05
   3.299473714171304E-05   3.340975984394606E-05   3.383000288912737E-05
   3.425553194108779E-05   3.468641348960738E-05   3.512271486080482E-05
   3.556450422765698E-05   3.601185062065126E-05   3.646482393857169E-05
   3.692349495942075E-05   3.738793535147869E-05   3.785821768450165E-05
   3.833441544106094E-05   3.881660302802488E-05   3.930485578818491E-05
   3.979925001202821E-05   4.029986294965812E-05   4.080677282286460E-05
   4.132005883734669E-05   4.183980119508839E-05   4.236608110689059E-05
   4.289898080506020E-05   4.343858355625927E-05   4.398497367451548E-05
   4.453823653439643E-05   4.509845858434965E-05   4.566572736021020E-05
   4.624013149887843E-05   4.682176075216964E-05   4.741070600083796E-05
   4.800705926877677E-05   4.861091373739745E-05   4.922236376018926E-05
   4.984150487746230E-05   5.046843383127571E-05   5.110324858055413E-05
   5.174604831639364E-05   5.239693347756073E-05   5.305600576618607E-05
   5.372336816365563E-05   5.439912494670185E-05   5.508338170369686E-05
   5.577624535115108E-05   5.647782415041907E-05   5.718822772461555E-05
   5.790756707574441E-05   5.863595460204270E-05   5.937350411554335E-05
   6.012033085985837E-05   6.087655152818597E-05   6.164228428154419E-05
   6.241764876723362E-05   6.320276613753262E-05   6.399775906862762E-05
   6.480275177978150E-05   6.561787005274326E-05   6.644324125140134E-05
   6.727899434168478E-05   6.812525991171429E-05   6.898217019220686E-05
   6.984985907713734E-05   7.072846214465927E-05   7.161811667828947E-05
   7.251896168835886E-05   7.343113793373293E-05   7.435478794380604E-05
   7.529005604077137E-05   7.623708836217188E-05   7.719603288373452E-05
   7.816703944249174E-05   7.915025976019400E-05   8.014584746701624E-05
   8.115395812556318E-05   8.217474925517627E-05   8.320838035654623E-05
   8.425501293663573E-05   8.531481053391474E-05   8.638793874391401E-05
   8.747456524509962E-05   8.857485982507312E-05   8.968899440710130E-05
   9.081714307697925E-05   9.195948211023192E-05   9.311618999965732E-05
   9.428744748321646E-05   9.547343757227422E-05   9.667434558019488E-05
   9.789035915129791E-05   9.912166829017781E-05   1.003684653913926E-04
   1.016309452695261E-04   1.029093051896277E-04   1.042037448980358E-04
   1.055144666535884E-04   1.068416752592264E-04   1.081855780939947E-04
   1.095463851454456E-04   1.109243090424493E-04   1.123195650884181E-04
   1.137323712949479E-04   1.151629484158828E-04   1.166115199818085E-04
   1.180783123349795E-04   1.195635546646849E-04   1.210674790430607E-04
   1.225903204613505E-04   1.241323168666244E-04   1.256937091989580E-04
   1.272747414290797E-04   1.288756605964921E-04   1.304967168480723E-04
   1.321381634771577E-04   1.338002569631235E-04   1.354832570114586E-04
   1.371874265943446E-04   1.389130319917458E-04   1.406603428330166E-04
   1.424296321390307E-04   1.442211763648419E-04   1.460352554428804E-04
   1.478721528266927E-04   1.497321555352326E-04   1.516155541977073E-04
   1.535226430989896E-04   1.554537202256004E-04   1.574090873122693E-04
   1.593890498890822E-04   1.613939173292198E-04   1.634240028972986E-04
   1.654796237983188E-04   1.675611012272282E-04   1.696687604191103E-04
   1.718029307000016E-04   1.739639455383505E-04   1.761521425971223E-04
   1.783678637865590E-04   1.806114553176047E-04   1.828832677560007E-04
   1.851836560770624E-04   1.875129797211453E-04   1.898716026498075E-04
   1.922598934026808E-04   1.946782251550540E-04   1.971269757761835E-04
   1.996065278883361E-04   2.021172689265737E-04   2.046595911992920E-04
   2.072338919495184E-04   2.098405734169825E-04   2.124800429009670E-04
   2.151527128239485E-04   2.178590007960406E-04   2.205993296802447E-04
   2.233741276585241E-04   2.261838282987084E-04   2.290288706222387E-04
   2.319096991727668E-04   2.348267640856145E-04   2.377805211581095E-04
   2.407714319208036E-04   2.437999637095884E-04   2.468665897387179E-04
   2.499717891747481E-04   2.531160472114084E-04   2.562998551454140E-04
   2.595237104532321E-04   2.627881168688137E-04   2.660935844623027E-04
   2.694406297197355E-04   2.728297756237433E-04   2.762615517352685E-04
   2.797364942763111E-04   2.832551462137126E-04   2.868180573439972E-04
   2.904257843792776E-04   2.940788910342428E-04   2.977779481142406E-04
   3.015235336044652E-04   3.053162327602699E-04   3.091566381986140E-04
   3.130453499906605E-04   3.169829757555390E-04   3.209701307552862E-04
   3.250074379909827E-04   3.290955283000981E-04   3.332350404550601E-04
   3.374266212630655E-04   3.416709256671430E-04   3.459686168484909E-04
   3.503203663301000E-04   3.547268540816802E-04   3.591887686259083E-04
   3.637068071460095E-04   3.682816755946945E-04   3.729140888044661E-04
   3.776047705993126E-04   3.823544539078085E-04   3.871638808776336E-04
   3.920338029915369E-04   3.969649811847567E-04   4.019581859639178E-04
   4.070141975274262E-04   4.121338058873752E-04   4.173178109929869E-04
   4.225670228556057E-04   4.278822616752651E-04   4.332643579688443E-04
   4.387141526998396E-04   4.442324974097651E-04   4.498202543512087E-04
   4.554782966225613E-04   4.612075083044387E-04   4.670087845978229E-04
   4.728830319639373E-04   4.788311682658838E-04   4.848541229120616E-04
   4.909528370013876E-04   4.971282634703467E-04   5.033813672418883E-04
   5.097131253761984E-04   5.161245272233683E-04   5.226165745779802E-04
   5.291902818356418E-04   5.358466761514861E-04   5.425867976006674E-04
   5.494116993408755E-04   5.563224477768922E-04   5.633201227272210E-04
   5.704058175928096E-04   5.775806395278966E-04   5.848457096130070E-04
   5.922021630301219E-04   5.996511492400552E-04   6.071938321620570E-04
   6.148313903556796E-04   6.225650172049294E-04   6.303959211047355E-04
   6.383253256497652E-04   6.463544698256106E-04   6.544846082023842E-04
   6.627170111307492E-04   6.710529649404111E-04   6.794937721411132E-04
   6.880407516261531E-04   6.966952388784642E-04   7.054585861792878E-04
   7.143321628194682E-04   7.233173553134096E-04   7.324155676157192E-04
   7.416282213405796E-04   7.509567559838790E-04   7.604026291481341E-04
   7.699673167702450E-04   7.796523133521120E-04   7.894591321941548E-04
   7.993893056317704E-04   8.094443852747608E-04   8.196259422497781E-04
   8.299355674458138E-04   8.403748717627797E-04   8.509454863632147E-04
   8.616490629271557E-04   8.724872739102181E-04   8.834618128049182E-04
   8.945743944052855E-04   9.058267550748050E-04   9.172206530177233E-04
   9.287578685537759E-04   9.404402043963626E-04   9.522694859342264E-04
   9.642475615166750E-04   9.763763027423871E-04   9.886576047518560E-04
   1.001093386523507E-03   1.013685591173542E-03   1.026436186259558E-03
   1.039347164087977E-03   1.052420542025354E-03   1.065658362813588E-03
   1.079062694889110E-03   1.092635632706080E-03   1.106379297063643E-03
   1.120295835437319E-03   1.134387422314543E-03   1.148656259534431E-03
   1.163104576631831E-03   1.177734631185685E-03   1.192548709171781E-03
   1.207549125319944E-03   1.222738223475716E-03   1.238118376966587E-03
   1.253691988972830E-03   1.269461492903007E-03   1.285429352774189E-03
   1.301598063596967E-03   1.317970151765306E-03   1.334548175451288E-03
   1.351334725004844E-03   1.368332423358494E-03   1.385543926437187E-03
   1.402971923573298E-03   1.420619137926835E-03   1.438488326910946E-03
   1.456582282622764E-03   1.474903832279680E-03   1.493455838661106E-03
   1.512241200555783E-03   1.531262853214724E-03   1.550523768809859E-03
   1.570026956898435E-03   1.589775464893272E-03   1.609772378538922E-03
   1.630020822393825E-03   1.650523960318531E-03   1.671284995970053E-03
   1.692307173302452E-03   1.713593777073705E-03   1.735148133358959E-03
   1.756973610070237E-03   1.779073617482679E-03   1.801451608767406E-03
   1.824111080531085E-03   1.847055573362279E-03   1.870288672384676E-03
   1.893814007817263E-03   1.917635255541568E-03   1.941756137676009E-03
   1.966180423157496E-03   1.990911928330327E-03   2.015954517542500E-03
   2.041312103749532E-03   2.066988649125856E-03   2.092988165683926E-03
   2.119314715901103E-03   2.145972413354418E-03   2.172965423363336E-03
   2.200297963640585E-03   2.227974304951194E-03   2.255998771779802E-03
   2.284375743006364E-03   2.313109652590371E-03   2.342204990263653E-03
   2.371666302231916E-03   2.401498191885096E-03   2.431705320516643E-03
   2.462292408051865E-03   2.493264233785417E-03   2.524625637128084E-03
   2.556381518362943E-03   2.588536839411044E-03   2.621096624606723E-03
   2.654065961482659E-03   2.687450001564816E-03   2.721253961177377E-03
   2.755483122257805E-03   2.790142833182162E-03   2.825238509600792E-03
   2.860775635284538E-03   2.896759762981593E-03   2.933196515285116E-03
   2.970091585511788E-03   3.007450738591394E-03   3.045279811967610E-03
   3.083584716510118E-03   3.122371437438181E-03   3.161646035255858E-03
   3.201414646698962E-03   3.241683485693943E-03   3.282458844328819E-03
   3.323747093836336E-03   3.365554685589480E-03   3.407888152109522E-03
   3.450754108086734E-03   3.494159251413948E-03   3.538110364233118E-03
   3.582614313995040E-03   3.627678054532409E-03   3.673308627146368E-03
   3.719513161706723E-03   3.766298877766003E-03   3.813673085687528E-03
   3.861643187787671E-03   3.910216679492479E-03   3.959401150508856E-03
   4.009204286010463E-03   4.059633867838548E-03   4.110697775717874E-03
   4.162403988487936E-03   4.214760585349674E-03   4.267775747127871E-03
   4.321457757549413E-03   4.375815004537646E-03   4.430855981523005E-03
   4.486589288770122E-03   4.543023634721646E-03   4.600167837358948E-03
   4.658030825579953E-03   4.716621640594292E-03   4.775949437336014E-03
   4.836023485894065E-03   4.896853172960754E-03   4.958448003298441E-03
   5.020817601224688E-03   5.083971712116056E-03   5.147920203930864E-03
   5.212673068751061E-03   5.278240424343515E-03   5.344632515740939E-03
   5.411859716842684E-03   5.479932532035701E-03   5.548861597835858E-03
   5.618657684549923E-03   5.689331697958448E-03   5.760894681019813E-03
   5.833357815595719E-03   5.906732424198370E-03   5.981029971759643E-03
   6.056262067422505E-03   6.132440466354960E-03   6.209577071586831E-03
   6.287683935869621E-03   6.366773263559781E-03   6.446857412525676E-03
   6.527948896078510E-03   6.610060384927571E-03   6.693204709160049E-03
   6.777394860245763E-03   6.862643993067110E-03   6.948965427974530E-03
   7.036372652867852E-03   7.124879325303794E-03   7.214499274629995E-03
   7.305246504145871E-03   7.397135193290660E-03   7.490179699858987E-03
   7.584394562244306E-03   7.679794501710547E-03   7.776394424692345E-03
   7.874209425124196E-03   7.973254786798927E-03   8.073545985755808E-03
   8.175098692698722E-03   8.277928775444735E-03   8.382052301403490E-03
   8.487485540087757E-03   8.594244965655586E-03   8.702347259484424E-03
   8.811809312777622E-03   8.922648229203706E-03   9.034881327568871E-03
   9.148526144523080E-03   9.263600437300189E-03   9.380122186492569E-03
   9.498109598860596E-03   9.617581110177497E-03   9.738555388109986E-03
   9.861051335135112E-03   9.985088091493817E-03   1.011068503818164E-02
   1.023786179997702E-02   1.036663824850774E-02   1.049703450535589E-02
   1.062907094520187E-02   1.076276819900806E-02   1.089814715724236E-02
   1.103522897314244E-02   1.117403506602091E-02   1.131458712461221E-02
   1.145690711046143E-02   1.160101726135591E-02   1.174694009479994E-02
   1.189469841153312E-02   1.204431529909305E-02   1.219581413542281E-02
   1.234921859252381E-02   1.250455264015458E-02   1.266184054957607E-02
   1.282110689734415E-02   1.298237656914969E-02   1.314567476370701E-02
   1.331102699669124E-02   1.347845910472519E-02   1.364799724941640E-02
   1.381966792144490E-02   1.399349794470245E-02   1.416951448048386E-02
   1.434774503173094E-02   1.452821744732995E-02   1.471095992646298E-02
   1.489600102301421E-02   1.508336965003144E-02   1.527309508424383E-02
   1.546520697063649E-02   1.565973532708253E-02   1.585671054903339E-02
   1.605616341426828E-02   1.625812508770316E-02   1.646262712626041E-02
   1.666970148379960E-02   1.687938051611042E-02   1.709169698596824E-02
   1.730668406825345E-02   1.752437535513504E-02   1.774480486131950E-02
   1.796800702936562E-02   1.819401673506627E-02   1.842286929289779E-02
   1.865460046153795E-02   1.888924644945330E-02   1.912684392055685E-02
   1.936742999993685E-02   1.961104227965768E-02   1.985771882463369E-02
   2.010749817857689E-02   2.036041937001951E-02   2.061652191841229E-02
   2.087584584029947E-02   2.113843165557143E-02   2.140432039379605E-02
   2.167355360062962E-02   2.194617334430848E-02   2.222222222222223E-02
   2.250174336756966E-02   2.278478045609843E-02   2.307137771292946E-02
   2.336157991946721E-02   2.365543242039688E-02   2.395298113076960E-02
   2.425427254317672E-02   2.455935373501440E-02   2.486827237583958E-02
   2.518107673481837E-02   2.549781568826828E-02   2.581853872729519E-02
   2.614329596552646E-02   2.647213814694130E-02   2.680511665379958E-02
   2.714228351467045E-02   2.748369141256189E-02   2.782939369315255E-02
   2.817944437312711E-02   2.853389814861649E-02   2.889281040374425E-02
   2.925623721928049E-02   2.962423538140452E-02   2.999686239057786E-02
   3.037417647052882E-02   3.075623657735004E-02   3.114310240871053E-02
   3.153483441318351E-02   3.193149379969167E-02   3.233314254707115E-02
   3.273984341375591E-02   3.315165994758380E-02   3.356865649572607E-02
   3.399089821474176E-02   3.441845108075853E-02   3.485138189978154E-02
   3.528975831813209E-02   3.573364883301741E-02   3.618312280323357E-02
   3.663825046000287E-02   3.709910291794764E-02   3.756575218620205E-02
   3.803827117966367E-02   3.851673373038658E-02   3.900121459911776E-02
   3.949178948697865E-02   3.998853504729354E-02   4.049152889756688E-02
   4.100084963161112E-02   4.151657683182718E-02   4.203879108163934E-02
   4.256757397808660E-02   4.310300814457233E-02   4.364517724377440E-02
   4.419416599071762E-02   4.475006016601061E-02   4.531294662924925E-02
   4.588291333258861E-02   4.646004933448570E-02   4.704444481361501E-02
   4.763619108295911E-02   4.823538060407652E-02   4.884210700154894E-02
   4.945646507761042E-02   5.007855082696021E-02   5.070846145176233E-02
   5.134629537683345E-02   5.199215226502205E-02   5.264613303278091E-02
   5.330833986593553E-02   5.397887623565087E-02   5.465784691459891E-02
   5.534535799332960E-02   5.604151689684776E-02   5.674643240139840E-02
   5.746021465146327E-02   5.818297517697116E-02   5.891482691072462E-02
   5.965588420604603E-02   6.040626285464547E-02   6.116608010471346E-02
   6.193545467924114E-02   6.271450679457115E-02   6.350335817918144E-02
   6.430213209270583E-02   6.511095334519339E-02   6.592994831661041E-02
   6.675924497658745E-02   6.759897290441479E-02   6.844926330928962E-02
   6.931024905081763E-02   7.018206465977264E-02   7.106484635911726E-02
   7.195873208528805E-02   7.286386150974834E-02   7.378037606081220E-02
   7.470841894574290E-02   7.564813517312935E-02   7.659967157554391E-02
   7.756317683248540E-02   7.853880149361046E-02   7.952669800225734E-02
   8.052702071926542E-02   8.153992594709436E-02   8.256557195424680E-02
   8.360411899999803E-02   8.465572935943694E-02   8.572056734882169E-02
   8.679879935125454E-02   8.789059384267953E-02   8.899612141820726E-02
   9.011555481877058E-02   9.124906895811588E-02   9.239684095013355E-02
   9.355905013653250E-02   9.473587811486266E-02   9.592750876688992E-02
   9.713412828732801E-02   9.835592521293192E-02   9.959309045195705E-02
   1.008458173139890E-01   1.021143015401487E-01   1.033987413336772E-01
   1.046993373909054E-01   1.060162929326135E-01   1.073498137357840E-01
   1.087001081657557E-01   1.100673872087804E-01   1.114518645049903E-01
   1.128537563817796E-01   1.142732818876064E-01   1.157106628262189E-01
   1.171661237913132E-01   1.186398922016262E-01   1.201321983364704E-01
   1.216432753717156E-01   1.231733594162228E-01   1.247226895487369E-01
   1.262915078552432E-01   1.278800594667941E-01   1.294885925978106E-01
   1.311173585848671E-01   1.327666119259628E-01   1.344366103202878E-01
   1.361276147084886E-01   1.378398893134415E-01   1.395737016815370E-01
   1.413293227244852E-01   1.431070267616458E-01   1.449070915628914E-01
   1.467297983920096E-01   1.485754320506505E-01   1.504442809228284E-01
   1.523366370199818E-01   1.542527960266009E-01   1.561930573464288E-01
   1.581577241492444E-01   1.601471034182327E-01   1.621615059979519E-01
   1.642012466429034E-01   1.662666440667130E-01   1.683580209919300E-01
   1.704757042004541E-01   1.726200245845950E-01   1.747913171987754E-01
   1.769899213118839E-01   1.792161804602861E-01   1.814704425015035E-01
   1.837530596685661E-01   1.860643886250504E-01   1.884047905208084E-01
   1.907746310483977E-01   1.931742805002224E-01   1.956041138263914E-01
   1.980645106933054E-01   2.005558555429806E-01   2.030785376531184E-01
   2.056329511979311E-01   2.082194953097319E-01   2.108385741413007E-01
   2.134905969290335E-01   2.161759780568864E-01   2.188951371211242E-01
   2.216484989958828E-01   2.244364938995568E-01   2.272595574620223E-01
   2.301181307927043E-01   2.330126605495018E-01   2.359435990085780E-01
   2.389114041350302E-01   2.419165396544476E-01   2.449594751253690E-01
   2.480406860126528E-01   2.511606537617687E-01   2.543198658740251E-01
   2.575188159827422E-01   2.607580039303825E-01   2.640379358466535E-01
   2.673591242275898E-01   2.707220880156329E-01   2.741273526807169E-01
   2.775754503023736E-01   2.810669196528718E-01   2.846023062814009E-01
   2.881821625993142E-01   2.918070479664450E-01   2.954775287785064E-01
   2.991941785555933E-01   3.029575780317947E-01   3.067683152459356E-01
   3.106269856334587E-01   3.145341921194624E-01   3.184905452129097E-01
   3.224966631020206E-01   3.265531717508655E-01   3.306607049971743E-01
   3.348199046513732E-01   3.390314205968704E-01   3.432959108916006E-01
   3.476140418708484E-01   3.519864882513650E-01   3.564139332367928E-01
   3.608970686244187E-01   3.654365949132681E-01   3.700332214135589E-01
   3.746876663575343E-01   3.794006570116858E-01   3.841729297903922E-01
   3.890052303709842E-01   3.938983138102589E-01   3.988529446624589E-01
   4.038698970987348E-01   4.089499550281123E-01   4.140939122199782E-01
   4.193025724281087E-01   4.245767495162591E-01   4.299172675853293E-01
   4.353249611021334E-01   4.408006750297851E-01   4.463452649597261E-01
   4.519595972454138E-01   4.576445491376896E-01   4.634010089218537E-01
   4.692298760564584E-01   4.751320613138523E-01   4.811084869224904E-01
   4.871600867110327E-01   4.932878062542588E-01   4.994926030208139E-01
   5.057754465228164E-01   5.121373184673464E-01   5.185792129098382E-01
   5.251021364094051E-01   5.317071081861144E-01   5.383951602802443E-01
   5.451673377135414E-01   5.520246986525077E-01   5.589683145737416E-01
   5.659992704313577E-01   5.731186648265127E-01   5.803276101790662E-01
   5.876272329013956E-01   5.950186735744030E-01   6.025030871257313E-01
   6.100816430102247E-01   6.177555253926595E-01   6.255259333327701E-01
   6.333940809726065E-01   6.413611977262452E-01   6.494285284718878E-01
   6.575973337463771E-01   6.658688899421561E-01   6.742444895067097E-01
   6.827254411445096E-01   6.913130700215039E-01   7.000087179721767E-01
   7.088137437092115E-01   7.177295230357932E-01   7.267574490605816E-01
   7.358989324153851E-01   7.451554014755767E-01   7.545283025832793E-01
   7.640191002733600E-01   7.736292775022677E-01   7.833603358797459E-01
   7.932137959034643E-01   8.031911971965988E-01   8.132940987484002E-01
   8.235240791577910E-01   8.338827368800226E-01   8.443716904764396E-01
   8.549925788673811E-01   8.657470615882663E-01   8.766368190489012E-01
   8.876635527960435E-01   8.988289857792758E-01   9.101348626202183E-01
   9.215829498851282E-01   9.331750363609336E-01   9.449129333347290E-01
   9.567984748767987E-01   9.688335181271895E-01   9.810199435858945E-01
   9.933596554066857E-01   1.005854581694640E+00   1.018506674807411E+00
   1.031317911660289E+00   1.044290294035096E+00   1.057425848892971E+00
   1.070726628691085E+00   1.084194711703343E+00   1.097832202345116E+00
   1.111641231502062E+00   1.125623956863081E+00   1.139782563257461E+00
   1.154119262996255E+00   1.168636296217966E+00   1.183335931238570E+00
   1.198220464905946E+00   1.213292222958762E+00   1.228553560389876E+00
   1.244006861814315E+00   1.259654541841863E+00   1.275499045454361E+00
   1.291542848387734E+00   1.307788457518831E+00   1.324238411257133E+00
   1.340895279941378E+00   1.357761666241186E+00   1.374840205563732E+00
   1.392133566465530E+00   1.409644451069408E+00   1.427375595486709E+00
   1.445329770244822E+00   1.463509780720083E+00   1.481918467576116E+00
   1.500558707207692E+00   1.519433412190181E+00   1.538545531734637E+00
   1.557898052148621E+00   1.577493997302821E+00   1.597336429103535E+00
   1.617428447971104E+00   1.637773193324352E+00   1.658373844071133E+00
   1.679233619105037E+00   1.700355777808353E+00   1.721743620561353E+00
   1.743400489257981E+00   1.765329767828031E+00   1.787534882765896E+00
   1.810019303665959E+00   1.832786543764734E+00   1.855840160489806E+00
   1.879183756015691E+00   1.902820977826681E+00   1.926755519286776E+00
   1.950991120216774E+00   1.975531567478630E+00   2.000380695567153E+00
   2.025542387209165E+00   2.051020573970175E+00   2.076819236868704E+00
   2.102942406998314E+00   2.129394166157488E+00   2.156178647487410E+00
   2.183300036117779E+00   2.210762569820752E+00   2.238570539673092E+00
   2.266728290726661E+00   2.295240222687352E+00   2.324110790602538E+00
   2.353344505557198E+00   2.382945935378768E+00   2.412919705350882E+00
   2.443270498936080E+00   2.474003058507608E+00   2.505122186090427E+00
   2.536632744111534E+00   2.568539656159728E+00   2.600847907754932E+00
   2.633562547127185E+00   2.666688686005455E+00   2.700231500416332E+00
   2.734196231492814E+00   2.768588186293232E+00   2.803412738630493E+00
   2.838675329911754E+00   2.874381469988644E+00   2.910536738018194E+00
   2.947146783334592E+00   2.984217326331901E+00   3.021754159357888E+00
   3.059763147619083E+00   3.098250230097229E+00   3.137221420477267E+00
   3.176682808086978E+00   3.216640558848467E+00   3.257100916241582E+00
   3.298070202279483E+00   3.339554818496466E+00   3.381561246948214E+00
   3.424096051224639E+00   3.467165877475447E+00   3.510777455448614E+00
   3.554937599541926E+00   3.599653209867741E+00   3.644931273331152E+00
   3.690778864721691E+00   3.737203147818791E+00   3.784211376511136E+00
   3.831810895930096E+00   3.880009143597429E+00   3.928813650587388E+00
   3.978232042703485E+00   4.028272041670030E+00   4.078941466338667E+00
   4.130248233910092E+00   4.182200361171122E+00   4.234805965747337E+00
   4.288073267371479E+00   4.342010589167799E+00   4.396626358952568E+00
   4.451929110550930E+00   4.507927485130335E+00   4.564630232550742E+00
   4.622046212731792E+00   4.680184397037213E+00   4.739053869676579E+00
   4.798663829124762E+00   4.859023589559204E+00   4.920142582315270E+00
   4.982030357359935E+00   5.044696584783958E+00   5.108151056312868E+00
   5.172403686836939E+00   5.237464515960413E+00   5.303343709570215E+00
   5.370051561424373E+00   5.437598494760458E+00   5.505995063924230E+00
   5.575251956018769E+00   5.645379992574378E+00   5.716390131239444E+00
   5.788293467492601E+00   5.861101236376427E+00   5.934824814252936E+00
   6.009475720581173E+00   6.085065619717123E+00   6.161606322736316E+00
   6.239109789279323E+00   6.317588129420465E+00   6.397053605560068E+00
   6.477518634340449E+00   6.558995788586056E+00   6.641497799268013E+00
   6.725037557493330E+00   6.809628116519207E+00   6.895282693792587E+00
   6.982014673015433E+00   7.069837606235957E+00   7.158765215966145E+00
   7.248811397325956E+00   7.339990220214420E+00   7.432315931508119E+00
   7.525802957287279E+00   7.620465905089875E+00   7.716319566194105E+00
   7.813378917929529E+00   7.911659126017321E+00   8.011175546939949E+00
   8.111943730340641E+00   8.213979421453086E+00   8.317298563561604E+00
   8.421917300492353E+00   8.527851979135827E+00   8.635119152001085E+00
   8.743735579802136E+00   8.853718234076799E+00   8.965084299838567E+00
   9.077851178261790E+00   9.192036489400639E+00   9.307658074942310E+00
   9.424734000994768E+00   9.543282560909651E+00   9.663322278140637E+00
   9.784871909137754E+00   9.907950446278159E+00   1.003257712083368E+01
   1.015877140597576E+01   1.028655301981821E+01   1.041594192849815E+01
   1.054695834929583E+01   1.067962275379354E+01   1.081395587107439E+01
   1.094997869096126E+01   1.108771246729649E+01   1.122717872126287E+01
   1.136839924474632E+01   1.151139610374094E+01   1.165619164179690E+01
   1.180280848351158E+01   1.195126953806482E+01   1.210159800279843E+01
   1.225381736684087E+01   1.240795141477747E+01   1.256402423036678E+01
   1.272206020030381E+01   1.288208401803037E+01   1.304412068759354E+01
   1.320819552755263E+01   1.337433417493516E+01   1.354256258924284E+01
   1.371290705650764E+01   1.388539419339914E+01   1.406005095138342E+01
   1.423690462093424E+01   1.441598283579730E+01   1.459731357730799E+01
   1.478092517876361E+01   1.496684632985043E+01   1.515510608112657E+01
   1.534573384856120E+01   1.553875941813080E+01   1.573421295047334E+01
   1.593212498560089E+01   1.613252644767158E+01   1.633544864982163E+01
   1.654092329905793E+01   1.674898250121249E+01   1.695965876595892E+01
   1.717298501189222E+01   1.738899457167235E+01   1.760772119723249E+01
   1.782919906505288E+01   1.805346278150098E+01   1.828054738823872E+01
   1.851048836769796E+01   1.874332164862452E+01   1.897908361169227E+01
   1.921781109518760E+01   1.945954140076547E+01   1.970431229927797E+01
   1.995216203667596E+01   2.020312933998518E+01   2.045725342335735E+01
   2.071457399419752E+01   2.097513125936842E+01   2.123896593147284E+01
   2.150611923521506E+01   2.177663291384232E+01   2.205054923566725E+01