<UPF version="2.0.1">
  <PP_INFO>
    Generated using "atomic" code by A. Dal Corso  v.7.2
    Author: ADC
    Generation date:  9Jun2023
    Pseudopotential type: PAW
    Element: Th
    Functional:  SLA  PW   REVX PBC
    Suggested minimum cutoff for wavefunctions: 103. Ry
    Suggested minimum cutoff for charge density: 413. Ry
    The Pseudo was generated with a Scalar-Relativistic Calculation
    Local Potential by smoothing AE potential with Bessel fncs, cutoff radius:   2.1000
    Valence configuration: 
    nl pn  l   occ       Rcut    Rcut US       E pseu
    6S  1  0  2.00      1.400      1.600    -3.182087
    7S  2  0  2.00      1.400      1.600    -0.296331
    6P  2  1  6.00      1.600      2.100    -1.572820
    6D  3  2  1.00      1.600      2.200    -0.170945
    5F  4  3  1.00      1.200      1.300    -0.090876
    Generation configuration:
    6S  1  0  2.00      1.400      1.600    -3.182134
    7S  2  0  2.00      1.400      1.600    -0.296337
    6P  2  1  6.00      1.600      2.100    -1.572846
    7P  3  1  0.00      1.600      2.100     4.000000
    6D  3  2  1.00      1.600      2.200    -0.170958
    6D  3  2  0.00      1.600      2.200     4.800000
    5F  4  3  1.00      1.200      1.300    -0.090921
    5F  4  3  0.00      1.200      1.300     3.100000
    Pseudization used: troullier-martins
    <PP_INPUTFILE>
@input
title='Th',
zed=90.0,
rel=1,
config='[Rn] 6d1.0 7s2.0 7p0. 5f1',
iswitch=3,
dft='REVPBE'
/
@inputp
lpaw=.true.
pseudotype=3,
file_pseudopw='Th.revpbe-spfn-kjpaw_psl.1.0.0.UPF',
author='ADC',
lloc=-1,
rcloc=2.1,
which_augfun='PSQ',
rmatch_augfun_nc=.true.,
nlcc=.true.,
new_core_ps=.true.,
rcore=1.1,
tm=.true.
/
8
6S  1  0  2.00  0.00  1.40  1.60  0.0
7S  2  0  2.00  0.00  1.40  1.60  0.0
6P  2  1  6.00  0.00  1.60  2.10  0.0
7P  3  1  0.00  4.00  1.60  2.10  0.0
6D  3  2  1.00  0.00  1.60  2.20  0.0
6D  3  2  0.00  4.80  1.60  2.20  0.0
5F  4  3  1.00  0.00  1.20  1.30  0.0
5F  4  3  0.00  3.10  1.20  1.30  0.0
    </PP_INPUTFILE>
  </PP_INFO>
    <!-- END OF HUMAN READABLE SECTION -->
  <PP_HEADER generated="Generated using 'atomic' code by A. Dal Corso  v.7.2" author="ADC" date=" 9Jun2023" comment="" element="Th" pseudo_type="PAW" relativistic="scalar" is_ultrasoft="true" is_paw="true" is_coulomb="false" has_so="false" has_wfc="true" has_gipaw="false" paw_as_gipaw="false" core_correction="true" functional=" SLA  PW   REVX PBC" z_valence="12.0000000000000" total_psenergy="-966.557715642717" wfc_cutoff="103.250064998105" rho_cutoff="413.000259992420" l_max="3" l_max_rho="6" l_local="-1" mesh_size="1289" number_of_wfc="5" number_of_proj="8"/>
  <PP_MESH mesh="1289" dx="1.250000000000000E-002" xmin="-7.00000000000000" rmax="100.000000000000" zmesh="90.0000000000000">
    <PP_R>
   1.013202183949462E-05   1.025946698521136E-05   1.038851519351758E-05
   1.051918662845838E-05   1.065150170771133E-05   1.078548110577676E-05
   1.092114575720821E-05   1.105851685988346E-05   1.119761587831678E-05
   1.133846454701283E-05   1.148108487386263E-05   1.162549914358243E-05
   1.177172992119567E-05   1.191980005555885E-05   1.206973268293175E-05
   1.222155123059243E-05   1.237527942049781E-05   1.253094127299036E-05
   1.268856111055119E-05   1.284816356160064E-05   1.300977356434638E-05
   1.317341637068014E-05   1.333911755012334E-05   1.350690299382238E-05
   1.367679891859423E-05   1.384883187102277E-05   1.402302873160683E-05
   1.419941671896027E-05   1.437802339406498E-05   1.455887666457733E-05
   1.474200478918879E-05   1.492743638204141E-05   1.511520041719882E-05
   1.530532623317352E-05   1.549784353751110E-05   1.569278241143202E-05
   1.589017331453194E-05   1.609004708954106E-05   1.629243496714337E-05
   1.649736857085652E-05   1.670487992197303E-05   1.691500144456368E-05
   1.712776597054389E-05   1.734320674480369E-05   1.756135743040241E-05
   1.778225211382849E-05   1.800592531032563E-05   1.823241196928584E-05
   1.846174747971038E-05   1.869396767573935E-05   1.892910884225082E-05
   1.916720772053047E-05   1.940830151401244E-05   1.965242789409245E-05
   1.989962500601411E-05   2.014993147482906E-05   2.040338641143230E-05
   2.066002941867334E-05   2.091990059754419E-05   2.118304055344529E-05
   2.144949040253010E-05   2.171929177812964E-05   2.199248683725774E-05
   2.226911826719821E-05   2.254922929217482E-05   2.283286368010510E-05
   2.312006574943921E-05   2.341088037608482E-05   2.370535300041898E-05
   2.400352963438838E-05   2.430545686869872E-05   2.461118188009463E-05
   2.492075243873115E-05   2.523421691563786E-05   2.555162429027707E-05
   2.587302415819682E-05   2.619846673878036E-05   2.652800288309304E-05
   2.686168408182781E-05   2.719956247335092E-05   2.754169085184843E-05
   2.788812267557554E-05   2.823891207520954E-05   2.859411386230778E-05
   2.895378353787220E-05   2.931797730102135E-05   2.968675205777167E-05
   3.006016542992919E-05   3.043827576409298E-05   3.082114214077210E-05
   3.120882438361681E-05   3.160138306876631E-05   3.199887953431381E-05
   3.240137588989075E-05   3.280893502637163E-05   3.322162062570067E-05
   3.363949717084239E-05   3.406262995585715E-05   3.449108509610343E-05
   3.492492953856867E-05   3.536423107232963E-05   3.580905833914474E-05
   3.625948084417943E-05   3.671556896686646E-05   3.717739397190302E-05
   3.764502802038568E-05   3.811854418108594E-05   3.859801644186726E-05
   3.908351972124587E-05   3.957512988009700E-05   4.007292373350812E-05
   4.057697906278159E-05   4.108737462758814E-05   4.160419017827312E-05
   4.212750646831786E-05   4.265740526695737E-05   4.319396937195700E-05
   4.373728262254981E-05   4.428742991253656E-05   4.484449720355065E-05
   4.540857153848963E-05   4.597974105511596E-05   4.655809499982866E-05
   4.714372374160823E-05   4.773671878613711E-05   4.833717279009744E-05
   4.894517957564895E-05   4.956083414508890E-05   5.018423269569630E-05
   5.081547263476303E-05   5.145465259481384E-05   5.210187244901790E-05
   5.275723332679420E-05   5.342083762961322E-05   5.409278904699737E-05
   5.477319257272280E-05   5.546215452122463E-05   5.615978254420905E-05
   5.686618564747395E-05   5.758147420794138E-05   5.830575999090427E-05
   5.903915616748973E-05   5.978177733234245E-05   6.053373952153033E-05
   6.129516023067523E-05   6.206615843331222E-05   6.284685459947898E-05
   6.363737071453984E-05   6.443783029824607E-05   6.524835842403613E-05
   6.606908173857883E-05   6.690012848156176E-05   6.774162850572931E-05
   6.859371329717230E-05   6.945651599587291E-05   7.033017141650831E-05
   7.121481606951536E-05   7.211058818242097E-05   7.301762772144021E-05
   7.393607641334637E-05   7.486607776761631E-05   7.580777709885364E-05
   7.676132154949480E-05   7.772686011280019E-05   7.870454365613465E-05
   7.969452494454110E-05   8.069695866460991E-05   8.171200144864929E-05
   8.273981189915938E-05   8.378055061361410E-05   8.483438020955513E-05
   8.590146535000078E-05   8.698197276917526E-05   8.807607129856115E-05
   8.918393189327949E-05   9.030572765880235E-05   9.144163387800034E-05
   9.259182803853121E-05   9.375648986057264E-05   9.493580132490377E-05
   9.612994670134038E-05   9.733911257752698E-05   9.856348788809175E-05
   9.980326394416806E-05   1.010586344632868E-04   1.023297955996460E-04
   1.036169459747592E-04   1.049202867084912E-04   1.062400214504835E-04
   1.075763564119743E-04   1.089295003980203E-04   1.102996648401223E-04
   1.116870638292621E-04   1.130919141493542E-04   1.145144353111193E-04
   1.159548495863834E-04   1.174133820428073E-04   1.188902605790547E-04
   1.203857159604018E-04   1.218999818547942E-04   1.234332948693590E-04
   1.249858945873741E-04   1.265580236057042E-04   1.281499275727070E-04
   1.297618552266160E-04   1.313940584344069E-04   1.330467922311513E-04
   1.347203148598678E-04   1.364148878118716E-04   1.381307758676343E-04
   1.398682471381555E-04   1.416275731068563E-04   1.434090286719986E-04
   1.452128921896388E-04   1.470394455171214E-04   1.488889740571203E-04
   1.507617668022326E-04   1.526581163801349E-04   1.545783190993070E-04
   1.565226749953302E-04   1.584914878777695E-04   1.604850653776431E-04
   1.625037189954914E-04   1.645477641500490E-04   1.666175202275300E-04
   1.687133106315327E-04   1.708354628335715E-04   1.729843084242454E-04
   1.751601831650500E-04   1.773634270408401E-04   1.795943843129542E-04
   1.818534035730048E-04   1.841408377973473E-04   1.864570444022330E-04
   1.888023852996563E-04   1.911772269539043E-04   1.935819404388168E-04
   1.960169014957685E-04   1.984824905923783E-04   2.009790929819589E-04
   2.035070987637131E-04   2.060669029436876E-04   2.086589054964935E-04
   2.112835114278028E-04   2.139411308376326E-04   2.166321789844222E-04
   2.193570763499198E-04   2.221162487048825E-04   2.249101271756043E-04
   2.277391483112807E-04   2.306037541522194E-04   2.335043922989114E-04
   2.364415159819686E-04   2.394155841329419E-04   2.424270614560308E-04
   2.454764185006938E-04   2.485641317351733E-04   2.516906836209441E-04
   2.548565626880992E-04   2.580622636116842E-04   2.613082872889901E-04
   2.645951409178209E-04   2.679233380757431E-04   2.712933988003337E-04
   2.747058496704378E-04   2.781612238884461E-04   2.816600613636105E-04
   2.852029087964048E-04   2.887903197639483E-04   2.924228548065035E-04
   2.961010815150609E-04   2.998255746200276E-04   3.035969160810285E-04
   3.074156951778398E-04   3.112825086024647E-04   3.151979605523678E-04
   3.191626628248826E-04   3.231772349128053E-04   3.272423041011921E-04
   3.313585055653746E-04   3.355264824702056E-04   3.397468860705566E-04
   3.440203758130766E-04   3.483476194392321E-04   3.527292930896439E-04
   3.571660814097341E-04   3.616586776567048E-04   3.662077838078596E-04
   3.708141106702898E-04   3.754783779919395E-04   3.802013145740670E-04
   3.849836583851225E-04   3.898261566760560E-04   3.947295660970774E-04
   3.996946528158852E-04   4.047221926373804E-04   4.098129711248891E-04
   4.149677837229069E-04   4.201874358813898E-04   4.254727431816073E-04
   4.308245314635779E-04   4.362436369551090E-04   4.417309064024591E-04
   4.472871972026428E-04   4.529133775374025E-04   4.586103265088616E-04
   4.643789342768879E-04   4.702201021981813E-04   4.761347429671132E-04
   4.821237807583375E-04   4.881881513711935E-04   4.943288023759280E-04
   5.005466932617536E-04   5.068427955867711E-04   5.132180931297791E-04
   5.196735820439886E-04   5.262102710126770E-04   5.328291814067942E-04
   5.395313474445552E-04   5.463178163530398E-04   5.531896485318216E-04
   5.601479177186597E-04   5.671937111572713E-04   5.743281297672155E-04
   5.815522883159157E-04   5.888673155928425E-04   5.962743545858904E-04
   6.037745626599722E-04   6.113691117378581E-04   6.190591884832936E-04
   6.268459944864152E-04   6.347307464515033E-04   6.427146763870943E-04
   6.507990317984836E-04   6.589850758826528E-04   6.672740877256442E-04
   6.756673625024219E-04   6.841662116792471E-04   6.927719632185937E-04
   7.014859617866490E-04   7.103095689634177E-04   7.192441634554729E-04
   7.282911413113818E-04   7.374519161398400E-04   7.467279193305532E-04
   7.561206002778914E-04   7.656314266073621E-04   7.752618844049296E-04
   7.850134784492177E-04   7.948877324466362E-04   8.048861892694611E-04
   8.150104111969126E-04   8.252619801592656E-04   8.356424979850267E-04
   8.461535866512262E-04   8.567968885368527E-04   8.675740666794796E-04
   8.784868050351187E-04   8.895368087413393E-04   9.007258043837031E-04
   9.120555402655425E-04   9.235277866811396E-04   9.351443361923378E-04
   9.469070039086315E-04   9.588176277707838E-04   9.708780688380047E-04
   9.830902115787478E-04   9.954559641651634E-04   1.007977258771250E-03
   1.020656051874766E-03   1.033494324562928E-03   1.046494082841963E-03
   1.059657357950552E-03   1.072986206677209E-03   1.086482711681668E-03
   1.100148981820293E-03   1.113987152475597E-03   1.127999385889901E-03
   1.142187871503182E-03   1.156554826295185E-03   1.171102495131827E-03
   1.185833151115958E-03   1.200749095942548E-03   1.215852660258321E-03
   1.231146204025932E-03   1.246632116892709E-03   1.262312818564042E-03
   1.278190759181471E-03   1.294268419705522E-03   1.310548312303361E-03
   1.327032980741330E-03   1.343725000782408E-03   1.360626980588688E-03
   1.377741561128902E-03   1.395071416591081E-03   1.412619254800396E-03
   1.430387817642269E-03   1.448379881490797E-03   1.466598257642558E-03
   1.485045792755894E-03   1.503725369295697E-03   1.522639905983805E-03
   1.541792358255059E-03   1.561185718719091E-03   1.580823017627929E-03
   1.600707323349481E-03   1.620841742846971E-03   1.641229422164409E-03
   1.661873546918168E-03   1.682777342794740E-03   1.703944076054761E-03
   1.725377054043367E-03   1.747079625706974E-03   1.769055182116559E-03
   1.791307156997520E-03   1.813839027266205E-03   1.836654313573184E-03
   1.859756580853362E-03   1.883149438883002E-03   1.906836542843764E-03
   1.930821593893835E-03   1.955108339746239E-03   1.979700575254428E-03
   2.004602143005232E-03   2.029816933919274E-03   2.055348887858937E-03
   2.081201994243968E-03   2.107380292674837E-03   2.133887873563935E-03
   2.160728878774706E-03   2.187907502268823E-03   2.215427990761503E-03
   2.243294644385061E-03   2.271511817360823E-03   2.300083918679474E-03
   2.329015412789976E-03   2.358310820297146E-03   2.387974718668007E-03
   2.418011742947033E-03   2.448426586480377E-03   2.479224001649221E-03
   2.510408800612344E-03   2.541985856058028E-03   2.573960101965432E-03
   2.606336534375530E-03   2.639120212171758E-03   2.672316257870469E-03
   2.705929858421342E-03   2.739966266017850E-03   2.774430798917929E-03
   2.809328842274961E-03   2.844665848979224E-03   2.880447340509907E-03
   2.916678907797859E-03   2.953366212099185E-03   2.990514985879821E-03
   3.028131033711252E-03   3.066220233177480E-03   3.104788535793416E-03
   3.143841967934811E-03   3.183386631779890E-03   3.223428706262838E-03
   3.263974448039255E-03   3.305030192463785E-03   3.346602354580024E-03
   3.388697430122882E-03   3.431321996533555E-03   3.474482713987265E-03
   3.518186326433926E-03   3.562439662651897E-03   3.607249637314998E-03
   3.652623252072936E-03   3.698567596645330E-03   3.745089849929494E-03
   3.792197281122153E-03   3.839897250855273E-03   3.888197212346172E-03
   3.937104712562098E-03   3.986627393399464E-03   4.036772992877904E-03
   4.087549346349361E-03   4.138964387722367E-03   4.191026150701745E-03
   4.243742770043878E-03   4.297122482827793E-03   4.351173629742212E-03
   4.405904656388811E-03   4.461324114601853E-03   4.517440663784436E-03
   4.574263072261540E-03   4.631800218650095E-03   4.690061093246285E-03
   4.749054799430298E-03   4.808790555088749E-03   4.869277694054993E-03
   4.930525667567556E-03   4.992544045746909E-03   5.055342519090819E-03
   5.118930899988511E-03   5.183319124253872E-03   5.248517252677943E-03
   5.314535472600936E-03   5.381384099504029E-03   5.449073578621181E-03
   5.517614486571219E-03   5.587017533010457E-03   5.657293562306104E-03
   5.728453555230714E-03   5.800508630677957E-03   5.873470047399972E-03
   5.947349205766560E-03   6.022157649546526E-03   6.097907067711406E-03
   6.174609296261907E-03   6.252276320077288E-03   6.330920274788036E-03
   6.410553448672076E-03   6.491188284574845E-03   6.572837381853503E-03
   6.655513498345618E-03   6.739229552362596E-03   6.823998624708200E-03
   6.909833960722448E-03   6.996748972351225E-03   7.084757240241928E-03
   7.173872515865470E-03   7.264108723664973E-03   7.355479963231492E-03
   7.448000511507106E-03   7.541684825015718E-03   7.636547542121916E-03
   7.732603485318247E-03   7.829867663541263E-03   7.928355274516697E-03
   8.028081707134139E-03   8.129062543851579E-03   8.231313563130203E-03
   8.334850741899800E-03   8.439690258055209E-03   8.545848492984121E-03
   8.653342034126725E-03   8.762187677567521E-03   8.872402430659749E-03
   8.984003514682808E-03   9.097008367533134E-03   9.211434646448897E-03
   9.327300230768974E-03   9.444623224726650E-03   9.563421960278424E-03
   9.683714999968424E-03   9.805521139828842E-03   9.928859412316844E-03
   1.005374908928844E-02   1.018020968500976E-02   1.030826095920615E-02
   1.043792292014973E-02   1.056921582778571E-02   1.070216019689802E-02
   1.083677680031481E-02   1.097308667215424E-02   1.111111111111112E-02
   1.125087168378483E-02   1.139239022804921E-02   1.153568885646473E-02
   1.168078995973361E-02   1.182771621019844E-02   1.197649056538480E-02
   1.212713627158836E-02   1.227967686750720E-02   1.243413618791979E-02
   1.259053836740919E-02   1.274890784413414E-02   1.290926936364759E-02
   1.307164798276323E-02   1.323606907347065E-02   1.340255832689979E-02
   1.357114175733523E-02   1.374184570628095E-02   1.391469684657628E-02
   1.408972218656355E-02   1.426694907430824E-02   1.444640520187213E-02
   1.462811860964025E-02   1.481211769070226E-02   1.499843119528893E-02
   1.518708823526441E-02   1.537811828867502E-02   1.557155120435526E-02
   1.576741720659175E-02   1.596574689984583E-02   1.616657127353558E-02
   1.636992170687795E-02   1.657582997379190E-02   1.678432824786304E-02
   1.699544910737088E-02   1.720922554037926E-02   1.742569094989077E-02
   1.764487915906604E-02   1.786682441650871E-02   1.809156140161678E-02
   1.831912523000143E-02   1.854955145897382E-02   1.878287609310102E-02
   1.901913558983184E-02   1.925836686519329E-02   1.950060729955888E-02
   1.974589474348933E-02   1.999426752364677E-02   2.024576444878344E-02
   2.050042481580556E-02   2.075828841591359E-02   2.101939554081967E-02
   2.128378698904330E-02   2.155150407228617E-02   2.182258862188720E-02
   2.209708299535881E-02   2.237503008300530E-02   2.265647331462462E-02
   2.294145666629430E-02   2.323002466724285E-02   2.352222240680751E-02
   2.381809554147956E-02   2.411769030203826E-02   2.442105350077447E-02
   2.472823253880521E-02   2.503927541348010E-02   2.535423072588116E-02
   2.567314768841672E-02   2.599607613251102E-02   2.632306651639046E-02
   2.665416993296777E-02   2.698943811782543E-02   2.732892345729945E-02
   2.767267899666480E-02   2.802075844842388E-02   2.837321620069920E-02
   2.873010732573164E-02   2.909148758848558E-02   2.945741345536231E-02
   2.982794210302301E-02   3.020313142732274E-02   3.058304005235673E-02
   3.096772733962057E-02   3.135725339728557E-02   3.175167908959072E-02
   3.215106604635291E-02   3.255547667259669E-02   3.296497415830520E-02
   3.337962248829372E-02   3.379948645220739E-02   3.422463165464481E-02
   3.465512452540882E-02   3.509103232988632E-02   3.553242317955863E-02
   3.597936604264403E-02   3.643193075487417E-02   3.689018803040610E-02
   3.735420947287145E-02   3.782406758656467E-02   3.829983578777196E-02
   3.878158841624270E-02   3.926940074680523E-02   3.976334900112867E-02
   4.026351035963271E-02   4.076996297354718E-02   4.128278597712340E-02
   4.180205949999902E-02   4.232786467971847E-02   4.286028367441085E-02
   4.339939967562727E-02   4.394529692133976E-02   4.449806070910363E-02
   4.505777740938529E-02   4.562453447905794E-02   4.619842047506677E-02
   4.677952506826625E-02   4.736793905743133E-02   4.796375438344496E-02
   4.856706414366400E-02   4.917796260646596E-02   4.979654522597853E-02
   5.042290865699450E-02   5.105715077007434E-02   5.169937066683859E-02
   5.234966869545270E-02   5.300814646630673E-02   5.367490686789201E-02
   5.435005408287786E-02   5.503369360439019E-02   5.572593225249513E-02
   5.642687819088981E-02   5.713664094380320E-02   5.785533141310946E-02
   5.858306189565660E-02   5.931994610081310E-02   6.006609916823522E-02
   6.082163768585780E-02   6.158667970811139E-02   6.236134477436844E-02
   6.314575392762162E-02   6.394002973339703E-02   6.474429629890530E-02
   6.555867929243356E-02   6.638330596298141E-02   6.721830516014388E-02
   6.806380735424432E-02   6.891994465672076E-02   6.978685084076852E-02
   7.066466136224261E-02   7.155351338082291E-02   7.245354578144572E-02
   7.336489919600478E-02   7.428771602532526E-02   7.522214046141422E-02
   7.616831850999091E-02   7.712639801330043E-02   7.809652867321440E-02
   7.907886207462221E-02   8.007355170911636E-02   8.108075299897595E-02
   8.210062332145170E-02   8.313332203335648E-02   8.417901049596499E-02
   8.523785210022704E-02   8.631001229229752E-02   8.739565859938772E-02
   8.849496065594196E-02   8.960809023014306E-02   9.073522125075173E-02
   9.187652983428304E-02   9.303219431252520E-02   9.420239526040421E-02
   9.538731552419885E-02   9.658714025011121E-02   9.780205691319570E-02
   9.903225534665268E-02   1.002779277714903E-01   1.015392688265592E-01
   1.028164755989655E-01   1.041097476548660E-01   1.054192870706503E-01
   1.067452984645168E-01   1.080879890284432E-01   1.094475685605621E-01
   1.108242494979414E-01   1.122182469497784E-01   1.136297787310112E-01
   1.150590653963522E-01   1.165063302747509E-01   1.179717995042890E-01
   1.194557020675151E-01   1.209582698272238E-01   1.224797375626845E-01
   1.240203430063264E-01   1.255803268808843E-01   1.271599329370125E-01
   1.287594079913711E-01   1.303790019651913E-01   1.320189679233267E-01
   1.336795621137949E-01   1.353610440078164E-01   1.370636763403585E-01
   1.387877251511868E-01   1.405334598264359E-01   1.423011531407005E-01
   1.440910812996571E-01   1.459035239832225E-01   1.477387643892532E-01
   1.495970892777966E-01   1.514787890158974E-01   1.533841576229678E-01
   1.553134928167293E-01   1.572670960597312E-01   1.592452726064549E-01
   1.612483315510103E-01   1.632765858754328E-01   1.653303524985872E-01
   1.674099523256866E-01   1.695157102984352E-01   1.716479554458003E-01
   1.738070209354242E-01   1.759932441256825E-01   1.782069666183964E-01
   1.804485343122094E-01   1.827182974566340E-01   1.850166107067795E-01
   1.873438331787671E-01   1.897003285058429E-01   1.920864648951961E-01
   1.945026151854921E-01   1.969491569051294E-01   1.994264723312294E-01
   2.019349485493674E-01   2.044749775140562E-01   2.070469561099891E-01
   2.096512862140543E-01   2.122883747581295E-01   2.149586337926646E-01
   2.176624805510667E-01   2.204003375148926E-01   2.231726324798630E-01
   2.259797986227069E-01   2.288222745688448E-01   2.317005044609269E-01
   2.346149380282292E-01   2.375660306569262E-01   2.405542434612452E-01
   2.435800433555164E-01   2.466439031271294E-01   2.497463015104069E-01
   2.528877232614082E-01   2.560686592336732E-01   2.592896064549191E-01
   2.625510682047025E-01   2.658535540930572E-01   2.691975801401221E-01
   2.725836688567707E-01   2.760123493262538E-01   2.794841572868708E-01
   2.829996352156788E-01   2.865593324132564E-01   2.901638050895331E-01
   2.938136164506978E-01   2.975093367872015E-01   3.012515435628657E-01
   3.050408215051124E-01   3.088777626963298E-01   3.127629666663850E-01
   3.166970404863033E-01   3.206805988631226E-01   3.247142642359439E-01
   3.287986668731885E-01   3.329344449710780E-01   3.371222447533548E-01
   3.413627205722548E-01   3.456565350107519E-01   3.500043589860883E-01
   3.544068718546057E-01   3.588647615178966E-01   3.633787245302908E-01
   3.679494662076925E-01   3.725777007377883E-01   3.772641512916396E-01
   3.820095501366800E-01   3.868146387511339E-01   3.916801679398729E-01
   3.966068979517322E-01   4.015955985982994E-01   4.066470493742001E-01
   4.117620395788955E-01   4.169413684400113E-01   4.221858452382198E-01
   4.274962894336906E-01   4.328735307941332E-01   4.383184095244506E-01
   4.438317763980217E-01   4.494144928896379E-01   4.550674313101091E-01
   4.607914749425641E-01   4.665875181804668E-01   4.724564666673645E-01
   4.783992374383993E-01   4.844167590635948E-01   4.905099717929473E-01
   4.966798277033428E-01   5.029272908473198E-01   5.092533374037055E-01
   5.156589558301444E-01   5.221451470175479E-01   5.287129244464855E-01
   5.353633143455426E-01   5.420973558516715E-01   5.489161011725580E-01
   5.558206157510308E-01   5.628119784315407E-01   5.698912816287303E-01
   5.770596314981274E-01   5.843181481089831E-01   5.916679656192849E-01
   5.991102324529730E-01   6.066461114793810E-01   6.142767801949381E-01
   6.220034309071573E-01   6.298272709209314E-01   6.377495227271804E-01
   6.457714241938670E-01   6.538942287594156E-01   6.621192056285665E-01
   6.704476399706889E-01   6.788808331205930E-01   6.874201027818660E-01
   6.960667832327652E-01   7.048222255347039E-01   7.136877977433543E-01
   7.226648851224112E-01   7.317548903600417E-01   7.409592337880579E-01
   7.502793536038461E-01   7.597167060950906E-01   7.692727658673183E-01
   7.789490260743103E-01   7.887469986514104E-01   7.986682145517675E-01
   8.087142239855519E-01   8.188865966621760E-01   8.291869220355664E-01
   8.396168095525187E-01   8.501778889041766E-01   8.608718102806766E-01
   8.717002446289907E-01   8.826648839140157E-01   8.937674413829479E-01
   9.050096518329793E-01   9.163932718823671E-01   9.279200802449030E-01
   9.395918780078453E-01   9.514104889133407E-01   9.633777596433878E-01
   9.754955601083872E-01   9.877657837393148E-01   1.000190347783577E+00
   1.012771193604583E+00   1.025510286985088E+00   1.038409618434352E+00
   1.051471203499157E+00   1.064697083078744E+00   1.078089323743705E+00
   1.091650018058890E+00   1.105381284910376E+00   1.119285269836546E+00
   1.133364145363331E+00   1.147620111343676E+00   1.162055395301269E+00
   1.176672252778599E+00   1.191472967689384E+00   1.206459852675441E+00
   1.221635249468040E+00   1.237001529253804E+00   1.252561093045214E+00
   1.268316372055767E+00   1.284269828079864E+00   1.300423953877466E+00
   1.316781273563593E+00   1.333344343002727E+00   1.350115750208166E+00
   1.367098115746407E+00   1.384294093146616E+00   1.401706369315246E+00
   1.419337664955877E+00   1.437190734994322E+00   1.455268369009097E+00
   1.473573391667296E+00   1.492108663165950E+00   1.510877079678944E+00
   1.529881573809541E+00   1.549125115048614E+00   1.568610710238633E+00
   1.588341404043489E+00   1.608320279424233E+00   1.628550458120791E+00
   1.649035101139741E+00   1.669777409248233E+00   1.690780623474107E+00
   1.712048025612320E+00   1.733582938737724E+00   1.755388727724307E+00
   1.777468799770963E+00   1.799826604933870E+00   1.822465636665576E+00
   1.845389432360846E+00   1.868601573909396E+00   1.892105688255568E+00
   1.915905447965048E+00   1.940004571798714E+00   1.964406825293694E+00
   1.989116021351743E+00   2.014136020835015E+00   2.039470733169333E+00
   2.065124116955046E+00   2.091100180585561E+00   2.117402982873668E+00
   2.144036633685740E+00   2.171005294583900E+00   2.198313179476284E+00
   2.225964555275465E+00   2.253963742565167E+00   2.282315116275371E+00
   2.311023106365896E+00   2.340092198518606E+00   2.369526934838289E+00
   2.399331914562381E+00   2.429511794779602E+00   2.460071291157635E+00
   2.491015178679968E+00   2.522348292391979E+00   2.554075528156434E+00
   2.586201843418470E+00   2.618732257980207E+00   2.651671854785107E+00
   2.685025780712186E+00   2.718799247380229E+00   2.752997531962115E+00
   2.787625978009384E+00   2.822689996287189E+00   2.858195065619722E+00
   2.894146733746300E+00   2.930550618188214E+00   2.967412407126468E+00
   3.004737860290586E+00   3.042532809858562E+00   3.080803161368158E+00
   3.119554894639661E+00   3.158794064710233E+00   3.198526802780034E+00
   3.238759317170224E+00   3.279497894293028E+00   3.320748899634006E+00
   3.362518778746665E+00   3.404814058259603E+00   3.447641346896293E+00
   3.491007336507717E+00   3.534918803117979E+00   3.579382607983073E+00
   3.624405698662978E+00   3.669995110107210E+00   3.716157965754059E+00
   3.762901478643640E+00   3.810232952544938E+00   3.858159783097053E+00
   3.906689458964764E+00   3.955829563008661E+00   4.005587773469975E+00
   4.055971865170321E+00   4.106989710726543E+00   4.158649281780802E+00
   4.210958650246177E+00   4.263925989567913E+00   4.317559576000543E+00
   4.371867789901068E+00   4.426859117038400E+00   4.482542149919284E+00
   4.538925589130895E+00   4.596018244700319E+00   4.653829037471155E+00
   4.712367000497384E+00   4.771641280454825E+00   4.831661139070318E+00
   4.892435954568877E+00   4.953975223139079E+00   5.016288560416839E+00
   5.079385702987882E+00   5.143276509909106E+00   5.207970964249077E+00
   5.273479174647917E+00   5.339811376896771E+00   5.406977935537196E+00
   5.474989345480631E+00   5.543856233648245E+00   5.613589360631433E+00
   5.684199622373158E+00   5.755698051870471E+00   5.828095820898449E+00
   5.901404241755790E+00   5.975634769032411E+00   6.050799001399216E+00
   6.126908683420436E+00   6.203975707388733E+00   6.282012115183391E+00
   6.361030100151904E+00   6.441042009015183E+00   6.522060343796771E+00
   6.604097763776314E+00   6.687167087467580E+00   6.771281294621418E+00
   6.856453528253819E+00   6.942697096699572E+00   7.030025475691712E+00
   7.118452310467121E+00   7.207991417898649E+00   7.298656788653997E+00
   7.390462589381804E+00   7.483423164925216E+00   7.577553040563283E+00
   7.672866924280598E+00   7.769379709065398E+00   7.867106475236668E+00
   7.966062492800443E+00   8.066263223835792E+00   8.167724324910814E+00
   8.270461649528967E+00   8.374491250606244E+00   8.479829382979462E+00
   8.586492505946110E+00   8.694497285836176E+00   8.803860598616245E+00
   8.914599532526442E+00   9.026731390750488E+00   9.140273694119360E+00
   9.255244183848978E+00   9.371660824312261E+00   9.489541805846137E+00
   9.608905547593798E+00   9.729770700382733E+00   9.852156149638983E+00
   9.976081018337982E+00   1.010156466999259E+01   1.022862671167868E+01
   1.035728699709876E+01   1.048756562968421E+01   1.061948296573642E+01
   1.075305961760753E+01   1.088831645692116E+01   1.102527461783363E+01
   1.116395550033623E+01   1.130438077359901E+01   1.144657237935661E+01
   1.159055253533671E+01   1.173634373873161E+01   1.188396876971348E+01