<UPF version="2.0.1">
  <PP_INFO>
    Generated using "atomic" code by A. Dal Corso  v.7.2
    Author: ADC
    Generation date:  9Jun2023
    Pseudopotential type: USPP
    Element: Ti
    Functional: PBESOL
    Suggested minimum cutoff for wavefunctions:  52. Ry
    Suggested minimum cutoff for charge density: 576. Ry
    The Pseudo was generated with a Fully-Relativistic Calculation
    Local Potential by smoothing AE potential with Bessel fncs, cutoff radius:   1.6000
    Pseudopotential contains additional information for spin-orbit calculations.
    Valence configuration: 
    nl pn  l   occ       Rcut    Rcut US       E pseu
    3S  1  0  2.00      0.850      1.300    -4.587776
    4S  2  0  2.00      0.850      1.300    -0.328836
    3P  2  1  2.00      0.800      1.600    -2.880352
    3P  2  1  4.00      0.800      1.600    -2.831904
    3D  3  2  2.00      0.800      1.500    -0.315306
    3D  3  2  0.00      0.800      1.500    -0.311926
    Generation configuration:
    3S  1  0  2.00      0.850      1.300    -4.587778
    4S  2  0  2.00      0.850      1.300    -0.328840
    3P  2  1  2.00      0.800      1.600    -2.880352
    3P  2  1  4.00      0.800      1.600    -2.831902
    4P  3  1  0.00      0.800      1.600     4.000000
    4P  3  1  0.00      0.800      1.600     4.000000
    3D  3  2  2.00      0.800      1.500    -0.315314
    3D  3  2  0.00      0.800      1.500    -0.311920
    3D  3  2  0.00      0.800      1.500     0.050000
    3D  3  2  0.00      0.800      1.500     0.050000
    Pseudization used: troullier-martins
    <PP_INPUTFILE>
@input
title='Ti',
zed=22.,
rel=2,
config='[Ar] 4s2 4p0 3d2',
iswitch=3,
dft='PBESOL'
/
@inputp
lpaw=.false.,
pseudotype=3,
file_pseudopw='Ti.rel-pbesol-spn-rrkjus_psl.1.0.0.UPF',
author='ADC',
lloc=-1,
rcloc=1.6,
which_augfun='PSQ',
rmatch_augfun_nc=.true.,
nlcc=.true.,
new_core_ps=.true.,
rcore=0.8,
tm=.true.
/
6
3S  1  0  2.00  0.00  0.85  1.30  0.0
4S  2  0  2.00  0.00  0.85  1.30  0.0
3P  2  1  6.00  0.00  0.80  1.60  0.0
4P  3  1  0.00  4.00  0.80  1.60  0.0
3D  3  2  2.00  0.00  0.80  1.50  0.0
3D  3  2  0.00  0.05  0.80  1.50  0.0
    </PP_INPUTFILE>
  </PP_INFO>
    <!-- END OF HUMAN READABLE SECTION -->
  <PP_HEADER generated="Generated using 'atomic' code by A. Dal Corso  v.7.2" author="ADC" date=" 9Jun2023" comment="" element="Ti" pseudo_type="USPP" relativistic="full" is_ultrasoft="true" is_paw="false" is_coulomb="false" has_so="true" has_wfc="false" has_gipaw="false" paw_as_gipaw="false" core_correction="true" functional="PBESOL" z_valence="12.0000000000000" total_psenergy="-119.096427151989" wfc_cutoff="51.6856808288138" rho_cutoff="575.554844484038" l_max="2" l_max_rho="4" l_local="-1" mesh_size="1177" number_of_wfc="6" number_of_proj="10"/>
  <PP_MESH mesh="1177" dx="1.250000000000000E-002" xmin="-7.00000000000000" rmax="100.000000000000" zmesh="22.0000000000000">
    <PP_R>
   4.144918025247801E-05   4.197054675768283E-05   4.249847124620828E-05
   4.303303620732972E-05   4.357432516790999E-05   4.412242270545040E-05
   4.467741446130630E-05   4.523938715406870E-05   4.580842859311411E-05
   4.638462769232521E-05   4.696807448398350E-05   4.755886013283720E-05
   4.815707695034592E-05   4.876281840910440E-05   4.937617915744808E-05
   4.999725503424174E-05   5.062614308385469E-05   5.126294157132420E-05
   5.190774999770943E-05   5.256066911563899E-05   5.322180094505338E-05
   5.389124878914604E-05   5.456911725050459E-05   5.525551224745521E-05
   5.595054103061277E-05   5.665431219963862E-05   5.736693572020975E-05
   5.808852294120111E-05   5.881918661208400E-05   5.955904090054364E-05
   6.030820141031780E-05   6.106678519926031E-05   6.183491079763153E-05
   6.261269822661895E-05   6.340026901709085E-05   6.419774622858552E-05
   6.500525446853975E-05   6.582291991175889E-05   6.665087032013196E-05
   6.748923506259485E-05   6.833814513534419E-05   6.919773318230599E-05
   7.006813351586138E-05   7.094948213783328E-05   7.184191676073714E-05
   7.274557682929838E-05   7.366060354224122E-05   7.458713987435118E-05
   7.552533059881518E-05   7.647532230984278E-05   7.743726344557155E-05
   7.841130431126101E-05   7.939759710277816E-05   8.039629593037822E-05
   8.140755684278499E-05   8.243153785157342E-05   8.346839895585942E-05
   8.451830216730004E-05   8.558141153540807E-05   8.665789317318529E-05
   8.774791528307769E-05   8.885164818325759E-05   8.996926433423621E-05
   9.110093836581087E-05   9.224684710435155E-05   9.340716960042995E-05
   9.458208715679679E-05   9.577178335671064E-05   9.697644409262310E-05
   9.819625759522520E-05   9.943141446285842E-05   1.006821076912962E-04
   1.019485327039001E-04   1.032308873821549E-04   1.045293720965880E-04
   1.058441897380779E-04   1.071755457495560E-04   1.085236481581079E-04
   1.098887076074774E-04   1.112709373909811E-04   1.126705534848345E-04
   1.140877745818999E-04   1.155228221258572E-04   1.169759203458045E-04
   1.184472962912954E-04   1.199371798678146E-04   1.214458038727023E-04
   1.229734040315285E-04   1.245202190349258E-04   1.260864905758858E-04
   1.276724633875233E-04   1.292783852813167E-04   1.309045071858292E-04
   1.325510831859167E-04   1.342183705624294E-04   1.359066298324118E-04
   1.376161247898098E-04   1.393471225466883E-04   1.410998935749686E-04
   1.428747117486900E-04   1.446718543868030E-04   1.464916022965012E-04
   1.483342398170977E-04   1.502000548644537E-04   1.520893389759669E-04
   1.540023873561233E-04   1.559394989226243E-04   1.579009763530933E-04
   1.598871261323695E-04   1.618982586003968E-04   1.639346880007150E-04
   1.659967325295611E-04   1.680847143855878E-04   1.701989598202082E-04
   1.723397991885731E-04   1.745075670011893E-04   1.767026019761877E-04
   1.789252470922492E-04   1.811758496421950E-04   1.834547612872527E-04
   1.857623381120030E-04   1.880989406800198E-04   1.904649340902081E-04
   1.928606880338518E-04   1.952865768523791E-04   1.977429795958531E-04
   2.002302800822003E-04   2.027488669571819E-04   2.052991337551212E-04
   2.078814789603942E-04   2.104963060696930E-04   2.131440236550732E-04
   2.158250454277944E-04   2.185397903029632E-04   2.212886824649892E-04
   2.240721514338660E-04   2.268906321322826E-04   2.297445649535825E-04
   2.326343958305752E-04   2.355605763052148E-04   2.385235635991538E-04
   2.415238206851853E-04   2.445618163595828E-04   2.476380253153513E-04
   2.507529282163987E-04   2.539070117726409E-04   2.571007688160504E-04
   2.603346983776630E-04   2.636093057655521E-04   2.669251026437842E-04
   2.702826071123679E-04   2.736823437882072E-04   2.771248438870744E-04
   2.806106453066140E-04   2.841402927103891E-04   2.877143376129885E-04
   2.913333384661993E-04   2.949978607462676E-04   2.987084770422554E-04
   3.024657671455079E-04   3.062703181402485E-04   3.101227244953103E-04
   3.140235881570242E-04   3.179735186432735E-04   3.219731331387327E-04
   3.260230565913045E-04   3.301239218097678E-04   3.342763695626562E-04
   3.384810486783793E-04   3.427386161466031E-04   3.470497372209074E-04
   3.514150855227305E-04   3.558353431466261E-04   3.603112007668410E-04
   3.648433577452343E-04   3.694325222405551E-04   3.740794113190923E-04
   3.787847510667186E-04   3.835492767023426E-04   3.883737326927882E-04
   3.932588728691197E-04   3.982054605444285E-04   4.032142686331026E-04
   4.082860797715966E-04   4.134216864407189E-04   4.186218910894609E-04
   4.238875062603785E-04   4.292193547165551E-04   4.346182695701597E-04
   4.400850944126220E-04   4.456206834464467E-04   4.512259016186824E-04
   4.569016247560721E-04   4.626487397019035E-04   4.684681444545791E-04
   4.743607483079320E-04   4.803274719933025E-04   4.863692478234058E-04
   4.924870198380073E-04   4.986817439514308E-04   5.049543881019231E-04
   5.113059324028938E-04   5.177373692960626E-04   5.242497037065288E-04
   5.308439531997929E-04   5.375211481407553E-04   5.442823318547100E-04
   5.511285607903681E-04   5.580609046849295E-04   5.650804467312310E-04
   5.721882837469999E-04   5.793855263462304E-04   5.866732991127215E-04
   5.940527407757951E-04   6.015250043882240E-04   6.090912575064013E-04
   6.167526823727698E-04   6.245104761005520E-04   6.323658508608014E-04
   6.403200340718056E-04   6.483742685908753E-04   6.565298129085399E-04
   6.647879413451919E-04   6.731499442502007E-04   6.816171282035319E-04
   6.901908162199066E-04   6.988723479555197E-04   7.076630799173677E-04
   7.165643856752046E-04   7.255776560761640E-04   7.347042994620852E-04
   7.439457418895648E-04   7.533034273527843E-04   7.627788180091351E-04
   7.723733944076848E-04   7.820886557205174E-04   7.919261199769780E-04
   8.018873243008710E-04   8.119738251506387E-04   8.221871985625590E-04
   8.325290403970082E-04   8.430009665878129E-04   8.536046133947459E-04
   8.643416376591935E-04   8.752137170630423E-04   8.862225503908180E-04
   8.973698577951265E-04   9.086573810654287E-04   9.200868839001996E-04
   9.316601521825118E-04   9.433789942590792E-04   9.552452412228196E-04
   9.672607471989625E-04   9.794273896347623E-04   9.917470695928533E-04
   1.004221712048293E-03   1.016853266189346E-03   1.029643705722044E-03
   1.042595029178588E-03   1.055709260229617E-03   1.068988448000414E-03
   1.082434667391085E-03   1.096050019400767E-03   1.109836631455911E-03
   1.123796657742700E-03   1.137932279543643E-03   1.152245705578407E-03
   1.166739172348929E-03   1.181414944488879E-03   1.196275315117514E-03
   1.211322606197977E-03   1.226559168900113E-03   1.241987383967844E-03
   1.257609662091163E-03   1.273428444282810E-03   1.289446202259686E-03
   1.305665438829065E-03   1.322088688279658E-03   1.338718516777604E-03
   1.355557522767441E-03   1.372608337378114E-03   1.389873624834095E-03
   1.407356082871677E-03   1.425058443160495E-03   1.442983471730361E-03
   1.461133969403458E-03   1.479512772231974E-03   1.498122751941244E-03
   1.516966816378458E-03   1.536047909967025E-03   1.555369014166638E-03
   1.574933147939137E-03   1.594743368220229E-03   1.614802770397135E-03
   1.635114488792258E-03   1.655681697152920E-03   1.676507609147273E-03
   1.697595478866437E-03   1.718948601332958E-03   1.740570313015666E-03
   1.762463992351000E-03   1.784633060270901E-03   1.807080980737333E-03
   1.829811261283539E-03   1.852827453562101E-03   1.876133153899889E-03
   1.899732003859996E-03   1.923627690810742E-03   1.947823948501827E-03
   1.972324557647745E-03   1.997133346518519E-03   2.022254191537887E-03
   2.047691017888992E-03   2.073447800127700E-03   2.099528562803642E-03
   2.125937381089044E-03   2.152678381415497E-03   2.179755742118704E-03
   2.207173694091362E-03   2.234936521444254E-03   2.263048562175634E-03
   2.291514208849063E-03   2.320337909279746E-03   2.349524167229518E-03
   2.379077543110564E-03   2.409002654697992E-03   2.439304177851370E-03
   2.469986847245341E-03   2.501055457109420E-03   2.532514861977110E-03
   2.564369977444426E-03   2.596625780937968E-03   2.629287312492658E-03
   2.662359675539251E-03   2.695848037701761E-03   2.729757631604908E-03
   2.764093755691726E-03   2.798861775051465E-03   2.834067122257883E-03
   2.869715298218109E-03   2.905811873032163E-03   2.942362486863298E-03
   2.979372850819289E-03   3.016848747844800E-03   3.054796033624990E-03
   3.093220637500465E-03   3.132128563393754E-03   3.171525890747439E-03
   3.211418775474073E-03   3.251813450918057E-03   3.292716228829613E-03
   3.334133500351006E-03   3.376071737015178E-03   3.418537491756927E-03
   3.461537399936834E-03   3.505078180378034E-03   3.549166636416053E-03
   3.593809656961849E-03   3.639014217578207E-03   3.684787381569694E-03
   3.731136301086310E-03   3.778068218241025E-03   3.825590466241382E-03
   3.873710470535311E-03   3.922435749971388E-03   3.971773917973656E-03
   4.021732683731242E-03   4.072319853402942E-03   4.123543331336932E-03
   4.175411121305861E-03   4.227931327757433E-03   4.281112157080758E-03
   4.334961918888621E-03   4.389489027315855E-03   4.444702002334095E-03
   4.500609471083016E-03   4.557220169218352E-03   4.614542942276868E-03
   4.672586747058473E-03   4.731360653025759E-03   4.790873843721109E-03
   4.851135618201646E-03   4.912155392492241E-03   4.973942701056769E-03
   5.036507198287905E-03   5.099858660015627E-03   5.164006985034717E-03
   5.228962196651474E-03   5.294734444249862E-03   5.361334004877387E-03
   5.428771284850894E-03   5.497056821382577E-03   5.566201284226452E-03
   5.636215477345510E-03   5.707110340599875E-03   5.778896951456166E-03
   5.851586526718374E-03   5.925190424280532E-03   5.999720144901374E-03
   6.075187334001384E-03   6.151603783482396E-03   6.228981433570113E-03
   6.307332374679786E-03   6.386668849305371E-03   6.467003253932437E-03
   6.548348140975150E-03   6.630716220737610E-03   6.714120363399857E-03
   6.798573601028868E-03   6.884089129614845E-03   6.970680311133113E-03
   7.058360675631955E-03   7.147143923346712E-03   7.237043926840468E-03
   7.328074733171672E-03   7.420250566089020E-03   7.513585828253935E-03
   7.608095103491025E-03   7.703793159066824E-03   7.800694947997217E-03
   7.898815611383871E-03   7.998170480780071E-03   8.098775080586295E-03
   8.200645130475947E-03   8.303796547851577E-03   8.408245450332015E-03
   8.514008158270777E-03   8.621101197306151E-03   8.729541300943371E-03
   8.839345413169254E-03   8.950530691099731E-03   9.063114507660692E-03
   9.177114454302521E-03   9.292548343748821E-03   9.409434212779667E-03
   9.527790325049903E-03   9.647635173942870E-03   9.768987485460030E-03
   9.891866221146952E-03   1.001629058105609E-02   1.014228000674681E-02
   1.026985418432323E-02   1.039903304751011E-02   1.052983678076768E-02
   1.066228582244535E-02   1.079640086797537E-02   1.093220287310647E-02
   1.106971305717822E-02   1.120895290643666E-02   1.134994417739153E-02
   1.149270890021575E-02   1.163726938218773E-02   1.178364821117689E-02
   1.193186825917306E-02   1.208195268586030E-02   1.223392494223563E-02
   1.238780877427331E-02   1.254362822663515E-02   1.270140764642761E-02
   1.286117168700604E-02   1.302294531182682E-02   1.318675379834797E-02
   1.335262274197877E-02   1.352057806007912E-02   1.369064599600919E-02
   1.386285312322997E-02   1.403722634945545E-02   1.421379292085699E-02
   1.439258042632061E-02   1.457361680175776E-02   1.475693033447045E-02
   1.494254966757110E-02   1.513050380445817E-02   1.532082211334793E-02
   1.551353433186335E-02   1.570867057168066E-02   1.590626132323434E-02
   1.610633746048131E-02   1.630893024572508E-02   1.651407133450052E-02
   1.672179278052011E-02   1.693212704068241E-02   1.714510698014350E-02
   1.736076587745223E-02   1.757913742975006E-02   1.780025575803632E-02
   1.802415541249968E-02   1.825087137791667E-02   1.848043907911815E-02
   1.871289438652448E-02   1.894827362175039E-02   1.918661356328025E-02
   1.942795145221485E-02   1.967232499809034E-02   1.991977238477043E-02
   2.017033227641273E-02   2.042404382351008E-02   2.068094666900790E-02
   2.094108095449845E-02   2.120448732649311E-02   2.147120694277340E-02
   2.174128147882201E-02   2.201475313433467E-02   2.229166463981392E-02
   2.257205926324590E-02   2.285598081686096E-02   2.314347366397952E-02
   2.343458272594383E-02   2.372935348913710E-02   2.402783201209080E-02
   2.433006493268138E-02   2.463609947541761E-02   2.494598345881939E-02
   2.525976530288962E-02   2.557749403667981E-02   2.589921930595106E-02
   2.622499138093122E-02   2.655486116416982E-02   2.688888019849160E-02
   2.722710067505026E-02   2.756957544148335E-02   2.791635801016991E-02
   2.826750256659183E-02   2.862306397780047E-02   2.898309780098971E-02
   2.934766029217692E-02   2.971680841499307E-02   3.009059984958337E-02
   3.046909300161998E-02   3.085234701142794E-02   3.124042176322602E-02
   3.163337789448373E-02   3.203127680539607E-02   3.243418066847740E-02
   3.284215243827602E-02   3.325525586121100E-02   3.367355548553264E-02
   3.409711667140827E-02   3.452600560113495E-02   3.496028928948049E-02
   3.540003559415478E-02   3.584531322641259E-02   3.629619176178988E-02
   3.675274165097513E-02   3.721503423081737E-02   3.768314173547276E-02
   3.815713730769126E-02   3.863709501024538E-02   3.912308983750264E-02
   3.961519772714355E-02   4.011349557202708E-02   4.061806123220527E-02
   4.112897354708909E-02   4.164631234776718E-02   4.217015846947969E-02
   4.270059376424892E-02   4.323770111366883E-02   4.378156444185555E-02
   4.433226872856059E-02   4.488990002244917E-02   4.545454545454548E-02
   4.602629325184704E-02   4.660523275111042E-02   4.719145441281025E-02
   4.778504983527385E-02   4.838611176899363E-02   4.899473413111963E-02
   4.961101202013419E-02   5.023504173071128E-02   5.086692076876276E-02
   5.150674786667395E-02   5.215462299873058E-02   5.281064739674016E-02
   5.347492356584959E-02   5.414755530056175E-02   5.482864770095369E-02
   5.551830718909865E-02   5.621664152569478E-02   5.692375982690295E-02
   5.763977258139636E-02   5.836479166762464E-02   5.909893037129507E-02
   5.984230340307373E-02   6.059502691650924E-02   6.135721852618198E-02
   6.212899732608168E-02   6.291048390821599E-02   6.370180038145336E-02
   6.450307039060263E-02   6.531441913573295E-02   6.613597339173645E-02
   6.696786152813709E-02   6.781021352914868E-02   6.866316101398515E-02
   6.952683725742634E-02   7.040137721064245E-02   7.128691752228043E-02
   7.218359655981564E-02   7.309155443117198E-02   7.401093300661411E-02
   7.494187594091495E-02   7.588452869580198E-02   7.683903856268601E-02
   7.780555468567568E-02   7.878422808488163E-02   7.977521168001361E-02
   8.077866031427451E-02   8.179473077855498E-02   8.282358183593226E-02
   8.386537424647730E-02   8.492027079237378E-02   8.598843630335319E-02
   8.707003768244986E-02   8.816524393207976E-02   8.927422618044763E-02
   9.039715770828603E-02   9.153421397593080E-02   9.268557265073710E-02
   9.385141363484033E-02   9.503191909326621E-02   9.622727348239435E-02
   9.743766357878000E-02   9.866327850833834E-02   9.990430977589558E-02
   1.011609512951122E-01   1.024333994187823E-01   1.037218529695138E-01
   1.050265132707957E-01   1.063475841784542E-01   1.076852721125064E-01
   1.090397860894136E-01   1.104113377547404E-01   1.118001414162250E-01
   1.132064140772651E-01   1.146303754708250E-01   1.160722480937695E-01
   1.175322572416294E-01   1.190106310438046E-01   1.205076004992094E-01
   1.220233995123669E-01   1.235582649299567E-01   1.251124365778230E-01
   1.266861572984478E-01   1.282796729888955E-01   1.298932326392348E-01
   1.315270883714437E-01   1.331814954788047E-01   1.348567124657940E-01
   1.365530010884743E-01   1.382706263953939E-01   1.400098567690015E-01
   1.417709639675815E-01   1.435542231677168E-01   1.453599130072853E-01
   1.471883156289983E-01   1.490397167244852E-01   1.509144055789340E-01
   1.528126751162923E-01   1.547348219450373E-01   1.566811464045217E-01
   1.586519526119019E-01   1.606475485096578E-01   1.626682459137082E-01
   1.647143605621338E-01   1.667862121645112E-01   1.688841244518684E-01
   1.710084252272687E-01   1.731594464170301E-01   1.753375241225898E-01
   1.775429986730206E-01   1.797762146782081E-01   1.820375210826967E-01
   1.843272712202126E-01   1.866458228688734E-01   1.889935383070913E-01
   1.913707843701801E-01   1.937779325076736E-01   1.962153588413657E-01
   1.986834442240800E-01   2.011825742991789E-01   2.037131395608212E-01
   2.062755354149775E-01   2.088701622412132E-01   2.114974254552488E-01
   2.141577355723065E-01   2.168515082712548E-01   2.195791644595582E-01
   2.223411303390458E-01   2.251378374725053E-01   2.279697228511164E-01
   2.308372289627311E-01   2.337408038610131E-01   2.366809012354478E-01
   2.396579804822316E-01   2.426725067760536E-01   2.457249511427804E-01
   2.488157905330546E-01   2.519455078968194E-01   2.551145922587800E-01
   2.583235387948157E-01   2.615728489093515E-01   2.648630303137035E-01
   2.681945971054100E-01   2.715680698485603E-01   2.749839756551340E-01
   2.784428482673632E-01   2.819452281411304E-01   2.854916625304167E-01
   2.890827055728107E-01   2.927189183760937E-01   2.964008691059143E-01
   3.001291330745650E-01   3.039042928308761E-01   3.077269382512400E-01
   3.115976666317810E-01   3.155170827816836E-01   3.194857991176953E-01
   3.235044357598181E-01   3.275736206282032E-01   3.316939895412652E-01
   3.358661863150297E-01   3.400908628637311E-01   3.443686793016749E-01
   3.487003040463834E-01   3.530864139230354E-01   3.575276942702225E-01
   3.620248390470353E-01   3.665785509414943E-01   3.711895414803479E-01
   3.758585311402488E-01   3.805862494603304E-01   3.853734351561990E-01
   3.902208362353589E-01   3.951292101140913E-01   4.000993237358006E-01
   4.051319536908519E-01   4.102278863379149E-01   4.153879179268331E-01
   4.206128547230408E-01   4.259035131335425E-01   4.312607198344786E-01
   4.366853119002958E-01   4.421781369345403E-01   4.477400532022995E-01
   4.533719297643058E-01   4.590746466127298E-01   4.648490948086820E-01
   4.706961766214407E-01   4.766168056694354E-01   4.826119070630005E-01
   4.886824175489254E-01   4.948292856568248E-01   5.010534718473457E-01
   5.073559486622442E-01   5.137377008763450E-01   5.201997256514148E-01
   5.267430326919725E-01   5.333686444030552E-01   5.400775960499730E-01
   5.468709359200700E-01   5.537497254865218E-01   5.607150395741937E-01
   5.677679665275824E-01   5.749096083808742E-01   5.821410810301383E-01
   5.894635144076882E-01   5.968780526586375E-01   6.043858543196722E-01
   6.119880925000771E-01   6.196859550650348E-01   6.274806448212319E-01
   6.353733797048018E-01   6.433653929716276E-01   6.514579333900425E-01
   6.596522654359511E-01   6.679496694904068E-01   6.763514420396747E-01
   6.848588958778087E-01   6.934733603117803E-01   7.021961813691830E-01
   7.110287220085536E-01   7.199723623323375E-01   7.290284998025307E-01
   7.381985494590384E-01   7.474839441407756E-01   7.568861347095523E-01
   7.664065902767746E-01   7.760467984329936E-01   7.858082654803478E-01
   7.956925166679223E-01   8.057010964300750E-01   8.158355686277567E-01
   8.260975167928667E-01   8.364885443756843E-01   8.470102749954098E-01
   8.576643526938587E-01   8.684524421923481E-01   8.793762291518099E-01
   8.904374204361819E-01   9.016377443791060E-01   9.129789510539852E-01
   9.244628125474373E-01   9.360911232361834E-01   9.478657000674281E-01
   9.597883828427558E-01   9.718610345056070E-01   9.840855414323667E-01
   9.964638137271123E-01   1.008997785520075E+00   1.021689415269847E+00
   1.034540686069397E+00   1.047553605955936E+00   1.060730208224669E+00
   1.074072551746510E+00   1.087582721289780E+00   1.101262827845954E+00
   1.115115008959517E+00   1.129141429061948E+00   1.143344279809926E+00
   1.157725780427777E+00   1.172288178054231E+00   1.187033748093544E+00
   1.201964794571037E+00   1.217083650493097E+00   1.232392678211723E+00
   1.247894269793641E+00   1.263590847394076E+00   1.279484863635212E+00
   1.295578801989422E+00   1.311875177167320E+00   1.328376535510680E+00
   1.345085455390317E+00   1.362004547608956E+00   1.379136455809179E+00
   1.396483856886497E+00   1.414049461407622E+00   1.431836014033998E+00
   1.449846293950660E+00   1.468083115300486E+00   1.486549327623917E+00
   1.505247816304197E+00   1.524181503018225E+00   1.543353346193071E+00
   1.562766341468236E+00   1.582423522163730E+00   1.602327959754025E+00
   1.622482764347995E+00   1.642891085174861E+00   1.663556111076273E+00
   1.684481071004573E+00   1.705669234527319E+00   1.727123912338172E+00
   1.748848456774189E+00   1.770846262339636E+00   1.793120766236389E+00
   1.815675448900998E+00   1.838513834548519E+00   1.861639491723174E+00
   1.885056033855944E+00   1.908767119829182E+00   1.932776454548309E+00
   1.957087789520725E+00   1.981704923441979E+00   2.006631702789329E+00
   2.031872022422766E+00   2.057429826193581E+00   2.083309107560613E+00
   2.109513910214227E+00   2.136048328708150E+00   2.162916509099259E+00
   2.190122649595402E+00   2.217671001211384E+00   2.245565868433192E+00
   2.273811609890581E+00   2.302412639038121E+00   2.331373424844806E+00
   2.360698492492340E+00   2.390392424082203E+00   2.420459859351620E+00
   2.450905496398526E+00   2.481734092415649E+00   2.512950464433838E+00
   2.544559490074734E+00   2.576566108312901E+00   2.608975320247556E+00
   2.641792189884002E+00   2.675021844924882E+00   2.708669477571409E+00
   2.742740345334636E+00   2.777239771856971E+00   2.812173147743998E+00
   2.847545931406767E+00   2.883363649914697E+00   2.919631899859177E+00
   2.956356348228046E+00   2.993542733291080E+00   3.031196865496601E+00
   3.069324628379370E+00   3.107931979479916E+00   3.147024951275393E+00
   3.186609652122179E+00   3.226692267210315E+00   3.267279059529958E+00
   3.308376370849985E+00   3.349990622708902E+00   3.392128317418226E+00
   3.434796039078485E+00   3.478000454607995E+00   3.521748314784586E+00
   3.566046455300416E+00   3.610901797830064E+00   3.656321351112060E+00
   3.702312212044006E+00   3.748881566791502E+00   3.796036691910967E+00
   3.843784955486640E+00   3.892133818281848E+00   3.941090834904768E+00
   3.990663654988857E+00   4.040860024388106E+00   4.091687786387359E+00
   4.143154882927838E+00   4.195269355848086E+00   4.248039348140530E+00
   4.301473105223825E+00   4.355578976231225E+00   4.410365415315156E+00
   4.465840982968185E+00   4.522014347360630E+00   4.578894285694960E+00
   4.636489685577263E+00   4.694809546405948E+00   4.753862980777919E+00
   4.813659215912451E+00   4.874207595092934E+00   4.935517579126804E+00
   4.997598747823800E+00   5.060460801492834E+00   5.124113562457692E+00
   5.188566976591774E+00   5.253831114872171E+00   5.319916174953269E+00
   5.386832482760152E+00   5.454590494102066E+00   5.523200796306135E+00
   5.592674109871665E+00   5.663021290145248E+00   5.734253329016917E+00
   5.806381356637679E+00   5.879416643158589E+00   5.953370600491760E+00
   6.028254784093485E+00   6.104080894769797E+00   6.180860780504772E+00
   6.258606438311760E+00   6.337330016107969E+00   6.417043814612591E+00
   6.497760289268819E+00   6.579492052190045E+00   6.662251874130508E+00
   6.746052686480761E+00   6.830907583288226E+00   6.916829823303164E+00
   7.003832832050398E+00   7.091930203927050E+00   7.181135704326709E+00
   7.271463271790304E+00   7.362927020184016E+00   7.455541240904629E+00
   7.549320405112550E+00   7.644279165992981E+00   7.740432361045507E+00
   7.837795014402470E+00   7.936382339176560E+00   8.036209739837838E+00
   8.137292814620766E+00   8.239647357961426E+00   8.343289362965454E+00
   8.448235023907007E+00   8.554500738759113E+00   8.662103111755917E+00
   8.771058955987117E+00   8.881385296025043E+00   8.993099370584799E+00
   9.106218635217811E+00   9.220760765039321E+00   9.336743657490153E+00
   9.454185435133210E+00   9.573104448485207E+00   9.693519278883912E+00
   9.815448741391560E+00   9.938911887734735E+00   1.006392800928123E+01
   1.019051664005441E+01   1.031869755978537E+01   1.044849079700359E+01
   1.057991663216647E+01   1.071299560082812E+01   1.084774849684817E+01
   1.098419637564076E+01   1.112236055746457E+01   1.126226263075411E+01
   1.140392445549294E+01   1.154736816662941E+01   1.169261617753523E+01
   1.183969118350759E+01   1.198861616531542E+01   1.213941439279010E+01
   1.229210942846149E+01   1.244672513123957E+01   1.260328566014246E+01
   1.276181547807134E+01   1.292233935563277E+01   1.308488237500923E+01
   1.324946993387819E+01   1.341612774938057E+01   1.358488186213912E+01
   1.375575864032727E+01   1.392878478378929E+01   1.410398732821211E+01
   1.428139364934975E+01   1.446103146730082E+01   1.464292885083984E+01
   1.482711422180309E+01   1.501361635952949E+01   1.520246440535752E+01
   1.539368786717853E+01   1.558731662404747E+01   1.578338093085158E+01
   1.598191142303767E+01   1.618293912139907E+01   1.638649543692262E+01
   1.659261217569677E+01   1.680132154388131E+01   1.701265615273964E+01
   1.722664902373436E+01   1.744333359368692E+01   1.766274372000222E+01
   1.788491368595891E+01   1.810987820606618E+01   1.833767243148798E+01
   1.856833195553548E+01   1.880189281922858E+01   1.903839151692745E+01
   1.927786500203475E+01   1.952035069276974E+01   1.976588647801494E+01
   2.001451072323631E+01   2.026626227647805E+01   2.052118047443252E+01
   2.077930514858679E+01   2.104067663144635E+01   2.130533576283714E+01
   2.157332389628693E+01   2.184468290548679E+01   2.211945519083398E+01
   2.239768368605712E+01   2.267941186492464E+01   2.296468374803768E+01
   2.325354390970837E+01   2.354603748492466E+01   2.384221017640275E+01
   2.414210826172823E+01   2.444577860058713E+01   2.475326864208770E+01
   2.506462643217451E+01   2.537990062113573E+01   2.569914047120478E+01
   2.602239586425779E+01   2.634971730960757E+01   2.668115595189588E+01
   2.701676357908492E+01   2.735659263054919E+01   2.770069620526944E+01
   2.804912807012926E+01   2.840194266831643E+01   2.875919512782973E+01
   2.912094127009277E+01   2.948723761867629E+01   2.985814140812999E+01
   3.023371059292556E+01   3.061400385651225E+01   3.099908062048616E+01
   3.138900105387517E+01   3.178382608254026E+01   3.218361739869545E+01
   3.258843747054727E+01   3.299834955205552E+01   3.341341769281697E+01
   3.383370674807305E+01   3.425928238884373E+01   3.469021111218871E+01
   3.512656025159772E+01   3.556839798751162E+01   3.601579335797555E+01
   3.646881626942636E+01   3.692753750761563E+01   3.739202874867011E+01
   3.786236257029127E+01   3.833861246309561E+01   3.882085284209784E+01
   3.930915905833826E+01   3.980360741065663E+01   4.030427515761402E+01
   4.081124052956447E+01   4.132458274087877E+01   4.184438200232186E+01
   4.237071953358583E+01   4.290367757598086E+01   4.344333940528534E+01
   4.398978934475807E+01   4.454311277831383E+01   4.510339616386483E+01