<UPF version="2.0.1">
  <PP_INFO>
    Generated using "atomic" code by A. Dal Corso  v.7.2
    Author: ADC
    Generation date:  9Jun2023
    Pseudopotential type: PAW
    Element:  U
    Functional:  SLA  PW   REVX PBC
    Suggested minimum cutoff for wavefunctions:  93. Ry
    Suggested minimum cutoff for charge density: 682. Ry
    The Pseudo was generated with a Scalar-Relativistic Calculation
    Local Potential by smoothing AE potential with Bessel fncs, cutoff radius:   2.1000
    Valence configuration: 
    nl pn  l   occ       Rcut    Rcut US       E pseu
    6S  1  0  2.00      1.200      1.400    -3.615740
    7S  2  0  2.00      1.200      1.400    -0.321152
    6P  2  1  6.00      1.300      2.200    -1.781850
    6D  3  2  1.50      2.000      2.200    -0.196271
    5F  4  3  2.50      1.000      1.300    -0.351132
    Generation configuration:
    6S  1  0  2.00      1.200      1.400    -3.615769
    7S  2  0  2.00      1.200      1.400    -0.321157
    6P  2  1  6.00      1.300      2.200    -1.781876
    7P  3  1  0.00      1.300      2.200     5.000000
    6D  3  2  1.50      2.000      2.200    -0.196289
    6D  3  2  0.00      2.000      2.200     4.800000
    5F  4  3  2.50      1.000      1.300    -0.351155
    5F  4  3  0.00      1.000      1.300    -0.500000
    Pseudization used: troullier-martins
    <PP_INPUTFILE>
@input
title='U',
zed=92.0,
rel=1,
config='[Rn] 6d1.5 7s2.0 7p0. 5f2.5',
iswitch=3,
dft='REVPBE'
/
@inputp
lpaw=.true.,
pseudotype=3,
file_pseudopw='U.revpbe-spfn-kjpaw_psl.1.0.0.UPF',
author='ADC',
lloc=-1,
rcloc=2.1,
which_augfun='PSQ',
rmatch_augfun_nc=.true.,
nlcc=.true.,
new_core_ps=.true.,
rcore=1.5,
tm=.true.
/
8
6S  1  0  2.00  0.00  1.20  1.40  0.0
7S  2  0  2.00  0.00  1.20  1.40  0.0
6P  2  1  6.00  0.00  1.30  2.20  0.0
7P  3  1  0.00  5.00  1.30  2.20  0.0
6D  3  2  1.50  0.00  2.00  2.20  0.0
6D  3  2  0.00  4.80  2.00  2.20  0.0
5F  4  3  2.50  0.00  1.00  1.30  0.0
5F  4  3  0.00 -0.50  1.00  1.30  0.0
    </PP_INPUTFILE>
  </PP_INFO>
    <!-- END OF HUMAN READABLE SECTION -->
  <PP_HEADER generated="Generated using 'atomic' code by A. Dal Corso  v.7.2" author="ADC" date=" 9Jun2023" comment="" element=" U" pseudo_type="PAW" relativistic="scalar" is_ultrasoft="true" is_paw="true" is_coulomb="false" has_so="false" has_wfc="true" has_gipaw="false" paw_as_gipaw="false" core_correction="true" functional=" SLA  PW   REVX PBC" z_valence="14.0000000000000" total_psenergy="-1028.90943251952" wfc_cutoff="93.2547182847856" rho_cutoff="682.104127801900" l_max="3" l_max_rho="6" l_local="-1" mesh_size="1291" number_of_wfc="5" number_of_proj="8"/>
  <PP_MESH mesh="1291" dx="1.250000000000000E-002" xmin="-7.00000000000000" rmax="100.000000000000" zmesh="92.0000000000000">
    <PP_R>
   9.911760495157785E-06   1.003643509422850E-05   1.016267790670198E-05
   1.029050865827450E-05   1.041994732276108E-05   1.055101412521640E-05
   1.068372954509499E-05   1.081811431945121E-05   1.095418944617946E-05
   1.109197618729516E-05   1.123149607225692E-05   1.137277090133064E-05
   1.151582274899576E-05   1.166067396739453E-05   1.180734718982454E-05
   1.195586533427520E-05   1.210625160700873E-05   1.225852950618622E-05
   1.241272282553921E-05   1.256885565808758E-05   1.272695239990407E-05
   1.288703775392623E-05   1.304913673381631E-05   1.321327466786973E-05
   1.337947720297262E-05   1.354777030860923E-05   1.371818028091972E-05
   1.389073374680896E-05   1.406545766810704E-05   1.424237934578217E-05
   1.442152642420643E-05   1.460292689547529E-05   1.478660910378145E-05
   1.497260174984366E-05   1.516093389539129E-05   1.535163496770524E-05
   1.554473476421603E-05   1.574026345715974E-05   1.593825159829242E-05
   1.613873012366399E-05   1.634173035845187E-05   1.654728402185578E-05
   1.675542323205381E-05   1.696618051122100E-05   1.717958879061105E-05
   1.739568141570179E-05   1.761449215140551E-05   1.783605518734485E-05
   1.806040514319493E-05   1.828757707409284E-05   1.851760647611494E-05
   1.875052929182329E-05   1.898638191588174E-05   1.922520120074262E-05
   1.946702446240511E-05   1.971188948624582E-05   1.995983453292290E-05
   2.021089834435436E-05   2.046512014977149E-05   2.072253967184866E-05
   2.098319713290988E-05   2.124713326121377E-05   2.151438929731736E-05
   2.178500700051999E-05   2.205902865538841E-05   2.233649707836368E-05
   2.261745562445141E-05   2.290194819399602E-05   2.319001923954031E-05
   2.348171377277125E-05   2.377707737155310E-05   2.407615618704910E-05
   2.437899695093265E-05   2.468564698268921E-05   2.499615419701017E-05
   2.531056711127950E-05   2.562893485315471E-05   2.595130716824319E-05
   2.627773442787504E-05   2.660826763697373E-05   2.694295844202564E-05
   2.728185913914998E-05   2.762502268227020E-05   2.797250269138804E-05
   2.832435346096194E-05   2.868062996839045E-05   2.904138788260272E-05
   2.940668357275681E-05   2.977657411704748E-05   3.015111731162487E-05
   3.053037167962514E-05   3.091439648031486E-05   3.130325171835047E-05
   3.169699815315400E-05   3.209569730840703E-05   3.249941148166370E-05
   3.290820375408495E-05   3.332213800029503E-05   3.374127889836205E-05
   3.416569193990413E-05   3.459544344032246E-05   3.503060054916333E-05
   3.547123126061030E-05   3.591740442410850E-05   3.636918975512252E-05
   3.682665784602948E-05   3.728988017714929E-05   3.775892912791362E-05
   3.823387798817531E-05   3.871480096966011E-05   3.920177321756229E-05
   3.969487082228634E-05   4.019417083133622E-05   4.069975126135414E-05
   4.121169111031096E-05   4.173007036984960E-05   4.225497003778402E-05
   4.278647213075525E-05   4.332465969704664E-05   4.386961682956041E-05
   4.442142867895725E-05   4.498018146696127E-05   4.554596249983238E-05
   4.611886018200805E-05   4.669896402991674E-05   4.728636468596488E-05
   4.788115393270007E-05   4.848342470715219E-05   4.909327111535507E-05
   4.971078844705080E-05   5.033607319057876E-05   5.096922304795229E-05
   5.161033695012476E-05   5.225951507244771E-05   5.291685885032351E-05
   5.358247099505491E-05   5.425645550989366E-05   5.493891770629146E-05
   5.562996422035495E-05   5.632970302950788E-05   5.703824346936287E-05
   5.775569625080517E-05   5.848217347729153E-05   5.921778866236662E-05
   5.996265674739969E-05   6.071689411954456E-05   6.148061862992509E-05
   6.225394961204984E-05   6.303700790045812E-05   6.382991584960056E-05
   6.463279735295755E-05   6.544577786239737E-05   6.626898440777868E-05
   6.710254561679900E-05   6.794659173509306E-05   6.880125464658421E-05
   6.966666789409111E-05   7.054296670019442E-05   7.143028798836543E-05
   7.232877040436059E-05   7.323855433788551E-05   7.415978194453072E-05
   7.509259716798404E-05   7.603714576252192E-05   7.699357531578389E-05
   7.796203527183368E-05   7.894267695450969E-05   7.993565359106996E-05
   8.094112033613417E-05   8.195923429592684E-05   8.299015455282567E-05
   8.403404219021816E-05   8.509106031767145E-05   8.616137409641851E-05
   8.724515076516471E-05   8.834255966621969E-05   8.945377227195685E-05
   9.057896221160662E-05   9.171830529838628E-05   9.287197955697109E-05
   9.404016525131124E-05   9.522304491279814E-05   9.642080336878541E-05
   9.763362777146875E-05   9.886170762712843E-05   1.001052348257407E-04
   1.013644036709601E-04   1.026394109104806E-04   1.039304557667773E-04
   1.052377399682357E-04   1.065614677806720E-04   1.079018460392501E-04
   1.092590841807998E-04   1.106333942765421E-04   1.120249910652254E-04
   1.134340919866794E-04   1.148609172157897E-04   1.163056896969014E-04
   1.177686351786539E-04   1.192499822492552E-04   1.207499623721990E-04
   1.222688099224312E-04   1.238067622229715E-04   1.253640595819960E-04
   1.269409453303852E-04   1.285376658597458E-04   1.301544706609089E-04
   1.317916123629141E-04   1.334493467724831E-04   1.351279329139900E-04
   1.368276330699348E-04   1.385487128219246E-04   1.402914410921725E-04
   1.420560901855162E-04   1.438429358319666E-04   1.456522572297916E-04
   1.474843370891406E-04   1.493394616762189E-04   1.512179208580177E-04
   1.531200081476057E-04   1.550460207499919E-04   1.569962596085639E-04
   1.589710294521111E-04   1.609706388424393E-04   1.629954002225837E-04
   1.650456299656298E-04   1.671216484241460E-04   1.692237799802401E-04
   1.713523530962446E-04   1.735077003660392E-04   1.756901585670204E-04
   1.779000687127221E-04   1.801377761061006E-04   1.824036303934888E-04
   1.846979856192290E-04   1.870212002809933E-04   1.893736373857991E-04
   1.917556645067300E-04   1.941676538403701E-04   1.966099822649598E-04
   1.990830313992846E-04   2.015871876623031E-04   2.041228423335262E-04
   2.066903916141550E-04   2.092902366889884E-04   2.119227837891086E-04
   2.145884442553563E-04   2.172876346026025E-04   2.200207765848303E-04
   2.227882972610354E-04   2.255906290619537E-04   2.284282098576308E-04
   2.313014830258389E-04   2.342108975213562E-04   2.371569079461171E-04
   2.401399746202439E-04   2.431605636539739E-04   2.462191470204888E-04
   2.493162026296623E-04   2.524522144027345E-04   2.556276723479251E-04
   2.588430726369987E-04   2.620989176827921E-04   2.653957162177178E-04
   2.687339833732544E-04   2.721142407604364E-04   2.755370165513581E-04
   2.790028455617004E-04   2.825122693342973E-04   2.860658362237534E-04
   2.896641014821249E-04   2.933076273456792E-04   2.969969831227453E-04
   3.007327452826694E-04   3.045154975458894E-04   3.083458309751424E-04
   3.122243440678199E-04   3.161516428494834E-04   3.201283409685575E-04
   3.241550597922142E-04   3.282324285034620E-04   3.323610841994576E-04
   3.365416719910532E-04   3.407748451035966E-04   3.450612649789995E-04
   3.494016013790877E-04   3.537965324902547E-04   3.582467450294279E-04
   3.627529343513705E-04   3.673158045573322E-04   3.719360686050655E-04
   3.766144484202285E-04   3.813516750091852E-04   3.861484885732279E-04
   3.910056386242355E-04   3.959238841017852E-04   4.009039934917393E-04
   4.059467449463220E-04   4.110529264057074E-04   4.162233357211376E-04
   4.214587807795871E-04   4.267600796299980E-04   4.321280606111013E-04
   4.375635624808462E-04   4.430674345474589E-04   4.486405368021473E-04
   4.542837400534774E-04   4.599979260634382E-04   4.657839876852194E-04
   4.716428290027215E-04   4.775753654718198E-04   4.835825240634078E-04
   4.896652434082372E-04   4.958244739435805E-04   5.020611780617404E-04
   5.083763302604237E-04   5.147709172950101E-04   5.212459383327334E-04
   5.278024051088041E-04   5.344413420844955E-04   5.411637866072167E-04
   5.479707890726019E-04   5.548634130886350E-04   5.618427356418412E-04
   5.689098472655697E-04   5.760658522103895E-04   5.833118686166319E-04
   5.906490286891032E-04   5.980784788739916E-04   6.056013800380046E-04
   6.132189076497541E-04   6.209322519634270E-04   6.287426182047661E-04
   6.366512267593861E-04   6.446593133634646E-04   6.527681292968258E-04
   6.609789415784563E-04   6.692930331644809E-04   6.777117031486243E-04
   6.862362669652001E-04   6.948680565946478E-04   7.036084207716582E-04
   7.124587251959170E-04   7.214203527454956E-04   7.304947036929324E-04
   7.396831959240242E-04   7.489872651593759E-04   7.584083651787355E-04
   7.679479680481478E-04   7.776075643499702E-04   7.873886634157772E-04
   7.972927935621971E-04   8.073215023297164E-04   8.174763567244827E-04
   8.277589434631561E-04   8.381708692208342E-04   8.487137608820997E-04
   8.593892657952248E-04   8.701990520295711E-04   8.811448086362313E-04
   8.922282459119438E-04   9.034510956663322E-04   9.148151114925044E-04
   9.263220690410525E-04   9.379737662975059E-04   9.497720238632655E-04
   9.617186852400795E-04   9.738156171180947E-04   9.860647096675273E-04
   9.984678768340102E-04   1.011027056637647E-03   1.023744211475834E-03
   1.036621328429888E-03   1.049660419575531E-03   1.062863522297284E-03
   1.076232699606808E-03   1.089770040465258E-03   1.103477660109686E-03
   1.117357700383548E-03   1.131412330071377E-03   1.145643745237656E-03
   1.160054169569959E-03   1.174645854726406E-03   1.189421080687488E-03
   1.204382156112325E-03   1.219531418699389E-03   1.234871235551780E-03
   1.250404003547092E-03   1.266132149711924E-03   1.282058131601114E-03
   1.298184437681736E-03   1.314513587721921E-03   1.331048133184586E-03
   1.347790657626100E-03   1.364743777099970E-03   1.381910140565605E-03
   1.399292430302220E-03   1.416893362327953E-03   1.434715686824242E-03
   1.452762188565548E-03   1.471035687354486E-03   1.489539038462418E-03
   1.508275133075601E-03   1.527246898746936E-03   1.546457299853409E-03
   1.565909338059275E-03   1.585606052785081E-03   1.605550521682575E-03
   1.625745861115599E-03   1.646195226647028E-03   1.666901813531831E-03
   1.687868857216337E-03   1.709099633843779E-03   1.730597460766199E-03
   1.752365697062791E-03   1.774407744064766E-03   1.796727045886810E-03
   1.819327089965245E-03   1.842211407602936E-03   1.865383574521073E-03
   1.888847211417882E-03   1.912605984534365E-03   1.936663606227158E-03
   1.961023835548596E-03   1.985690478834073E-03   2.010667390296786E-03
   2.035958472629969E-03   2.061567677616688E-03   2.087499006747328E-03
   2.113756511844821E-03   2.140344295697762E-03   2.167266512701470E-03
   2.194527369507124E-03   2.222131125679066E-03   2.250082094360355E-03
   2.278384642946716E-03   2.307043193768947E-03   2.336062224783920E-03
   2.365446270274271E-03   2.395199921556890E-03   2.425327827700325E-03
   2.455834696251206E-03   2.486725293969810E-03   2.518004447574879E-03
   2.549677044497801E-03   2.581748033646285E-03   2.614222426177633E-03
   2.647105296281748E-03   2.680401781973984E-03   2.714117085897974E-03
   2.748256476138549E-03   2.782825287044893E-03   2.817828920064039E-03
   2.853272844584863E-03   2.889162598792681E-03   2.925503790534608E-03
   2.962302098195790E-03   2.999563271586665E-03   3.037293132841385E-03
   3.075497577327532E-03   3.114182574567284E-03   3.153354169170168E-03
   3.193018481777532E-03   3.233181710018920E-03   3.273850129480458E-03
   3.315030094685428E-03   3.356728040087173E-03   3.398950481074499E-03
   3.441704014989710E-03   3.484995322159464E-03   3.528831166938585E-03
   3.573218398767002E-03   3.618163953239996E-03   3.663674853191896E-03
   3.709758209793411E-03   3.756421223662767E-03   3.803671185990821E-03
   3.851515479680313E-03   3.899961580499475E-03   3.949017058250123E-03
   3.998689577950462E-03   4.048986901032751E-03   4.099916886556055E-03
   4.151487492434229E-03   4.203706776679362E-03   4.256582898660860E-03
   4.310124120380359E-03   4.364338807762683E-03   4.419235431963035E-03
   4.474822570690637E-03   4.531108909549006E-03   4.588103243393105E-03
   4.645814477703553E-03   4.704251629978124E-03   4.763423831140754E-03
   4.823340326968261E-03   4.884010479535020E-03   4.945443768675801E-03
   5.007649793467022E-03   5.070638273726614E-03   5.134419051532771E-03
   5.199002092761786E-03   5.264397488645246E-03   5.330615457346807E-03
   5.397666345558801E-03   5.465560630118925E-03   5.534308919647276E-03
   5.603921956203960E-03   5.674410616967567E-03   5.745785915934755E-03
   5.818059005641200E-03   5.891241178904210E-03   5.965343870587246E-03
   6.040378659386648E-03   6.116357269640826E-03   6.193291573162209E-03
   6.271193591092248E-03   6.350075495779739E-03   6.429949612682774E-03
   6.510828422294627E-03   6.592724562093844E-03   6.675650828518892E-03
   6.759620178967612E-03   6.844645733821850E-03   6.930740778497538E-03
   7.017918765520569E-03   7.106193316628777E-03   7.195578224900372E-03
   7.286087456909125E-03   7.377735154906680E-03   7.470535639032309E-03
   7.564503409550459E-03   7.659653149116452E-03   7.755999725070683E-03
   7.853558191761657E-03   7.952343792898284E-03   8.052371963931720E-03
   8.153658334467196E-03   8.256218730706182E-03   8.360069177919248E-03
   8.465225902950057E-03   8.571705336750836E-03   8.679524116949755E-03
   8.788699090450573E-03   8.899247316065024E-03   9.011186067178269E-03
   9.124532834447910E-03   9.239305328536940E-03   9.355521482881067E-03
   9.473199456490850E-03   9.592357636789084E-03   9.713014642483869E-03
   9.835189326477825E-03   9.958900778813892E-03   1.008416832965819E-02
   1.021101155232039E-02   1.033945026631211E-02   1.046950454044372E-02
   1.060119469596014E-02   1.073454130971611E-02   1.086956521739131E-02
   1.100628751674603E-02   1.114472957091771E-02   1.128491301175897E-02
   1.142685974321766E-02   1.157059194475935E-02   1.171613207483296E-02
   1.186350287437992E-02   1.201272737038748E-02   1.216382887948675E-02
   1.231683101159594E-02   1.247175767360949E-02   1.262863307313352E-02
   1.278748172226838E-02   1.294832844143868E-02   1.311119836327153E-02
   1.327611693652359E-02   1.344310993005745E-02   1.361220343686810E-02
   1.378342387816000E-02   1.395679800747546E-02   1.413235291487491E-02
   1.431011603116981E-02   1.449011513220873E-02   1.467237834321743E-02
   1.485693414319345E-02   1.504381136935600E-02   1.523303922165189E-02
   1.542464726731802E-02   1.561866544550136E-02   1.581512407193698E-02
   1.601405384368496E-02   1.621548584392686E-02   1.641945154682253E-02
   1.662598282242804E-02   1.683511194167537E-02   1.704687158141488E-02
   1.726129482952113E-02   1.747841519006287E-02   1.769826658853816E-02
   1.792088337717531E-02   1.814630034030047E-02   1.837455269977274E-02
   1.860567612048766E-02   1.883970671594996E-02   1.907668105391630E-02
   1.931663616210912E-02   1.955960953400228E-02   1.980563913467945E-02
   2.005476340676631E-02   2.030702127643721E-02   2.056245215949750E-02
   2.082109596754236E-02   2.108299311419299E-02   2.134818452141139E-02
   2.161671162589449E-02   2.188861638554867E-02   2.216394128604583E-02
   2.244272934746182E-02   2.272502413099844E-02   2.301086974578995E-02
   2.330031085579522E-02   2.359339268677656E-02   2.389016103336633E-02
   2.419066226622249E-02   2.449494333927402E-02   2.480305179705766E-02
   2.511503578214680E-02   2.543094404267383E-02   2.575082593994719E-02
   2.607473145616412E-02   2.640271120222053E-02   2.673481642561903E-02
   2.707109901847643E-02   2.741161152563206E-02   2.775640715285791E-02
   2.810553977517225E-02   2.845906394525763E-02   2.881703490198487E-02
   2.917950857904425E-02   2.954654161368529E-02   2.991819135556636E-02
   3.029451587571578E-02   3.067557397560545E-02   3.106142519633875E-02
   3.145212982795394E-02   3.184774891884459E-02   3.224834428529857E-02
   3.265397852115690E-02   3.306471500759418E-02   3.348061792302209E-02
   3.390175225311732E-02   3.432818380097575E-02   3.475997919739432E-02
   3.519720591128220E-02   3.563993226020299E-02   3.608822742104945E-02
   3.654216144085250E-02   3.700180524772632E-02   3.746723066195083E-02
   3.793851040719394E-02   3.841571812187469E-02   3.889892837066935E-02
   3.938821665616243E-02   3.988365943064398E-02   4.038533410805550E-02
   4.089331907608600E-02   4.140769370842024E-02   4.192853837714105E-02
   4.245593446528755E-02   4.298996437957151E-02   4.353071156325355E-02
   4.407826050918127E-02   4.463269677299146E-02   4.519410698647837E-02
   4.576257887113003E-02   4.633820125183499E-02   4.692106407076137E-02
   4.751125840141044E-02   4.810887646284713E-02   4.871401163410943E-02
   4.932675846879896E-02   4.994721270985534E-02   5.057547130451601E-02
   5.121163241946460E-02   5.185579545616963E-02   5.250806106641610E-02
   5.316853116803268E-02   5.383730896081650E-02   5.451449894265828E-02
   5.520020692587047E-02   5.589454005372052E-02   5.659760681717230E-02
   5.730951707183798E-02   5.803038205514325E-02   5.876031440370837E-02
   5.949942817094785E-02   6.024783884489159E-02   6.100566336623000E-02
   6.177302014658637E-02   6.255002908701884E-02   6.333681159675518E-02
   6.413349061216325E-02   6.494019061596008E-02   6.575703765666249E-02
   6.658415936828249E-02   6.742168499027031E-02   6.826974538770834E-02
   6.912847307175908E-02   6.999800222037024E-02   7.087846869924039E-02
   7.177001008304815E-02   7.267276567694862E-02   7.358687653833999E-02
   7.451248549890414E-02   7.544973718692433E-02   7.639877804988365E-02
   7.735975637734781E-02   7.833282232413556E-02   7.931812793378082E-02
   8.031582716228970E-02   8.132607590219655E-02   8.234903200692227E-02
   8.338485531543950E-02   8.443370767724759E-02   8.549575297766190E-02
   8.657115716342148E-02   8.766008826861821E-02   8.876271644095278E-02
   8.987921396832037E-02   9.100975530573117E-02   9.215451710256932E-02
   9.331367823019453E-02   9.448741980989139E-02   9.567592524116970E-02
   9.687938023042110E-02   9.809797281993617E-02   9.933189341728617E-02
   1.005813348250750E-01   1.018464922710645E-01   1.031275634386797E-01
   1.044247484978968E-01   1.057382501365205E-01   1.070682735918542E-01
   1.084150266827688E-01   1.097787198421745E-01   1.111595661499022E-01
   1.125577813659967E-01   1.139735839644302E-01   1.154071951672393E-01
   1.168588389790909E-01   1.183287422222842E-01   1.198171345721914E-01
   1.213242485931454E-01   1.228503197747781E-01   1.243955865688166E-01
   1.259602904263413E-01   1.275446758355132E-01   1.291489903597761E-01
   1.307734846765385E-01   1.324184126163422E-01   1.340840312025246E-01
   1.357706006913784E-01   1.374783846128178E-01   1.392076498115548E-01
   1.409586664887950E-01   1.427317082444568E-01   1.445270521199216E-01
   1.463449786413228E-01   1.481857718633779E-01   1.500497194137728E-01
   1.519371125381048E-01   1.538482461453892E-01   1.557834188541406E-01
   1.577429330390318E-01   1.597270948781407E-01   1.617362144007918E-01
   1.637706055359977E-01   1.658305861615127E-01   1.679164781535003E-01
   1.700286074368280E-01   1.721673040359938E-01   1.743329021266921E-01
   1.765257400880309E-01   1.787461605554028E-01   1.809945104740234E-01
   1.832711411531417E-01   1.855764083209333E-01   1.879106721800831E-01
   1.902742974640684E-01   1.926676534941484E-01   1.950911142370723E-01
   1.975450583635116E-01   2.000298693072289E-01   2.025459353249893E-01
   2.050936495572271E-01   2.076734100894745E-01   2.102856200145632E-01
   2.129306874956087E-01   2.156090258297862E-01   2.183210535129095E-01
   2.210671943048220E-01   2.238478772956091E-01   2.266635369726458E-01
   2.295146132884851E-01   2.324015517296017E-01   2.353248033860007E-01
   2.382848250217008E-01   2.412820791461049E-01   2.443170340862677E-01
   2.473901640600732E-01   2.505019492503325E-01   2.536528758798122E-01
   2.568434362872090E-01   2.600741290040777E-01   2.633454588327281E-01
   2.666579369251018E-01   2.700120808626397E-01   2.734084147371563E-01
   2.768474692327293E-01   2.803297817086204E-01   2.838558962832389E-01
   2.874263639191609E-01   2.910417425092189E-01   2.947025969636729E-01
   2.984094992984795E-01   3.021630287246704E-01   3.059637717388549E-01
   3.098123222148619E-01   3.137092814965330E-01   3.176552584916842E-01
   3.216508697672497E-01   3.256967396456198E-01   3.297935003021950E-01
   3.339417918641623E-01   3.381422625105182E-01   3.423955685733473E-01
   3.467023746403752E-01   3.510633536588119E-01   3.554791870405019E-01
   3.599505647683948E-01   3.644781855043582E-01   3.690627566983431E-01
   3.737049946989261E-01   3.784056248652397E-01   3.831653816803104E-01
   3.879850088658249E-01   3.928652594983364E-01   3.978068961269349E-01
   4.028106908923977E-01   4.078774256478371E-01   4.130078920808672E-01
   4.182028918373060E-01   4.234632366464346E-01   4.287897484478321E-01
   4.341832595198039E-01   4.396446126094284E-01   4.451746610642372E-01
   4.507742689655519E-01   4.564443112635001E-01   4.621856739137261E-01
   4.679992540158254E-01   4.738859599535166E-01   4.798467115365788E-01
   4.858824401445745E-01   4.919940888723781E-01   4.981826126775380E-01
   5.044489785294891E-01   5.107941655606446E-01   5.172191652193880E-01
   5.237249814249874E-01   5.303126307244613E-01   5.369831424514154E-01
   5.437375588868779E-01   5.505769354221595E-01   5.575023407237579E-01
   5.645148569003421E-01   5.716155796718312E-01   5.788056185406049E-01
   5.860860969648648E-01   5.934581525341770E-01   6.009229371472221E-01
   6.084816171917843E-01   6.161353737269980E-01   6.238854026678939E-01
   6.317329149722613E-01   6.396791368298631E-01   6.477253098540325E-01
   6.558726912756739E-01   6.641225541397106E-01   6.724761875039994E-01
   6.809348966407485E-01   6.895000032404711E-01   6.981728456184989E-01
   7.069547789240980E-01   7.158471753522148E-01   7.248514243578827E-01
   7.339689328733278E-01   7.432011255278060E-01   7.525494448702027E-01
   7.620153515944340E-01   7.716003247676840E-01   7.813058620615116E-01
   7.911334799858660E-01   8.010847141260418E-01   8.111611193826194E-01
   8.213642702144205E-01   8.316957608845206E-01   8.421572057093576E-01
   8.527502393109690E-01   8.634765168724066E-01   8.743377143963621E-01
   8.853355289670450E-01   8.964716790153591E-01   9.077479045874052E-01
   9.191659676163704E-01   9.307276521978333E-01   9.424347648685315E-01
   9.542891348886396E-01   9.662926145275905E-01   9.784470793534988E-01
   9.907544285262222E-01   1.003216585094107E+00   1.015835496294475E+00
   1.028613133857871E+00   1.041551494316163E+00   1.054652599314494E+00
   1.067918495927175E+00   1.081351256977542E+00   1.094952981361838E+00
   1.108725794377172E+00   1.122671848053596E+00   1.136793321490372E+00
   1.151092421196456E+00   1.165571381435267E+00   1.180232464573801E+00
   1.195077961436126E+00   1.210110191661330E+00   1.225331504065970E+00
   1.240744277011077E+00   1.256350918773780E+00   1.272153867923608E+00
   1.288155593703515E+00   1.304358596415712E+00   1.320765407812337E+00
   1.337378591491051E+00   1.354200743295603E+00   1.371234491721437E+00
   1.388482498326401E+00   1.405947458146619E+00   1.423632100117595E+00
   1.441539187500616E+00   1.459671518314517E+00   1.478031925772880E+00
   1.496623278726725E+00   1.515448482112775E+00   1.534510477407359E+00
   1.553812243086022E+00   1.573356795088924E+00   1.593147187292078E+00
   1.613186511984530E+00   1.633477900351533E+00   1.654024522963800E+00
   1.674829590272921E+00   1.695896353112990E+00   1.717228103208561E+00
   1.738828173688986E+00   1.760699939609221E+00   1.782846818477194E+00
   1.805272270787784E+00   1.827979800563539E+00   1.850972955902186E+00
   1.874255329531025E+00   1.897830559368308E+00   1.921702329091657E+00
   1.945874368713661E+00   1.970350455164689E+00   1.995134412883043E+00
   2.020230114412545E+00   2.045641481007614E+00   2.071372483245980E+00
   2.097427141649093E+00   2.123809527310336E+00   2.150523762531147E+00
   2.177574021465129E+00   2.204964530770273E+00   2.232699570269384E+00
   2.260783473618811E+00   2.289220628985593E+00   2.318015479733109E+00
   2.347172525115373E+00   2.376696320980046E+00   2.406591480480295E+00
   2.436862674795620E+00   2.467514633861719E+00   2.498552147109555E+00
   2.529980064213721E+00   2.561803295850202E+00   2.594026814463692E+00
   2.626655655044530E+00   2.659694915915441E+00   2.693149759528155E+00
   2.727025413270050E+00   2.761327170280946E+00   2.796060390280163E+00
   2.831230500403989E+00   2.866842996053688E+00   2.902903441754154E+00
   2.939417472023400E+00   2.976390792252941E+00   3.013829179599285E+00
   3.051738483886625E+00   3.090124628520880E+00   3.128993611415251E+00
   3.168351505927393E+00   3.208204461808397E+00   3.248558706163702E+00
   3.289420544426085E+00   3.330796361340916E+00   3.372692621963765E+00
   3.415115872670592E+00   3.458072742180631E+00   3.501569942592136E+00
   3.545614270431174E+00   3.590212607713575E+00   3.635371923020275E+00
   3.681099272586169E+00   3.727401801402656E+00   3.774286744334074E+00
   3.821761427248139E+00   3.869833268160646E+00   3.918509778394540E+00
   3.967798563753575E+00   4.017707325710749E+00   4.068243862611654E+00
   4.119416070892998E+00   4.171231946316437E+00   4.223699585217922E+00
   4.276827185772784E+00   4.330623049276695E+00   4.385095581442777E+00
   4.440253293715005E+00   4.496104804598139E+00   4.552658841004391E+00
   4.609924239617007E+00   4.667909948271025E+00   4.726625027351398E+00
   4.786078651208684E+00   4.846280109592578E+00   4.907238809103430E+00
   4.968964274662058E+00   5.031466150998039E+00   5.094754204156707E+00
   5.158838323025136E+00   5.223728520877276E+00   5.289434936938561E+00
   5.355967837970183E+00   5.423337619873283E+00   5.491554809313359E+00
   5.560630065365046E+00   5.630574181177635E+00   5.701398085661526E+00
   5.773112845195882E+00   5.845729665357793E+00   5.919259892673146E+00
   5.993715016389557E+00   6.069106670271587E+00   6.145446634418534E+00
   6.222746837105124E+00   6.301019356645287E+00   6.380276423279450E+00
   6.460530421085524E+00   6.541793889913937E+00   6.624079527347040E+00
   6.707400190683083E+00   6.791768898945233E+00   6.877198834915805E+00
   6.963703347196097E+00   7.051295952292157E+00   7.139990336726737E+00
   7.229800359177852E+00   7.320740052644233E+00   7.412823626637994E+00
   7.506065469404932E+00   7.600480150172672E+00   7.696082421427175E+00
   7.792887221217825E+00   7.890909675491536E+00   7.990165100456232E+00
   8.090669004973989E+00   8.192437092984369E+00   8.295485265958170E+00
   8.399829625382065E+00   8.505486475274520E+00   8.612472324733284E+00
   8.720803890514997E+00   8.830498099647217E+00   8.941572092073287E+00
   9.054043223330522E+00   9.167929067261994E+00   9.283247418762526E+00
   9.400016296559150E+00   9.518253946026586E+00   9.637978842038136E+00
   9.759209691852373E+00   9.881965438036229E+00   1.000626526142479E+01
   1.013212858411835E+01   1.025957507251716E+01   1.038862464039432E+01
   1.051929745200736E+01   1.065161392524896E+01   1.078559473483724E+01
   1.092126081554632E+01   1.105863336547730E+01   1.119773384937059E+01
   1.133858400195983E+01   1.148120583136788E+01   1.162562162254580E+01