<UPF version="2.0.1">
  <PP_INFO>
    Generated using "atomic" code by A. Dal Corso  v.7.2
    Author: ADC
    Generation date:  9Jun2023
    Pseudopotential type: USPP
    Element:  Y
    Functional: PBESOL
    Suggested minimum cutoff for wavefunctions:  38. Ry
    Suggested minimum cutoff for charge density: 257. Ry
    The Pseudo was generated with a Scalar-Relativistic Calculation
    Local Potential by smoothing AE potential with Bessel fncs, cutoff radius:   1.6000
    Valence configuration: 
    nl pn  l   occ       Rcut    Rcut US       E pseu
    4S  1  0  2.00      1.200      1.400    -3.524233
    5S  2  0  2.00      1.200      1.400    -0.302797
    4P  2  1  6.00      1.300      1.600    -2.049651
    5P  3  1  0.00      1.300      1.600    -0.104676
    4D  3  2  1.00      1.200      1.800    -0.185658
    Generation configuration:
    4S  1  0  2.00      1.200      1.400    -3.524271
    5S  2  0  2.00      1.200      1.400    -0.302807
    4P  2  1  6.00      1.300      1.600    -2.049679
    5P  3  1  0.00      1.300      1.600    -0.104680
    4D  3  2  1.00      1.200      1.800    -0.185676
    4D  3  2  0.00      1.200      1.800     0.500000
    Pseudization used: troullier-martins
    <PP_INPUTFILE>
@input
title='Y',
zed=39.,
rel=1,
config='[Kr] 5s2 5p0 4d1',
iswitch=3,
dft='PBESOL'
/
@inputp
lpaw=.false.,
pseudotype=3,
file_pseudopw='Y.pbesol-spn-rrkjus_psl.1.0.0.UPF',
author='ADC',
lloc=-1,
rcloc=1.6,
which_augfun='PSQ',
rmatch_augfun_nc=.true.,
nlcc=.true.,
new_core_ps=.true.,
rcore=1.2,
tm=.true.
/
6
4S  1  0  2.00  0.00  1.20  1.40  0.0
5S  2  0  2.00  0.00  1.20  1.40  0.0
4P  2  1  6.00  0.00  1.30  1.60  0.0
5P  3  1  0.00  0.00  1.30  1.60  0.0
4D  3  2  1.00  0.00  1.20  1.80  0.0
4D  3  2  0.00  0.50  1.20  1.80  0.0
    </PP_INPUTFILE>
  </PP_INFO>
    <!-- END OF HUMAN READABLE SECTION -->
  <PP_HEADER generated="Generated using 'atomic' code by A. Dal Corso  v.7.2" author="ADC" date=" 9Jun2023" comment="" element=" Y" pseudo_type="USPP" relativistic="scalar" is_ultrasoft="true" is_paw="false" is_coulomb="false" has_so="false" has_wfc="false" has_gipaw="false" paw_as_gipaw="false" core_correction="true" functional="PBESOL" z_valence="11.0000000000000" total_psenergy="-83.0790951143225" wfc_cutoff="38.0167984266340" rho_cutoff="256.880902500106" l_max="2" l_max_rho="4" l_local="-1" mesh_size="1223" number_of_wfc="5" number_of_proj="6"/>
  <PP_MESH mesh="1223" dx="1.250000000000000E-002" xmin="-7.00000000000000" rmax="100.000000000000" zmesh="39.0000000000000">
    <PP_R>
   2.338158886037221E-05   2.367569304279544E-05   2.397349660042518E-05
   2.427504606567318E-05   2.458038855625692E-05   2.488957178256177E-05
   2.520264405509586E-05   2.551965429203875E-05   2.584065202688488E-05
   2.616568741618345E-05   2.649481124737531E-05   2.682807494672868E-05
   2.716553058737462E-05   2.750723089744351E-05   2.785322926830405E-05
   2.820357976290560E-05   2.855833712422573E-05   2.891755678382391E-05
   2.928129487050276E-05   2.964960821907840E-05   3.002255437926088E-05
   3.040019162464648E-05   3.078257896182310E-05   3.116977613959012E-05
   3.156184365829439E-05   3.195884277928332E-05   3.236083553447729E-05
   3.276788473606216E-05   3.318005398630379E-05   3.359740768748616E-05
   3.402001105197414E-05   3.444793011240325E-05   3.488123173199728E-05
   3.531998361501582E-05   3.576425431733330E-05   3.621411325715081E-05
   3.666963072584294E-05   3.713087789894091E-05   3.759792684725393E-05
   3.807085054813043E-05   3.854972289686083E-05   3.903461871822388E-05
   3.952561377817821E-05   4.002278479570083E-05   4.052620945477480E-05
   4.103596641652729E-05   4.155213533152069E-05   4.207479685219810E-05
   4.260403264548548E-05   4.313992540555234E-05   4.368255886673266E-05
   4.423201781660878E-05   4.478838810925948E-05   4.535175667867489E-05
   4.592221155234025E-05   4.649984186499013E-05   4.708473787253608E-05
   4.767699096616926E-05   4.827669368664045E-05   4.888393973871991E-05
   4.949882400583870E-05   5.012144256491454E-05   5.075189270136402E-05
   5.139027292430357E-05   5.203668298194190E-05   5.269122387716561E-05
   5.335399788332126E-05   5.402510856019574E-05   5.470466077019764E-05
   5.539276069474242E-05   5.608951585084321E-05   5.679503510791069E-05
   5.750942870476419E-05   5.823280826685659E-05   5.896528682371631E-05
   5.970697882660804E-05   6.045800016641623E-05   6.121846819175317E-05
   6.198850172729495E-05   6.276822109234828E-05   6.355774811965021E-05
   6.435720617440508E-05   6.516672017356047E-05   6.598641660532564E-05
   6.681642354893585E-05   6.765687069466466E-05   6.850788936408848E-05
   6.936961253060581E-05   7.024217484021457E-05   7.112571263255099E-05
   7.202036396219264E-05   7.292626862022994E-05   7.384356815610879E-05
   7.477240589974789E-05   7.571292698393453E-05   7.666527836700154E-05
   7.762960885579014E-05   7.860606912890110E-05   7.959481176023868E-05
   8.059599124285078E-05   8.160976401306838E-05   8.263628847494940E-05
   8.367572502502945E-05   8.472823607738416E-05   8.579398608900698E-05
   8.687314158550543E-05   8.796587118712140E-05   8.907234563507830E-05
   9.019273781825970E-05   9.132722280022384E-05   9.247597784655720E-05
   9.363918245257291E-05   9.481701837135723E-05   9.600966964216872E-05
   9.721732261919507E-05   9.844016600067086E-05   9.967839085836232E-05
   1.009321906674226E-04   1.022017613366228E-04   1.034873012389630E-04
   1.047890112426684E-04   1.061070947425753E-04   1.074417576919123E-04
   1.087932086344805E-04   1.101616587372395E-04   1.115473218233018E-04
   1.129504144053437E-04   1.143711557194359E-04   1.158097677592991E-04
   1.172664753109916E-04   1.187415059880319E-04   1.202350902669644E-04
   1.217474615233712E-04   1.232788560683382E-04   1.248295131853785E-04
   1.263996751678218E-04   1.279895873566722E-04   1.295994981789439E-04
   1.312296591864783E-04   1.328803250952493E-04   1.345517538251637E-04
   1.362442065403609E-04   1.379579476900210E-04   1.396932450496854E-04
   1.414503697630967E-04   1.432295963845667E-04   1.450312029218746E-04
   1.468554708797073E-04   1.487026853036448E-04   1.505731348246988E-04
   1.524671117044127E-04   1.543849118805271E-04   1.563268350132215E-04
   1.582931845319361E-04   1.602842676827836E-04   1.623003955765576E-04
   1.643418832373432E-04   1.664090496517407E-04   1.685022178187082E-04
   1.706217148000301E-04   1.727678717714222E-04   1.749410240742776E-04
   1.771415112680649E-04   1.793696771833850E-04   1.816258699756953E-04
   1.839104421797102E-04   1.862237507644844E-04   1.885661571891907E-04
   1.909380274595986E-04   1.933397321852633E-04   1.957716466374349E-04
   1.982341508076941E-04   2.007276294673275E-04   2.032524722274488E-04
   2.058090735998758E-04   2.083978330587746E-04   2.110191551030777E-04
   2.136734493196874E-04   2.163611304474753E-04   2.190826184420856E-04
   2.218383385415547E-04   2.246287213327546E-04   2.274542028186733E-04
   2.303152244865417E-04   2.332122333768158E-04   2.361456821530292E-04
   2.391160291725212E-04   2.421237385580567E-04   2.451692802703465E-04
   2.482531301814791E-04   2.513757701492777E-04   2.545376880925901E-04
   2.577393780675279E-04   2.609813403446635E-04   2.642640814871985E-04
   2.675881144301155E-04   2.709539585603245E-04   2.743621397978187E-04
   2.778131906778503E-04   2.813076504341404E-04   2.848460650831360E-04
   2.884289875093247E-04   2.920569775516251E-04   2.957306020908624E-04
   2.994504351383447E-04   3.032170579255543E-04   3.070310589949647E-04
   3.108930342920025E-04   3.148035872581653E-04   3.187633289253098E-04
   3.227728780111281E-04   3.268328610158223E-04   3.309439123199967E-04
   3.351066742837819E-04   3.393217973472033E-04   3.435899401318161E-04
   3.479117695436137E-04   3.522879608772345E-04   3.567191979214777E-04
   3.612061730661467E-04   3.657495874102373E-04   3.703501508714841E-04
   3.750085822972877E-04   3.797256095770362E-04   3.845019697558385E-04
   3.893384091496909E-04   3.942356834620880E-04   3.991945579021049E-04
   4.042158073039616E-04   4.093002162480925E-04   4.144485791837403E-04
   4.196617005530879E-04   4.249403949169553E-04   4.302854870820762E-04
   4.356978122299761E-04   4.411782160474714E-04   4.467275548588080E-04
   4.523466957594657E-04   4.580365167516423E-04   4.637979068814435E-04
   4.696317663777995E-04   4.755390067931252E-04   4.815205511457541E-04
   4.875773340641604E-04   4.937103019329982E-04   4.999204130409742E-04
   5.062086377305841E-04   5.125759585497290E-04   5.190233704052408E-04
   5.255518807183399E-04   5.321625095820447E-04   5.388562899205649E-04
   5.456342676506968E-04   5.524975018452506E-04   5.594470648985326E-04
   5.664840426939088E-04   5.736095347734770E-04   5.808246545098711E-04
   5.881305292802290E-04   5.955283006423480E-04   6.030191245130540E-04
   6.106041713488175E-04   6.182846263286378E-04   6.260616895392317E-04
   6.339365761625486E-04   6.419105166656448E-04   6.499847569929473E-04
   6.581605587609342E-04   6.664391994552654E-04   6.748219726303927E-04
   6.833101881116791E-04   6.919051722000637E-04   7.006082678792967E-04
   7.094208350257841E-04   7.183442506210724E-04   7.273799089670026E-04
   7.365292219035752E-04   7.457936190295506E-04   7.551745479258279E-04
   7.646734743816336E-04   7.742918826235513E-04   7.840312755474383E-04
   7.938931749532536E-04   8.038791217828433E-04   8.139906763607168E-04
   8.242294186378479E-04   8.345969484385495E-04   8.450948857104453E-04
   8.557248707775918E-04   8.664885645967835E-04   8.773876490170777E-04
   8.884238270425904E-04   8.995988230985907E-04   9.109143833009478E-04
   9.223722757289659E-04   9.339742907016471E-04   9.457222410574362E-04
   9.576179624374775E-04   9.696633135724380E-04   9.818601765729401E-04
   9.942104572236413E-04   1.006716085281021E-03   1.019379014774906E-03
   1.032201224313791E-03   1.045184717394006E-03   1.058331522712758E-03
   1.071643694485126E-03   1.085123312765034E-03   1.098772483770261E-03
   1.112593340211548E-03   1.126588041625831E-03   1.140758774713680E-03
   1.155107753680970E-03   1.169637220584857E-03   1.184349445684106E-03
   1.199246727793820E-03   1.214331394644639E-03   1.229605803246448E-03
   1.245072340256666E-03   1.260733422353169E-03   1.276591496611896E-03
   1.292649040889215E-03   1.308908564209088E-03   1.325372607155113E-03
   1.342043742267498E-03   1.358924574445021E-03   1.376017741352055E-03
   1.393325913830705E-03   1.410851796318134E-03   1.428598127269139E-03
   1.446567679584035E-03   1.464763261041930E-03   1.483187714739448E-03
   1.501843919534962E-03   1.520734790498429E-03   1.539863279366871E-03
   1.559232375005589E-03   1.578845103875186E-03   1.598704530504447E-03
   1.618813757969190E-03   1.639175928377118E-03   1.659794223358784E-03
   1.680671864564727E-03   1.701812114168861E-03   1.723218275378200E-03
   1.744893692948980E-03   1.766841753709297E-03   1.789065887088299E-03
   1.811569565652041E-03   1.834356305646084E-03   1.857429667544910E-03
   1.880793256608260E-03   1.904450723444459E-03   1.928405764580831E-03
   1.952662123041291E-03   1.977223588931199E-03   2.002094000029569E-03
   2.027277242388735E-03   2.052777250941552E-03   2.078598010116238E-03
   2.104743554458944E-03   2.131217969264168E-03   2.158025391213087E-03
   2.185170009019919E-03   2.212656064086424E-03   2.240487851164626E-03
   2.268669719027880E-03   2.297206071150377E-03   2.326101366395193E-03
   2.355360119710998E-03   2.384986902837526E-03   2.414986345019915E-03
   2.445363133732042E-03   2.476122015408944E-03   2.507267796188464E-03
   2.538805342662214E-03   2.570739582635994E-03   2.603075505899772E-03
   2.635818165007344E-03   2.668972676065813E-03   2.702544219534984E-03
   2.736538041036826E-03   2.770959452175111E-03   2.805813831365357E-03
   2.841106624675229E-03   2.876843346675482E-03   2.913029581301635E-03
   2.949670982726472E-03   2.986773276243512E-03   3.024342259161603E-03
   3.062383801710761E-03   3.100903847959402E-03   3.139908416743127E-03
   3.179403602605160E-03   3.219395576748648E-03   3.259890588000914E-03
   3.300894963789852E-03   3.342415111132608E-03   3.384457517636672E-03
   3.427028752513601E-03   3.470135467605454E-03   3.513784398424166E-03
   3.557982365203982E-03   3.602736273967132E-03   3.648053117602913E-03
   3.693939976960341E-03   3.740404021954549E-03   3.787452512687099E-03
   3.835092800580387E-03   3.883332329526323E-03   3.932178637049448E-03
   3.981639355484692E-03   4.031722213169940E-03   4.082435035653597E-03
   4.133785746917354E-03   4.185782370614319E-03   4.238433031322732E-03
   4.291745955815450E-03   4.345729474345388E-03   4.400392021947148E-03
   4.455742139755004E-03   4.511788476337476E-03   4.568539789048680E-03
   4.626004945396688E-03   4.684192924429094E-03   4.743112818136008E-03
   4.802773832870695E-03   4.863185290788085E-03   4.924356631301389E-03
   4.986297412557015E-03   5.049017312928054E-03   5.112526132526544E-03
   5.176833794734756E-03   5.241950347755746E-03   5.307885966183402E-03
   5.374650952592253E-03   5.442255739147260E-03   5.510710889233863E-03
   5.580027099108537E-03   5.650215199570100E-03   5.721286157652048E-03
   5.793251078336178E-03   5.866121206287757E-03   5.939907927612535E-03
   6.014622771635838E-03   6.090277412704057E-03   6.166883672008776E-03
   6.244453519433866E-03   6.322999075425809E-03   6.402532612887529E-03
   6.483066559096065E-03   6.564613497644363E-03   6.647186170407477E-03
   6.730797479533522E-03   6.815460489459657E-03   6.901188428953433E-03
   6.987994693179813E-03   7.075892845794185E-03   7.164896621061728E-03
   7.255019926003408E-03   7.346276842568978E-03   7.438681629837319E-03
   7.532248726244434E-03   7.626992751839505E-03   7.722928510569287E-03
   7.820070992591265E-03   7.918435376615896E-03   8.018037032278305E-03
   8.118891522539829E-03   8.221014606119762E-03   8.324422239957687E-03
   8.429130581706775E-03   8.535155992258453E-03   8.642515038298831E-03
   8.751224494897276E-03   8.861301348127553E-03   8.972762797721936E-03
   9.085626259758688E-03   9.199909369383377E-03   9.315629983564394E-03
   9.432806183883140E-03   9.551456279359310E-03   9.671598809311720E-03
   9.793252546255104E-03   9.916436498833368E-03   1.004116991478972E-02
   1.016747228397418E-02   1.029536334138889E-02   1.042486307027178E-02
   1.055599170521894E-02   1.068876973534637E-02   1.082321790749143E-02
   1.095935722945453E-02   1.109720897328173E-02   1.123679467858845E-02
   1.137813615592513E-02   1.152125549018517E-02   1.166617504405574E-02
   1.181291746151195E-02   1.196150567135509E-02   1.211196289079525E-02
   1.226431262907908E-02   1.241857869116314E-02   1.257478518143349E-02
   1.273295650747204E-02   1.289311738387029E-02   1.305529283609101E-02
   1.321950820437857E-02   1.338578914771836E-02   1.355416164784609E-02
   1.372465201330745E-02   1.389728688356891E-02   1.407209323318017E-02
   1.424909837598901E-02   1.442832996940913E-02   1.460981601874162E-02
   1.479358488155095E-02   1.497966527209580E-02   1.516808626581577E-02
   1.535887730387450E-02   1.555206819775984E-02   1.574768913394200E-02
   1.594577067859027E-02   1.614634378234898E-02   1.634943978517368E-02
   1.655509042122801E-02   1.676332782384224E-02   1.697418453053421E-02
   1.718769348809332E-02   1.740388805772858E-02   1.762280202028135E-02
   1.784446958150365E-02   1.806892537740291E-02   1.829620447965392E-02
   1.852634240107878E-02   1.875937510119595E-02   1.899533899183893E-02
   1.923427094284570E-02   1.947620828781971E-02   1.972118882996336E-02
   1.996925084798475E-02   2.022043310207889E-02   2.047477483998403E-02
   2.073231580311417E-02   2.099309623276877E-02   2.125715687642053E-02
   2.152453899408225E-02   2.179528436475381E-02   2.206943529295021E-02
   2.234703461531175E-02   2.262812570729733E-02   2.291275248996195E-02
   2.320095943681949E-02   2.349279158079174E-02   2.378829452124495E-02
   2.408751443111477E-02   2.439049806412088E-02   2.469729276207236E-02
   2.500794646226495E-02   2.532250770497133E-02   2.564102564102565E-02
   2.596355003950346E-02   2.629013129549819E-02   2.662082043799553E-02
   2.695566913784678E-02   2.729472971584256E-02   2.763805515088800E-02
   2.798569908828083E-02   2.833771584809354E-02   2.869416043366105E-02
   2.905508854017505E-02   2.942055656338648E-02   2.979062160841752E-02
   3.016534149868438E-02   3.054477478493227E-02   3.092898075438413E-02
   3.131801944000437E-02   3.171195162987911E-02   3.211083887671448E-02
   3.251474350745436E-02   3.292372863301903E-02   3.333785815816645E-02
   3.375719679147749E-02   3.418181005546675E-02   3.461176429682061E-02
   3.504712669676403E-02   3.548796528155774E-02   3.593434893312753E-02
   3.638634739982712E-02   3.684403130733654E-02   3.730747216969749E-02
   3.777674240048759E-02   3.825191532413515E-02   3.873306518737624E-02
   3.922026717085588E-02   3.971359740087523E-02   4.021313296128640E-02
   4.071895190553702E-02   4.123113326886624E-02   4.174975708065412E-02
   4.227490437692638E-02   4.280665721301650E-02   4.334509867638698E-02
   4.389031289961193E-02   4.444238507352297E-02   4.500140146052050E-02
   4.556744940805229E-02   4.614061736226178E-02   4.672099488180794E-02
   4.730867265185899E-02   4.790374249826213E-02   4.850629740189154E-02
   4.911643151317684E-02   4.973424016681423E-02   5.035981989666276E-02
   5.099326845082802E-02   5.163468480693532E-02   5.228416918759528E-02
   5.294182307606377E-02   5.360774923209888E-02   5.428205170801732E-02
   5.496483586495282E-02   5.565620838931906E-02   5.635627730947956E-02
   5.706515201262741E-02   5.778294326187716E-02   5.850976321357191E-02
   5.924572543480782E-02   5.999094492117928E-02   6.074553811474721E-02
   6.150962292223331E-02   6.228331873344331E-02   6.306674643992181E-02
   6.386002845384184E-02   6.466328872713203E-02   6.547665277084432E-02
   6.630024767476532E-02   6.713420212727442E-02   6.797864643545148E-02
   6.883371254543773E-02   6.969953406305247E-02   7.057624627466937E-02
   7.146398616835517E-02   7.236289245527440E-02   7.327310559136321E-02
   7.419476779927595E-02   7.512802309060776E-02   7.607301728839663E-02
   7.702989804990858E-02   7.799881488970936E-02   7.897991920302648E-02
   7.997336428940496E-02   8.097930537666075E-02   8.199789964513531E-02
   8.302930625225545E-02   8.407368635740194E-02   8.513120314709099E-02
   8.620202186047257E-02   8.728630981514926E-02   8.838423643331990E-02
   8.949597326825239E-02   9.062169403108901E-02   9.176157461798924E-02
   9.291579313761394E-02   9.408452993895502E-02   9.526796763951553E-02
   9.646629115384389E-02   9.767968772242724E-02   9.890834694094811E-02
   1.001524607899091E-01   1.014122236646302E-01   1.026878324056237E-01
   1.039794863293507E-01   1.052873872593645E-01   1.066117395578464E-01
   1.079527501575375E-01   1.093106285940723E-01   1.106855870387191E-01
   1.120778403315323E-01   1.134876060149214E-01   1.149151043676428E-01
   1.163605584392181E-01   1.178241940847869E-01   1.193062400003967E-01
   1.208069277587370E-01   1.223264918453232E-01   1.238651696951354E-01
   1.254232017297181E-01   1.270008313947466E-01   1.285983051980657E-01
   1.302158727482073E-01   1.318537867933920E-01   1.335123032610218E-01
   1.351916812976691E-01   1.368921833095687E-01   1.386140750036197E-01
   1.403576254289026E-01   1.421231070187186E-01   1.439107956331580E-01
   1.457209706022037E-01   1.475539147693778E-01   1.494099145359353E-01
   1.512892599056159E-01   1.531922445299571E-01   1.551191657541782E-01
   1.570703246636407E-01   1.590460261308941E-01   1.610465788633120E-01
   1.630722954513291E-01   1.651234924172836E-01   1.672004902648747E-01
   1.693036135292418E-01   1.714331908276737E-01   1.735895549109559E-01
   1.757730427153636E-01   1.779839954153087E-01   1.802227584766486E-01
   1.824896817106666E-01   1.847851193287300E-01   1.871094299976368E-01
   1.894629768956578E-01   1.918461277692842E-01   1.942592549906884E-01
   1.967027356159086E-01   1.991769514437635E-01   2.016822890755101E-01
   2.042191399752507E-01   2.067879005310994E-01   2.093889721171194E-01
   2.120227611560378E-01   2.146896791827505E-01   2.173901429086251E-01
   2.201245742866127E-01   2.228934005771797E-01   2.256970544150670E-01
   2.285359738768908E-01   2.314106025495930E-01   2.343213895997520E-01
   2.372687898437666E-01   2.402532638189214E-01   2.432752778553469E-01
   2.463353041488848E-01   2.494338208348689E-01   2.525713120628356E-01
   2.557482680721725E-01   2.589651852687194E-01   2.622225663023334E-01
   2.655209201454281E-01   2.688607621725020E-01   2.722426142406669E-01
   2.756670047711887E-01   2.791344688320550E-01   2.826455482215796E-01
   2.862007915530608E-01   2.898007543405023E-01   2.934459990854135E-01
   2.971370953647025E-01   3.008746199196721E-01   3.046591567461386E-01
   3.084912971856805E-01   3.123716400180379E-01   3.163007915546734E-01
   3.202793657335080E-01   3.243079842148521E-01   3.283872764785395E-01
   3.325178799222857E-01   3.367004399612827E-01   3.409356101290458E-01
   3.452240521795307E-01   3.495664361905324E-01   3.539634406683873E-01
   3.584157526539908E-01   3.629240678301489E-01   3.674890906302804E-01
   3.721115343484853E-01   3.767921212509987E-01   3.815315826890473E-01
   3.863306592131229E-01   3.911901006886965E-01   3.961106664133853E-01
   4.010931252355943E-01   4.061382556746519E-01   4.112468460424532E-01
   4.164196945666370E-01   4.216576095153093E-01   4.269614093233372E-01
   4.323319227202319E-01   4.377699888596375E-01   4.432764574504526E-01
   4.488521888895972E-01   4.544980543964526E-01   4.602149361489910E-01
   4.660037274216171E-01   4.718653327247450E-01   4.778006679461286E-01
   4.838106604939716E-01   4.898962494418374E-01   4.960583856753799E-01
   5.022980320409232E-01   5.086161634959060E-01   5.150137672612224E-01
   5.214918429754775E-01   5.280514028511804E-01   5.346934718329082E-01
   5.414190877574520E-01   5.482293015159835E-01   5.551251772182582E-01
   5.621077923588839E-01   5.691782379856832E-01   5.763376188701699E-01
   5.835870536801727E-01   5.909276751546305E-01   5.983606302805826E-01
   6.058870804723905E-01   6.135082017532090E-01   6.212251849387433E-01
   6.290392358233170E-01   6.369515753682782E-01   6.449634398927788E-01
   6.530760812669512E-01   6.612907671075147E-01   6.696087809758456E-01
   6.780314225785334E-01   6.865600079704650E-01   6.951958697604592E-01
   7.039403573194901E-01   7.127948369915302E-01   7.217606923070424E-01
   7.308393241991613E-01   7.400321512225906E-01   7.493406097752552E-01
   7.587661543227429E-01   7.683102576255647E-01   7.779744109692803E-01
   7.877601243975112E-01   7.976689269478892E-01   8.077023668909731E-01
   8.178620119721670E-01   8.281494496566845E-01   8.385662873775942E-01
   8.491141527869827E-01   8.597946940102807E-01   8.706095799037837E-01
   8.815605003154153E-01   8.926491663487705E-01   9.038773106304759E-01
   9.152466875809204E-01   9.267590736883833E-01   9.384162677866156E-01
   9.502200913359127E-01   9.621723887077184E-01   9.742750274728149E-01
   9.865298986931321E-01   9.989389172172304E-01   1.011504021979501E+00
   1.024227176303127E+00   1.037110368206857E+00   1.050155610715636E+00
   1.063364942175148E+00   1.076740426570308E+00   1.090284153847764E+00
   1.103998240242460E+00   1.117884828608296E+00   1.131946088752955E+00
   1.146184217776945E+00   1.160601440416892E+00   1.175200009393166E+00
   1.189982205761872E+00   1.204950339271264E+00   1.220106748722659E+00
   1.235453802335868E+00   1.250993898119242E+00   1.266729464244365E+00
   1.282662959425456E+00   1.298796873303556E+00   1.315133726835531E+00
   1.331676072687986E+00   1.348426495636115E+00   1.365387612967581E+00
   1.382562074891476E+00   1.399952564952418E+00   1.417561800449857E+00
   1.435392532862671E+00   1.453447548279072E+00   1.471729667831955E+00
   1.490241748139693E+00   1.508986681752498E+00   1.527967397604384E+00
   1.547186861470820E+00   1.566648076432138E+00   1.586354083342768E+00
   1.606307961306381E+00   1.626512828157009E+00   1.646971840946202E+00
   1.667688196436334E+00   1.688665131600096E+00   1.709905924126288E+00
   1.731413892931952E+00   1.753192398680978E+00   1.775244844309196E+00
   1.797574675556101E+00   1.820185381503255E+00   1.843080495119463E+00
   1.866263593812812E+00   1.889738299989637E+00   1.913508281620538E+00
   1.937577252813505E+00   1.961948974394254E+00   1.986627254493869E+00
   2.011615949143824E+00   2.036918962878497E+00   2.062540249345264E+00
   2.088483811922260E+00   2.114753704343924E+00   2.141354031334392E+00
   2.168288949248874E+00   2.195562666723094E+00   2.223179445330895E+00
   2.251143600250124E+00   2.279459500936880E+00   2.308131571808254E+00
   2.337164292933652E+00   2.366562200734818E+00   2.396329888694658E+00
   2.426472008074978E+00   2.456993268643255E+00   2.487898439408550E+00
   2.519192349366668E+00   2.550879888254714E+00   2.582966007315106E+00
   2.615455720069225E+00   2.648354103100791E+00   2.681666296849083E+00
   2.715397506412152E+00   2.749553002360117E+00   2.784138121558710E+00
   2.819158268003169E+00   2.854618913662625E+00   2.890525599335108E+00
   2.926883935513309E+00   2.963699603261225E+00   3.000978355101844E+00
   3.038726015915983E+00   3.076948483852448E+00   3.115651731249614E+00
   3.154841805568632E+00   3.194524830338345E+00   3.234707006112107E+00
   3.275394611436639E+00   3.316594003833051E+00   3.358311620790223E+00
   3.400553980770684E+00   3.443327684229116E+00   3.486639414643717E+00
   3.530495939560480E+00   3.574904111650649E+00   3.619870869781462E+00
   3.665403240100360E+00   3.711508337132846E+00   3.758193364894133E+00
   3.805465618014788E+00   3.853332482880538E+00   3.901801438786400E+00
   3.950880059105353E+00   4.000576012471670E+00   4.050897063979169E+00
   4.101851076394531E+00   4.153446011385855E+00   4.205689930766714E+00
   4.258590997755798E+00   4.312157478252451E+00   4.366397742128235E+00
   4.421320264534726E+00   4.476933627227803E+00   4.533246519908524E+00
   4.590267741580945E+00   4.648006201926958E+00   4.706470922698461E+00
   4.765671039127030E+00   4.825615801351295E+00   4.886314575862312E+00
   4.947776846967092E+00   5.010012218270537E+00   5.073030414176040E+00
   5.136841281404918E+00   5.201454790535002E+00   5.266881037558548E+00
   5.333130245459760E+00   5.400212765812168E+00   5.468139080396052E+00
   5.536919802836264E+00   5.606565680260620E+00   5.677087594979158E+00
   5.748496566184540E+00   5.820803751673798E+00   5.894020449591770E+00
   5.968158100196469E+00   6.043228287646631E+00   6.119242741811786E+00
   6.196213340105046E+00   6.274152109338990E+00   6.353071227604880E+00
   6.432983026175502E+00   6.513899991431976E+00   6.595834766814742E+00
   6.678800154799155E+00   6.762809118895878E+00   6.847874785676465E+00
   6.934010446824430E+00   7.021229561212065E+00   7.109545757003441E+00
   7.198972833783834E+00   7.289524764715921E+00   7.381215698723156E+00
   7.474059962700517E+00   7.568072063753141E+00   7.663266691463091E+00
   7.759658720184611E+00   7.857263211368315E+00   7.956095415914524E+00
   8.056170776556270E+00   8.157504930272259E+00   8.260113710730167E+00
   8.364013150760719E+00   8.469219484862792E+00   8.575749151740137E+00
   8.683618796869938E+00   8.792845275103701E+00   8.903445653300890E+00
   9.015437212995611E+00   9.128837453096908E+00   9.243664092623018E+00
   9.359935073469972E+00   9.477668563215101E+00   9.596882957955696E+00
   9.717596885183484E+00   9.839829206695185E+00   9.963599021539713E+00
   1.008892566900246E+01   1.021582873162708E+01   1.034432803827527E+01
   1.047444366722514E+01   1.060619594930843E+01   1.073960547108728E+01
   1.087469307807089E+01   1.101147987797268E+01   1.114998724400843E+01
   1.129023681823587E+01   1.143225051493634E+01   1.157605052403886E+01
   1.172165931458742E+01   1.186909963825178E+01   1.201839453288249E+01
   1.216956732611058E+01   1.232264163899255E+01   1.247764138970122E+01
   1.263459079726299E+01   1.279351438534210E+01   1.295443698607254E+01
   1.311738374393806E+01   1.328238011970109E+01   1.344945189438104E+01
   1.361862517328259E+01   1.378992639007479E+01   1.396338231092127E+01
   1.413902003866254E+01   1.431686701705092E+01   1.449695103503860E+01
   1.467930023111978E+01   1.486394309772734E+01   1.505090848568486E+01
   1.524022560871457E+01   1.543192404800211E+01   1.562603375681866E+01
   1.582258506520112E+01   1.602160868469132E+01   1.622313571313472E+01
   1.642719763953951E+01   1.663382634899688E+01   1.684305412766307E+01
   1.705491366780416E+01   1.726943807290434E+01   1.748666086283835E+01
   1.770661597910907E+01   1.792933779015092E+01   1.815486109670000E+01
   1.838322113723179E+01   1.861445359346721E+01   1.884859459594804E+01
   1.908568072968223E+01   1.932574903986056E+01   1.956883703764492E+01
   1.981498270602949E+01   2.006422450577579E+01   2.031660138142210E+01
   2.057215276736871E+01   2.083091859403959E+01   2.109293929412160E+01
   2.135825580888226E+01   2.162690959456676E+01   2.189894262887570E+01
   2.217439741752415E+01   2.245331700088323E+01   2.273574496070534E+01
   2.302172542693381E+01   2.331130308459828E+01   2.360452318079695E+01
   2.390143153176637E+01   2.420207453004048E+01   2.450649915169943E+01
   2.481475296370968E+01   2.512688413135652E+01   2.544294142576990E+01
   2.576297423154515E+01   2.608703255445926E+01   2.641516702928448E+01
   2.674742892770010E+01   2.708387016630372E+01   2.742454331472342E+01
   2.776950160383170E+01   2.811879893406307E+01   2.847248988383603E+01
   2.883062971808104E+01   2.919327439687590E+01   2.956048058418945E+01
   2.993230565673554E+01   3.030880771293826E+01   3.069004558200983E+01