 Entering Gaussian System, Link 0=g16
 Initial command:
 /home/app/g16/l1.exe "/home/A23321P/work/myGaussian/nanoMoS/mols/Gau-459957.inp" -scrdir="/home/A23321P/work/myGaussian/nanoMoS/mols/"
 Entering Link 1 = /home/app/g16/l1.exe PID=    459958.
  
 Copyright (c) 1988-2019, Gaussian, Inc.  All Rights Reserved.
  
 This is part of the Gaussian(R) 16 program.  It is based on
 the Gaussian(R) 09 system (copyright 2009, Gaussian, Inc.),
 the Gaussian(R) 03 system (copyright 2003, Gaussian, Inc.),
 the Gaussian(R) 98 system (copyright 1998, Gaussian, Inc.),
 the Gaussian(R) 94 system (copyright 1995, Gaussian, Inc.),
 the Gaussian 92(TM) system (copyright 1992, Gaussian, Inc.),
 the Gaussian 90(TM) system (copyright 1990, Gaussian, Inc.),
 the Gaussian 88(TM) system (copyright 1988, Gaussian, Inc.),
 the Gaussian 86(TM) system (copyright 1986, Carnegie Mellon
 University), and the Gaussian 82(TM) system (copyright 1983,
 Carnegie Mellon University). Gaussian is a federally registered
 trademark of Gaussian, Inc.
  
 This software contains proprietary and confidential information,
 including trade secrets, belonging to Gaussian, Inc.
  
 This software is provided under written license and may be
 used, copied, transmitted, or stored only in accord with that
 written license.
  
 The following legend is applicable only to US Government
 contracts under FAR:
  
                    RESTRICTED RIGHTS LEGEND
  
 Use, reproduction and disclosure by the US Government is
 subject to restrictions as set forth in subparagraphs (a)
 and (c) of the Commercial Computer Software - Restricted
 Rights clause in FAR 52.227-19.
  
 Gaussian, Inc.
 340 Quinnipiac St., Bldg. 40, Wallingford CT 06492
  
  
 ---------------------------------------------------------------
 Warning -- This program may not be used in any manner that
 competes with the business of Gaussian, Inc. or will provide
 assistance to any competitor of Gaussian, Inc.  The licensee
 of this program is prohibited from giving any competitor of
 Gaussian, Inc. access to this program.  By using this program,
 the user acknowledges that Gaussian, Inc. is engaged in the
 business of creating and licensing software in the field of
 computational chemistry and represents and warrants to the
 licensee that it is not a competitor of Gaussian, Inc. and that
 it will not use this program in any manner prohibited above.
 ---------------------------------------------------------------
  

 Cite this work as:
 Gaussian 16, Revision C.01,
 M. J. Frisch, G. W. Trucks, H. B. Schlegel, G. E. Scuseria, 
 M. A. Robb, J. R. Cheeseman, G. Scalmani, V. Barone, 
 G. A. Petersson, H. Nakatsuji, X. Li, M. Caricato, A. V. Marenich, 
 J. Bloino, B. G. Janesko, R. Gomperts, B. Mennucci, H. P. Hratchian, 
 J. V. Ortiz, A. F. Izmaylov, J. L. Sonnenberg, D. Williams-Young, 
 F. Ding, F. Lipparini, F. Egidi, J. Goings, B. Peng, A. Petrone, 
 T. Henderson, D. Ranasinghe, V. G. Zakrzewski, J. Gao, N. Rega, 
 G. Zheng, W. Liang, M. Hada, M. Ehara, K. Toyota, R. Fukuda, 
 J. Hasegawa, M. Ishida, T. Nakajima, Y. Honda, O. Kitao, H. Nakai, 
 T. Vreven, K. Throssell, J. A. Montgomery, Jr., J. E. Peralta, 
 F. Ogliaro, M. J. Bearpark, J. J. Heyd, E. N. Brothers, K. N. Kudin, 
 V. N. Staroverov, T. A. Keith, R. Kobayashi, J. Normand, 
 K. Raghavachari, A. P. Rendell, J. C. Burant, S. S. Iyengar, 
 J. Tomasi, M. Cossi, J. M. Millam, M. Klene, C. Adamo, R. Cammi, 
 J. W. Ochterski, R. L. Martin, K. Morokuma, O. Farkas, 
 J. B. Foresman, and D. J. Fox, Gaussian, Inc., Wallingford CT, 2019.
 
 ******************************************
 Gaussian 16:  ES64L-G16RevC.01  3-Jul-2019
                22-Apr-2024 
 ******************************************
 ---------------------------------------------------------------
 # PM6 Freq scf(tight,maxcycle=9999) opt(calcall,maxcycles=9999)
 ---------------------------------------------------------------
 1/6=9999,10=4,18=20,19=15,26=1,38=1/1,3;
 2/9=110,12=2,17=6,18=5,40=1/2;
 3/5=2,25=1,41=3900000,71=2,140=1/1,2,3;
 4/35=1/1;
 5/5=2,7=9999,32=2,35=1,38=5/2;
 8/6=4,10=90,11=11/1;
 11/6=1,8=1,9=11,15=111,16=1/1,2,10;
 10/6=1/2;
 6/7=2,8=2,9=2,10=2,18=1,28=1/1;
 7/10=1,25=1/1,2,3,16;
 1/6=9999,10=4,18=20,19=15,26=1/3(3);
 2/9=110/2;
 7/8=1,9=1,25=1,44=-1/16;
 99//99;
 2/9=110/2;
 3/5=2,25=1,41=3900000,71=2,135=20,140=1/1,2,3;
 4/5=5,16=3,35=1/1;
 5/5=2,7=9999,32=2,35=1,38=5/2;
 8/6=4,10=90,11=11/1;
 11/6=1,8=1,9=11,15=111,16=1/1,2,10;
 10/6=1/2;
 7/10=1,25=1/1,2,3,16;
 1/6=9999,10=4,18=20,19=15,26=1/3(-8);
 2/9=110/2;
 6/7=2,8=2,9=2,10=2,18=1,19=2,28=1/1;
 7/8=1,9=1,25=1,44=-1/16;
 99//99;
 -------------------
 Title Card Required
 -------------------
 Symbolic Z-matrix:
 Charge =  0 Multiplicity = 1
 C                    -8.244    -5.18      0.227 
 C                    -7.38     -3.987    -0.171 
 C                    -5.942    -4.15      0.337 
 C                    -5.074    -2.956    -0.077 
 C                    -3.647    -3.1       0.466 
 C                    -2.763    -1.932     0.012 
 C                    -1.351    -2.051     0.598 
 C                    -0.454    -0.905     0.114 
 C                     0.946    -1.007     0.731 
 C                     1.858     0.113     0.216 
 C                     3.25      0.026     0.856 
 C                     4.17      1.083     0.3 
 C                     5.247     0.725    -0.53 
 C                     6.1       1.708    -1.04 
 C                     5.891     3.055    -0.724 
 C                     4.82      3.417     0.1 
 C                     3.965     2.437     0.613 
 S                     6.992     4.323    -1.392 
 O                     6.392     4.961    -2.668 
 O                     8.625     3.935    -1.812 
 O                     7.083     5.561    -0.467 
 H                    -8.273    -5.285     1.332 
 H                    -7.843    -6.114    -0.22 
 H                    -9.28     -5.028    -0.143 
 H                    -7.825    -3.063     0.257 
 H                    -7.379    -3.897    -1.279 
 H                    -5.506    -5.083    -0.084 
 H                    -5.952    -4.234     1.447 
 H                    -5.523    -2.018     0.318 
 H                    -5.042    -2.894    -1.187 
 H                    -3.207    -4.055     0.101 
 H                    -3.679    -3.128     1.577 
 H                    -3.218    -0.973     0.343 
 H                    -2.703    -1.929    -1.099 
 H                    -0.904    -3.022     0.29 
 H                    -1.413    -2.027     1.708 
 H                    -0.911     0.068     0.401 
 H                    -0.374    -0.946    -0.995 
 H                     1.393    -1.992     0.471 
 H                     0.865    -0.936     1.838 
 H                     1.4       1.098     0.455 
 H                     1.957     0.028    -0.889 
 H                     3.671    -0.987     0.67 
 H                     3.17      0.156     1.957 
 H                     5.423    -0.312    -0.786 
 H                     6.92      1.419    -1.685 
 H                     4.647     4.457     0.346 
 H                     3.145     2.732     1.255 
 H                     8.79      3.048    -1.405 
 

 GradGradGradGradGradGradGradGradGradGradGradGradGradGradGradGradGradGrad
 Berny optimization.
 Initialization pass.
                           ----------------------------
                           !    Initial Parameters    !
                           ! (Angstroms and Degrees)  !
 --------------------------                            --------------------------
 ! Name  Definition              Value          Derivative Info.                !
 --------------------------------------------------------------------------------
 ! R1    R(1,2)                  1.5258         calculate D2E/DX2 analytically  !
 ! R2    R(1,22)                 1.1104         calculate D2E/DX2 analytically  !
 ! R3    R(1,23)                 1.1104         calculate D2E/DX2 analytically  !
 ! R4    R(1,24)                 1.1105         calculate D2E/DX2 analytically  !
 ! R5    R(2,3)                  1.5338         calculate D2E/DX2 analytically  !
 ! R6    R(2,25)                 1.1113         calculate D2E/DX2 analytically  !
 ! R7    R(2,26)                 1.1116         calculate D2E/DX2 analytically  !
 ! R8    R(3,4)                  1.5331         calculate D2E/DX2 analytically  !
 ! R9    R(3,27)                 1.1126         calculate D2E/DX2 analytically  !
 ! R10   R(3,28)                 1.1132         calculate D2E/DX2 analytically  !
 ! R11   R(4,5)                  1.5336         calculate D2E/DX2 analytically  !
 ! R12   R(4,29)                 1.1124         calculate D2E/DX2 analytically  !
 ! R13   R(4,30)                 1.1122         calculate D2E/DX2 analytically  !
 ! R14   R(5,6)                  1.5336         calculate D2E/DX2 analytically  !
 ! R15   R(5,31)                 1.113          calculate D2E/DX2 analytically  !
 ! R16   R(5,32)                 1.1118         calculate D2E/DX2 analytically  !
 ! R17   R(6,7)                  1.5334         calculate D2E/DX2 analytically  !
 ! R18   R(6,33)                 1.1119         calculate D2E/DX2 analytically  !
 ! R19   R(6,34)                 1.1126         calculate D2E/DX2 analytically  !
 ! R20   R(7,8)                  1.5337         calculate D2E/DX2 analytically  !
 ! R21   R(7,35)                 1.1124         calculate D2E/DX2 analytically  !
 ! R22   R(7,36)                 1.112          calculate D2E/DX2 analytically  !
 ! R23   R(8,9)                  1.5333         calculate D2E/DX2 analytically  !
 ! R24   R(8,37)                 1.1126         calculate D2E/DX2 analytically  !
 ! R25   R(8,38)                 1.1126         calculate D2E/DX2 analytically  !
 ! R26   R(9,10)                 1.5334         calculate D2E/DX2 analytically  !
 ! R27   R(9,39)                 1.1125         calculate D2E/DX2 analytically  !
 ! R28   R(9,40)                 1.1122         calculate D2E/DX2 analytically  !
 ! R29   R(10,11)                1.5345         calculate D2E/DX2 analytically  !
 ! R30   R(10,41)                1.1123         calculate D2E/DX2 analytically  !
 ! R31   R(10,42)                1.1127         calculate D2E/DX2 analytically  !
 ! R32   R(11,12)                1.5076         calculate D2E/DX2 analytically  !
 ! R33   R(11,43)                1.1127         calculate D2E/DX2 analytically  !
 ! R34   R(11,44)                1.1115         calculate D2E/DX2 analytically  !
 ! R35   R(12,13)                1.4061         calculate D2E/DX2 analytically  !
 ! R36   R(12,17)                1.4047         calculate D2E/DX2 analytically  !
 ! R37   R(13,14)                1.3979         calculate D2E/DX2 analytically  !
 ! R38   R(13,45)                1.0825         calculate D2E/DX2 analytically  !
 ! R39   R(14,15)                1.3993         calculate D2E/DX2 analytically  !
 ! R40   R(14,46)                1.0826         calculate D2E/DX2 analytically  !
 ! R41   R(15,16)                1.3989         calculate D2E/DX2 analytically  !
 ! R42   R(15,18)                1.8073         calculate D2E/DX2 analytically  !
 ! R43   R(16,17)                1.3981         calculate D2E/DX2 analytically  !
 ! R44   R(16,47)                1.0826         calculate D2E/DX2 analytically  !
 ! R45   R(17,48)                1.0824         calculate D2E/DX2 analytically  !
 ! R46   R(18,19)                1.5476         calculate D2E/DX2 analytically  !
 ! R47   R(18,20)                1.7302         calculate D2E/DX2 analytically  !
 ! R48   R(18,21)                1.5481         calculate D2E/DX2 analytically  !
 ! R49   R(20,49)                0.9898         calculate D2E/DX2 analytically  !
 ! A1    A(2,1,22)             110.384          calculate D2E/DX2 analytically  !
 ! A2    A(2,1,23)             110.3754         calculate D2E/DX2 analytically  !
 ! A3    A(2,1,24)             109.5314         calculate D2E/DX2 analytically  !
 ! A4    A(22,1,23)            109.2997         calculate D2E/DX2 analytically  !
 ! A5    A(22,1,24)            108.6715         calculate D2E/DX2 analytically  !
 ! A6    A(23,1,24)            108.536          calculate D2E/DX2 analytically  !
 ! A7    A(1,2,3)              111.1865         calculate D2E/DX2 analytically  !
 ! A8    A(1,2,25)             108.8378         calculate D2E/DX2 analytically  !
 ! A9    A(1,2,26)             108.8926         calculate D2E/DX2 analytically  !
 ! A10   A(3,2,25)             109.6473         calculate D2E/DX2 analytically  !
 ! A11   A(3,2,26)             109.7478         calculate D2E/DX2 analytically  !
 ! A12   A(25,2,26)            108.4765         calculate D2E/DX2 analytically  !
 ! A13   A(2,3,4)              111.0146         calculate D2E/DX2 analytically  !
 ! A14   A(2,3,27)             109.3418         calculate D2E/DX2 analytically  !
 ! A15   A(2,3,28)             109.2595         calculate D2E/DX2 analytically  !
 ! A16   A(4,3,27)             109.211          calculate D2E/DX2 analytically  !
 ! A17   A(4,3,28)             109.4576         calculate D2E/DX2 analytically  !
 ! A18   A(27,3,28)            108.5148         calculate D2E/DX2 analytically  !
 ! A19   A(3,4,5)              110.982          calculate D2E/DX2 analytically  !
 ! A20   A(3,4,29)             109.4078         calculate D2E/DX2 analytically  !
 ! A21   A(3,4,30)             109.2209         calculate D2E/DX2 analytically  !
 ! A22   A(5,4,29)             109.2094         calculate D2E/DX2 analytically  !
 ! A23   A(5,4,30)             109.3802         calculate D2E/DX2 analytically  !
 ! A24   A(29,4,30)            108.6019         calculate D2E/DX2 analytically  !
 ! A25   A(4,5,6)              111.1024         calculate D2E/DX2 analytically  !
 ! A26   A(4,5,31)             109.408          calculate D2E/DX2 analytically  !
 ! A27   A(4,5,32)             109.232          calculate D2E/DX2 analytically  !
 ! A28   A(6,5,31)             109.1796         calculate D2E/DX2 analytically  !
 ! A29   A(6,5,32)             109.3659         calculate D2E/DX2 analytically  !
 ! A30   A(31,5,32)            108.5095         calculate D2E/DX2 analytically  !
 ! A31   A(5,6,7)              111.0118         calculate D2E/DX2 analytically  !
 ! A32   A(5,6,33)             109.4443         calculate D2E/DX2 analytically  !
 ! A33   A(5,6,34)             109.193          calculate D2E/DX2 analytically  !
 ! A34   A(7,6,33)             109.2682         calculate D2E/DX2 analytically  !
 ! A35   A(7,6,34)             109.3995         calculate D2E/DX2 analytically  !
 ! A36   A(33,6,34)            108.4818         calculate D2E/DX2 analytically  !
 ! A37   A(6,7,8)              111.0986         calculate D2E/DX2 analytically  !
 ! A38   A(6,7,35)             109.3866         calculate D2E/DX2 analytically  !
 ! A39   A(6,7,36)             109.1752         calculate D2E/DX2 analytically  !
 ! A40   A(8,7,35)             109.2586         calculate D2E/DX2 analytically  !
 ! A41   A(8,7,36)             109.3597         calculate D2E/DX2 analytically  !
 ! A42   A(35,7,36)            108.5189         calculate D2E/DX2 analytically  !
 ! A43   A(7,8,9)              110.9355         calculate D2E/DX2 analytically  !
 ! A44   A(7,8,37)             109.3791         calculate D2E/DX2 analytically  !
 ! A45   A(7,8,38)             109.2121         calculate D2E/DX2 analytically  !
 ! A46   A(9,8,37)             109.2324         calculate D2E/DX2 analytically  !
 ! A47   A(9,8,38)             109.4496         calculate D2E/DX2 analytically  !
 ! A48   A(37,8,38)            108.5941         calculate D2E/DX2 analytically  !
 ! A49   A(8,9,10)             111.0574         calculate D2E/DX2 analytically  !
 ! A50   A(8,9,39)             109.3731         calculate D2E/DX2 analytically  !
 ! A51   A(8,9,40)             109.2542         calculate D2E/DX2 analytically  !
 ! A52   A(10,9,39)            109.222          calculate D2E/DX2 analytically  !
 ! A53   A(10,9,40)            109.3271         calculate D2E/DX2 analytically  !
 ! A54   A(39,9,40)            108.5658         calculate D2E/DX2 analytically  !
 ! A55   A(9,10,11)            110.9788         calculate D2E/DX2 analytically  !
 ! A56   A(9,10,41)            109.2541         calculate D2E/DX2 analytically  !
 ! A57   A(9,10,42)            109.3085         calculate D2E/DX2 analytically  !
 ! A58   A(11,10,41)           109.5188         calculate D2E/DX2 analytically  !
 ! A59   A(11,10,42)           109.2168         calculate D2E/DX2 analytically  !
 ! A60   A(41,10,42)           108.523          calculate D2E/DX2 analytically  !
 ! A61   A(10,11,12)           111.1002         calculate D2E/DX2 analytically  !
 ! A62   A(10,11,43)           108.973          calculate D2E/DX2 analytically  !
 ! A63   A(10,11,44)           109.9495         calculate D2E/DX2 analytically  !
 ! A64   A(12,11,43)           110.229          calculate D2E/DX2 analytically  !
 ! A65   A(12,11,44)           109.1008         calculate D2E/DX2 analytically  !
 ! A66   A(43,11,44)           107.4154         calculate D2E/DX2 analytically  !
 ! A67   A(11,12,13)           120.4394         calculate D2E/DX2 analytically  !
 ! A68   A(11,12,17)           120.3025         calculate D2E/DX2 analytically  !
 ! A69   A(13,12,17)           119.2569         calculate D2E/DX2 analytically  !
 ! A70   A(12,13,14)           120.2472         calculate D2E/DX2 analytically  !
 ! A71   A(12,13,45)           120.5329         calculate D2E/DX2 analytically  !
 ! A72   A(14,13,45)           119.2191         calculate D2E/DX2 analytically  !
 ! A73   A(13,14,15)           120.2262         calculate D2E/DX2 analytically  !
 ! A74   A(13,14,46)           119.4632         calculate D2E/DX2 analytically  !
 ! A75   A(15,14,46)           120.3099         calculate D2E/DX2 analytically  !
 ! A76   A(14,15,16)           119.7666         calculate D2E/DX2 analytically  !
 ! A77   A(14,15,18)           120.062          calculate D2E/DX2 analytically  !
 ! A78   A(16,15,18)           120.1687         calculate D2E/DX2 analytically  !
 ! A79   A(15,16,17)           120.1945         calculate D2E/DX2 analytically  !
 ! A80   A(15,16,47)           120.3154         calculate D2E/DX2 analytically  !
 ! A81   A(17,16,47)           119.4901         calculate D2E/DX2 analytically  !
 ! A82   A(12,17,16)           120.3074         calculate D2E/DX2 analytically  !
 ! A83   A(12,17,48)           120.3587         calculate D2E/DX2 analytically  !
 ! A84   A(16,17,48)           119.3338         calculate D2E/DX2 analytically  !
 ! A85   A(15,18,19)           110.9646         calculate D2E/DX2 analytically  !
 ! A86   A(15,18,20)           120.4883         calculate D2E/DX2 analytically  !
 ! A87   A(15,18,21)           112.0883         calculate D2E/DX2 analytically  !
 ! A88   A(19,18,20)           104.9639         calculate D2E/DX2 analytically  !
 ! A89   A(19,18,21)           100.7054         calculate D2E/DX2 analytically  !
 ! A90   A(20,18,21)           105.5986         calculate D2E/DX2 analytically  !
 ! A91   A(18,20,49)           104.9803         calculate D2E/DX2 analytically  !
 ! D1    D(22,1,2,3)            59.6934         calculate D2E/DX2 analytically  !
 ! D2    D(22,1,2,25)          -61.1869         calculate D2E/DX2 analytically  !
 ! D3    D(22,1,2,26)         -179.265          calculate D2E/DX2 analytically  !
 ! D4    D(23,1,2,3)           -61.2458         calculate D2E/DX2 analytically  !
 ! D5    D(23,1,2,25)          177.8738         calculate D2E/DX2 analytically  !
 ! D6    D(23,1,2,26)           59.7957         calculate D2E/DX2 analytically  !
 ! D7    D(24,1,2,3)           179.31           calculate D2E/DX2 analytically  !
 ! D8    D(24,1,2,25)           58.4296         calculate D2E/DX2 analytically  !
 ! D9    D(24,1,2,26)          -59.6485         calculate D2E/DX2 analytically  !
 ! D10   D(1,2,3,4)            179.4339         calculate D2E/DX2 analytically  !
 ! D11   D(1,2,3,27)            58.8752         calculate D2E/DX2 analytically  !
 ! D12   D(1,2,3,28)           -59.7541         calculate D2E/DX2 analytically  !
 ! D13   D(25,2,3,4)           -60.1628         calculate D2E/DX2 analytically  !
 ! D14   D(25,2,3,27)          179.2785         calculate D2E/DX2 analytically  !
 ! D15   D(25,2,3,28)           60.6492         calculate D2E/DX2 analytically  !
 ! D16   D(26,2,3,4)            58.8955         calculate D2E/DX2 analytically  !
 ! D17   D(26,2,3,27)          -61.6632         calculate D2E/DX2 analytically  !
 ! D18   D(26,2,3,28)          179.7075         calculate D2E/DX2 analytically  !
 ! D19   D(2,3,4,5)            178.3471         calculate D2E/DX2 analytically  !
 ! D20   D(2,3,4,29)            57.7678         calculate D2E/DX2 analytically  !
 ! D21   D(2,3,4,30)           -60.9833         calculate D2E/DX2 analytically  !
 ! D22   D(27,3,4,5)           -61.0169         calculate D2E/DX2 analytically  !
 ! D23   D(27,3,4,29)          178.4039         calculate D2E/DX2 analytically  !
 ! D24   D(27,3,4,30)           59.6528         calculate D2E/DX2 analytically  !
 ! D25   D(28,3,4,5)            57.652          calculate D2E/DX2 analytically  !
 ! D26   D(28,3,4,29)          -62.9272         calculate D2E/DX2 analytically  !
 ! D27   D(28,3,4,30)          178.3216         calculate D2E/DX2 analytically  !
 ! D28   D(3,4,5,6)            177.9895         calculate D2E/DX2 analytically  !
 ! D29   D(3,4,5,31)            57.3707         calculate D2E/DX2 analytically  !
 ! D30   D(3,4,5,32)           -61.275          calculate D2E/DX2 analytically  !
 ! D31   D(29,4,5,6)           -61.3139         calculate D2E/DX2 analytically  !
 ! D32   D(29,4,5,31)          178.0672         calculate D2E/DX2 analytically  !
 ! D33   D(29,4,5,32)           59.4216         calculate D2E/DX2 analytically  !
 ! D34   D(30,4,5,6)            57.4141         calculate D2E/DX2 analytically  !
 ! D35   D(30,4,5,31)          -63.2047         calculate D2E/DX2 analytically  !
 ! D36   D(30,4,5,32)          178.1496         calculate D2E/DX2 analytically  !
 ! D37   D(4,5,6,7)            177.9222         calculate D2E/DX2 analytically  !
 ! D38   D(4,5,6,33)            57.2269         calculate D2E/DX2 analytically  !
 ! D39   D(4,5,6,34)           -61.3834         calculate D2E/DX2 analytically  !
 ! D40   D(31,5,6,7)           -61.3242         calculate D2E/DX2 analytically  !
 ! D41   D(31,5,6,33)          177.9804         calculate D2E/DX2 analytically  !
 ! D42   D(31,5,6,34)           59.3701         calculate D2E/DX2 analytically  !
 ! D43   D(32,5,6,7)            57.2656         calculate D2E/DX2 analytically  !
 ! D44   D(32,5,6,33)          -63.4297         calculate D2E/DX2 analytically  !
 ! D45   D(32,5,6,34)          177.96           calculate D2E/DX2 analytically  !
 ! D46   D(5,6,7,8)            178.4251         calculate D2E/DX2 analytically  !
 ! D47   D(5,6,7,35)            57.7242         calculate D2E/DX2 analytically  !
 ! D48   D(5,6,7,36)           -60.8867         calculate D2E/DX2 analytically  !
 ! D49   D(33,6,7,8)           -60.7756         calculate D2E/DX2 analytically  !
 ! D50   D(33,6,7,35)          178.5235         calculate D2E/DX2 analytically  !
 ! D51   D(33,6,7,36)           59.9126         calculate D2E/DX2 analytically  !
 ! D52   D(34,6,7,8)            57.8528         calculate D2E/DX2 analytically  !
 ! D53   D(34,6,7,35)          -62.8481         calculate D2E/DX2 analytically  !
 ! D54   D(34,6,7,36)          178.541          calculate D2E/DX2 analytically  !
 ! D55   D(6,7,8,9)            178.5157         calculate D2E/DX2 analytically  !
 ! D56   D(6,7,8,37)            57.956          calculate D2E/DX2 analytically  !
 ! D57   D(6,7,8,38)           -60.7635         calculate D2E/DX2 analytically  !
 ! D58   D(35,7,8,9)           -60.708          calculate D2E/DX2 analytically  !
 ! D59   D(35,7,8,37)          178.7324         calculate D2E/DX2 analytically  !
 ! D60   D(35,7,8,38)           60.0129         calculate D2E/DX2 analytically  !
 ! D61   D(36,7,8,9)            57.9364         calculate D2E/DX2 analytically  !
 ! D62   D(36,7,8,37)          -62.6233         calculate D2E/DX2 analytically  !
 ! D63   D(36,7,8,38)          178.6572         calculate D2E/DX2 analytically  !
 ! D64   D(7,8,9,10)           178.2781         calculate D2E/DX2 analytically  !
 ! D65   D(7,8,9,39)            57.6579         calculate D2E/DX2 analytically  !
 ! D66   D(7,8,9,40)           -61.0487         calculate D2E/DX2 analytically  !
 ! D67   D(37,8,9,10)          -61.0754         calculate D2E/DX2 analytically  !
 ! D68   D(37,8,9,39)          178.3044         calculate D2E/DX2 analytically  !
 ! D69   D(37,8,9,40)           59.5978         calculate D2E/DX2 analytically  !
 ! D70   D(38,8,9,10)           57.6977         calculate D2E/DX2 analytically  !
 ! D71   D(38,8,9,39)          -62.9224         calculate D2E/DX2 analytically  !
 ! D72   D(38,8,9,40)          178.371          calculate D2E/DX2 analytically  !
 ! D73   D(8,9,10,11)          178.8597         calculate D2E/DX2 analytically  !
 ! D74   D(8,9,10,41)           57.9978         calculate D2E/DX2 analytically  !
 ! D75   D(8,9,10,42)          -60.6187         calculate D2E/DX2 analytically  !
 ! D76   D(39,9,10,11)         -60.4309         calculate D2E/DX2 analytically  !
 ! D77   D(39,9,10,41)         178.7072         calculate D2E/DX2 analytically  !
 ! D78   D(39,9,10,42)          60.0907         calculate D2E/DX2 analytically  !
 ! D79   D(40,9,10,11)          58.2295         calculate D2E/DX2 analytically  !
 ! D80   D(40,9,10,41)         -62.6325         calculate D2E/DX2 analytically  !
 ! D81   D(40,9,10,42)         178.7511         calculate D2E/DX2 analytically  !
 ! D82   D(9,10,11,12)         177.1345         calculate D2E/DX2 analytically  !
 ! D83   D(9,10,11,43)          55.4947         calculate D2E/DX2 analytically  !
 ! D84   D(9,10,11,44)         -61.9883         calculate D2E/DX2 analytically  !
 ! D85   D(41,10,11,12)        -62.1599         calculate D2E/DX2 analytically  !
 ! D86   D(41,10,11,43)        176.2003         calculate D2E/DX2 analytically  !
 ! D87   D(41,10,11,44)         58.7173         calculate D2E/DX2 analytically  !
 ! D88   D(42,10,11,12)         56.5586         calculate D2E/DX2 analytically  !
 ! D89   D(42,10,11,43)        -65.0812         calculate D2E/DX2 analytically  !
 ! D90   D(42,10,11,44)        177.4358         calculate D2E/DX2 analytically  !
 ! D91   D(10,11,12,13)       -110.4228         calculate D2E/DX2 analytically  !
 ! D92   D(10,11,12,17)         69.9813         calculate D2E/DX2 analytically  !
 ! D93   D(43,11,12,13)         10.4806         calculate D2E/DX2 analytically  !
 ! D94   D(43,11,12,17)       -169.1154         calculate D2E/DX2 analytically  !
 ! D95   D(44,11,12,13)        128.2017         calculate D2E/DX2 analytically  !
 ! D96   D(44,11,12,17)        -51.3943         calculate D2E/DX2 analytically  !
 ! D97   D(11,12,13,14)       -179.8028         calculate D2E/DX2 analytically  !
 ! D98   D(11,12,13,45)          0.5185         calculate D2E/DX2 analytically  !
 ! D99   D(17,12,13,14)         -0.2026         calculate D2E/DX2 analytically  !
 ! D100  D(17,12,13,45)       -179.8814         calculate D2E/DX2 analytically  !
 ! D101  D(11,12,17,16)        179.8484         calculate D2E/DX2 analytically  !
 ! D102  D(11,12,17,48)         -0.0366         calculate D2E/DX2 analytically  !
 ! D103  D(13,12,17,16)          0.2476         calculate D2E/DX2 analytically  !
 ! D104  D(13,12,17,48)       -179.6374         calculate D2E/DX2 analytically  !
 ! D105  D(12,13,14,15)          0.2392         calculate D2E/DX2 analytically  !
 ! D106  D(12,13,14,46)       -179.4556         calculate D2E/DX2 analytically  !
 ! D107  D(45,13,14,15)        179.9221         calculate D2E/DX2 analytically  !
 ! D108  D(45,13,14,46)          0.2274         calculate D2E/DX2 analytically  !
 ! D109  D(13,14,15,16)         -0.3172         calculate D2E/DX2 analytically  !
 ! D110  D(13,14,15,18)       -179.7174         calculate D2E/DX2 analytically  !
 ! D111  D(46,14,15,16)        179.3749         calculate D2E/DX2 analytically  !
 ! D112  D(46,14,15,18)         -0.0252         calculate D2E/DX2 analytically  !
 ! D113  D(14,15,16,17)          0.362          calculate D2E/DX2 analytically  !
 ! D114  D(14,15,16,47)       -179.6818         calculate D2E/DX2 analytically  !
 ! D115  D(18,15,16,17)        179.7615         calculate D2E/DX2 analytically  !
 ! D116  D(18,15,16,47)         -0.2822         calculate D2E/DX2 analytically  !
 ! D117  D(14,15,18,19)         96.3453         calculate D2E/DX2 analytically  !
 ! D118  D(14,15,18,20)        -26.78           calculate D2E/DX2 analytically  !
 ! D119  D(14,15,18,21)       -151.9282         calculate D2E/DX2 analytically  !
 ! D120  D(16,15,18,19)        -83.0524         calculate D2E/DX2 analytically  !
 ! D121  D(16,15,18,20)        153.8222         calculate D2E/DX2 analytically  !
 ! D122  D(16,15,18,21)         28.674          calculate D2E/DX2 analytically  !
 ! D123  D(15,16,17,12)         -0.3293         calculate D2E/DX2 analytically  !
 ! D124  D(15,16,17,48)        179.5569         calculate D2E/DX2 analytically  !
 ! D125  D(47,16,17,12)        179.7141         calculate D2E/DX2 analytically  !
 ! D126  D(47,16,17,48)         -0.3997         calculate D2E/DX2 analytically  !
 ! D127  D(15,18,20,49)        -13.2347         calculate D2E/DX2 analytically  !
 ! D128  D(19,18,20,49)       -139.1887         calculate D2E/DX2 analytically  !
 ! D129  D(21,18,20,49)        114.894          calculate D2E/DX2 analytically  !
 --------------------------------------------------------------------------------
 Trust Radius=3.00D-01 FncErr=1.00D-07 GrdErr=1.00D-07 EigMax=2.50D+02 EigMin=1.00D-04
 Number of steps in this run=    294 maximum allowed number of steps=    294.
 GradGradGradGradGradGradGradGradGradGradGradGradGradGradGradGradGradGrad

                          Input orientation:                          
 ---------------------------------------------------------------------
 Center     Atomic      Atomic             Coordinates (Angstroms)
 Number     Number       Type             X           Y           Z
 ---------------------------------------------------------------------
      1          6           0       -8.244000   -5.180000    0.227000
      2          6           0       -7.380000   -3.987000   -0.171000
      3          6           0       -5.942000   -4.150000    0.337000
      4          6           0       -5.074000   -2.956000   -0.077000
      5          6           0       -3.647000   -3.100000    0.466000
      6          6           0       -2.763000   -1.932000    0.012000
      7          6           0       -1.351000   -2.051000    0.598000
      8          6           0       -0.454000   -0.905000    0.114000
      9          6           0        0.946000   -1.007000    0.731000
     10          6           0        1.858000    0.113000    0.216000
     11          6           0        3.250000    0.026000    0.856000
     12          6           0        4.170000    1.083000    0.300000
     13          6           0        5.247000    0.725000   -0.530000
     14          6           0        6.100000    1.708000   -1.040000
     15          6           0        5.891000    3.055000   -0.724000
     16          6           0        4.820000    3.417000    0.100000
     17          6           0        3.965000    2.437000    0.613000
     18         16           0        6.992000    4.323000   -1.392000
     19          8           0        6.392000    4.961000   -2.668000
     20          8           0        8.625000    3.935000   -1.812000
     21          8           0        7.083000    5.561000   -0.467000
     22          1           0       -8.273000   -5.285000    1.332000
     23          1           0       -7.843000   -6.114000   -0.220000
     24          1           0       -9.280000   -5.028000   -0.143000
     25          1           0       -7.825000   -3.063000    0.257000
     26          1           0       -7.379000   -3.897000   -1.279000
     27          1           0       -5.506000   -5.083000   -0.084000
     28          1           0       -5.952000   -4.234000    1.447000
     29          1           0       -5.523000   -2.018000    0.318000
     30          1           0       -5.042000   -2.894000   -1.187000
     31          1           0       -3.207000   -4.055000    0.101000
     32          1           0       -3.679000   -3.128000    1.577000
     33          1           0       -3.218000   -0.973000    0.343000
     34          1           0       -2.703000   -1.929000   -1.099000
     35          1           0       -0.904000   -3.022000    0.290000
     36          1           0       -1.413000   -2.027000    1.708000
     37          1           0       -0.911000    0.068000    0.401000
     38          1           0       -0.374000   -0.946000   -0.995000
     39          1           0        1.393000   -1.992000    0.471000
     40          1           0        0.865000   -0.936000    1.838000
     41          1           0        1.400000    1.098000    0.455000
     42          1           0        1.957000    0.028000   -0.889000
     43          1           0        3.671000   -0.987000    0.670000
     44          1           0        3.170000    0.156000    1.957000
     45          1           0        5.423000   -0.312000   -0.786000
     46          1           0        6.920000    1.419000   -1.685000
     47          1           0        4.647000    4.457000    0.346000
     48          1           0        3.145000    2.732000    1.255000
     49          1           0        8.790000    3.048000   -1.405000
 ---------------------------------------------------------------------
                    Distance matrix (angstroms):
                    1          2          3          4          5
     1  C    0.000000
     2  C    1.525827   0.000000
     3  C    2.524322   1.533779   0.000000
     4  C    3.884262   2.527733   1.533120   0.000000
     5  C    5.051330   3.889451   2.527086   1.533595   0.000000
     6  C    6.374723   5.056995   3.889883   2.529272   1.533557
     7  C    7.579032   6.378738   5.054820   3.890421   2.527734
     8  C    8.886647   7.586134   6.379490   5.058407   3.890653
     9  C   10.105644   8.889110   7.581440   6.379018   5.054357
    10  C   11.404665  10.114367   8.889759   7.586648   6.378941
    11  C   12.633690  11.408584  10.109461   8.891107   7.582386
    12  C   13.904600  12.622569  11.385877  10.094909   8.867386
    13  C   14.746157  13.482320  12.235646  10.967133   9.732722
    14  C   15.962461  14.659420  13.461874  12.146544  10.972188
    15  C   16.386514  15.033796  13.894518  12.521260  11.413745
    16  C   15.639458  14.273495  13.158127  11.770204  10.690900
    17  C   14.395394  13.061066  11.900143  10.548179   9.413954
    18  S   18.029528  16.646361  15.558584  14.152788  13.105015
    19  O   18.039773  16.612336  15.625873  14.172555  13.250781
    20  O   19.282217  17.933516  16.798301  15.432391  14.327683
    21  O   18.728792  17.332925  16.266547  14.848705  13.820865
    22  H    1.110356   2.177444   2.777015   4.200372   5.188840
    23  H    1.110390   2.177361   2.789506   4.202472   5.211642
    24  H    1.110540   2.166671   3.484757   4.689134   5.984877
    25  H    2.158275   1.111299   2.175697   2.773266   4.183388
    26  H    2.159248   1.111650   2.177254   2.764654   4.196196
    27  H    2.757313   2.172708   1.112576   2.170438   2.773206
    28  H    2.763436   2.172123   1.113219   2.174108   2.749789
    29  H    4.172573   2.750369   2.172866   1.112416   2.170715
    30  H    4.180669   2.773653   2.170279   1.112191   2.172756
    31  H    5.162642   4.182408   2.746807   2.173747   1.113036
    32  H    5.183862   4.182199   2.775473   2.170559   1.111813
    33  H    6.555378   5.164362   4.184918   2.748350   2.173315
    34  H    6.559722   5.193349   4.181633   2.778642   2.170622
    35  H    7.650917   6.563713   5.162948   4.186639   2.749747
    36  H    7.667942   6.555710   5.186387   4.177581   2.772120
    37  H    9.019128   7.656250   6.565560   5.167555   4.186424
    38  H    9.019808   7.681842   6.560676   5.193537   4.181718
    39  H   10.153554   9.019851   7.647035   6.561379   5.160357
    40  H   10.177462   9.018021   7.675809   6.558913   5.188779
    41  H   11.509648  10.165505   9.025541   7.657063   6.564719
    42  H   11.507785  10.188980   9.019588   7.681052   6.559362
    43  H   12.639016  11.481807  10.125474   8.994998   7.619679
    44  H   12.717908  11.532360  10.207575   9.043519   7.700396
    45  H   14.543400  13.334191  12.048012  10.848061   9.571068
    46  H   16.647806  15.362520  14.160978  12.867880  11.692290
    47  H   16.095459  14.704324  13.645785  12.232307  11.221100
    48  H   13.905605  12.567978  11.435830  10.083627   8.986991
    49  H   18.987379  17.677185  16.488711  15.166479  13.999197
                    6          7          8          9         10
     6  C    0.000000
     7  C    1.533395   0.000000
     8  C    2.529153   1.533682   0.000000
     9  C    3.889636   2.526625   1.533327   0.000000
    10  C    5.057399   3.889280   2.528255   1.533417   0.000000
    11  C    6.379833   5.054671   3.890622   2.528068   1.534547
    12  C    7.565690   6.355486   5.036677   3.866269   2.508645
    13  C    8.456566   7.246528   5.964314   4.805054   3.523689
    14  C    9.638935   8.504736   7.149434   6.088627   4.702778
    15  C   10.015168   8.959101   7.526146   6.562766   5.079769
    16  C    9.280163   8.260040   6.818721   5.914204   4.438842
    17  C    8.044585   6.957171   5.562870   4.581421   3.161967
    18  S   11.672886  10.686142   9.221873   8.334875   6.831378
    19  O   11.769022  10.944814   9.434892   8.765223   7.237245
    20  O   12.939676  11.881114  10.467250   9.479307   8.031983
    21  O   12.382173  11.410921   9.947517   9.068440   7.579434
    22  H    6.583700   7.675389   9.044594  10.180985  11.533474
    23  H    6.584022   7.702153   9.046688  10.209426  11.535815
    24  H    7.216684   8.501803   9.744919  11.022858  12.272482
    25  H    5.192594   6.561486   7.681735   9.021211  10.190640
    26  H    5.180286   6.577813   7.671254   9.038685  10.180240
    27  H    4.178764   5.188658   6.558780   7.675044   9.017589
    28  H    4.186663   5.162896   6.564079   7.649091   9.022631
    29  H    2.778243   4.181516   5.193760   6.560537   7.683146
    30  H    2.748979   4.185732   5.167056   6.564727   7.656400
    31  H    2.170757   2.776285   4.183501   5.189857   6.560463
    32  H    2.172256   2.745533   4.181235   5.158002   6.558565
    33  H    1.111875   2.170898   2.774304   4.182176   5.192427
    34  H    1.112623   2.173154   2.752807   4.184995   5.167370
    35  H    2.172847   1.112436   2.171443   2.770777   4.178797
    36  H    2.169779   1.111989   2.172418   2.749511   4.183910
    37  H    2.753402   2.173147   1.112631   2.170939   2.775538
    38  H    2.773728   2.170991   1.112637   2.173752   2.751332
    39  H    4.181700   2.747571   2.172654   1.112490   2.170778
    40  H    4.181946   2.773352   2.170921   1.112228   2.171942
    41  H    5.167951   4.183856   2.750565   2.171018   1.112254
    42  H    5.189586   4.180463   2.772980   2.172037   1.112677
    43  H    6.536233   5.133981   4.163110   2.725756   2.168660
    44  H    6.583560   5.211254   4.201874   2.793174   2.180430
    45  H    8.382828   7.129281   5.975013   4.777849   3.727446
    46  H   10.386024   9.255400   7.938089   6.885580   5.562669
    47  H    9.789738   8.854014   7.404395   6.610667   5.163890
    48  H    7.629050   6.597178   5.242371   4.369245   3.097588
    49  H   12.660178  11.526131  10.167847   9.084815   7.700292
                   11         12         13         14         15
    11  C    0.000000
    12  C    1.507576   0.000000
    13  C    2.529349   1.406056   0.000000
    14  C    3.813980   2.431281   1.397855   0.000000
    15  C    4.318116   2.810552   2.425133   1.399266   0.000000
    16  C    3.812521   2.431061   2.797516   2.420471   1.398950
    17  C    2.526499   1.404746   2.425060   2.796797   2.424659
    18  S    6.125380   4.617808   4.090681   2.785281   1.807277
    19  O    6.829712   5.365183   4.881164   3.649337   2.768208
    20  O    7.161643   5.695742   4.833064   3.454148   3.071303
    21  O    6.861373   5.396883   5.173177   4.017490   2.786925
    22  H   12.696961  14.015873  14.912329  16.158947  16.565073
    23  H   12.724466  14.013543  14.772140  16.008227  16.521118
    24  H   13.547761  14.779820  15.629476  16.814360  17.199758
    25  H   11.513312  12.691383  13.632516  14.776680  15.050613
    26  H   11.529258  12.675687  13.466245  14.599883  14.991038
    27  H   10.181013  11.480069  12.229423  13.480759  14.018853
    28  H   10.157445  11.490909  12.406362  13.665403  14.074779
    29  H    9.024018  10.176973  11.146123  12.280935  12.533973
    30  H    9.025382  10.143404  10.926680  12.055877  12.455339
    31  H    7.675769   8.992151   9.732249  11.006103  11.576110
    32  H    7.647130   8.998336   9.947790  11.218932  11.623639
    33  H    6.564769   7.668868   8.677647   9.794160  10.016844
    34  H    6.563708   7.633313   8.400594   9.524918   9.941716
    35  H    5.183278   6.526607   7.248945   8.555572   9.172249
    36  H    5.165683   6.544040   7.545711   8.828754   9.224411
    37  H    4.186014   5.182373   6.262537   7.343038   7.513654
    38  H    4.183821   5.142159   5.882526   6.997029   7.438526
    39  H    2.769296   4.146878   4.820519   6.174866   6.865292
    40  H    2.752815   4.167113   5.250549   6.532905   6.910326
    41  H    2.175428   2.774374   3.988579   4.969620   5.038747
    42  H    2.171837   2.724723   3.382128   4.473215   4.966519
    43  H    1.112657   2.161204   2.618152   4.010881   4.817614
    44  H    1.111531   2.145921   3.289811   4.469409   4.795394
    45  H    2.744510   2.166894   1.082535   2.145517   3.399935
    46  H    4.676113   3.408170   2.148160   1.082565   2.158439
    47  H    4.673914   3.407862   3.880103   3.404292   2.158249
    48  H    2.737273   2.163759   3.410671   3.879127   3.400189
    49  H    6.703447   5.302136   4.326061   3.027363   2.977921
                   16         17         18         19         20
    16  C    0.000000
    17  C    1.398068   0.000000
    18  S    2.786482   4.091424   0.000000
    19  O    3.537929   4.798527   1.547650   0.000000
    20  O    4.289766   5.462621   1.730212   2.602249   0.000000
    21  O    3.168500   4.543974   1.548079   2.383670   2.613554
    22  H   15.769251  14.488440  18.241548  18.331469  19.504757
    23  H   15.852253  14.602820  18.176407  18.201196  19.357476
    24  H   16.437368  15.222608  18.809019  18.755461  20.092535
    25  H   14.209542  13.014639  16.637779  16.585032  17.995979
    26  H   14.290271  13.129568  16.556171  16.432709  17.825609
    27  H   13.375729  12.113466  15.696614  15.783580  16.852165
    28  H   13.281122  11.981014  15.774324  15.932846  17.024763
    29  H   11.686077  10.486000  14.133563  14.127628  15.496484
    30  H   11.778970  10.620057  14.033683  13.951012  15.290937
    31  H   10.966472   9.687404  13.283054  13.457207  14.404718
    32  H   10.828276   9.504171  13.349255  13.596948  14.586285
    33  H    9.161910   7.955909  11.631936  11.688908  12.999582
    34  H    9.306602   8.152001  11.539774  11.517503  12.775698
    35  H    8.617482   7.322033  10.914438  11.212032  11.984160
    36  H    8.430486   7.074546  10.980734  11.353394  12.194150
    37  H    6.644604   5.425171   9.152993   9.310962  10.525510
    38  H    6.871130   5.732126   9.065204   9.136210  10.270037
    39  H    6.413989   5.123611   8.642846   9.120720   9.625136
    40  H    6.132803   4.742125   8.696557   9.253452   9.862390
    41  H    4.147311   2.897777   6.714350   7.042440   8.086315
    42  H    4.545350   3.477262   6.637112   6.867937   7.783239
    43  H    4.586973   3.437072   6.593708   7.343350   7.411378
    44  H    4.099399   2.764294   6.571710   7.406749   7.631725
    45  H    3.879954   3.411739   4.930743   5.682026   5.416871
    46  H    3.404149   3.879324   2.919632   3.713602   3.041942
    47  H    1.082610   2.148677   2.921921   3.518982   4.555648
    48  H    2.146829   1.082400   4.933285   5.558901   6.394067
    49  H    4.261700   5.265574   2.204223   3.317400   0.989769
                   21         22         23         24         25
    21  O    0.000000
    22  H   18.885943   0.000000
    23  H   18.951309   1.811310   0.000000
    24  H   19.493067   1.804362   1.802857   0.000000
    25  H   17.237924   2.508707   3.088115   2.477549   0.000000
    26  H   17.299207   3.089191   2.500373   2.486656   1.803820
    27  H   16.490129   3.114827   2.557934   3.774862   3.094260
    28  H   16.416962   2.550464   3.144705   3.772813   2.509078
    29  H   14.729858   4.389076   4.738044   4.836080   2.528824
    30  H   14.799360   4.743585   4.375967   4.858450   3.139870
    31  H   14.095183   5.356549   5.082816   6.155290   4.725920
    32  H   13.982035   5.081093   5.429945   6.159513   4.351545
    33  H   12.225378   6.717476   6.938118   7.309382   5.059639
    34  H   12.339583   6.942435   6.686289   7.333121   5.418448
    35  H   11.748749   7.778759   7.613822   8.623741   6.921200
    36  H   11.596999   7.603653   7.859113   8.621014   6.655257
    37  H    9.738096   9.149886   9.308888   9.813527   7.591264
    38  H    9.910937   9.307849   9.115635   9.833894   7.846438
    39  H    9.502829  10.247767  10.137656  11.113380   9.282476
    40  H    9.283725  10.132763  10.338100  11.117097   9.085141
    41  H    7.284569  11.622338  11.743152  12.326714  10.121944
    42  H    7.554340  11.739408  11.584978  12.344627  10.322554
    43  H    7.470664  12.711026  12.635285  13.591139  11.689241
    44  H    7.099392  12.686109  12.858398  13.648676  11.581968
    45  H    6.111423  14.724030  14.490353  15.454201  13.570754
    46  H    4.320446  16.878186  16.638464  17.503759  15.533020
    47  H    2.795332  16.211266  16.372736  16.857214  14.563966
    48  H    5.145519  13.951664  14.183211  14.715727  12.446643
    49  H    3.179444  19.185308  19.026381  19.832784  17.781023
                   26         27         28         29         30
    26  H    0.000000
    27  H    2.518482   0.000000
    28  H    3.095315   1.806565   0.000000
    29  H    3.086387   3.091297   2.523755   0.000000
    30  H    2.544807   2.494720   3.092193   1.806588   0.000000
    31  H    4.397152   2.525155   3.062480   3.091976   2.524696
    32  H    4.736887   3.149425   2.531139   2.493495   3.090667
    33  H    5.338032   4.723280   4.396327   2.530943   3.059104
    34  H    5.076455   4.339902   4.727699   3.157247   2.531776
    35  H    6.719599   5.056283   5.318825   4.726940   4.395561
    36  H    6.929085   5.413229   5.053859   4.338696   4.722537
    37  H    7.770370   6.919686   6.709173   5.062492   5.325444
    38  H    7.606516   6.654481   6.920144   5.420826   5.061797
    39  H    9.145464   7.580139   7.741328   6.917741   6.706101
    40  H    9.297674   7.841003   7.582953   6.654898   6.919324
    41  H   10.248298   9.283756   9.135983   7.593165   7.754456
    42  H   10.135020   9.081119   9.282986   7.848144   7.590315
    43  H   11.591773  10.077850  10.185719   9.258321   9.110514
    44  H   11.754995  10.338558  10.136226   9.109382   9.307211
    45  H   13.303626  11.945639  12.237606  11.133022  10.786276
    46  H   15.260606  14.115406  14.403271  13.063431  12.725542
    47  H   14.732774  13.938433  13.750799  12.056339  12.258222
    48  H   12.693281  11.734860  11.459382   9.928479  10.229477
    49  H   17.597882  16.499510  16.687959  15.280545  15.055866
                   31         32         33         34         35
    31  H    0.000000
    32  H    1.805738   0.000000
    33  H    3.091506   2.525728   0.000000
    34  H    2.492768   3.090494   1.805138   0.000000
    35  H    2.531130   3.060756   3.091247   2.521978   0.000000
    36  H    3.148598   2.522720   2.496431   3.090785   1.805500
    37  H    4.728715   4.388532   2.531658   3.073967   3.092001
    38  H    4.346606   4.722217   3.143137   2.530088   2.498380
    39  H    5.054985   5.314030   4.723988   4.387036   2.523860
    40  H    5.415396   5.051824   4.348251   4.726800   3.142779
    41  H    6.921212   6.701806   5.062362   5.330315   4.723351
    42  H    6.657168   6.914187   5.412989   5.058611   4.344866
    43  H    7.552699   7.709023   6.896771   6.681662   5.021578
    44  H    7.864057   7.605120   6.684772   6.941073   5.429185
    45  H    9.448477   9.816314   8.739476   8.291232   6.966549
    46  H   11.649489  11.985602  10.611950  10.205618   9.210759
    47  H   11.584450  11.330042   9.557360   9.843349   9.314085
    48  H    9.367123   9.000570   7.419335   7.839983   7.101700
    49  H   14.023147  14.230645  12.783427  12.528097  11.562507
                   36         37         38         39         40
    36  H    0.000000
    37  H    2.519777   0.000000
    38  H    3.091002   1.807037   0.000000
    39  H    3.066762   3.091426   2.523006   0.000000
    40  H    2.529123   2.495428   3.092104   1.806269   0.000000
    41  H    4.387323   2.530719   3.070425   3.090049   2.517155
    42  H    4.724863   3.145016   2.528532   2.499619   3.091648
    43  H    5.292079   4.709576   4.374464   2.497781   3.039813
    44  H    5.082458   4.368460   4.742219   3.159087   2.553361
    45  H    7.476106   6.455457   5.835310   4.543495   5.296236
    46  H    9.634638   8.215909   7.698816   6.843317   7.390574
    47  H    8.978914   7.082211   7.496741   7.224524   6.753816
    48  H    6.605199   4.927205   5.565388   5.099052   4.358040
    49  H   11.813027  10.307834  10.004950   9.145304   9.444307
                   41         42         43         44         45
    41  H    0.000000
    42  H    1.805958   0.000000
    43  H    3.090452   2.529526   0.000000
    44  H    2.505248   3.096364   1.792713   0.000000
    45  H    4.439900   3.484159   2.375935   3.580375   0.000000
    46  H    5.929000   5.215349   4.678767   5.377902   2.458774
    47  H    4.673090   5.327041   5.540279   4.824464   4.962556
    48  H    2.520909   3.649616   3.801297   2.670057   4.315194
    49  H    7.866016   7.488427   6.840396   7.158988   4.796817
                   46         47         48         49
    46  H    0.000000
    47  H    4.303595   0.000000
    48  H    4.961673   2.461282   0.000000
    49  H    2.495785   4.713357   6.248318   0.000000
 Stoichiometry    C17H28O3S
 Framework group  C1[X(C17H28O3S)]
 Deg. of freedom   141
 Full point group                 C1      NOp   1
 Largest Abelian subgroup         C1      NOp   1
 Largest concise Abelian subgroup C1      NOp   1
                         Standard orientation:                         
 ---------------------------------------------------------------------
 Center     Atomic      Atomic             Coordinates (Angstroms)
 Number     Number       Type             X           Y           Z
 ---------------------------------------------------------------------
      1          6           0      -11.232379    0.549941   -0.268933
      2          6           0       -9.844207    1.180205   -0.206524
      3          6           0       -8.750152    0.106791   -0.149060
      4          6           0       -7.356629    0.744129   -0.100591
      5          6           0       -6.265231   -0.328730   -0.001900
      6          6           0       -4.867970    0.303294   -0.003329
      7          6           0       -3.780245   -0.766996    0.147120
      8          6           0       -2.380623   -0.141204    0.106850
      9          6           0       -1.297084   -1.209791    0.294361
     10          6           0        0.104621   -0.593498    0.212051
     11          6           0        1.187057   -1.659574    0.428031
     12          6           0        2.566636   -1.070302    0.278681
     13          6           0        3.372141   -1.412584   -0.821773
     14          6           0        4.652299   -0.866985   -0.954119
     15          6           0        5.143180    0.019953    0.010414
     16          6           0        4.345387    0.365269    1.106472
     17          6           0        3.064811   -0.178805    1.243234
     18         16           0        6.795986    0.728662   -0.169064
     19          8           0        6.729522    2.130545   -0.821387
     20          8           0        8.022505   -0.116178   -1.049705
     21          8           0        7.431352    1.077794    1.198769
     22          1           0      -11.410144   -0.083397    0.625591
     23          1           0      -11.334451   -0.070569   -1.184092
     24          1           0      -12.002341    1.349736   -0.296990
     25          1           0       -9.783058    1.824784    0.696672
     26          1           0       -9.697766    1.818052   -1.105118
     27          1           0       -8.824243   -0.543417   -1.048819
     28          1           0       -8.901327   -0.523513    0.755991
     29          1           0       -7.288690    1.417635    0.782157
     30          1           0       -7.198114    1.348288   -1.020826
     31          1           0       -6.352306   -1.025440   -0.865534
     32          1           0       -6.406242   -0.909432    0.935666
     33          1           0       -4.788552    1.027713    0.836418
     34          1           0       -4.716066    0.852835   -0.958766
     35          1           0       -3.874736   -1.507945   -0.677247
     36          1           0       -3.919791   -1.296012    1.115205
     37          1           0       -2.291730    0.616883    0.916387
     38          1           0       -2.234644    0.366606   -0.872323
     39          1           0       -1.403109   -1.985516   -0.495982
     40          1           0       -1.428212   -1.694924    1.286582
     41          1           0        0.203161    0.198438    0.986800
     42          1           0        0.243645   -0.127973   -0.788954
     43          1           0        1.037803   -2.480874   -0.307630
     44          1           0        1.087845   -2.100472    1.443544
     45          1           0        3.008220   -2.096095   -1.578247
     46          1           0        5.258257   -1.132398   -1.811042
     47          1           0        4.714307    1.054635    1.855283
     48          1           0        2.462226    0.092396    2.100515
     49          1           0        7.667587   -1.032580   -1.167531
 ---------------------------------------------------------------------
 Rotational constants (GHZ):           1.1465335           0.0428299           0.0422946
 Standard basis: VSTO-6G (5D, 7F)
 There are   118 symmetry adapted cartesian basis functions of A   symmetry.
 There are   117 symmetry adapted basis functions of A   symmetry.
   117 basis functions,   708 primitive gaussians,   118 cartesian basis functions
    60 alpha electrons       60 beta electrons
       nuclear repulsion energy       874.0073753178 Hartrees.
 Integral buffers will be    131072 words long.
 Regular integral format.
 Two-electron integral symmetry is turned off.
 Do NDO integrals.
 One-electron integrals computed using PRISM.
 NBasis=   117 RedAO= F EigKep=  0.00D+00  NBF=   117
 NBsUse=   117 1.00D-04 EigRej=  0.00D+00 NBFU=   117
 Nonelectrostatic core Hamiltonian diagonalized for initial guess.
 Keep J ints in memory in canonical form, NReq=1886642.
 Overlap will be assumed to be unity.
 Requested convergence on RMS density matrix=1.00D-08 within9999 cycles.
 Requested convergence on MAX density matrix=1.00D-06.
 Requested convergence on             energy=1.00D-06.
 No special actions if energy rises.
 EnCoef did     6 forward-backward iterations
 EnCoef did     3 forward-backward iterations
 SCF Done:  E(RPM6) = -0.185208492241     A.U. after   24 cycles
            NFock= 23  Conv=0.90D-08     -V/T= 0.9991
 Range of M.O.s used for correlation:     1   117
 NBasis=   117 NAE=    60 NBE=    60 NFC=     0 NFV=     0
 NROrb=    117 NOA=    60 NOB=    60 NVA=    57 NVB=    57
 Symmetrizing basis deriv contribution to polar:
 IMax=3 JMax=2 DiffMx= 0.00D+00
 G2DrvN: will do    50 centers at a time, making    1 passes.
 Calling FoFCou, ICntrl=  3107 FMM=F I1Cent=   0 AccDes= 0.00D+00.
 End of G2Drv F.D. properties file   721 does not exist.
 End of G2Drv F.D. properties file   722 does not exist.
 End of G2Drv F.D. properties file   788 does not exist.
          IDoAtm=1111111111111111111111111111111111111111111111111
          Differentiating once with respect to electric field.
                with respect to dipole field.
          Differentiating once with respect to nuclear coordinates.
          Electric field/nuclear overlap derivatives assumed to be zero.
 Keep J ints in memory in canonical form, NReq=1891346.
          There are   150 degrees of freedom in the 1st order CPHF.  IDoFFX=5 NUNeed=   150.
 LinEq1:  Iter=  0 NonCon=   150 RMS=1.39D-01 Max=2.96D+00 NDo=   150
 AX will form   150 AO Fock derivatives at one time.
 LinEq1:  Iter=  1 NonCon=   150 RMS=2.85D-02 Max=6.33D-01 NDo=   150
 LinEq1:  Iter=  2 NonCon=   150 RMS=6.15D-03 Max=1.23D-01 NDo=   150
 LinEq1:  Iter=  3 NonCon=   150 RMS=1.60D-03 Max=3.29D-02 NDo=   150
 LinEq1:  Iter=  4 NonCon=   150 RMS=5.86D-04 Max=1.51D-02 NDo=   150
 LinEq1:  Iter=  5 NonCon=   149 RMS=1.69D-04 Max=3.45D-03 NDo=   150
 LinEq1:  Iter=  6 NonCon=   139 RMS=3.19D-05 Max=5.54D-04 NDo=   150
 LinEq1:  Iter=  7 NonCon=    87 RMS=6.59D-06 Max=8.46D-05 NDo=   150
 LinEq1:  Iter=  8 NonCon=    47 RMS=1.39D-06 Max=2.30D-05 NDo=    87
 LinEq1:  Iter=  9 NonCon=    14 RMS=3.19D-07 Max=9.52D-06 NDo=    47
 LinEq1:  Iter= 10 NonCon=     3 RMS=7.17D-08 Max=1.61D-06 NDo=    14
 LinEq1:  Iter= 11 NonCon=     3 RMS=1.57D-08 Max=3.57D-07 NDo=     3
 LinEq1:  Iter= 12 NonCon=     0 RMS=3.30D-09 Max=4.72D-08 NDo=     3
 Linear equations converged to 1.000D-08 1.000D-07 after    12 iterations.
 Isotropic polarizability for W=    0.000000      163.54 Bohr**3.
 End of Minotr F.D. properties file   721 does not exist.
 End of Minotr F.D. properties file   722 does not exist.
 End of Minotr F.D. properties file   788 does not exist.

 **********************************************************************

            Population analysis using the SCF Density.

 **********************************************************************

 Orbital symmetries:
       Occupied  (A) (A) (A) (A) (A) (A) (A) (A) (A) (A) (A) (A)
                 (A) (A) (A) (A) (A) (A) (A) (A) (A) (A) (A) (A)
                 (A) (A) (A) (A) (A) (A) (A) (A) (A) (A) (A) (A)
                 (A) (A) (A) (A) (A) (A) (A) (A) (A) (A) (A) (A)
                 (A) (A) (A) (A) (A) (A) (A) (A) (A) (A) (A) (A)
       Virtual   (A) (A) (A) (A) (A) (A) (A) (A) (A) (A) (A) (A)
                 (A) (A) (A) (A) (A) (A) (A) (A) (A) (A) (A) (A)
                 (A) (A) (A) (A) (A) (A) (A) (A) (A) (A) (A) (A)
                 (A) (A) (A) (A) (A) (A) (A) (A) (A) (A) (A) (A)
                 (A) (A) (A) (A) (A) (A) (A) (A) (A)
 The electronic state is 1-A.
 Alpha  occ. eigenvalues --   -1.14397  -1.12435  -1.08436  -1.06819  -1.06229
 Alpha  occ. eigenvalues --   -1.03853  -1.00439  -1.00049  -0.96307  -0.96060
 Alpha  occ. eigenvalues --   -0.91741  -0.86792  -0.83438  -0.82061  -0.78461
 Alpha  occ. eigenvalues --   -0.76409  -0.76234  -0.75079  -0.73251  -0.72626
 Alpha  occ. eigenvalues --   -0.69181  -0.64012  -0.62758  -0.62348  -0.60710
 Alpha  occ. eigenvalues --   -0.60169  -0.58161  -0.56831  -0.56395  -0.55872
 Alpha  occ. eigenvalues --   -0.55401  -0.54628  -0.54313  -0.53606  -0.52989
 Alpha  occ. eigenvalues --   -0.51679  -0.51304  -0.50705  -0.49437  -0.48915
 Alpha  occ. eigenvalues --   -0.48310  -0.47643  -0.46841  -0.46149  -0.45678
 Alpha  occ. eigenvalues --   -0.45298  -0.44434  -0.44003  -0.43750  -0.42818
 Alpha  occ. eigenvalues --   -0.42744  -0.42025  -0.41916  -0.41272  -0.40888
 Alpha  occ. eigenvalues --   -0.40390  -0.39877  -0.39758  -0.38696  -0.37717
 Alpha virt. eigenvalues --   -0.04809  -0.04144  -0.02780   0.04924   0.07292
 Alpha virt. eigenvalues --    0.08521   0.09861   0.10542   0.11761   0.12373
 Alpha virt. eigenvalues --    0.12906   0.13508   0.13740   0.14099   0.14285
 Alpha virt. eigenvalues --    0.14505   0.14805   0.15051   0.15189   0.15638
 Alpha virt. eigenvalues --    0.16294   0.16565   0.16909   0.17093   0.17441
 Alpha virt. eigenvalues --    0.17840   0.18120   0.18425   0.18692   0.19333
 Alpha virt. eigenvalues --    0.19520   0.19697   0.19916   0.20278   0.20335
 Alpha virt. eigenvalues --    0.20782   0.21293   0.21457   0.21481   0.21767
 Alpha virt. eigenvalues --    0.22102   0.22212   0.22629   0.22666   0.23020
 Alpha virt. eigenvalues --    0.23070   0.23289   0.23551   0.23717   0.23917
 Alpha virt. eigenvalues --    0.23999   0.24697   0.25010   0.25240   0.25648
 Alpha virt. eigenvalues --    0.28244   0.28970
          Condensed to atoms (all electrons):
               1          2          3          4          5          6
     1  C    4.463967   0.000000   0.000000   0.000000   0.000000   0.000000
     2  C    0.000000   4.227367   0.000000   0.000000   0.000000   0.000000
     3  C    0.000000   0.000000   4.266650   0.000000   0.000000   0.000000
     4  C    0.000000   0.000000   0.000000   4.266382   0.000000   0.000000
     5  C    0.000000   0.000000   0.000000   0.000000   4.264683   0.000000
     6  C    0.000000   0.000000   0.000000   0.000000   0.000000   4.265324
     7  C    0.000000   0.000000   0.000000   0.000000   0.000000   0.000000
     8  C    0.000000   0.000000   0.000000   0.000000   0.000000   0.000000
     9  C    0.000000   0.000000   0.000000   0.000000   0.000000   0.000000
    10  C    0.000000   0.000000   0.000000   0.000000   0.000000   0.000000
    11  C    0.000000   0.000000   0.000000   0.000000   0.000000   0.000000
    12  C    0.000000   0.000000   0.000000   0.000000   0.000000   0.000000
    13  C    0.000000   0.000000   0.000000   0.000000   0.000000   0.000000
    14  C    0.000000   0.000000   0.000000   0.000000   0.000000   0.000000
    15  C    0.000000   0.000000   0.000000   0.000000   0.000000   0.000000
    16  C    0.000000   0.000000   0.000000   0.000000   0.000000   0.000000
    17  C    0.000000   0.000000   0.000000   0.000000   0.000000   0.000000
    18  S    0.000000   0.000000   0.000000   0.000000   0.000000   0.000000
    19  O    0.000000   0.000000   0.000000   0.000000   0.000000   0.000000
    20  O    0.000000   0.000000   0.000000   0.000000   0.000000   0.000000
    21  O    0.000000   0.000000   0.000000   0.000000   0.000000   0.000000
    22  H    0.000000   0.000000   0.000000   0.000000   0.000000   0.000000
    23  H    0.000000   0.000000   0.000000   0.000000   0.000000   0.000000
    24  H    0.000000   0.000000   0.000000   0.000000   0.000000   0.000000
    25  H    0.000000   0.000000   0.000000   0.000000   0.000000   0.000000
    26  H    0.000000   0.000000   0.000000   0.000000   0.000000   0.000000
    27  H    0.000000   0.000000   0.000000   0.000000   0.000000   0.000000
    28  H    0.000000   0.000000   0.000000   0.000000   0.000000   0.000000
    29  H    0.000000   0.000000   0.000000   0.000000   0.000000   0.000000
    30  H    0.000000   0.000000   0.000000   0.000000   0.000000   0.000000
    31  H    0.000000   0.000000   0.000000   0.000000   0.000000   0.000000
    32  H    0.000000   0.000000   0.000000   0.000000   0.000000   0.000000
    33  H    0.000000   0.000000   0.000000   0.000000   0.000000   0.000000
    34  H    0.000000   0.000000   0.000000   0.000000   0.000000   0.000000
    35  H    0.000000   0.000000   0.000000   0.000000   0.000000   0.000000
    36  H    0.000000   0.000000   0.000000   0.000000   0.000000   0.000000
    37  H    0.000000   0.000000   0.000000   0.000000   0.000000   0.000000
    38  H    0.000000   0.000000   0.000000   0.000000   0.000000   0.000000
    39  H    0.000000   0.000000   0.000000   0.000000   0.000000   0.000000
    40  H    0.000000   0.000000   0.000000   0.000000   0.000000   0.000000
    41  H    0.000000   0.000000   0.000000   0.000000   0.000000   0.000000
    42  H    0.000000   0.000000   0.000000   0.000000   0.000000   0.000000
    43  H    0.000000   0.000000   0.000000   0.000000   0.000000   0.000000
    44  H    0.000000   0.000000   0.000000   0.000000   0.000000   0.000000
    45  H    0.000000   0.000000   0.000000   0.000000   0.000000   0.000000
    46  H    0.000000   0.000000   0.000000   0.000000   0.000000   0.000000
    47  H    0.000000   0.000000   0.000000   0.000000   0.000000   0.000000
    48  H    0.000000   0.000000   0.000000   0.000000   0.000000   0.000000
    49  H    0.000000   0.000000   0.000000   0.000000   0.000000   0.000000
               7          8          9         10         11         12
     1  C    0.000000   0.000000   0.000000   0.000000   0.000000   0.000000
     2  C    0.000000   0.000000   0.000000   0.000000   0.000000   0.000000
     3  C    0.000000   0.000000   0.000000   0.000000   0.000000   0.000000
     4  C    0.000000   0.000000   0.000000   0.000000   0.000000   0.000000
     5  C    0.000000   0.000000   0.000000   0.000000   0.000000   0.000000
     6  C    0.000000   0.000000   0.000000   0.000000   0.000000   0.000000
     7  C    4.264856   0.000000   0.000000   0.000000   0.000000   0.000000
     8  C    0.000000   4.264079   0.000000   0.000000   0.000000   0.000000
     9  C    0.000000   0.000000   4.268521   0.000000   0.000000   0.000000
    10  C    0.000000   0.000000   0.000000   4.242181   0.000000   0.000000
    11  C    0.000000   0.000000   0.000000   0.000000   4.329272   0.000000
    12  C    0.000000   0.000000   0.000000   0.000000   0.000000   3.820799
    13  C    0.000000   0.000000   0.000000   0.000000   0.000000   0.000000
    14  C    0.000000   0.000000   0.000000   0.000000   0.000000   0.000000
    15  C    0.000000   0.000000   0.000000   0.000000   0.000000   0.000000
    16  C    0.000000   0.000000   0.000000   0.000000   0.000000   0.000000
    17  C    0.000000   0.000000   0.000000   0.000000   0.000000   0.000000
    18  S    0.000000   0.000000   0.000000   0.000000   0.000000   0.000000
    19  O    0.000000   0.000000   0.000000   0.000000   0.000000   0.000000
    20  O    0.000000   0.000000   0.000000   0.000000   0.000000   0.000000
    21  O    0.000000   0.000000   0.000000   0.000000   0.000000   0.000000
    22  H    0.000000   0.000000   0.000000   0.000000   0.000000   0.000000
    23  H    0.000000   0.000000   0.000000   0.000000   0.000000   0.000000
    24  H    0.000000   0.000000   0.000000   0.000000   0.000000   0.000000
    25  H    0.000000   0.000000   0.000000   0.000000   0.000000   0.000000
    26  H    0.000000   0.000000   0.000000   0.000000   0.000000   0.000000
    27  H    0.000000   0.000000   0.000000   0.000000   0.000000   0.000000
    28  H    0.000000   0.000000   0.000000   0.000000   0.000000   0.000000
    29  H    0.000000   0.000000   0.000000   0.000000   0.000000   0.000000
    30  H    0.000000   0.000000   0.000000   0.000000   0.000000   0.000000
    31  H    0.000000   0.000000   0.000000   0.000000   0.000000   0.000000
    32  H    0.000000   0.000000   0.000000   0.000000   0.000000   0.000000
    33  H    0.000000   0.000000   0.000000   0.000000   0.000000   0.000000
    34  H    0.000000   0.000000   0.000000   0.000000   0.000000   0.000000
    35  H    0.000000   0.000000   0.000000   0.000000   0.000000   0.000000
    36  H    0.000000   0.000000   0.000000   0.000000   0.000000   0.000000
    37  H    0.000000   0.000000   0.000000   0.000000   0.000000   0.000000
    38  H    0.000000   0.000000   0.000000   0.000000   0.000000   0.000000
    39  H    0.000000   0.000000   0.000000   0.000000   0.000000   0.000000
    40  H    0.000000   0.000000   0.000000   0.000000   0.000000   0.000000
    41  H    0.000000   0.000000   0.000000   0.000000   0.000000   0.000000
    42  H    0.000000   0.000000   0.000000   0.000000   0.000000   0.000000
    43  H    0.000000   0.000000   0.000000   0.000000   0.000000   0.000000
    44  H    0.000000   0.000000   0.000000   0.000000   0.000000   0.000000
    45  H    0.000000   0.000000   0.000000   0.000000   0.000000   0.000000
    46  H    0.000000   0.000000   0.000000   0.000000   0.000000   0.000000
    47  H    0.000000   0.000000   0.000000   0.000000   0.000000   0.000000
    48  H    0.000000   0.000000   0.000000   0.000000   0.000000   0.000000
    49  H    0.000000   0.000000   0.000000   0.000000   0.000000   0.000000
              13         14         15         16         17         18
     1  C    0.000000   0.000000   0.000000   0.000000   0.000000   0.000000
     2  C    0.000000   0.000000   0.000000   0.000000   0.000000   0.000000
     3  C    0.000000   0.000000   0.000000   0.000000   0.000000   0.000000
     4  C    0.000000   0.000000   0.000000   0.000000   0.000000   0.000000
     5  C    0.000000   0.000000   0.000000   0.000000   0.000000   0.000000
     6  C    0.000000   0.000000   0.000000   0.000000   0.000000   0.000000
     7  C    0.000000   0.000000   0.000000   0.000000   0.000000   0.000000
     8  C    0.000000   0.000000   0.000000   0.000000   0.000000   0.000000
     9  C    0.000000   0.000000   0.000000   0.000000   0.000000   0.000000
    10  C    0.000000   0.000000   0.000000   0.000000   0.000000   0.000000
    11  C    0.000000   0.000000   0.000000   0.000000   0.000000   0.000000
    12  C    0.000000   0.000000   0.000000   0.000000   0.000000   0.000000
    13  C    4.257707   0.000000   0.000000   0.000000   0.000000   0.000000
    14  C    0.000000   4.016071   0.000000   0.000000   0.000000   0.000000
    15  C    0.000000   0.000000   4.530452   0.000000   0.000000   0.000000
    16  C    0.000000   0.000000   0.000000   3.937423   0.000000   0.000000
    17  C    0.000000   0.000000   0.000000   0.000000   4.270931   0.000000
    18  S    0.000000   0.000000   0.000000   0.000000   0.000000   3.765474
    19  O    0.000000   0.000000   0.000000   0.000000   0.000000   0.000000
    20  O    0.000000   0.000000   0.000000   0.000000   0.000000   0.000000
    21  O    0.000000   0.000000   0.000000   0.000000   0.000000   0.000000
    22  H    0.000000   0.000000   0.000000   0.000000   0.000000   0.000000
    23  H    0.000000   0.000000   0.000000   0.000000   0.000000   0.000000
    24  H    0.000000   0.000000   0.000000   0.000000   0.000000   0.000000
    25  H    0.000000   0.000000   0.000000   0.000000   0.000000   0.000000
    26  H    0.000000   0.000000   0.000000   0.000000   0.000000   0.000000
    27  H    0.000000   0.000000   0.000000   0.000000   0.000000   0.000000
    28  H    0.000000   0.000000   0.000000   0.000000   0.000000   0.000000
    29  H    0.000000   0.000000   0.000000   0.000000   0.000000   0.000000
    30  H    0.000000   0.000000   0.000000   0.000000   0.000000   0.000000
    31  H    0.000000   0.000000   0.000000   0.000000   0.000000   0.000000
    32  H    0.000000   0.000000   0.000000   0.000000   0.000000   0.000000
    33  H    0.000000   0.000000   0.000000   0.000000   0.000000   0.000000
    34  H    0.000000   0.000000   0.000000   0.000000   0.000000   0.000000
    35  H    0.000000   0.000000   0.000000   0.000000   0.000000   0.000000
    36  H    0.000000   0.000000   0.000000   0.000000   0.000000   0.000000
    37  H    0.000000   0.000000   0.000000   0.000000   0.000000   0.000000
    38  H    0.000000   0.000000   0.000000   0.000000   0.000000   0.000000
    39  H    0.000000   0.000000   0.000000   0.000000   0.000000   0.000000
    40  H    0.000000   0.000000   0.000000   0.000000   0.000000   0.000000
    41  H    0.000000   0.000000   0.000000   0.000000   0.000000   0.000000
    42  H    0.000000   0.000000   0.000000   0.000000   0.000000   0.000000
    43  H    0.000000   0.000000   0.000000   0.000000   0.000000   0.000000
    44  H    0.000000   0.000000   0.000000   0.000000   0.000000   0.000000
    45  H    0.000000   0.000000   0.000000   0.000000   0.000000   0.000000
    46  H    0.000000   0.000000   0.000000   0.000000   0.000000   0.000000
    47  H    0.000000   0.000000   0.000000   0.000000   0.000000   0.000000
    48  H    0.000000   0.000000   0.000000   0.000000   0.000000   0.000000
    49  H    0.000000   0.000000   0.000000   0.000000   0.000000   0.000000
              19         20         21         22         23         24
     1  C    0.000000   0.000000   0.000000   0.000000   0.000000   0.000000
     2  C    0.000000   0.000000   0.000000   0.000000   0.000000   0.000000
     3  C    0.000000   0.000000   0.000000   0.000000   0.000000   0.000000
     4  C    0.000000   0.000000   0.000000   0.000000   0.000000   0.000000
     5  C    0.000000   0.000000   0.000000   0.000000   0.000000   0.000000
     6  C    0.000000   0.000000   0.000000   0.000000   0.000000   0.000000
     7  C    0.000000   0.000000   0.000000   0.000000   0.000000   0.000000
     8  C    0.000000   0.000000   0.000000   0.000000   0.000000   0.000000
     9  C    0.000000   0.000000   0.000000   0.000000   0.000000   0.000000
    10  C    0.000000   0.000000   0.000000   0.000000   0.000000   0.000000
    11  C    0.000000   0.000000   0.000000   0.000000   0.000000   0.000000
    12  C    0.000000   0.000000   0.000000   0.000000   0.000000   0.000000
    13  C    0.000000   0.000000   0.000000   0.000000   0.000000   0.000000
    14  C    0.000000   0.000000   0.000000   0.000000   0.000000   0.000000
    15  C    0.000000   0.000000   0.000000   0.000000   0.000000   0.000000
    16  C    0.000000   0.000000   0.000000   0.000000   0.000000   0.000000
    17  C    0.000000   0.000000   0.000000   0.000000   0.000000   0.000000
    18  S    0.000000   0.000000   0.000000   0.000000   0.000000   0.000000
    19  O    6.853111   0.000000   0.000000   0.000000   0.000000   0.000000
    20  O    0.000000   6.660045   0.000000   0.000000   0.000000   0.000000
    21  O    0.000000   0.000000   6.866309   0.000000   0.000000   0.000000
    22  H    0.000000   0.000000   0.000000   0.852080   0.000000   0.000000
    23  H    0.000000   0.000000   0.000000   0.000000   0.852257   0.000000
    24  H    0.000000   0.000000   0.000000   0.000000   0.000000   0.854729
    25  H    0.000000   0.000000   0.000000   0.000000   0.000000   0.000000
    26  H    0.000000   0.000000   0.000000   0.000000   0.000000   0.000000
    27  H    0.000000   0.000000   0.000000   0.000000   0.000000   0.000000
    28  H    0.000000   0.000000   0.000000   0.000000   0.000000   0.000000
    29  H    0.000000   0.000000   0.000000   0.000000   0.000000   0.000000
    30  H    0.000000   0.000000   0.000000   0.000000   0.000000   0.000000
    31  H    0.000000   0.000000   0.000000   0.000000   0.000000   0.000000
    32  H    0.000000   0.000000   0.000000   0.000000   0.000000   0.000000
    33  H    0.000000   0.000000   0.000000   0.000000   0.000000   0.000000
    34  H    0.000000   0.000000   0.000000   0.000000   0.000000   0.000000
    35  H    0.000000   0.000000   0.000000   0.000000   0.000000   0.000000
    36  H    0.000000   0.000000   0.000000   0.000000   0.000000   0.000000
    37  H    0.000000   0.000000   0.000000   0.000000   0.000000   0.000000
    38  H    0.000000   0.000000   0.000000   0.000000   0.000000   0.000000
    39  H    0.000000   0.000000   0.000000   0.000000   0.000000   0.000000
    40  H    0.000000   0.000000   0.000000   0.000000   0.000000   0.000000
    41  H    0.000000   0.000000   0.000000   0.000000   0.000000   0.000000
    42  H    0.000000   0.000000   0.000000   0.000000   0.000000   0.000000
    43  H    0.000000   0.000000   0.000000   0.000000   0.000000   0.000000
    44  H    0.000000   0.000000   0.000000   0.000000   0.000000   0.000000
    45  H    0.000000   0.000000   0.000000   0.000000   0.000000   0.000000
    46  H    0.000000   0.000000   0.000000   0.000000   0.000000   0.000000
    47  H    0.000000   0.000000   0.000000   0.000000   0.000000   0.000000
    48  H    0.000000   0.000000   0.000000   0.000000   0.000000   0.000000
    49  H    0.000000   0.000000   0.000000   0.000000   0.000000   0.000000
              25         26         27         28         29         30
     1  C    0.000000   0.000000   0.000000   0.000000   0.000000   0.000000
     2  C    0.000000   0.000000   0.000000   0.000000   0.000000   0.000000
     3  C    0.000000   0.000000   0.000000   0.000000   0.000000   0.000000
     4  C    0.000000   0.000000   0.000000   0.000000   0.000000   0.000000
     5  C    0.000000   0.000000   0.000000   0.000000   0.000000   0.000000
     6  C    0.000000   0.000000   0.000000   0.000000   0.000000   0.000000
     7  C    0.000000   0.000000   0.000000   0.000000   0.000000   0.000000
     8  C    0.000000   0.000000   0.000000   0.000000   0.000000   0.000000
     9  C    0.000000   0.000000   0.000000   0.000000   0.000000   0.000000
    10  C    0.000000   0.000000   0.000000   0.000000   0.000000   0.000000
    11  C    0.000000   0.000000   0.000000   0.000000   0.000000   0.000000
    12  C    0.000000   0.000000   0.000000   0.000000   0.000000   0.000000
    13  C    0.000000   0.000000   0.000000   0.000000   0.000000   0.000000
    14  C    0.000000   0.000000   0.000000   0.000000   0.000000   0.000000
    15  C    0.000000   0.000000   0.000000   0.000000   0.000000   0.000000
    16  C    0.000000   0.000000   0.000000   0.000000   0.000000   0.000000
    17  C    0.000000   0.000000   0.000000   0.000000   0.000000   0.000000
    18  S    0.000000   0.000000   0.000000   0.000000   0.000000   0.000000
    19  O    0.000000   0.000000   0.000000   0.000000   0.000000   0.000000
    20  O    0.000000   0.000000   0.000000   0.000000   0.000000   0.000000
    21  O    0.000000   0.000000   0.000000   0.000000   0.000000   0.000000
    22  H    0.000000   0.000000   0.000000   0.000000   0.000000   0.000000
    23  H    0.000000   0.000000   0.000000   0.000000   0.000000   0.000000
    24  H    0.000000   0.000000   0.000000   0.000000   0.000000   0.000000
    25  H    0.872543   0.000000   0.000000   0.000000   0.000000   0.000000
    26  H    0.000000   0.872437   0.000000   0.000000   0.000000   0.000000
    27  H    0.000000   0.000000   0.866991   0.000000   0.000000   0.000000
    28  H    0.000000   0.000000   0.000000   0.866829   0.000000   0.000000
    29  H    0.000000   0.000000   0.000000   0.000000   0.866956   0.000000
    30  H    0.000000   0.000000   0.000000   0.000000   0.000000   0.866973
    31  H    0.000000   0.000000   0.000000   0.000000   0.000000   0.000000
    32  H    0.000000   0.000000   0.000000   0.000000   0.000000   0.000000
    33  H    0.000000   0.000000   0.000000   0.000000   0.000000   0.000000
    34  H    0.000000   0.000000   0.000000   0.000000   0.000000   0.000000
    35  H    0.000000   0.000000   0.000000   0.000000   0.000000   0.000000
    36  H    0.000000   0.000000   0.000000   0.000000   0.000000   0.000000
    37  H    0.000000   0.000000   0.000000   0.000000   0.000000   0.000000
[...]
 0.00000407,-0.00000338,0.00000330,-0.00001005,-0.00000302,0.00000201,-
 0.00000763,-0.00000822,-0.00000364,0.00000005,-0.00001395,-0.00000015,
 -0.00000436,-0.00000596,0.00000733,-0.00002574,-0.00001307,0.00001236,
 -0.00002504,-0.00003095,0.00000871,0.00003726,-0.00000211,-0.00000021,
 -0.00000822,-0.00002525,0.00002455,-0.00093511,-0.00014225,-0.00054320
 ,0.09997550,-0.00000094,-0.00000195,-0.00000090,0.00000009,-0.00000090
 ,-0.00000048,-0.00000054,-0.00000139,-0.00000095,-0.00000079,-0.000002
 30,-0.00000085,-0.00000143,-0.00000250,-0.00000172,-0.00000212,-0.0000
 0477,-0.00000145,-0.00000415,-0.00000483,-0.00000395,-0.00000484,-0.00
 001057,-0.00000271,-0.00001060,-0.00001439,-0.00000570,0.00003461,-0.0
 0000068,-0.00000647,-0.00007451,-0.00003840,0.00056677,-0.00245092,-0.
 00139387,-0.00105826,-0.01560596,0.00054807,0.01690267,0.01995927,-0.0
 3915792,-0.02355101,0.01175171,-0.01487925,-0.02709845,-0.00188295,-0.
 00204483,-0.00135526,0.00018154,0.00060936,0.00014508,0.00019837,-0.00
 451356,-0.00400250,0.00020648,0.00106104,0.00065744,0.00034101,0.00010
 954,0.00034964,-0.00013971,0.00025513,0.00032792,0.00000018,0.00000050
 ,0.00000010,0.,0.00000070,0.00000035,0.00000010,0.00000041,0.00000033,
 0.00000021,0.00000040,0.00000019,-0.00000001,0.00000053,0.00000052,-0.
 00000010,0.00000095,0.00000046,0.00000024,0.00000061,0.00000009,0.0000
 0057,0.00000066,0.00000029,0.00000009,0.00000100,0.00000101,-0.0000001
 8,0.00000183,0.00000093,0.00000061,0.00000106,-0.00000005,0.00000141,0
 .00000102,0.00000041,0.00000021,0.00000204,0.00000230,-0.00000033,0.00
 000416,0.00000218,0.00000166,0.00000197,-0.00000070,0.00000360,0.00000
 138,0.00000035,0.00000044,0.00000481,0.00000602,-0.00000104,0.00001168
 ,0.00000650,0.00000453,0.00000270,-0.00000402,0.00001040,-0.00000056,-
 0.00000171,0.00001091,0.00001521,0.00001531,-0.00002140,0.00006798,-0.
 00000048,-0.00005627,-0.00006668,-0.00000117,-0.00027500,-0.00014085,0
 .00101440,-0.01256210,0.05974444,-0.00000781,-0.00000438,-0.00000422,-
 0.00000054,-0.00000126,-0.00000201,-0.00000427,-0.00000230,-0.00000383
 ,-0.00000517,-0.00000439,-0.00000376,-0.00000835,-0.00000448,-0.000006
 20,-0.00001044,-0.00000927,-0.00000612,-0.00001891,-0.00000870,-0.0000
 1246,-0.00002204,-0.00002432,-0.00000813,-0.00005232,-0.00001775,-0.00
 002843,-0.00002573,-0.00008456,0.00003783,-0.00038579,-0.00007296,-0.0
 0029397,0.00372654,-0.00076452,0.00064230,0.01711781,0.00547631,-0.012
 58581,0.07680979,-0.02322410,-0.15879643,0.01098590,-0.01515748,-0.017
 53040,0.00116070,-0.00221502,0.00196081,0.00007542,0.00114648,0.000477
 25,-0.00310328,-0.00244223,0.00404134,0.00038052,-0.00156810,-0.002256
 32,0.00042527,0.00019069,-0.00048977,0.00042846,0.00049333,-0.00053194
 ,0.00000192,0.00000092,0.00000054,0.00000141,0.00000171,0.00000158,0.0
 0000143,0.00000054,0.00000155,0.00000136,0.00000017,0.00000096,0.00000
 069,0.00000085,0.00000227,0.00000113,0.00000225,0.00000173,0.00000199,
 0.00000119,0.00000037,0.00000285,0.00000040,0.00000161,0.00000158,0.00
 000160,0.00000402,0.00000202,0.00000434,0.00000299,0.00000382,0.000002
 18,-0.00000001,0.00000582,0.00000039,0.00000268,0.00000300,0.00000312,
 0.00000819,0.00000371,0.00000943,0.00000576,0.00000769,0.00000422,-0.0
 0000183,0.00001351,0.00000014,0.00000470,0.00000662,0.00000705,0.00001
 926,0.00000643,0.00002302,0.00001095,0.00001516,0.00000906,-0.00000942
 ,0.00003766,0.00000545,0.00000770,0.00002188,0.00001671,0.00005368,0.0
 0001265,0.00008317,-0.00000228,0.00004606,0.00007017,-0.00005733,-0.00
 061164,0.00083839,0.00001982,-0.10681784,0.03727359,0.18587440,0.00000
 166,0.00000230,-0.00000010,-0.00000014,0.00000085,-0.00000001,0.000000
 34,0.00000155,-0.00000006,0.00000037,0.00000219,-0.00000008,-0.0000002
 3,0.00000272,-0.00000035,-0.00000056,0.00000372,0.00000003,-0.00000356
 ,0.00000564,-0.00000180,-0.00000620,0.00000493,0.00000196,-0.00003227,
 0.00001529,-0.00001601,-0.00003258,-0.00005043,0.00003305,-0.00042461,
 -0.00010547,-0.00043431,0.00224333,-0.00252677,0.00349359,0.00006434,0
 .00008337,-0.00013696,0.00166638,-0.00120464,0.00332853,0.00026529,0.0
 1276440,0.01421938,-0.03951471,-0.00307825,-0.00772998,-0.00030859,-0.
 02100780,-0.00244408,-0.00113891,0.00236699,0.00366105,-0.00006019,-0.
 00025749,-0.00025277,0.00008745,-0.00038780,-0.00046289,-0.00004791,-0
 .00012160,-0.00113890,-0.00000034,-0.00000057,0.00000020,-0.00000022,-
 0.00000073,-0.00000005,-0.00000038,-0.00000045,-0.00000012,-0.00000033
 ,-0.00000055,0.00000005,-0.00000019,-0.00000060,-0.00000018,0.,-0.0000
 0082,0.00000003,-0.00000016,-0.00000073,0.00000023,-0.00000050,-0.0000
 0121,0.00000004,-0.00000031,-0.00000105,-0.00000016,0.00000026,-0.0000
 0116,0.00000010,0.00000002,-0.00000125,0.00000027,-0.00000056,-0.00000
 280,0.,-0.00000027,-0.00000195,-0.00000004,0.00000111,-0.00000136,0.00
 000036,0.00000095,-0.00000239,0.00000010,-0.00000020,-0.00000842,-0.00
 000013,0.,-0.00000432,0.00000099,0.00000402,0.00000120,0.00000198,0.00
 000600,-0.00000474,-0.00000183,0.00000484,-0.00003811,0.00000587,0.000
 00141,-0.00001411,0.00000646,-0.00001391,-0.00000206,0.00001073,0.0000
 4431,0.00002573,-0.00004069,-0.00044690,0.00017401,-0.00034860,0.00001
 835,0.00024861,0.00002484,0.03869172,0.00001122,0.00000109,-0.00000084
 ,0.00000182,-0.00000103,-0.00000104,0.00000654,-0.00000075,-0.00000046
 ,0.00000809,0.00000046,-0.00000201,0.00001177,-0.00000037,-0.00000092,
 0.00001523,0.00000213,-0.00000427,0.00002398,0.00000010,-0.00000109,0.
 00002953,0.00000906,-0.00001242,0.00005139,0.00000405,-0.00000121,0.00
 002634,0.00004833,-0.00005130,0.00033794,-0.00020841,-0.00010634,-0.00
 262390,-0.00176239,-0.00089622,-0.00067969,0.00017454,0.00102058,-0.00
 058430,0.00152644,-0.00101529,0.00383177,-0.00982449,-0.01337994,-0.00
 337193,-0.17954489,-0.07042441,-0.01224736,-0.03154602,-0.00539522,0.0
 0110672,0.00708158,0.00141124,-0.00034259,-0.00096678,0.00010896,-0.00
 013151,-0.00092275,-0.00026885,0.00140705,-0.00200074,-0.00252729,-0.0
 0000278,0.00000027,0.00000115,-0.00000239,-0.00000078,0.,-0.00000234,0
 .00000060,-0.00000011,-0.00000212,0.00000145,0.00000064,-0.00000178,0.
 00000010,-0.00000050,-0.00000238,-0.00000108,0.00000023,-0.00000273,0.
 00000031,0.00000180,-0.00000405,0.00000230,0.00000105,-0.00000352,-0.0
 0000010,-0.00000093,-0.00000408,-0.00000253,0.00000031,-0.00000482,0.0
 0000040,0.00000346,-0.00000780,0.00000463,0.00000207,-0.00000658,-0.00
 000058,-0.00000220,-0.00000705,-0.00000635,0.00000044,-0.00000910,0.00
 000054,0.00000755,-0.00001733,0.00001027,0.00000473,-0.00001401,-0.000
 00251,-0.00000537,-0.00001073,-0.00001646,0.00000186,-0.00001675,-0.00
 000028,0.00001837,-0.00004721,0.00002193,0.00001153,-0.00003822,-0.000
 01436,-0.00000838,-0.00005408,-0.00009612,0.00005029,-0.00002284,-0.00
 001725,0.00005066,0.00017179,-0.00029664,0.00005067,0.00014588,-0.0000
 0858,-0.00017070,0.01335964,0.21837456,0.00000577,0.00000124,-0.000001
 83,0.00000094,-0.00000020,-0.00000127,0.00000340,0.00000007,-0.0000013
 5,0.00000438,0.00000111,-0.00000256,0.00000621,0.00000054,-0.00000233,
 0.00000843,0.00000277,-0.00000500,0.00001264,0.00000134,-0.00000416,0.
 00001542,0.00000652,-0.00001099,0.00001900,0.00000974,-0.00001655,-0.0
 0003440,-0.00002757,-0.00001812,-0.00026830,0.00050711,-0.00016314,0.0
 0352368,-0.00119541,0.00087155,-0.00064610,-0.00001609,0.00076124,0.00
 372593,-0.00010358,-0.00018250,0.00933024,-0.02531436,-0.02048582,-0.0
 0809295,-0.07080874,-0.07270681,0.00256772,0.00605370,0.00689054,0.003
 35910,0.00001696,-0.00309114,-0.00022162,-0.00006077,0.00028181,-0.000
 51374,-0.00025539,-0.00034515,-0.00058825,-0.00030774,-0.00013789,-0.0
 0000134,0.,0.00000111,-0.00000115,-0.00000061,0.00000040,-0.00000120,0
 .00000016,0.00000030,-0.00000116,0.00000055,0.00000077,-0.00000100,-0.
 00000021,0.00000011,-0.00000115,-0.00000080,0.00000058,-0.00000131,0.0
 0000004,0.00000160,-0.00000226,0.00000083,0.00000134,-0.00000200,-0.00
 000058,0.00000010,-0.00000196,-0.00000173,0.00000088,-0.00000231,0.000
 00010,0.00000302,-0.00000444,0.00000176,0.00000267,-0.00000378,-0.0000
 0138,-0.00000023,-0.00000343,-0.00000415,0.00000138,-0.00000448,0.0000
 0036,0.00000655,-0.00000995,0.00000388,0.00000627,-0.00000780,-0.00000
 390,-0.00000135,-0.00000458,-0.00001051,0.00000153,-0.00000893,0.00000
 176,0.00001684,-0.00003416,-0.00000280,0.00001656,-0.00001823,-0.00001
 531,-0.00000526,0.00005875,0.00001273,-0.00002180,0.00000431,-0.000004
 48,0.00007511,-0.00034927,0.00006177,-0.00030339,-0.00003552,-0.000298
 26,-0.00018508,-0.01120151,0.09061353,0.08866174,0.00000771,0.00000777
 ,0.00000283,-0.00000009,0.00000276,0.00000164,0.00000277,0.00000535,0.
 00000293,0.00000316,0.00000800,0.00000370,0.00000241,0.00001088,0.0000
 0505,0.00000162,0.00001534,0.00001008,-0.00000876,0.00002786,0.0000096
 0,-0.00002335,0.00002560,0.00004433,-0.00013013,0.00012476,0.00000358,
 -0.00008786,-0.00003452,0.00029488,-0.00117123,0.00018350,-0.00065882,
 0.00402421,0.00561198,0.00588380,0.00256507,-0.00167423,0.00199939,0.0
 0032358,0.00028256,-0.00015312,0.00222959,-0.00274552,0.00240210,-0.01
 552219,-0.00716974,0.02280339,-0.09432428,0.01984617,0.08030803,-0.000
 44303,-0.00077437,0.00067148,0.00007252,0.00016176,-0.00022494,0.00018
 914,0.00013908,-0.00008066,0.00000273,0.00036382,-0.00011189,-0.000001
 78,-0.00000194,-0.00000009,-0.00000113,-0.00000267,-0.00000113,-0.0000
 0155,-0.00000135,-0.00000129,-0.00000151,-0.00000140,-0.00000080,-0.00
 000069,-0.00000176,-0.00000188,-0.00000032,-0.00000336,-0.00000120,-0.
 00000144,-0.00000276,-0.00000026,-0.00000277,-0.00000340,-0.00000189,-
 0.00000117,-0.00000331,-0.00000323,0.00000040,-0.00000572,-0.00000225,
 -0.00000200,-0.00000572,-0.00000102,-0.00000475,-0.00000907,-0.0000053
 8,-0.00000077,-0.00000641,-0.00000631,0.00000418,-0.00000960,-0.000004
 74,-0.00000156,-0.00001548,-0.00000480,-0.00000964,-0.00003653,-0.0000
 2396,0.00000425,-0.00001366,-0.00001272,0.00002633,-0.00000503,-0.0000
 1104,0.00001280,-0.00006519,-0.00002577,-0.00005442,-0.00023524,-0.000
 19108,0.00001888,-0.00001933,-0.00003226,0.00007532,0.00007485,0.00001
 798,0.00034339,-0.00020970,-0.00009231,-0.00011181,0.00018094,-0.00013
 464,-0.00052623,0.00020405,-0.00021884,-0.00090302,-0.00017007,-0.0005
 8937,0.10348482,0.00000572,-0.00000054,0.00000018,0.00000115,-0.000001
 00,-0.00000029,0.00000395,-0.00000131,0.00000046,0.00000492,-0.0000008
 5,-0.00000036,0.00000824,-0.00000189,0.00000138,0.00001080,-0.00000074
 ,-0.00000038,0.00001981,-0.00000355,0.00000623,0.00002398,0.00000019,0
 .00000396,0.00005335,0.00000468,0.00003618,0.00002254,0.00000129,0.000
 03630,0.00024521,-0.00119745,-0.00017088,0.01283127,-0.01300451,-0.027
 18150,-0.00141450,-0.00205159,-0.00209196,-0.00013791,-0.00028190,-0.0
 0002209,-0.00289636,-0.00087657,0.00029704,-0.01461063,0.00106845,0.01
 663804,0.02006553,-0.04123566,-0.02603783,0.00008712,0.00077294,0.0001
 3320,-0.00009470,-0.00016646,0.00019304,-0.00013849,-0.00012781,-0.000
 05108,0.00008774,-0.00036321,-0.00012662,-0.00000147,0.00000047,0.0000
 0039,-0.00000128,-0.00000010,-0.00000020,-0.00000112,0.00000060,-0.000
 00017,-0.00000104,0.00000122,0.00000022,-0.00000084,0.00000037,-0.0000
 0046,-0.00000144,-0.00000032,-0.00000023,-0.00000169,0.00000059,0.0000
 0073,-0.00000218,0.00000233,0.00000032,-0.00000176,0.00000054,-0.00000
 108,-0.00000278,-0.00000129,-0.00000069,-0.00000354,0.00000094,0.00000
 149,-0.00000473,0.00000558,0.00000056,-0.00000335,0.00000089,-0.000003
 00,-0.00000561,-0.00000462,-0.00000246,-0.00000883,0.00000106,0.000003
 05,-0.00001209,0.00001646,-0.00000088,-0.00000490,0.00000199,-0.000009
 33,-0.00000962,-0.00001654,-0.00001165,-0.00003071,-0.00001298,0.00000
 148,-0.00009684,0.00005080,-0.00007977,0.00001199,0.00001891,-0.000033
 84,0.00002601,-0.00003383,-0.00006585,-0.00026248,-0.00096180,0.000212
 65,0.00032875,-0.00004063,-0.00030592,0.00020895,-0.00008770,0.0001220
 1,-0.00029812,-0.00018171,0.00099248,-0.01400547,0.05866659,0.00000246
 ,-0.00000061,-0.00000603,0.00000102,-0.00000058,-0.00000359,0.00000248
 ,-0.00000106,-0.00000523,0.00000395,0.00000016,-0.00000793,0.00000633,
 -0.00000182,-0.00000952,0.00001018,0.00000245,-0.00001784,0.00001950,-
 0.00000377,-0.00002122,0.00002689,0.00001532,-0.00005437,0.00003535,-0
 .00000382,-0.00007390,-0.00003497,-0.00000674,-0.00015461,-0.00058230,
 0.00010059,-0.00085804,0.00994347,-0.01785061,-0.01676356,0.00210542,-
 0.00176468,0.00119397,-0.00032041,-0.00040369,0.00028135,0.00247248,0.
 00008436,0.00210536,0.01847570,0.00685126,-0.01487090,0.08050006,-0.02
 559197,-0.15911980,0.00118439,0.00112965,-0.00029892,-0.00029398,-0.00
 026286,0.00026787,-0.00045547,-0.00020915,-0.00018395,-0.00022552,-0.0
 0053883,-0.00004561,-0.00000033,0.00000055,0.00000227,-0.00000044,0.00
 000010,0.00000174,-0.00000050,0.00000050,0.00000152,-0.00000071,0.0000
 0074,0.00000204,-0.00000094,-0.00000004,0.00000158,-0.00000079,0.,0.00
 000221,-0.00000039,0.00000091,0.00000350,-0.00000175,0.00000144,0.0000
 0400,-0.00000221,-0.00000043,0.00000255,-0.00000169,-0.00000066,0.0000
 0387,-0.00000082,0.00000223,0.00000739,-0.00000452,0.00000352,0.000009
 18,-0.00000542,-0.00000180,0.00000403,-0.00000349,-0.00000328,0.000007
 39,-0.00000170,0.00000746,0.00001951,-0.00001567,0.00000884,0.00002827
 ,-0.00001669,-0.00000906,0.00000513,0.,-0.00000894,0.00001472,0.000002
 99,0.00003762,0.00006919,-0.00014464,-0.00004087,0.00010854,-0.0000429
 5,-0.00007068,-0.00001729,0.00012348,0.00005410,0.00001558,-0.00000629
 ,0.00001293,0.00040297,-0.00006176,-0.00009099,-0.00027205,-0.00022579
 ,0.00013020,-0.00043110,-0.00066179,0.00081418,0.00001849,-0.11188006,
 0.03751014,0.18859237,0.00001205,0.00000682,-0.00000004,0.00000091,0.0
 0000144,-0.00000037,0.00000552,0.00000320,0.00000020,0.00000673,0.0000
 0537,-0.00000099,0.00000855,0.00000551,-0.00000018,0.00001092,0.000009
 39,-0.00000215,0.00001469,0.00000932,-0.00000021,0.00001791,0.00001908
 ,-0.00000641,0.00002564,0.00001704,-0.00000070,-0.00000047,0.00003589,
 -0.00002555,0.00007824,0.00012099,-0.00005342,-0.00014833,-0.00026426,
 0.00001036,0.00024375,0.00016447,-0.00001593,-0.00026540,-0.00016941,0
 .00000702,-0.00149356,0.00114742,-0.00120456,-0.00041393,-0.00025058,0
 .00012231,0.00032328,0.00038435,0.00002161,-0.03582125,-0.02095359,-0.
 01418037,0.00037311,0.00091320,0.00321343,-0.09781325,-0.07552676,-0.0
 2097918,0.00365220,-0.00116413,0.00155160,-0.00000285,-0.00000138,0.00
 000103,-0.00000227,-0.00000255,-0.00000035,-0.00000258,-0.00000089,-0.
 00000054,-0.00000222,-0.00000040,0.00000035,-0.00000168,-0.00000143,-0
 .00000095,-0.00000176,-0.00000282,-0.00000003,-0.00000241,-0.00000158,
 0.00000143,-0.00000388,-0.00000099,0.00000057,-0.00000309,-0.00000245,
 -0.00000129,-0.00000260,-0.00000460,-0.00000004,-0.00000372,-0.0000024
 7,0.00000249,-0.00000649,-0.00000153,0.00000111,-0.00000505,-0.0000042
 1,-0.00000229,-0.00000375,-0.00000828,-0.00000007,-0.00000596,-0.00000
 409,0.00000493,-0.00001196,-0.00000250,0.00000252,-0.00000897,-0.00000
 810,-0.00000456,-0.00000438,-0.00001643,0.00000035,-0.00000910,-0.0000
 0742,0.00001110,-0.00002474,-0.00000492,0.00000820,-0.00001709,-0.0000
 1928,-0.00001003,0.00000160,-0.00004698,0.00000745,-0.00001249,-0.0000
 2240,0.00003764,0.00000049,-0.00009694,-0.00004621,-0.00004084,-0.0000
 6436,-0.00004512,-0.00016669,-0.00010919,0.00000997,-0.00005811,0.0000
 0783,0.00007651,0.13158563,0.00001250,0.00000428,-0.00000067,0.0000013
 7,0.00000024,-0.00000083,0.00000615,0.00000141,-0.00000035,0.00000744,
 0.00000320,-0.00000170,0.00000978,0.00000299,-0.00000099,0.00001237,0.
 00000626,-0.00000344,0.00001739,0.00000554,-0.00000154,0.00002115,0.00
 001505,-0.00000946,0.00003238,0.00001062,-0.00000270,0.00000689,0.0000
 3652,-0.00003711,0.00012775,0.00009542,-0.00005330,-0.00021486,-0.0001
 7257,0.00019513,0.00020934,0.00033917,-0.00034761,-0.00008311,-0.00061
 459,-0.00010559,0.00360091,0.00156108,0.00015238,-0.00028471,-0.000039
 85,0.00044332,0.00009826,0.00025158,-0.00025233,-0.00712510,0.01237933
 ,-0.00386452,0.00149672,-0.00121063,0.00436971,-0.09407390,-0.11710791
 ,-0.00672845,0.00031838,-0.00733158,-0.00164064,-0.00000304,-0.0000006
 1,0.00000120,-0.00000253,-0.00000174,-0.00000014,-0.00000272,-0.000000
 17,-0.00000031,-0.00000232,0.00000044,0.00000056,-0.00000187,-0.000000
 74,-0.00000067,-0.00000216,-0.00000198,0.00000020,-0.00000265,-0.00000
 073,0.00000172,-0.00000408,0.00000031,0.00000089,-0.00000343,-0.000001
 45,-0.00000093,-0.00000330,-0.00000350,0.00000032,-0.00000417,-0.00000
 124,0.00000301,-0.00000699,0.00000059,0.00000169,-0.00000573,-0.000002
 75,-0.00000179,-0.00000499,-0.00000682,0.00000053,-0.00000684,-0.00000
 216,0.00000604,-0.00001339,0.00000121,0.00000378,-0.00001054,-0.000006
 01,-0.00000386,-0.00000629,-0.00001448,0.00000149,-0.00001062,-0.00000
 403,0.00001391,-0.00002954,0.00000328,0.00001317,-0.00002017,-0.000018
 30,-0.00001011,-0.00000247,-0.00004733,0.00000981,-0.00001590,-0.00001
 380,0.00005017,0.00000101,-0.00007312,-0.00004370,0.00003074,-0.000072
 69,-0.00001175,0.00006529,0.00015894,0.00014476,-0.00004418,0.00003947
 ,0.00009813,0.09591367,0.11183162,-0.00000025,-0.00000053,-0.00000248,
 0.00000016,-0.00000028,-0.00000128,0.,-0.00000040,-0.00000189,0.000000
 14,-0.00000044,-0.00000227,0.,-0.00000066,-0.00000276,0.00000029,-0.00
 000068,-0.00000360,0.00000010,-0.00000110,-0.00000449,0.00000080,-0.00
 000092,-0.00000631,0.00000028,-0.00000216,-0.00000813,0.00000214,-0.00
 000113,-0.00001181,-0.00000130,-0.00000625,-0.00003906,-0.00006939,0.0
 0012590,0.00018195,0.00022270,0.00004948,-0.00019358,-0.00009609,-0.00
 014033,-0.00001940,-0.00091895,0.00044173,-0.00006339,-0.00008442,-0.0
 0002342,-0.00004841,-0.00003878,-0.00020531,-0.00003066,-0.01851978,-0
 .01170048,0.00192454,0.00191019,0.00157497,-0.00259845,-0.01448840,0.0
 0201140,-0.01109546,0.00062095,0.00013782,-0.00238817,0.00000011,0.000
 00019,0.00000078,0.00000005,0.00000019,0.00000078,0.00000001,0.0000001
 5,0.00000072,-0.00000003,0.00000016,0.00000070,-0.00000014,0.00000008,
 0.00000081,-0.00000004,0.00000023,0.00000084,0.00000011,0.00000024,0.0
 0000091,-0.00000004,0.00000025,0.00000107,-0.00000023,0.00000009,0.000
 00121,-0.00000006,0.00000036,0.00000126,0.00000023,0.00000042,0.000001
 39,-0.00000008,0.00000043,0.00000172,-0.00000040,0.00000013,0.00000192
 ,-0.00000009,0.00000057,0.00000203,0.00000040,0.00000077,0.00000233,-0
 .00000028,0.00000087,0.00000301,-0.00000080,0.00000016,0.00000321,0.,0
 .00000096,0.00000363,0.00000087,0.00000159,0.00000461,-0.00000133,0.00
 000234,0.00000639,-0.00000162,-0.00000038,0.00000546,0.00000037,0.0000
 0111,0.00000959,0.00000447,0.00000493,0.00001470,-0.00000783,0.0000110
 7,0.00001207,-0.00011644,-0.00000678,0.00006160,0.00008144,0.00010274,
 0.00007025,0.00001190,0.00000706,0.00003849,0.03148982,0.00761292,0.01
 416329\\0.,0.,0.,0.,0.,0.,0.,0.,0.,0.,0.,0.,0.,0.,0.,0.,0.,0.,0.,0.,0.
 ,0.,0.,0.,0.,0.,0.,0.,0.,0.,0.,0.,0.,-0.00000020,0.00000042,0.00000049
 ,0.00000043,0.00000022,-0.00000050,-0.00000028,-0.00000069,-0.00000006
 ,0.00000034,0.00000042,0.00000033,0.00000037,0.00000022,-0.00000036,-0
 .00000027,-0.00000057,-0.00000004,-0.00000034,-0.00000104,0.00000021,-
 0.00000050,0.00000049,0.00000007,0.00000005,0.00000040,-0.00000016,0.0
 0000041,0.00000046,-0.00000055,0.,0.,0.,0.,0.,0.,0.,0.,0.,0.,0.,0.,0.,
 0.,0.,0.,0.,0.,0.,0.,0.,0.,0.,0.,0.,0.,0.,0.,0.,0.,0.,0.,0.,0.,0.,0.,0
 .,0.,0.,0.,0.,0.,0.,0.,0.,0.,0.,0.,0.,0.,0.,0.,0.,0.,0.,0.,0.,0.,0.,0.
 ,0.,0.,0.,0.,0.,0.,0.,0.,0.,0.00000001,0.,0.,0.00000005,-0.00000002,0.
 00000004,0.00000004,-0.00000001,0.00000003,0.00000002,0.,0.,-0.0000001
 4,-0.00000029,0.00000051\\\@
 The archive entry for this job was punched.


 I WANT IT ALL - RICH, THIN, AND CHOCOLATE.
 Job cpu time:       0 days  0 hours  0 minutes  2.4 seconds.
 Elapsed time:       0 days  0 hours  0 minutes  2.3 seconds.
 File lengths (MBytes):  RWF=    281 Int=      0 D2E=      0 Chk=      5 Scr=      1
 Normal termination of Gaussian 16 at Mon Apr 22 15:57:58 2024.
