 Entering Gaussian System, Link 0=g16
 Initial command:
 /home/app/g16/l1.exe "/home/A23321P/work/myGaussian/nanoMoS/mols/Gau-882792.inp" -scrdir="/home/A23321P/work/myGaussian/nanoMoS/mols/"
 Entering Link 1 = /home/app/g16/l1.exe PID=    882793.
  
 Copyright (c) 1988-2019, Gaussian, Inc.  All Rights Reserved.
  
 This is part of the Gaussian(R) 16 program.  It is based on
 the Gaussian(R) 09 system (copyright 2009, Gaussian, Inc.),
 the Gaussian(R) 03 system (copyright 2003, Gaussian, Inc.),
 the Gaussian(R) 98 system (copyright 1998, Gaussian, Inc.),
 the Gaussian(R) 94 system (copyright 1995, Gaussian, Inc.),
 the Gaussian 92(TM) system (copyright 1992, Gaussian, Inc.),
 the Gaussian 90(TM) system (copyright 1990, Gaussian, Inc.),
 the Gaussian 88(TM) system (copyright 1988, Gaussian, Inc.),
 the Gaussian 86(TM) system (copyright 1986, Carnegie Mellon
 University), and the Gaussian 82(TM) system (copyright 1983,
 Carnegie Mellon University). Gaussian is a federally registered
 trademark of Gaussian, Inc.
  
 This software contains proprietary and confidential information,
 including trade secrets, belonging to Gaussian, Inc.
  
 This software is provided under written license and may be
 used, copied, transmitted, or stored only in accord with that
 written license.
  
 The following legend is applicable only to US Government
 contracts under FAR:
  
                    RESTRICTED RIGHTS LEGEND
  
 Use, reproduction and disclosure by the US Government is
 subject to restrictions as set forth in subparagraphs (a)
 and (c) of the Commercial Computer Software - Restricted
 Rights clause in FAR 52.227-19.
  
 Gaussian, Inc.
 340 Quinnipiac St., Bldg. 40, Wallingford CT 06492
  
  
 ---------------------------------------------------------------
 Warning -- This program may not be used in any manner that
 competes with the business of Gaussian, Inc. or will provide
 assistance to any competitor of Gaussian, Inc.  The licensee
 of this program is prohibited from giving any competitor of
 Gaussian, Inc. access to this program.  By using this program,
 the user acknowledges that Gaussian, Inc. is engaged in the
 business of creating and licensing software in the field of
 computational chemistry and represents and warrants to the
 licensee that it is not a competitor of Gaussian, Inc. and that
 it will not use this program in any manner prohibited above.
 ---------------------------------------------------------------
  

 Cite this work as:
 Gaussian 16, Revision C.01,
 M. J. Frisch, G. W. Trucks, H. B. Schlegel, G. E. Scuseria, 
 M. A. Robb, J. R. Cheeseman, G. Scalmani, V. Barone, 
 G. A. Petersson, H. Nakatsuji, X. Li, M. Caricato, A. V. Marenich, 
 J. Bloino, B. G. Janesko, R. Gomperts, B. Mennucci, H. P. Hratchian, 
 J. V. Ortiz, A. F. Izmaylov, J. L. Sonnenberg, D. Williams-Young, 
 F. Ding, F. Lipparini, F. Egidi, J. Goings, B. Peng, A. Petrone, 
 T. Henderson, D. Ranasinghe, V. G. Zakrzewski, J. Gao, N. Rega, 
 G. Zheng, W. Liang, M. Hada, M. Ehara, K. Toyota, R. Fukuda, 
 J. Hasegawa, M. Ishida, T. Nakajima, Y. Honda, O. Kitao, H. Nakai, 
 T. Vreven, K. Throssell, J. A. Montgomery, Jr., J. E. Peralta, 
 F. Ogliaro, M. J. Bearpark, J. J. Heyd, E. N. Brothers, K. N. Kudin, 
 V. N. Staroverov, T. A. Keith, R. Kobayashi, J. Normand, 
 K. Raghavachari, A. P. Rendell, J. C. Burant, S. S. Iyengar, 
 J. Tomasi, M. Cossi, J. M. Millam, M. Klene, C. Adamo, R. Cammi, 
 J. W. Ochterski, R. L. Martin, K. Morokuma, O. Farkas, 
 J. B. Foresman, and D. J. Fox, Gaussian, Inc., Wallingford CT, 2019.
 
 ******************************************
 Gaussian 16:  ES64L-G16RevC.01  3-Jul-2019
                24-Apr-2024 
 ******************************************
 ---------------------------------------------------------------
 # PM6 Freq scf(tight,maxcycle=9999) opt(calcall,maxcycles=9999)
 ---------------------------------------------------------------
 1/6=9999,10=4,18=20,19=15,26=1,38=1/1,3;
 2/9=110,12=2,17=6,18=5,40=1/2;
 3/5=2,25=1,41=3900000,71=2,140=1/1,2,3;
 4/35=1/1;
 5/5=2,7=9999,32=2,35=1,38=5/2;
 8/6=4,10=90,11=11/1;
 11/6=1,8=1,9=11,15=111,16=1/1,2,10;
 10/6=1/2;
 6/7=2,8=2,9=2,10=2,18=1,28=1/1;
 7/10=1,25=1/1,2,3,16;
 1/6=9999,10=4,18=20,19=15,26=1/3(3);
 2/9=110/2;
 7/8=1,9=1,25=1,44=-1/16;
 99//99;
 2/9=110/2;
 3/5=2,25=1,41=3900000,71=2,135=20,140=1/1,2,3;
 4/5=5,16=3,35=1/1;
 5/5=2,7=9999,32=2,35=1,38=5/2;
 8/6=4,10=90,11=11/1;
 11/6=1,8=1,9=11,15=111,16=1/1,2,10;
 10/6=1/2;
 7/10=1,25=1/1,2,3,16;
 1/6=9999,10=4,18=20,19=15,26=1/3(-8);
 2/9=110/2;
 6/7=2,8=2,9=2,10=2,18=1,19=2,28=1/1;
 7/8=1,9=1,25=1,44=-1/16;
 99//99;
 -------------------
 Title Card Required
 -------------------
 Symbolic Z-matrix:
 Charge =  0 Multiplicity = 1
 P                    -2.481     2.348     0.65 
 O                    -3.034     1.995    -0.975 
 O                    -2.219     3.682    -0.102 
 O                    -0.804     2.687     0.966 
 C                    -4.444     2.067    -1.008 
 C                    -5.077     0.749    -0.569 
 O                    -1.493     1.075    -0.032 
 C                    -1.665    -0.078     0.76 
 C                    -0.81     -1.203     0.198 
 H                    -0.748     2.79      1.951 
 H                    -4.748     2.259    -2.059 
 H                    -4.848     2.913    -0.406 
 H                    -4.921     0.59      0.518 
 H                    -4.634    -0.096    -1.137 
 H                    -6.17      0.778    -0.764 
 H                    -2.725    -0.409     0.752 
 H                    -1.344     0.114     1.809 
 H                    -1.106    -1.418    -0.851 
 H                    -0.948    -2.12      0.808 
 H                     0.262    -0.912     0.221 
 

 GradGradGradGradGradGradGradGradGradGradGradGradGradGradGradGradGradGrad
 Berny optimization.
 Initialization pass.
                           ----------------------------
                           !    Initial Parameters    !
                           ! (Angstroms and Degrees)  !
 --------------------------                            --------------------------
 ! Name  Definition              Value          Derivative Info.                !
 --------------------------------------------------------------------------------
 ! R1    R(1,2)                  1.7524         calculate D2E/DX2 analytically  !
 ! R2    R(1,3)                  1.5536         calculate D2E/DX2 analytically  !
 ! R3    R(1,4)                  1.7399         calculate D2E/DX2 analytically  !
 ! R4    R(1,7)                  1.7498         calculate D2E/DX2 analytically  !
 ! R5    R(2,5)                  1.4122         calculate D2E/DX2 analytically  !
 ! R6    R(4,10)                 0.992          calculate D2E/DX2 analytically  !
 ! R7    R(5,6)                  1.5266         calculate D2E/DX2 analytically  !
 ! R8    R(5,11)                 1.1108         calculate D2E/DX2 analytically  !
 ! R9    R(5,12)                 1.1142         calculate D2E/DX2 analytically  !
 ! R10   R(6,13)                 1.1096         calculate D2E/DX2 analytically  !
 ! R11   R(6,14)                 1.1104         calculate D2E/DX2 analytically  !
 ! R12   R(6,15)                 1.1106         calculate D2E/DX2 analytically  !
 ! R13   R(7,8)                  1.4093         calculate D2E/DX2 analytically  !
 ! R14   R(8,9)                  1.5207         calculate D2E/DX2 analytically  !
 ! R15   R(8,16)                 1.1105         calculate D2E/DX2 analytically  !
 ! R16   R(8,17)                 1.1137         calculate D2E/DX2 analytically  !
 ! R17   R(9,18)                 1.111          calculate D2E/DX2 analytically  !
 ! R18   R(9,19)                 1.11           calculate D2E/DX2 analytically  !
 ! R19   R(9,20)                 1.111          calculate D2E/DX2 analytically  !
 ! A1    A(2,1,3)               77.1348         calculate D2E/DX2 analytically  !
 ! A2    A(2,1,4)              120.7854         calculate D2E/DX2 analytically  !
 ! A3    A(2,1,7)               70.7443         calculate D2E/DX2 analytically  !
 ! A4    A(3,1,4)               75.9992         calculate D2E/DX2 analytically  !
 ! A5    A(3,1,7)              109.9255         calculate D2E/DX2 analytically  !
 ! A6    A(4,1,7)               70.6282         calculate D2E/DX2 analytically  !
 ! A7    A(1,2,5)              109.0542         calculate D2E/DX2 analytically  !
 ! A8    A(1,4,10)             104.7734         calculate D2E/DX2 analytically  !
 ! A9    A(2,5,6)              111.3003         calculate D2E/DX2 analytically  !
 ! A10   A(2,5,11)             107.7081         calculate D2E/DX2 analytically  !
 ! A11   A(2,5,12)             112.8378         calculate D2E/DX2 analytically  !
 ! A12   A(6,5,11)             107.9288         calculate D2E/DX2 analytically  !
 ! A13   A(6,5,12)             110.4769         calculate D2E/DX2 analytically  !
 ! A14   A(11,5,12)            106.3048         calculate D2E/DX2 analytically  !
 ! A15   A(5,6,13)             110.3119         calculate D2E/DX2 analytically  !
 ! A16   A(5,6,14)             110.1506         calculate D2E/DX2 analytically  !
 ! A17   A(5,6,15)             109.5742         calculate D2E/DX2 analytically  !
 ! A18   A(13,6,14)            109.6327         calculate D2E/DX2 analytically  !
 ! A19   A(13,6,15)            108.3066         calculate D2E/DX2 analytically  !
 ! A20   A(14,6,15)            108.8257         calculate D2E/DX2 analytically  !
 ! A21   A(1,7,8)              107.8933         calculate D2E/DX2 analytically  !
 ! A22   A(7,8,9)              109.204          calculate D2E/DX2 analytically  !
 ! A23   A(7,8,16)             110.8726         calculate D2E/DX2 analytically  !
 ! A24   A(7,8,17)             110.6772         calculate D2E/DX2 analytically  !
 ! A25   A(9,8,16)             108.2707         calculate D2E/DX2 analytically  !
 ! A26   A(9,8,17)             108.2755         calculate D2E/DX2 analytically  !
 ! A27   A(16,8,17)            109.4688         calculate D2E/DX2 analytically  !
 ! A28   A(8,9,18)             110.0185         calculate D2E/DX2 analytically  !
 ! A29   A(8,9,19)             109.7658         calculate D2E/DX2 analytically  !
 ! A30   A(8,9,20)             109.9424         calculate D2E/DX2 analytically  !
 ! A31   A(18,9,19)            109.0205         calculate D2E/DX2 analytically  !
 ! A32   A(18,9,20)            109.1056         calculate D2E/DX2 analytically  !
 ! A33   A(19,9,20)            108.9636         calculate D2E/DX2 analytically  !
 ! D1    D(3,1,2,5)           -101.6436         calculate D2E/DX2 analytically  !
 ! D2    D(4,1,2,5)           -166.4967         calculate D2E/DX2 analytically  !
 ! D3    D(7,1,2,5)            141.6081         calculate D2E/DX2 analytically  !
 ! D4    D(2,1,4,10)          -176.3405         calculate D2E/DX2 analytically  !
 ! D5    D(3,1,4,10)           118.2209         calculate D2E/DX2 analytically  !
 ! D6    D(7,1,4,10)          -124.3933         calculate D2E/DX2 analytically  !
 ! D7    D(2,1,7,8)           -117.8084         calculate D2E/DX2 analytically  !
 ! D8    D(3,1,7,8)            174.3707         calculate D2E/DX2 analytically  !
 ! D9    D(4,1,7,8)            107.9638         calculate D2E/DX2 analytically  !
 ! D10   D(1,2,5,6)            -84.7559         calculate D2E/DX2 analytically  !
 ! D11   D(1,2,5,11)           157.1235         calculate D2E/DX2 analytically  !
 ! D12   D(1,2,5,12)            40.107          calculate D2E/DX2 analytically  !
 ! D13   D(2,5,6,13)            70.1517         calculate D2E/DX2 analytically  !
 ! D14   D(2,5,6,14)           -51.0098         calculate D2E/DX2 analytically  !
 ! D15   D(2,5,6,15)          -170.6989         calculate D2E/DX2 analytically  !
 ! D16   D(11,5,6,13)         -171.8608         calculate D2E/DX2 analytically  !
 ! D17   D(11,5,6,14)           66.9776         calculate D2E/DX2 analytically  !
 ! D18   D(11,5,6,15)          -52.7114         calculate D2E/DX2 analytically  !
 ! D19   D(12,5,6,13)          -56.0247         calculate D2E/DX2 analytically  !
 ! D20   D(12,5,6,14)         -177.1862         calculate D2E/DX2 analytically  !
 ! D21   D(12,5,6,15)           63.1247         calculate D2E/DX2 analytically  !
 ! D22   D(1,7,8,9)           -179.6133         calculate D2E/DX2 analytically  !
 ! D23   D(1,7,8,16)            61.17           calculate D2E/DX2 analytically  !
 ! D24   D(1,7,8,17)           -60.5099         calculate D2E/DX2 analytically  !
 ! D25   D(7,8,9,18)           -59.3469         calculate D2E/DX2 analytically  !
 ! D26   D(7,8,9,19)          -179.314          calculate D2E/DX2 analytically  !
 ! D27   D(7,8,9,20)            60.8366         calculate D2E/DX2 analytically  !
 ! D28   D(16,8,9,18)           61.4711         calculate D2E/DX2 analytically  !
 ! D29   D(16,8,9,19)          -58.496          calculate D2E/DX2 analytically  !
 ! D30   D(16,8,9,20)         -178.3454         calculate D2E/DX2 analytically  !
 ! D31   D(17,8,9,18)         -179.9308         calculate D2E/DX2 analytically  !
 ! D32   D(17,8,9,19)           60.1021         calculate D2E/DX2 analytically  !
 ! D33   D(17,8,9,20)          -59.7473         calculate D2E/DX2 analytically  !
 --------------------------------------------------------------------------------
 Trust Radius=3.00D-01 FncErr=1.00D-07 GrdErr=1.00D-07 EigMax=2.50D+02 EigMin=1.00D-04
 Number of steps in this run=    120 maximum allowed number of steps=    120.
 GradGradGradGradGradGradGradGradGradGradGradGradGradGradGradGradGradGrad

                          Input orientation:                          
 ---------------------------------------------------------------------
 Center     Atomic      Atomic             Coordinates (Angstroms)
 Number     Number       Type             X           Y           Z
 ---------------------------------------------------------------------
      1         15           0       -2.481000    2.348000    0.650000
      2          8           0       -3.034000    1.995000   -0.975000
      3          8           0       -2.219000    3.682000   -0.102000
      4          8           0       -0.804000    2.687000    0.966000
      5          6           0       -4.444000    2.067000   -1.008000
      6          6           0       -5.077000    0.749000   -0.569000
      7          8           0       -1.493000    1.075000   -0.032000
      8          6           0       -1.665000   -0.078000    0.760000
      9          6           0       -0.810000   -1.203000    0.198000
     10          1           0       -0.748000    2.790000    1.951000
     11          1           0       -4.748000    2.259000   -2.059000
     12          1           0       -4.848000    2.913000   -0.406000
     13          1           0       -4.921000    0.590000    0.518000
     14          1           0       -4.634000   -0.096000   -1.137000
     15          1           0       -6.170000    0.778000   -0.764000
     16          1           0       -2.725000   -0.409000    0.752000
     17          1           0       -1.344000    0.114000    1.809000
     18          1           0       -1.106000   -1.418000   -0.851000
     19          1           0       -0.948000   -2.120000    0.808000
     20          1           0        0.262000   -0.912000    0.221000
 ---------------------------------------------------------------------
                    Distance matrix (angstroms):
                    1          2          3          4          5
     1  P    0.000000
     2  O    1.752439   0.000000
     3  O    1.553610   2.066960   0.000000
     4  O    1.739858   3.036321   2.032947   0.000000
     5  C    2.584820   1.412223   2.894769   4.186965   0.000000
     6  C    3.283592   2.427180   4.121740   4.936659   1.526609
     7  O    1.749799   2.027395   2.707106   2.017243   3.262674
     8  C    2.561920   3.030134   3.897122   2.903271   3.930609
     9  C    3.950461   4.068084   5.092986   3.965093   5.035205
    10  H    2.211618   3.797275   2.678491   0.991953   4.789449
    11  H    3.533538   2.045128   3.500088   4.988882   1.110802
    12  H    2.652744   2.111180   2.755979   4.276377   1.114153
    13  H    3.010247   2.786367   4.152790   4.641961   2.176634
    14  H    3.715093   2.637902   4.601819   5.180405   2.175157
    15  H    4.251237   3.370476   4.947915   5.952406   2.167979
    16  H    2.769655   2.976109   4.209707   3.649829   3.490435
    17  H    2.761667   3.760973   4.141035   2.760902   4.621655
    18  H    4.280932   3.921878   5.273497   4.499302   4.828262
    19  H    4.726317   4.946080   6.008889   4.811751   5.748986
    20  H    4.282019   4.554633   5.231111   3.826772   5.703623
                    6          7          8          9         10
     6  C    0.000000
     7  O    3.638640   0.000000
     8  C    3.753920   1.409346   0.000000
     9  C    4.754564   2.389283   1.520689   0.000000
    10  H    5.408911   2.725535   3.238023   4.361296   0.000000
    11  H    2.146728   4.013180   4.786775   5.708532   5.688766
    12  H    2.182179   3.843715   4.520744   5.797561   4.730812
    13  H    1.109588   3.505554   3.332615   4.496395   4.930255
    14  H    1.110359   3.529610   3.523336   4.198887   5.741580
    15  H    1.110637   4.743244   4.832219   5.794774   6.388854
    16  H    2.935628   2.082003   1.110507   2.145828   3.947117
    17  H    4.471398   2.082067   1.113690   2.148247   2.745242
    18  H    4.532577   2.652467   2.168733   1.110964   5.068198
    19  H    5.213054   3.348231   2.164753   1.109970   5.045250
    20  H    5.646941   2.663119   2.167811   1.111033   4.209252
                   11         12         13         14         15
    11  H    0.000000
    12  H    1.780484   0.000000
    13  H    3.075129   2.501087   0.000000
    14  H    2.531621   3.103907   1.814384   0.000000
    15  H    2.427441   2.536547   1.799686   1.806184   0.000000
    16  H    4.371782   4.108987   2.423876   2.703807   3.946549
    17  H    5.581188   5.001864   3.832517   4.421212   5.509220
    18  H    5.314486   5.740919   4.523323   3.778394   5.520333
    19  H    6.468024   6.481889   4.817980   4.633163   6.175668
    20  H    6.352459   6.413724   5.404415   5.145953   6.722868
                   16         17         18         19         20
    16  H    0.000000
    17  H    1.816023   0.000000
    18  H    2.491757   3.078842   0.000000
    19  H    2.467466   2.479833   1.808328   0.000000
    20  H    3.075246   2.480656   1.810150   1.807743   0.000000
 Stoichiometry    C4H11O4P
 Framework group  C1[X(C4H11O4P)]
 Deg. of freedom    54
 Full point group                 C1      NOp   1
 Largest Abelian subgroup         C1      NOp   1
 Largest concise Abelian subgroup C1      NOp   1
                         Standard orientation:                         
 ---------------------------------------------------------------------
 Center     Atomic      Atomic             Coordinates (Angstroms)
 Number     Number       Type             X           Y           Z
 ---------------------------------------------------------------------
      1         15           0        0.295416   -0.833026    0.495622
      2          8           0        1.020818    0.140109   -0.768436
      3          8           0        1.031062   -1.888980   -0.374718
      4          8           0       -0.936910   -2.003087    0.122212
      5          6           0        2.180917    0.765169   -0.260653
      6          6           0        1.838821    2.065046    0.463104
      7          8           0       -0.969073   -0.065879   -0.439444
      8          6           0       -1.689783    0.784719    0.422714
      9          6           0       -2.804992    1.461088   -0.359161
     10          1           0       -1.216421   -2.365665    1.002202
     11          1           0        2.834649    1.015794   -1.123035
     12          1           0        2.778198    0.096397    0.400660
     13          1           0        1.308934    1.848679    1.413678
     14          1           0        1.201293    2.705647   -0.181944
     15          1           0        2.773676    2.614955    0.702187
     16          1           0       -1.030494    1.573819    0.842099
     17          1           0       -2.149057    0.203933    1.254616
     18          1           0       -2.377840    2.049183   -1.199356
     19          1           0       -3.371359    2.143193    0.308667
     20          1           0       -3.499762    0.696024   -0.767041
 ---------------------------------------------------------------------
 Rotational constants (GHZ):           1.6380636           1.2813746           0.8089707
 Standard basis: VSTO-6G (5D, 7F)
 There are    53 symmetry adapted cartesian basis functions of A   symmetry.
 There are    52 symmetry adapted basis functions of A   symmetry.
    52 basis functions,   318 primitive gaussians,    53 cartesian basis functions
    28 alpha electrons       28 beta electrons
       nuclear repulsion energy       328.2776193443 Hartrees.
 Integral buffers will be    131072 words long.
 Regular integral format.
 Two-electron integral symmetry is turned off.
 Do NDO integrals.
 One-electron integrals computed using PRISM.
 NBasis=    52 RedAO= F EigKep=  0.00D+00  NBF=    52
 NBsUse=    52 1.00D-04 EigRej=  0.00D+00 NBFU=    52
 Nonelectrostatic core Hamiltonian diagonalized for initial guess.
 Keep J ints in memory in canonical form, NReq=1856984.
 Overlap will be assumed to be unity.
 Requested convergence on RMS density matrix=1.00D-08 within9999 cycles.
 Requested convergence on MAX density matrix=1.00D-06.
 Requested convergence on             energy=1.00D-06.
 No special actions if energy rises.
 Rare condition: small coef for last iteration:  0.000D+00
 Rare condition: small coef for last iteration:  0.000D+00
 Rare condition: small coef for last iteration:  0.000D+00
 Rare condition: small coef for last iteration:  0.000D+00
 Rare condition: small coef for last iteration:  0.000D+00
 Rare condition: small coef for last iteration:  0.000D+00
 Rare condition: small coef for last iteration:  0.000D+00
 Rare condition: small coef for last iteration:  0.000D+00
 Rare condition: small coef for last iteration:  0.000D+00
 Rare condition: small coef for last iteration:  0.000D+00
 SCF Done:  E(RPM6) = -0.550171379491E-01 A.U. after   44 cycles
            NFock= 43  Conv=0.42D-08     -V/T= 0.9995
 Range of M.O.s used for correlation:     1    52
 NBasis=    52 NAE=    28 NBE=    28 NFC=     0 NFV=     0
 NROrb=     52 NOA=    28 NOB=    28 NVA=    24 NVB=    24
 Symmetrizing basis deriv contribution to polar:
 IMax=3 JMax=2 DiffMx= 0.00D+00
 G2DrvN: will do    21 centers at a time, making    1 passes.
 Calling FoFCou, ICntrl=  3107 FMM=F I1Cent=   0 AccDes= 0.00D+00.
 End of G2Drv F.D. properties file   721 does not exist.
 End of G2Drv F.D. properties file   722 does not exist.
 End of G2Drv F.D. properties file   788 does not exist.
          IDoAtm=11111111111111111111
          Differentiating once with respect to electric field.
                with respect to dipole field.
          Differentiating once with respect to nuclear coordinates.
          Electric field/nuclear overlap derivatives assumed to be zero.
 Keep J ints in memory in canonical form, NReq=1859035.
          There are    63 degrees of freedom in the 1st order CPHF.  IDoFFX=5 NUNeed=    63.
 LinEq1:  Iter=  0 NonCon=    63 RMS=2.28D-01 Max=2.93D+00 NDo=    63
 AX will form    63 AO Fock derivatives at one time.
 LinEq1:  Iter=  1 NonCon=    63 RMS=5.67D-02 Max=6.72D-01 NDo=    63
 LinEq1:  Iter=  2 NonCon=    63 RMS=2.56D-02 Max=3.33D-01 NDo=    63
 LinEq1:  Iter=  3 NonCon=    63 RMS=9.01D-03 Max=1.19D-01 NDo=    63
 LinEq1:  Iter=  4 NonCon=    63 RMS=3.52D-03 Max=5.22D-02 NDo=    63
 LinEq1:  Iter=  5 NonCon=    63 RMS=1.02D-03 Max=1.03D-02 NDo=    63
 LinEq1:  Iter=  6 NonCon=    63 RMS=2.32D-04 Max=2.45D-03 NDo=    63
 LinEq1:  Iter=  7 NonCon=    63 RMS=5.87D-05 Max=7.93D-04 NDo=    63
 LinEq1:  Iter=  8 NonCon=    63 RMS=1.48D-05 Max=1.42D-04 NDo=    63
 LinEq1:  Iter=  9 NonCon=    48 RMS=2.55D-06 Max=1.85D-05 NDo=    63
 LinEq1:  Iter= 10 NonCon=    26 RMS=4.99D-07 Max=7.35D-06 NDo=    63
 LinEq1:  Iter= 11 NonCon=     8 RMS=1.33D-07 Max=1.88D-06 NDo=    26
 LinEq1:  Iter= 12 NonCon=     3 RMS=2.67D-08 Max=2.29D-07 NDo=     8
 LinEq1:  Iter= 13 NonCon=     0 RMS=5.34D-09 Max=5.23D-08 NDo=     3
 Linear equations converged to 1.000D-08 1.000D-07 after    13 iterations.
 Isotropic polarizability for W=    0.000000       75.37 Bohr**3.
 End of Minotr F.D. properties file   721 does not exist.
 End of Minotr F.D. properties file   722 does not exist.
 End of Minotr F.D. properties file   788 does not exist.

 **********************************************************************

            Population analysis using the SCF Density.

 **********************************************************************

 Orbital symmetries:
       Occupied  (A) (A) (A) (A) (A) (A) (A) (A) (A) (A) (A) (A)
                 (A) (A) (A) (A) (A) (A) (A) (A) (A) (A) (A) (A)
                 (A) (A) (A) (A)
       Virtual   (A) (A) (A) (A) (A) (A) (A) (A) (A) (A) (A) (A)
                 (A) (A) (A) (A) (A) (A) (A) (A) (A) (A) (A) (A)
 The electronic state is 1-A.
 Alpha  occ. eigenvalues --   -1.11623  -1.09854  -1.09243  -1.05133  -0.98370
 Alpha  occ. eigenvalues --   -0.95575  -0.81823  -0.79043  -0.75020  -0.67329
 Alpha  occ. eigenvalues --   -0.62464  -0.60570  -0.59750  -0.58709  -0.54418
 Alpha  occ. eigenvalues --   -0.53929  -0.53077  -0.49495  -0.48748  -0.46760
 Alpha  occ. eigenvalues --   -0.46423  -0.45406  -0.44942  -0.42962  -0.37781
 Alpha  occ. eigenvalues --   -0.36616  -0.35923  -0.32366
 Alpha virt. eigenvalues --   -0.14229   0.06462   0.07570   0.10765   0.13524
 Alpha virt. eigenvalues --    0.14064   0.14872   0.17323   0.17933   0.18683
 Alpha virt. eigenvalues --    0.19050   0.19523   0.19943   0.20253   0.21065
 Alpha virt. eigenvalues --    0.21497   0.22365   0.22832   0.25104   4.12000
 Alpha virt. eigenvalues --    4.12608   4.13202   4.13876   4.15002
          Condensed to atoms (all electrons):
               1          2          3          4          5          6
     1  P    3.690318   0.000000   0.000000   0.000000   0.000000   0.000000
     2  O    0.000000   6.421177   0.000000   0.000000   0.000000   0.000000
     3  O    0.000000   0.000000   6.438928   0.000000   0.000000   0.000000
     4  O    0.000000   0.000000   0.000000   6.548508   0.000000   0.000000
     5  C    0.000000   0.000000   0.000000   0.000000   4.032870   0.000000
     6  C    0.000000   0.000000   0.000000   0.000000   0.000000   4.524718
     7  O    0.000000   0.000000   0.000000   0.000000   0.000000   0.000000
     8  C    0.000000   0.000000   0.000000   0.000000   0.000000   0.000000
     9  C    0.000000   0.000000   0.000000   0.000000   0.000000   0.000000
    10  H    0.000000   0.000000   0.000000   0.000000   0.000000   0.000000
    11  H    0.000000   0.000000   0.000000   0.000000   0.000000   0.000000
    12  H    0.000000   0.000000   0.000000   0.000000   0.000000   0.000000
    13  H    0.000000   0.000000   0.000000   0.000000   0.000000   0.000000
    14  H    0.000000   0.000000   0.000000   0.000000   0.000000   0.000000
    15  H    0.000000   0.000000   0.000000   0.000000   0.000000   0.000000
    16  H    0.000000   0.000000   0.000000   0.000000   0.000000   0.000000
    17  H    0.000000   0.000000   0.000000   0.000000   0.000000   0.000000
    18  H    0.000000   0.000000   0.000000   0.000000   0.000000   0.000000
    19  H    0.000000   0.000000   0.000000   0.000000   0.000000   0.000000
    20  H    0.000000   0.000000   0.000000   0.000000   0.000000   0.000000
               7          8          9         10         11         12
     1  P    0.000000   0.000000   0.000000   0.000000   0.000000   0.000000
     2  O    0.000000   0.000000   0.000000   0.000000   0.000000   0.000000
     3  O    0.000000   0.000000   0.000000   0.000000   0.000000   0.000000
     4  O    0.000000   0.000000   0.000000   0.000000   0.000000   0.000000
     5  C    0.000000   0.000000   0.000000   0.000000   0.000000   0.000000
     6  C    0.000000   0.000000   0.000000   0.000000   0.000000   0.000000
     7  O    6.518408   0.000000   0.000000   0.000000   0.000000   0.000000
     8  C    0.000000   3.982785   0.000000   0.000000   0.000000   0.000000
     9  C    0.000000   0.000000   4.485363   0.000000   0.000000   0.000000
    10  H    0.000000   0.000000   0.000000   0.746651   0.000000   0.000000
    11  H    0.000000   0.000000   0.000000   0.000000   0.851302   0.000000
    12  H    0.000000   0.000000   0.000000   0.000000   0.000000   0.891562
    13  H    0.000000   0.000000   0.000000   0.000000   0.000000   0.000000
    14  H    0.000000   0.000000   0.000000   0.000000   0.000000   0.000000
    15  H    0.000000   0.000000   0.000000   0.000000   0.000000   0.000000
    16  H    0.000000   0.000000   0.000000   0.000000   0.000000   0.000000
    17  H    0.000000   0.000000   0.000000   0.000000   0.000000   0.000000
    18  H    0.000000   0.000000   0.000000   0.000000   0.000000   0.000000
    19  H    0.000000   0.000000   0.000000   0.000000   0.000000   0.000000
    20  H    0.000000   0.000000   0.000000   0.000000   0.000000   0.000000
              13         14         15         16         17         18
     1  P    0.000000   0.000000   0.000000   0.000000   0.000000   0.000000
     2  O    0.000000   0.000000   0.000000   0.000000   0.000000   0.000000
     3  O    0.000000   0.000000   0.000000   0.000000   0.000000   0.000000
     4  O    0.000000   0.000000   0.000000   0.000000   0.000000   0.000000
     5  C    0.000000   0.000000   0.000000   0.000000   0.000000   0.000000
     6  C    0.000000   0.000000   0.000000   0.000000   0.000000   0.000000
     7  O    0.000000   0.000000   0.000000   0.000000   0.000000   0.000000
     8  C    0.000000   0.000000   0.000000   0.000000   0.000000   0.000000
     9  C    0.000000   0.000000   0.000000   0.000000   0.000000   0.000000
    10  H    0.000000   0.000000   0.000000   0.000000   0.000000   0.000000
    11  H    0.000000   0.000000   0.000000   0.000000   0.000000   0.000000
    12  H    0.000000   0.000000   0.000000   0.000000   0.000000   0.000000
    13  H    0.865535   0.000000   0.000000   0.000000   0.000000   0.000000
    14  H    0.000000   0.818292   0.000000   0.000000   0.000000   0.000000
    15  H    0.000000   0.000000   0.839637   0.000000   0.000000   0.000000
    16  H    0.000000   0.000000   0.000000   0.913706   0.000000   0.000000
    17  H    0.000000   0.000000   0.000000   0.000000   0.916969   0.000000
    18  H    0.000000   0.000000   0.000000   0.000000   0.000000   0.829373
    19  H    0.000000   0.000000   0.000000   0.000000   0.000000   0.000000
    20  H    0.000000   0.000000   0.000000   0.000000   0.000000   0.000000
              19         20
     1  P    0.000000   0.000000
     2  O    0.000000   0.000000
     3  O    0.000000   0.000000
     4  O    0.000000   0.000000
     5  C    0.000000   0.000000
     6  C    0.000000   0.000000
     7  O    0.000000   0.000000
     8  C    0.000000   0.000000
     9  C    0.000000   0.000000
    10  H    0.000000   0.000000
    11  H    0.000000   0.000000
    12  H    0.000000   0.000000
    13  H    0.000000   0.000000
    14  H    0.000000   0.000000
    15  H    0.000000   0.000000
    16  H    0.000000   0.000000
    17  H    0.000000   0.000000
    18  H    0.000000   0.000000
    19  H    0.855738   0.000000
    20  H    0.000000   0.828160
 Mulliken charges:
               1
     1  P    1.309682
     2  O   -0.421177
     3  O   -0.438928
     4  O   -0.548508
     5  C   -0.032870
     6  C   -0.524718
     7  O   -0.518408
     8  C    0.017215
     9  C   -0.485363
    10  H    0.253349
    11  H    0.148698
    12  H    0.108438
    13  H    0.134465
    14  H    0.181708
    15  H    0.160363
    16  H    0.086294
    17  H    0.083031
    18  H    0.170627
    19  H    0.144262
    20  H    0.171840
 Sum of Mulliken charges =  -0.00000
 Mulliken charges with hydrogens summed into heavy atoms:
               1
     1  P    1.309682
     2  O   -0.421177
     3  O   -0.438928
     4  O   -0.295158
     5  C    0.224267
     6  C   -0.048182
     7  O   -0.518408
     8  C    0.186540
     9  C    0.001365
 APT charges:
               1
     1  P    0.562455
     2  O   -0.044581
     3  O   -0.064641
     4  O   -0.186119
     5  C    0.100986
     6  C   -0.634402
     7  O   -1.027120
     8  C    0.379696
     9  C   -0.609789
    10  H    0.185167
    11  H    0.115974
    12  H    0.101119
    13  H    0.121564
    14  H    0.199191
    15  H    0.189879
    16  H    0.033975
    17  H    0.031909
    18  H    0.190388
    19  H    0.159236
    20  H    0.196660
 Sum of APT charges =   0.00155
 APT charges with hydrogens summed into heavy atoms:
               1
     1  P    0.562455
     2  O   -0.044581
     3  O   -0.064641
     4  O   -0.000952
     5  C    0.318079
     6  C   -0.123768
     7  O   -1.027120
     8  C    0.445579
     9  C   -0.063505
 Charge=             -0.0000 electrons
 Dipole moment (field-independent basis, Debye):
    X=              1.1556    Y=              2.9316    Z=              7.4976  Tot=              8.1328
 N-N= 3.282776193443D+02 E-N=-5.021878713433D+02  KE=-1.184103465827D+02
  Exact polarizability:      80.703       2.009      79.631     -12.367       3.884      65.772
 Approx polarizability:      58.855       0.030      61.307     -10.653       6.549      51.347
 Calling FoFJK, ICntrl=    100127 FMM=F ISym2X=0 I1Cent= 0 IOpClX= 0 NMat=1 NMatS=1 NMatT=0.
 ***** Axes restored to original set *****
 -------------------------------------------------------------------
 Center     Atomic                   Forces (Hartrees/Bohr)
 Number     Number              X              Y              Z
 -------------------------------------------------------------------
      1       15           0.091139184    0.019828813   -0.118487945
      2        8          -0.077669622   -0.013686806   -0.007516635
      3        8          -0.048444313    0.066470900    0.015181642
      4        8           0.021984974    0.011505083    0.098240561
      5        6          -0.020271109   -0.002840310   -0.013654884
      6        6          -0.004111382   -0.001078091    0.007807514
      7        8          -0.003132024   -0.057829205    0.015946295
      8        6           0.000633703   -0.026228292    0.011716358
      9        6           0.002736228   -0.004770116   -0.001200546
     10        1           0.030083200    0.006000474    0.005338392
     11        1           0.005648059    0.002817584   -0.002484055
     12        1           0.000976364    0.001594476   -0.005620718
     13        1          -0.003822707   -0.004689993   -0.008583244
     14        1          -0.003208621    0.003895170    0.005069596
     15        1           0.007253240   -0.003760779    0.001938275
     16        1          -0.001767568   -0.000254653   -0.000138426
     17        1           0.000113385    0.000246370    0.000001102
     18        1           0.005161561    0.001156628    0.006095625
     19        1           0.003215062    0.004844946   -0.006391290
     20        1          -0.006517613   -0.003222197   -0.003257617
 -------------------------------------------------------------------
 Cartesian Forces:  Max     0.118487945 RMS     0.029697676
 FormGI is forming the generalized inverse of G from B-inverse, IUseBI=4.

 GradGradGradGradGradGradGradGradGradGradGradGradGradGradGradGradGradGrad
 Berny optimization.
 Internal  Forces:  Max     0.147912288 RMS     0.030544604
 Search for a local minimum.
 Step number   1 out of a maximum of  120
 All quantities printed in internal units (Hartrees-Bohrs-Radians)
 Mixed Optimization -- RFO/linear search
 Second derivative matrix not updated -- analytic derivatives used.
 ITU=  0
     Eigenvalues ---   -0.15928  -0.06244  -0.00922  -0.00393   0.00044
     Eigenvalues ---    0.00056   0.00174   0.00190   0.00571   0.03572
     Eigenvalues ---    0.03577   0.03604   0.03673   0.03743   0.03839
     Eigenvalues ---    0.05291   0.05683   0.07892   0.08028   0.08905
     Eigenvalues ---    0.09972   0.10904   0.11354   0.11645   0.11785
     Eigenvalues ---    0.12040   0.12141   0.12687   0.13018   0.16126
     Eigenvalues ---    0.17428   0.18333   0.19119   0.19709   0.22513
     Eigenvalues ---    0.24690   0.24759   0.25091   0.25228   0.25291
     Eigenvalues ---    0.25320   0.25981   0.26691   0.27190   0.27526
     Eigenvalues ---    0.31544   0.39968   0.41217   0.46782   0.54543
     Eigenvalues ---    0.55843   0.65653   0.71238   1.01090
 RFO step:  Lambda=-2.60581250D-01 EMin=-1.59278503D-01
 Linear search not attempted -- first point.
 Maximum step size (   0.300) exceeded in Quadratic search.
    -- Step size scaled by   0.328
 Iteration  1 RMS(Cart)=  0.05895632 RMS(Int)=  0.00343147
 Iteration  2 RMS(Cart)=  0.00513166 RMS(Int)=  0.00122112
 Iteration  3 RMS(Cart)=  0.00001159 RMS(Int)=  0.00122111
 Iteration  4 RMS(Cart)=  0.00000003 RMS(Int)=  0.00122111
 Variable       Old X    -DE/DX   Delta X   Delta X   Delta X     New X
                                 (Linear)    (Quad)   (Total)
    R1        3.31163   0.05499   0.00000  -0.03513  -0.03513   3.27650
    R2        2.93590   0.04156   0.00000  -0.06666  -0.06666   2.86924
    R3        3.28786   0.07241   0.00000  -0.01544  -0.01544   3.27242
    R4        3.30664   0.05398   0.00000  -0.03522  -0.03522   3.27142
    R5        2.66871   0.01766   0.00000  -0.00006  -0.00006   2.66865
    R6        1.87452   0.00762   0.00000  -0.00947  -0.00947   1.86505
    R7        2.88487   0.00827   0.00000   0.00388   0.00388   2.88875
    R8        2.09911   0.00129   0.00000  -0.00005  -0.00005   2.09906
    R9        2.10544  -0.00218   0.00000  -0.00236  -0.00236   2.10309
   R10        2.09682  -0.00827   0.00000  -0.00646  -0.00646   2.09036
   R11        2.09828  -0.00684   0.00000  -0.00401  -0.00401   2.09427
   R12        2.09880  -0.00758   0.00000  -0.00462  -0.00462   2.09418
   R13        2.66328   0.02649   0.00000   0.00747   0.00747   2.67075
   R14        2.87369   0.00581   0.00000   0.00122   0.00122   2.87491
   R15        2.09855   0.00176   0.00000  -0.00003  -0.00003   2.09852
   R16        2.10457   0.00008   0.00000  -0.00017  -0.00017   2.10440
   R17        2.09942  -0.00735   0.00000  -0.00370  -0.00370   2.09572
   R18        2.09754  -0.00791   0.00000  -0.00483  -0.00483   2.09271
   R19        2.09955  -0.00720   0.00000  -0.00397  -0.00397   2.09558
    A1        1.34626   0.04441   0.00000   0.10551   0.09916   1.44541
    A2        2.10810   0.14791   0.00000   0.16644   0.16850   2.27660
    A3        1.23472   0.05972   0.00000   0.05110   0.05064   1.28536
    A4        1.32644   0.06220   0.00000   0.09052   0.08399   1.41042
    A5        1.91856   0.10395   0.00000   0.15134   0.15029   2.06885
    A6        1.23270   0.07369   0.00000   0.05990   0.05952   1.29222
    A7        1.90335   0.05730   0.00000   0.04339   0.04339   1.94674
    A8        1.82864   0.05659   0.00000   0.05290   0.05290   1.88154
    A9        1.94256   0.00420   0.00000   0.00371   0.00371   1.94627
   A10        1.87986  -0.00771   0.00000  -0.00533  -0.00534   1.87452
   A11        1.96939  -0.00105   0.00000  -0.00461  -0.00462   1.96477
   A12        1.88371   0.00529   0.00000   0.00366   0.00366   1.88737
   A13        1.92819   0.00129   0.00000   0.00248   0.00248   1.93066
   A14        1.85537  -0.00229   0.00000   0.00007   0.00005   1.85542
   A15        1.92531   0.00854   0.00000   0.00616   0.00616   1.93146
   A16        1.92249   0.00007   0.00000  -0.00047  -0.00047   1.92202
   A17        1.91243   0.00360   0.00000   0.00323   0.00322   1.91565
   A18        1.91345  -0.00486   0.00000  -0.00252  -0.00252   1.91093
   A19        1.89031  -0.00486   0.00000  -0.00357  -0.00358   1.88673
   A20        1.89937  -0.00271   0.00000  -0.00299  -0.00299   1.89637
   A21        1.88309   0.04785   0.00000   0.03420   0.03420   1.91729
   A22        1.90597  -0.01094   0.00000  -0.00829  -0.00829   1.89768
   A23        1.93509   0.00309   0.00000   0.00111   0.00112   1.93621
   A24        1.93168   0.00310   0.00000   0.00045   0.00045   1.93213
   A25        1.88968   0.00294   0.00000   0.00278   0.00277   1.89245
   A26        1.88976   0.00271   0.00000   0.00374   0.00373   1.89349
   A27        1.91059  -0.00094   0.00000   0.00031   0.00030   1.91089
   A28        1.92019   0.00193   0.00000   0.00080   0.00080   1.92098
   A29        1.91578   0.00473   0.00000   0.00432   0.00432   1.92009
   A30        1.91886   0.00207   0.00000   0.00159   0.00159   1.92045
   A31        1.90277  -0.00249   0.00000  -0.00167  -0.00168   1.90109
   A32        1.90425  -0.00386   0.00000  -0.00351  -0.00351   1.90075
   A33        1.90177  -0.00251   0.00000  -0.00162  -0.00163   1.90014
    D1       -1.77402   0.03818   0.00000   0.09457   0.09817  -1.67585
    D2       -2.90592   0.00328   0.00000  -0.01349  -0.01617  -2.92208
    D3        2.47153  -0.03246   0.00000  -0.00307  -0.00399   2.46754
    D4       -3.07772  -0.00172   0.00000   0.05423   0.05627  -3.02145
    D5        2.06334  -0.02583   0.00000  -0.06011  -0.06319   2.00015
    D6       -2.17107   0.02764   0.00000   0.03968   0.04072  -2.13035
    D7       -2.05614   0.04048   0.00000   0.08661   0.08770  -1.96844
    D8        3.04334   0.01050   0.00000   0.01364   0.01362   3.05696
    D9        1.88432  -0.04788   0.00000  -0.04529  -0.04637   1.83796
   D10       -1.47927   0.00304   0.00000   0.00471   0.00471  -1.47456
   D11        2.74232  -0.00106   0.00000   0.00142   0.00144   2.74376
   D12        0.70000   0.00725   0.00000   0.00737   0.00735   0.70735
   D13        1.22438   0.00174   0.00000  -0.00015  -0.00015   1.22423
   D14       -0.89029   0.00219   0.00000  -0.00071  -0.00071  -0.89100
   D15       -2.97926   0.00324   0.00000   0.00126   0.00126  -2.97800
   D16       -2.99954  -0.00199   0.00000  -0.00226  -0.00227  -3.00180
   D17        1.16898  -0.00154   0.00000  -0.00283  -0.00283   1.16615
   D18       -0.91999  -0.00049   0.00000  -0.00086  -0.00086  -0.92085
   D19       -0.97781  -0.00100   0.00000   0.00124   0.00124  -0.97657
   D20       -3.09248  -0.00055   0.00000   0.00068   0.00068  -3.09180
   D21        1.10173   0.00050   0.00000   0.00265   0.00265   1.10438
   D22       -3.13484   0.00011   0.00000  -0.00063  -0.00063  -3.13548
   D23        1.06762   0.00150   0.00000   0.00050   0.00050   1.06811
   D24       -1.05610  -0.00152   0.00000  -0.00095  -0.00095  -1.05704
   D25       -1.03580   0.00107   0.00000   0.00130   0.00130  -1.03450
   D26       -3.12962  -0.00004   0.00000   0.00016   0.00015  -3.12946
   D27        1.06180  -0.00118   0.00000  -0.00153  -0.00153   1.06027
   D28        1.07287   0.00011   0.00000  -0.00059  -0.00059   1.07228
   D29       -1.02095  -0.00099   0.00000  -0.00173  -0.00173  -1.02268
   D30       -3.11271  -0.00214   0.00000  -0.00342  -0.00342  -3.11614
   D31       -3.14038   0.00214   0.00000   0.00340   0.00341  -3.13698
   D32        1.04898   0.00103   0.00000   0.00226   0.00226   1.05124
   D33       -1.04279  -0.00011   0.00000   0.00057   0.00058  -1.04221
         Item               Value     Threshold  Converged?
 Maximum Force            0.147912     0.000450     NO 
 RMS     Force            0.030545     0.000300     NO 
 Maximum Displacement     0.184301     0.001800     NO 
 RMS     Displacement     0.058589     0.001200     NO 
 Predicted change in Energy=-7.430890D-02
 GradGradGradGradGradGradGradGradGradGradGradGradGradGradGradGradGradGrad

                          Input orientation:                          
 ---------------------------------------------------------------------
 Center     Atomic      Atomic             Coordinates (Angstroms)
 Number     Number       Type             X           Y           Z
 ---------------------------------------------------------------------
      1         15           0       -2.409861    2.372449    0.552472
      2          8           0       -3.045429    1.973800   -1.010652
      3          8           0       -2.245707    3.745282   -0.075007
      4          8           0       -0.786966    2.712464    1.051818
      5          6           0       -4.455232    2.052863   -1.032708
      6          6           0       -5.097133    0.760053   -0.529304
      7          8           0       -1.443678    1.067664   -0.048310
      8          6           0       -1.660817   -0.089747    0.733140
      9          6           0       -0.794467   -1.215905    0.189384
     10          1           0       -0.783573    2.788046    2.035853
     11          1           0       -4.763043    2.203135   -2.089350
     12          1           0       -4.842869    2.929151   -0.466657
     13          1           0       -4.936523    0.642423    0.558804
     14          1           0       -4.668113   -0.111505   -1.062709
     15          1           0       -6.189287    0.786948   -0.715219
     16          1           0       -2.723333   -0.408728    0.683121
     17          1           0       -1.377380    0.092926    1.794462
     18          1           0       -1.052447   -1.416662   -0.870353
     19          1           0       -0.957682   -2.138507    0.779749
     20          1           0        0.276540   -0.935149    0.251466
 ---------------------------------------------------------------------
                    Distance matrix (angstroms):
                    1          2          3          4          5
     1  P    0.000000
     2  O    1.733847   0.000000
     3  O    1.518337   2.157113   0.000000
     4  O    1.731688   3.146436   2.112905   0.000000
     5  C    2.607388   1.412190   2.943378   4.270421   0.000000
     6  C    3.315342   2.431947   4.153145   4.988927   1.528663
     7  O    1.731159   2.076726   2.795282   2.084927   3.317998
     8  C    2.579945   3.035818   3.962656   2.952552   3.939258
     9  C    3.951912   4.084255   5.175845   4.021931   5.057624
    10  H    2.240079   3.880745   2.740413   0.986940   4.841244
    11  H    3.541942   2.041171   3.573902   5.092694   1.110775
    12  H    2.695936   2.106992   2.750402   4.336250   1.112905
    13  H    3.062197   2.794994   4.155711   4.663363   2.180342
    14  H    3.725391   2.642785   4.660302   5.244934   2.175019
    15  H    4.290095   3.373387   4.971261   6.001258   2.170319
    16  H    2.801835   2.940928   4.249551   3.691516   3.464531
    17  H    2.793704   3.766794   4.193877   2.786052   4.615996
    18  H    4.269001   3.935340   5.357435   4.562336   4.862398
    19  H    4.744387   4.947252   6.083468   4.861594   5.751995
    20  H    4.271716   4.592429   5.326795   3.882871   5.741689
                    6          7          8          9         10
     6  C    0.000000
     7  O    3.697798   0.000000
     8  C    3.758217   1.413299   0.000000
     9  C    4.788931   2.385929   1.521336   0.000000
    10  H    5.412910   2.781940   3.278462   4.409216   0.000000
    11  H    2.151243   4.058733   4.779912   5.712447   5.761562
    12  H    2.184849   3.898031   4.547386   5.831076   4.770781
    13  H    1.106170   3.570627   3.361058   4.554831   4.902281
    14  H    1.108238   3.580004   3.502767   4.218125   5.753098
    15  H    1.108191   4.800455   4.834603   5.825274   6.387060
    16  H    2.910490   2.086202   1.110491   2.148450   3.976420
    17  H    4.436385   2.085741   1.113603   2.151535   2.770297
    18  H    4.605854   2.645882   2.168411   1.109008   5.118388
    19  H    5.220185   3.346850   2.166562   1.107414   5.087144
    20  H    5.688557   2.657118   2.167964   1.108934   4.262635
                   11         12         13         14         15
    11  H    0.000000
    12  H    1.779496   0.000000
    13  H    3.078739   2.507881   0.000000
    14  H    2.533882   3.103451   1.808247   0.000000
    15  H    2.434747   2.542373   1.792608   1.800538   0.000000
    16  H    4.320745   4.117750   2.453280   2.630292   3.924008
    17  H    5.567736   5.016617   3.807400   4.362814   5.471254
    18  H    5.325167   5.780689   4.622593   3.848829   5.591699
    19  H    6.446887   6.506103   4.859379   4.612017   6.177614
    20  H    6.381664   6.454213   5.455201   5.182186   6.760697
                   16         17         18         19         20
    16  H    0.000000
    17  H    1.816129   0.000000
    18  H    2.494208   3.079883   0.000000
    19  H    2.473661   2.486983   1.803573   0.000000
    20  H    3.076147   2.484598   1.804589   1.802903   0.000000
 Stoichiometry    C4H11O4P
 Framework group  C1[X(C4H11O4P)]
 Deg. of freedom    54
 Full point group                 C1      NOp   1
 Largest Abelian subgroup         C1      NOp   1
 Largest concise Abelian subgroup C1      NOp   1
                         Standard orientation:                         
 ---------------------------------------------------------------------
 Center     Atomic      Atomic             Coordinates (Angstroms)
 Number     Number       Type             X           Y           Z
 ---------------------------------------------------------------------
      1         15           0        0.284152   -0.854383    0.392113
      2          8           0        1.031460    0.183539   -0.778560
      3          8           0        1.079842   -1.926167   -0.331422
      4          8           0       -0.960048   -2.044430    0.206382
      5          6           0        2.192791    0.797764   -0.260564
      6          6           0        1.853724    2.062720    0.527935
      7          8           0       -1.004455   -0.067659   -0.454922
      8          6           0       -1.687589    0.809254    0.417869
      9          6           0       -2.817940    1.479176   -0.348927
     10          1           0       -1.212090   -2.360559    1.106708
     11          1           0        2.828169    1.088440   -1.124058
     12          1           0        2.804186    0.102849    0.357374
     13          1           0        1.342795    1.807076    1.475146
     14          1           0        1.202608    2.725519   -0.076165
     15          1           0        2.784643    2.610475    0.775813
     16          1           0       -1.006605    1.598706    0.800253
     17          1           0       -2.125604    0.249364    1.275061
     18          1           0       -2.410226    2.041664   -1.213378
     19          1           0       -3.360676    2.181762    0.313021
     20          1           0       -3.529789    0.714691   -0.721176
 ---------------------------------------------------------------------
 Rotational constants (GHZ):           1.6027794           1.2663285           0.7908999
 Standard basis: VSTO-6G (5D, 7F)
 There are    53 symmetry adapted cartesian basis functions of A   symmetry.
 There are    52 symmetry adapted basis functions of A   symmetry.
    52 basis functions,   318 primitive gaussians,    53 cartesian basis functions
    28 alpha electrons       28 beta electrons
       nuclear repulsion energy       326.4842520441 Hartrees.
 Integral buffers will be    131072 words long.
 Regular integral format.
 Two-electron integral symmetry is turned off.
 Do NDO integrals.
 One-electron integrals computed using PRISM.
 NBasis=    52 RedAO= F EigKep=  0.00D+00  NBF=    52
 NBsUse=    52 1.00D-04 EigRej=  0.00D+00 NBFU=    52
 Initial guess from the checkpoint file:  "/home/A23321P/work/myGaussian/nanoMoS/mols/Gau-882793.chk"
 B after Tr=     0.000000   -0.000000    0.000000
         Rot=    0.999997   -0.002479   -0.000294    0.000001 Ang=  -0.29 deg.
 Keep J ints in memory in canonical form, NReq=1856984.
 Overlap will be assumed to be unity.
 Requested convergence on RMS density matrix=1.00D-08 within9999 cycles.
 Requested convergence on MAX density matrix=1.00D-06.
 Requested convergence on             energy=1.00D-06.
 No special actions if energy rises.
 SCF Done:  E(RPM6) = -0.125121901386     A.U. after   24 cycles
            NFock= 23  Conv=0.79D-08     -V/T= 0.9989
 Range of M.O.s used for correlation:     1    52
 NBasis=    52 NAE=    28 NBE=    28 NFC=     0 NFV=     0
 NROrb=     52 NOA=    28 NOB=    28 NVA=    24 NVB=    24
 Symmetrizing basis deriv contribution to polar:
 IMax=3 JMax=2 DiffMx= 0.00D+00
 G2DrvN: will do    21 centers at a time, making    1 passes.
 Calling FoFCou, ICntrl=  3107 FMM=F I1Cent=   0 AccDes= 0.00D+00.
 End of G2Drv F.D. properties file   721 does not exist.
 End of G2Drv F.D. properties file   722 does not exist.
 End of G2Drv F.D. properties file   788 does not exist.
          IDoAtm=11111111111111111111
          Differentiating once with respect to electric field.
                with respect to dipole field.
          Differentiating once with respect to nuclear coordinates.
          Electric field/nuclear overlap derivatives assumed to be zero.
 Keep J ints in memory in canonical form, NReq=1859035.
          There are    63 degrees of freedom in the 1st order CPHF.  IDoFFX=5 NUNeed=    63.
 LinEq1:  Iter=  0 NonCon=    63 RMS=2.12D-01 Max=2.21D+00 NDo=    63
 AX will form    63 AO Fock derivatives at one time.
 LinEq1:  Iter=  1 NonCon=    63 RMS=4.07D-02 Max=4.50D-01 NDo=    63
 LinEq1:  Iter=  2 NonCon=    63 RMS=1.49D-02 Max=1.69D-01 NDo=    63
 LinEq1:  Iter=  3 NonCon=    63 RMS=4.49D-03 Max=4.92D-02 NDo=    63
 LinEq1:  Iter=  4 NonCon=    63 RMS=1.27D-03 Max=1.72D-02 NDo=    63
 LinEq1:  Iter=  5 NonCon=    63 RMS=4.49D-04 Max=6.12D-03 NDo=    63
 LinEq1:  Iter=  6 NonCon=    63 RMS=1.03D-04 Max=1.19D-03 NDo=    63
 LinEq1:  Iter=  7 NonCon=    63 RMS=2.07D-05 Max=2.02D-04 NDo=    63
 LinEq1:  Iter=  8 NonCon=    58 RMS=5.15D-06 Max=5.93D-05 NDo=    63
 LinEq1:  Iter=  9 NonCon=    32 RMS=9.31D-07 Max=9.56D-06 NDo=    63
 LinEq1:  Iter= 10 NonCon=    10 RMS=1.68D-07 Max=1.92D-06 NDo=    32
 LinEq1:  Iter= 11 NonCon=     3 RMS=3.45D-08 Max=3.59D-07 NDo=    10
 LinEq1:  Iter= 12 NonCon=     0 RMS=7.46D-09 Max=7.61D-08 NDo=     3
 Linear equations converged to 1.000D-08 1.000D-07 after    12 iterations.
 Isotropic polarizability for W=    0.000000       70.23 Bohr**3.
 End of Minotr F.D. properties file   721 does not exist.
 End of Minotr F.D. properties file   722 does not exist.
 End of Minotr F.D. properties file   788 does not exist.
 Calling FoFJK, ICntrl=    100127 FMM=F ISym2X=0 I1Cent= 0 IOpClX= 0 NMat=1 NMatS=1 NMatT=0.
 ***** Axes restored to original set *****
 -------------------------------------------------------------------
 Center     Atomic                   Forces (Hartrees/Bohr)
 Number     Number              X              Y              Z
 -------------------------------------------------------------------
      1       15           0.111526580    0.030757949   -0.147333742
      2        8          -0.066464047   -0.021169345    0.011807679
      3        8          -0.047223251    0.046819612    0.029782750
      4        8          -0.005285207   -0.000994117    0.085375296
      5        6          -0.018313580    0.000637955   -0.010033529
      6        6          -0.001755386    0.000027620    0.006846564
      7        8          -0.007558316   -0.037569883    0.021841921
      8        6          -0.000494759   -0.022655574    0.010476246
      9        6           0.001821145   -0.003233334   -0.000587083
     10        1           0.026123336    0.005316880    0.004135124
     11        1           0.005774767    0.001969936   -0.002386536
     12        1           0.001153362    0.000745325   -0.003668380
     13        1          -0.003404645   -0.004238949   -0.007024664
     14        1          -0.002708306    0.003276687    0.003979656
     15        1           0.006033514   -0.003174416    0.001395966
     16        1          -0.001673775    0.000455946   -0.000528645
     17        1           0.000294408    0.000631066   -0.000543149
     18        1           0.004406623    0.000956940    0.005020276
     19        1           0.002949202    0.004033786   -0.005256593
     20        1          -0.005201665   -0.002594084   -0.003299158
 -------------------------------------------------------------------
 Cartesian Forces:  Max     0.147333742 RMS     0.030791549
 FormGI is forming the generalized inverse of G from B-inverse, IUseBI=4.

 GradGradGradGradGradGradGradGradGradGradGradGradGradGradGradGradGradGrad
 Berny optimization.
 Using GEDIIS/GDIIS optimizer.
 Internal  Forces:  Max     0.132978487 RMS     0.025594605
 Search for a local minimum.
 Step number   2 out of a maximum of  120
 All quantities printed in internal units (Hartrees-Bohrs-Radians)
 Mixed Optimization -- RFO/linear search
 Second derivative matrix not updated -- analytic derivatives used.
 DE= -7.01D-02 DEPred=-7.43D-02 R= 9.43D-01
 TightC=F SS=  1.41D+00  RLast= 3.41D-01 DXNew= 5.0454D-01 1.0238D+00
 Trust test= 9.43D-01 RLast= 3.41D-01 DXMaxT set to 5.05D-01
 ITU=  1  0
 Use linear search instead of GDIIS.
     Eigenvalues ---   -0.08464  -0.01281  -0.00784   0.00031   0.00045
     Eigenvalues ---    0.00082   0.00230   0.00386   0.03559   0.03579
     Eigenvalues ---    0.03599   0.03638   0.03726   0.03810   0.04053
     Eigenvalues ---    0.05277   0.05650   0.08176   0.08735   0.09619
     Eigenvalues ---    0.10143   0.10898   0.11292   0.11493   0.11688
     Eigenvalues ---    0.11908   0.12081   0.12534   0.12889   0.13213
     Eigenvalues ---    0.15517   0.16929   0.17436   0.19228   0.20189
     Eigenvalues ---    0.24741   0.24807   0.25215   0.25348   0.25396
     Eigenvalues ---    0.25431   0.26006   0.26791   0.27282   0.27445
     Eigenvalues ---    0.28466   0.38494   0.40357   0.43803   0.46702
     Eigenvalues ---    0.52528   0.54386   0.62791   0.74792
 RFO step:  Lambda=-1.56824933D-01 EMin=-8.46384616D-02
 Skip linear search -- no minimum in search direction.
 Maximum step size (   0.505) exceeded in Quadratic search.
    -- Step size scaled by   0.494
 Iteration  1 RMS(Cart)=  0.13599462 RMS(Int)=  0.03046638
 Iteration  2 RMS(Cart)=  0.10167015 RMS(Int)=  0.00802456
 Iteration  3 RMS(Cart)=  0.00682038 RMS(Int)=  0.00679499
 Iteration  4 RMS(Cart)=  0.00007085 RMS(Int)=  0.00679495
 Iteration  5 RMS(Cart)=  0.00000195 RMS(Int)=  0.00679495
 Iteration  6 RMS(Cart)=  0.00000009 RMS(Int)=  0.00679495
 Variable       Old X    -DE/DX   Delta X   Delta X   Delta X     New X
                                 (Linear)    (Quad)   (Total)
    R1        3.27650   0.03342   0.00000  -0.05857  -0.05857   3.21793
    R2        2.86924   0.02492   0.00000  -0.03520  -0.03520   2.83404
    R3        3.27242   0.04619   0.00000  -0.06644  -0.06644   3.20598
    R4        3.27142   0.03274   0.00000  -0.01805  -0.01805   3.25337
    R5        2.66865   0.01333   0.00000   0.00915   0.00915   2.67780
    R6        1.86505   0.00462   0.00000   0.00355   0.00355   1.86859
    R7        2.88875   0.00596   0.00000   0.00009   0.00009   2.88884
    R8        2.09906   0.00094   0.00000   0.00090   0.00090   2.09996
    R9        2.10309  -0.00168   0.00000  -0.00386  -0.00386   2.09922
   R10        2.09036  -0.00695   0.00000  -0.00818  -0.00818   2.08217
   R11        2.09427  -0.00554   0.00000  -0.00559  -0.00559   2.08867
   R12        2.09418  -0.00626   0.00000  -0.00632  -0.00632   2.08786
   R13        2.67075   0.02095   0.00000   0.01275   0.01275   2.68350
   R14        2.87491   0.00436   0.00000   0.00170   0.00170   2.87660
   R15        2.09852   0.00149   0.00000  -0.00061  -0.00061   2.09791
   R16        2.10440  -0.00034   0.00000   0.00025   0.00025   2.10466
   R17        2.09572  -0.00600   0.00000  -0.00684  -0.00684   2.08888
   R18        2.09271  -0.00660   0.00000  -0.00819  -0.00819   2.08452
   R19        2.09558  -0.00587   0.00000  -0.00612  -0.00612   2.08947
    A1        1.44541   0.04172   0.00000   0.08350   0.06482   1.51023
    A2        2.27660   0.13298   0.00000   0.43147   0.42780   2.70440
    A3        1.28536   0.05142   0.00000   0.06668   0.09376   1.37912
    A4        1.41042   0.04647   0.00000   0.13622   0.12183   1.53226
    A5        2.06885   0.09108   0.00000  -0.05742  -0.07131   1.99754
    A6        1.29222   0.05315   0.00000   0.09642   0.12526   1.41748
    A7        1.94674   0.04214   0.00000   0.07229   0.07229   2.01903
    A8        1.88154   0.04957   0.00000   0.08501   0.08501   1.96655
    A9        1.94627   0.00203   0.00000  -0.00371  -0.00369   1.94258
   A10        1.87452  -0.00666   0.00000  -0.01176  -0.01174   1.86278
   A11        1.96477  -0.00037   0.00000  -0.00383  -0.00383   1.96094
   A12        1.88737   0.00497   0.00000   0.01392   0.01388   1.90125
   A13        1.93066   0.00131   0.00000   0.00761   0.00757   1.93823
   A14        1.85542  -0.00146   0.00000  -0.00192  -0.00204   1.85337
   A15        1.93146   0.00733   0.00000   0.01154   0.01152   1.94298
   A16        1.92202   0.00016   0.00000   0.00209   0.00208   1.92409
   A17        1.91565   0.00279   0.00000   0.00429   0.00427   1.91992
   A18        1.91093  -0.00411   0.00000  -0.00699  -0.00701   1.90392
   A19        1.88673  -0.00403   0.00000  -0.00603  -0.00607   1.88066
   A20        1.89637  -0.00239   0.00000  -0.00536  -0.00536   1.89101
   A21        1.91729   0.03934   0.00000   0.00557   0.00557   1.92286
   A22        1.89768  -0.01020   0.00000  -0.01981  -0.01980   1.87788
   A23        1.93621   0.00241   0.00000  -0.00138  -0.00137   1.93484
   A24        1.93213   0.00260   0.00000   0.00443   0.00447   1.93660
   A25        1.89245   0.00319   0.00000   0.00786   0.00780   1.90025
   A26        1.89349   0.00272   0.00000   0.00830   0.00828   1.90178
   A27        1.91089  -0.00075   0.00000   0.00078   0.00072   1.91160
   A28        1.92098   0.00170   0.00000   0.00245   0.00244   1.92343
   A29        1.92009   0.00412   0.00000   0.00701   0.00700   1.92709
   A30        1.92045   0.00187   0.00000   0.00103   0.00102   1.92147
   A31        1.90109  -0.00213   0.00000  -0.00174  -0.00176   1.89933
   A32        1.90075  -0.00356   0.00000  -0.00657  -0.00657   1.89418
   A33        1.90014  -0.00215   0.00000  -0.00240  -0.00240   1.89774
    D1       -1.67585   0.04114   0.00000   0.00061   0.00651  -1.66934
    D2       -2.92208  -0.00643   0.00000  -0.08480  -0.09529  -3.01737
    D3        2.46754  -0.02338   0.00000   0.12181   0.12640   2.59394
    D4       -3.02145   0.00869   0.00000  -0.02856  -0.01630  -3.03775
    D5        2.00015  -0.03435   0.00000  -0.08249  -0.09799   1.90217
    D6       -2.13035   0.02541   0.00000  -0.24405  -0.24081  -2.37116
    D7       -1.96844   0.04497   0.00000   0.13965   0.11820  -1.85024
    D8        3.05696   0.00320   0.00000  -0.03590  -0.03821   3.01875
    D9        1.83796  -0.04510   0.00000  -0.30043  -0.27667   1.56129
   D10       -1.47456   0.00190   0.00000   0.01261   0.01261  -1.46195
   D11        2.74376  -0.00119   0.00000   0.00505   0.00506   2.74882
   D12        0.70735   0.00494   0.00000   0.01686   0.01684   0.72419
   D13        1.22423   0.00169   0.00000   0.00174   0.00174   1.22597
   D14       -0.89100   0.00192   0.00000   0.00154   0.00155  -0.88945
   D15       -2.97800   0.00303   0.00000   0.00418   0.00419  -2.97380
   D16       -3.00180  -0.00219   0.00000  -0.00616  -0.00620  -3.00800
   D17        1.16615  -0.00196   0.00000  -0.00635  -0.00639   1.15977
   D18       -0.92085  -0.00085   0.00000  -0.00371  -0.00374  -0.92459
   D19       -0.97657  -0.00035   0.00000   0.00376   0.00379  -0.97279
   D20       -3.09180  -0.00011   0.00000   0.00357   0.00360  -3.08820
   D21        1.10438   0.00099   0.00000   0.00620   0.00624   1.11063
   D22       -3.13548   0.00001   0.00000   0.01335   0.01338  -3.12210
   D23        1.06811   0.00104   0.00000   0.01696   0.01692   1.08503
   D24       -1.05704  -0.00143   0.00000   0.01387   0.01388  -1.04317
   D25       -1.03450   0.00104   0.00000   0.00577   0.00577  -1.02873
   D26       -3.12946   0.00000   0.00000   0.00194   0.00193  -3.12753
   D27        1.06027  -0.00111   0.00000  -0.00017  -0.00017   1.06009
   D28        1.07228  -0.00016   0.00000  -0.00291  -0.00294   1.06935
   D29       -1.02268  -0.00120   0.00000  -0.00674  -0.00677  -1.02945
   D30       -3.11614  -0.00231   0.00000  -0.00885  -0.00888  -3.12501
   D31       -3.13698   0.00227   0.00000   0.00715   0.00718  -3.12979
   D32        1.05124   0.00124   0.00000   0.00332   0.00335   1.05459
   D33       -1.04221   0.00013   0.00000   0.00122   0.00124  -1.04097
         Item               Value     Threshold  Converged?
 Maximum Force            0.132978     0.000450     NO 
 RMS     Force            0.025595     0.000300     NO 
 Maximum Displacement     0.810591     0.001800     NO 
 RMS     Displacement     0.217848     0.001200     NO 
 Predicted change in Energy=-8.819656D-02
 GradGradGradGradGradGradGradGradGradGradGradGradGradGradGradGradGradGrad

                          Input orientation:                          
 ---------------------------------------------------------------------
 Center     Atomic      Atomic             Coordinates (Angstroms)
 Number     Number       Type             X           Y           Z
 ---------------------------------------------------------------------
      1         15           0       -2.316400    2.316593    0.380325
      2          8           0       -3.109144    1.865844   -1.057762
      3          8           0       -2.031987    3.625503   -0.294206
      4          8           0       -0.965390    2.605370    1.365003
      5          6           0       -4.512465    2.061921   -1.072809
      6          6           0       -5.244192    0.888345   -0.421468
      7          8           0       -1.323385    1.012738   -0.146755
      8          6           0       -1.554417   -0.134794    0.657193
      9          6           0       -0.630724   -1.238120    0.160546
     10          1           0       -1.212519    2.817216    2.298708
     11          1           0       -4.814819    2.127762   -2.140109
     12          1           0       -4.809434    3.025558   -0.606735
     13          1           0       -5.079260    0.868112    0.667769
     14          1           0       -4.898803   -0.066933   -0.857115
     15          1           0       -6.331553    0.977161   -0.595963
     16          1           0       -2.606156   -0.477687    0.563719
     17          1           0       -1.324993    0.075242    1.726613
     18          1           0       -0.833086   -1.454913   -0.904317
     19          1           0       -0.782874   -2.160151    0.746629
     20          1           0        0.424601   -0.923766    0.260734
 ---------------------------------------------------------------------
                    Distance matrix (angstroms):
                    1          2          3          4          5
     1  P    0.000000
     2  O    1.702854   0.000000
     3  O    1.499709   2.199929   0.000000
     4  O    1.696530   3.318489   2.220648   0.000000
     5  C    2.645591   1.417033   3.033773   4.338203   0.000000
     6  C    3.354807   2.432860   4.222143   4.944472   1.528709
     7  O    1.721607   2.178683   2.711163   2.224870   3.482613
     8  C    2.581971   3.059542   3.908077   2.890751   4.070443
     9  C    3.940279   4.154688   5.081847   4.041674   5.242074
    10  H    2.269222   3.970917   2.836909   0.988816   4.777785
    11  H    3.553919   2.037009   3.659883   5.228004   1.111253
    12  H    2.773470   2.106977   2.858639   4.340620   1.110861
    13  H    3.132749   2.802550   4.220720   4.519749   2.185417
    14  H    3.725756   2.641735   4.708459   5.248881   2.174350
    15  H    4.343808   3.374453   5.058759   5.940721   2.170983
    16  H    2.815243   2.893844   4.231061   3.583212   3.572372
    17  H    2.796253   3.760610   4.145829   2.581012   4.684402
    18  H    4.251445   4.028823   5.255495   4.653301   5.092577
    19  H    4.746275   4.987584   6.009777   4.808938   5.919974
    20  H    4.245859   4.691237   5.199868   3.950478   5.921763
                    6          7          8          9         10
     6  C    0.000000
     7  O    3.932388   0.000000
     8  C    3.978036   1.420048   0.000000
     9  C    5.113187   2.374989   1.522234   0.000000
    10  H    5.232044   3.041171   3.394971   4.621252   0.000000
    11  H    2.161999   4.172152   4.855335   5.841988   5.758038
    12  H    2.188840   4.051613   4.709615   6.019077   4.628477
    13  H    1.101839   3.845903   3.664758   4.948026   4.627165
    14  H    1.105277   3.801831   3.671873   4.541344   5.645017
    15  H    1.104848   5.028400   5.062398   6.162728   6.161934
    16  H    3.129836   2.090847   1.110166   2.154794   3.976028
    17  H    4.542632   2.094852   1.113736   2.158586   2.803277
    18  H    5.018153   2.627469   2.168259   1.105388   5.352983
    19  H    5.528214   3.340286   2.169182   1.103079   5.231417
    20  H    5.990356   2.640369   2.167064   1.105698   4.563819
                   11         12         13         14         15
    11  H    0.000000
    12  H    1.776880   0.000000
    13  H    3.088822   2.520266   0.000000
    14  H    2.543582   3.103897   1.797817   0.000000
    15  H    2.451274   2.552037   1.782456   1.791955   0.000000
    16  H    4.356288   4.300828   2.817489   2.728318   4.164136
    17  H    5.598505   5.127397   3.980491   4.412253   5.592267
    18  H    5.496994   5.997877   5.088998   4.296367   6.020233
    19  H    6.555611   6.703459   5.256951   4.888193   6.514071
    20  H    6.521303   6.613984   5.802499   5.506576   7.070577
                   16         17         18         19         20
    16  H    0.000000
    17  H    1.816433   0.000000
    18  H    2.500776   3.083041   0.000000
    19  H    2.487669   2.500249   1.795970   0.000000
    20  H    3.078355   2.491566   1.794781   1.795199   0.000000
 Stoichiometry    C4H11O4P
 Framework group  C1[X(C4H11O4P)]
 Deg. of freedom    54
 Full point group                 C1      NOp   1
 Largest Abelian subgroup         C1      NOp   1
 Largest concise Abelian subgroup C1      NOp   1
                         Standard orientation:                         
 ---------------------------------------------------------------------
 Center     Atomic      Atomic             Coordinates (Angstroms)
 Number     Number       Type             X           Y           Z
 ---------------------------------------------------------------------
      1         15           0        0.211830   -0.851936    0.239204
      2          8           0        1.075007    0.218806   -0.764862
      3          8           0        0.809876   -1.957187   -0.579264
      4          8           0       -1.054568   -1.912450    0.626191
      5          6           0        2.330143    0.649653   -0.267884
      6          6           0        2.172800    1.832974    0.687074
      7          8           0       -1.078739   -0.012643   -0.531478
      8          6           0       -1.681359    0.898411    0.375918
      9          6           0       -2.827089    1.584990   -0.354226
     10          1           0       -1.026422   -2.212160    1.568071
     11          1           0        2.928405    0.972732   -1.146851
     12          1           0        2.901263   -0.175037    0.209318
     13          1           0        1.703231    1.523509    1.634590
     14          1           0        1.556777    2.622540    0.219377
     15          1           0        3.163304    2.260317    0.925754
     16          1           0       -0.952656    1.668438    0.705337
     17          1           0       -2.087023    0.365036    1.265500
     18          1           0       -2.448334    2.111649   -1.249244
     19          1           0       -3.321062    2.316850    0.306951
     20          1           0       -3.574517    0.836771   -0.676851
 ---------------------------------------------------------------------
 Rotational constants (GHZ):           1.6321985           1.1591131           0.7794066
 Standard basis: VSTO-6G (5D, 7F)
 There are    53 symmetry adapted cartesian basis functions of A   symmetry.
 There are    52 symmetry adapted basis functions of A   symmetry.
    52 basis functions,   318 primitive gaussians,    53 cartesian basis functions
    28 alpha electrons       28 beta electrons
       nuclear repulsion energy       323.9120377616 Hartrees.
 Integral buffers will be    131072 words long.
 Regular integral format.
 Two-electron integral symmetry is turned off.
 Do NDO integrals.
 One-electron integrals computed using PRISM.
 NBasis=    52 RedAO= F EigKep=  0.00D+00  NBF=    52
 NBsUse=    52 1.00D-04 EigRej=  0.00D+00 NBFU=    52
 Initial guess from the checkpoint file:  "/home/A23321P/work/myGaussian/nanoMoS/mols/Gau-882793.chk"
 B after Tr=    -0.000000   -0.000000   -0.000000
         Rot=    0.999298   -0.005244   -0.010555    0.035563 Ang=  -4.29 deg.
 Keep J ints in memory in canonical form, NReq=1856984.
 Overlap will be assumed to be unity.
 Requested convergence on RMS density matrix=1.00D-08 within9999 cycles.
 Requested convergence on MAX density matrix=1.00D-06.
 Requested convergence on             energy=1.00D-06.
 No special actions if energy rises.
 SCF Done:  E(RPM6) = -0.207193153662     A.U. after   18 cycles
            NFock= 17  Conv=0.41D-08     -V/T= 0.9983
 Range of M.O.s used for correlation:     1    52
 NBasis=    52 NAE=    28 NBE=    28 NFC=     0 NFV=     0
 NROrb=     52 NOA=    28 NOB=    28 NVA=    24 NVB=    24
 Symmetrizing basis deriv contribution to polar:
 IMax=3 JMax=2 DiffMx= 0.00D+00
 G2DrvN: will do    21 centers at a time, making    1 passes.
 Calling FoFCou, ICntrl=  3107 FMM=F I1Cent=   0 AccDes= 0.00D+00.
 End of G2Drv F.D. properties file   721 does not exist.
 End of G2Drv F.D. properties file   722 does not exist.
 End of G2Drv F.D. properties file   788 does not exist.
          IDoAtm=11111111111111111111
          Differentiating once with respect to electric field.
                with respect to dipole field.
          Differentiating once with respect to nuclear coordinates.
          Electric field/nuclear overlap derivatives assumed to be zero.
 Keep J ints in memory in canonical form, NReq=1859035.
          There are    63 degrees of freedom in the 1st order CPHF.  IDoFFX=5 NUNeed=    63.
 LinEq1:  Iter=  0 NonCon=    63 RMS=1.95D-01 Max=1.74D+00 NDo=    63
 AX will form    63 AO Fock derivatives at one time.
 LinEq1:  Iter=  1 NonCon=    63 RMS=2.98D-02 Max=2.17D-01 NDo=    63
 LinEq1:  Iter=  2 NonCon=    63 RMS=9.77D-03 Max=9.35D-02 NDo=    63
 LinEq1:  Iter=  3 NonCon=    63 RMS=2.49D-03 Max=3.26D-02 NDo=    63
 LinEq1:  Iter=  4 NonCon=    63 RMS=6.41D-04 Max=6.27D-03 NDo=    63
 LinEq1:  Iter=  5 NonCon=    63 RMS=1.34D-04 Max=1.67D-03 NDo=    63
 LinEq1:  Iter=  6 NonCon=    63 RMS=3.03D-05 Max=4.31D-04 NDo=    63
 LinEq1:  Iter=  7 NonCon=    61 RMS=6.85D-06 Max=5.96D-05 NDo=    63
 LinEq1:  Iter=  8 NonCon=    31 RMS=1.37D-06 Max=9.22D-06 NDo=    63
 LinEq1:  Iter=  9 NonCon=     9 RMS=2.23D-07 Max=2.08D-06 NDo=    31
 LinEq1:  Iter= 10 NonCon=     3 RMS=3.73D-08 Max=4.10D-07 NDo=     9
 LinEq1:  Iter= 11 NonCon=     0 RMS=7.15D-09 Max=6.96D-08 NDo=     3
 Linear equations converged to 1.000D-08 1.000D-07 after    11 iterations.
 Isotropic polarizability for W=    0.000000       65.97 Bohr**3.
 End of Minotr F.D. properties file   721 does not exist.
 End of Minotr F.D. properties file   722 does not exist.
 End of Minotr F.D. properties file   788 does not exist.
 Calling FoFJK, ICntrl=    100127 FMM=F ISym2X=0 I1Cent= 0 IOpClX= 0 NMat=1 NMatS=1 NMatT=0.
 ***** Axes restored to original set *****
 -------------------------------------------------------------------
 Center     Atomic                   Forces (Hartrees/Bohr)
 Number     Number              X              Y              Z
 -------------------------------------------------------------------
      1       15           0.114924229    0.019412542   -0.124675892
      2        8          -0.053336162   -0.022660146    0.027286309
      3        8          -0.024965830    0.036902835    0.017277038
      4        8          -0.038175779   -0.014466675    0.060803376
      5        6          -0.015556159    0.000802623   -0.005027101
      6        6           0.000461438    0.001643772    0.004845731
      7        8          -0.008637685   -0.007486807    0.012386971
      8        6          -0.000631579   -0.018422648    0.010921381
      9        6           0.000853763   -0.001445690    0.000054173
     10        1           0.017064865    0.005053959    0.006620407
     11        1           0.005958500    0.000411897   -0.002076916
     12        1           0.001613846    0.000337655   -0.002287808
     13        1          -0.002866567   -0.003446728   -0.004482838
     14        1          -0.001914636    0.002572450    0.002548669
     15        1           0.003880008   -0.002684569    0.001039657
     16        1          -0.001318423    0.000904399   -0.001004743
     17        1           0.000419328    0.000949304   -0.001039095
     18        1           0.003289656    0.000883154    0.003327121
     19        1           0.002208558    0.002701662   -0.003641750
     20        1          -0.003271373   -0.001962989   -0.002874690
 -------------------------------------------------------------------
 Cartesian Forces:  Max     0.124675892 RMS     0.026609645
 FormGI is forming the generalized inverse of G from B-inverse, IUseBI=4.

 GradGradGradGradGradGradGradGradGradGradGradGradGradGradGradGradGradGrad
 Berny optimization.
 Using GEDIIS/GDIIS optimizer.
 Internal  Forces:  Max     0.107725485 RMS     0.018307600
 Search for a local minimum.
 Step number   3 out of a maximum of  120
 All quantities printed in internal units (Hartrees-Bohrs-Radians)
 Mixed Optimization -- RFO/linear search
 Second derivative matrix not updated -- analytic derivatives used.
 DE= -8.21D-02 DEPred=-8.82D-02 R= 9.31D-01
 TightC=F SS=  1.41D+00  RLast= 6.65D-01 DXNew= 8.4853D-01 1.9943D+00
 Trust test= 9.31D-01 RLast= 6.65D-01 DXMaxT set to 8.49D-01
 ITU=  1  1  0
 Use linear search instead of GDIIS.
     Eigenvalues ---   -0.03244  -0.00527  -0.00222  -0.00031   0.00039
     Eigenvalues ---    0.00080   0.00092   0.00246   0.00480   0.03584
     Eigenvalues ---    0.03588   0.03596   0.03683   0.03727   0.03801
     Eigenvalues ---    0.05194   0.05673   0.08643   0.09008   0.10035
     Eigenvalues ---    0.10744   0.11200   0.11247   0.11529   0.11838
     Eigenvalues ---    0.11948   0.12533   0.12605   0.12804   0.13452
     Eigenvalues ---    0.14883   0.15623   0.17695   0.19078   0.20732
     Eigenvalues ---    0.24785   0.24863   0.25446   0.25560   0.25563
     Eigenvalues ---    0.25629   0.26134   0.26913   0.27345   0.27499
     Eigenvalues ---    0.28106   0.36581   0.39059   0.41671   0.43438
     Eigenvalues ---    0.47752   0.51595   0.53242   0.61790
 RFO step:  Lambda=-4.64944713D-02 EMin=-3.24353926D-02
 Quartic linear search produced a step of  0.99121.
 Iteration  1 RMS(Cart)=  0.07857481 RMS(Int)=  0.07065972
 Iteration  2 RMS(Cart)=  0.07322185 RMS(Int)=  0.02853462
 Iteration  3 RMS(Cart)=  0.04349501 RMS(Int)=  0.01121277
 Iteration  4 RMS(Cart)=  0.00304235 RMS(Int)=  0.01082316
 Iteration  5 RMS(Cart)=  0.00006985 RMS(Int)=  0.01082314
[...]
 .00001309,-0.00006960,0.00015058,-0.00016658,-0.00006552,-0.04574202,-
 0.04555081,0.01806324,0.48599052,0.04221914,-0.04073137,-0.00532684,-0
 .00566847,-0.00173081,-0.00131181,-0.00274200,0.00664412,-0.00038647,-
 0.00163348,-0.00131884,0.00604139,0.00118290,-0.00247146,0.00001286,-0
 .00123878,-0.00023042,0.00031550,-0.03931615,-0.16875041,0.05111058,-0
 .01253303,0.38336993,-0.01194765,0.00221606,-0.00122979,0.00068814,0.0
 0119605,0.00026603,0.00207839,-0.00334415,0.00172029,0.00134914,-0.000
 68314,-0.00331515,-0.00034288,0.00052137,0.00001678,0.00035513,0.00010
 911,-0.00009298,0.01650700,0.05222550,-0.05025454,-0.01718109,0.010321
 06,0.41201828,0.00265151,-0.00444210,-0.00062544,-0.00136333,0.0007587
 9,-0.00056145,-0.00010751,0.00162406,-0.00017827,-0.00029123,0.0010035
 8,0.00110764,0.00086119,-0.00031712,0.00013900,-0.00048029,0.00022351,
 0.00005074,-0.00567205,0.03053799,-0.00528411,-0.20127452,0.04373777,0
 .02133527,0.45714105,-0.00945624,-0.00128286,0.00285084,0.00286209,0.0
 0078528,0.00089132,0.00229687,-0.00405888,0.00049280,0.00146548,0.0001
 6517,-0.00234820,-0.00049227,0.00082695,-0.00005836,0.00056606,0.00012
 408,-0.00008369,0.03726778,-0.03918871,0.00333239,0.04933375,-0.072445
 62,-0.00866592,-0.02619726,0.43133509,0.00083530,0.00067387,-0.0042740
 8,-0.00042291,0.00008797,0.00069322,-0.00037660,0.00084394,0.00062810,
 0.00041385,-0.00042895,0.00164401,0.00010728,-0.00002254,-0.00003703,-
 0.00005271,-0.00002757,0.00021074,-0.00712061,0.00571538,0.00776584,0.
 01929369,-0.00716101,-0.06407093,-0.00540911,-0.00225459,0.40062512,0.
 00588510,0.00599078,0.00879933,-0.00153827,0.00010563,-0.00109304,-0.0
 0222925,-0.00080928,-0.00052138,-0.00331023,-0.01413826,-0.00407481,0.
 00091097,-0.00081949,-0.00016418,0.00047121,0.00039063,0.00108690,-0.0
 0353409,0.00180895,0.00141064,-0.00042945,-0.00050401,0.00056680,-0.00
 011147,-0.00001895,-0.00029473,0.00466831,0.00358822,0.00535457,-0.019
 69894,0.00400171,0.00164144,0.00445259,-0.00072812,-0.00840842,0.00142
 732,-0.01015151,-0.12890151,-0.08842018,-0.00154963,0.00103013,0.00032
 059,0.00036994,-0.00066397,-0.00054985,-0.00386818,0.00259690,0.002686
 78,0.00025147,-0.00096247,0.00022982,-0.00028875,0.00028230,-0.0000622
 4,0.00800890,0.12779402,0.00601011,-0.03102551,-0.05640508,-0.00101571
 ,0.00059967,-0.00191204,-0.00095762,-0.00094360,0.00378248,0.00061375,
 -0.06825115,-0.08113663,-0.00033981,-0.00024100,-0.00076164,0.00118727
 ,-0.00003066,0.00012067,0.00067500,0.00134233,-0.00090053,0.00018161,-
 0.00087235,0.00008516,-0.00038164,0.00039906,-0.00007999,-0.00513245,0
 .09929117,0.13717565,-0.00277651,0.00350886,-0.00204817,-0.03420185,-0
 .01190450,-0.02424545,0.00063860,-0.00061412,0.00046288,0.00035079,-0.
 00063885,-0.00070328,-0.05905689,-0.05328492,-0.03744400,0.00410648,0.
 00846752,0.00951989,-0.00187587,0.00041050,-0.00007764,-0.00000515,-0.
 00030391,0.00006004,-0.00001335,0.00006864,0.00003210,-0.00017702,0.00
 014924,-0.00014533,0.09347907,-0.00125560,-0.00333477,-0.00117749,0.00
 372517,0.00974891,0.00323429,-0.00001148,0.00084195,-0.00007302,-0.000
 11159,0.00038051,0.00090096,-0.05851289,-0.13045397,-0.06977773,0.0014
 6257,-0.00867373,-0.01463120,0.00180349,-0.00076398,0.00028548,-0.0000
 3113,0.00059328,-0.00016579,0.00006825,-0.00021747,-0.00001634,0.00007
 782,-0.00015679,0.00000072,0.06318816,0.14993039,-0.00312284,0.0010309
 2,-0.00059116,-0.02119840,-0.00588889,-0.01057434,0.00061837,-0.000057
 01,0.00012065,0.00031733,-0.00006417,0.00007075,-0.03632734,-0.0647152
 7,-0.08200442,-0.00011235,-0.02306605,-0.02126154,-0.00044821,-0.00005
 613,-0.00013611,-0.00001469,-0.00000386,-0.00000784,0.00004718,-0.0000
 2891,-0.00003675,-0.00005496,-0.00002299,-0.00010839,0.05456014,0.0879
 2595,0.11045304,0.00008171,0.00538366,-0.00319418,-0.01075785,0.023239
 54,-0.01833535,0.00064965,-0.00011052,0.00097694,-0.00003881,-0.000466
 51,0.00015623,-0.04553795,-0.04165699,0.02925431,-0.00596797,-0.008701
 98,0.01769379,0.00035455,-0.00082840,0.00018136,0.00012552,0.00017873,
 -0.00002718,-0.00008380,-0.00007415,0.00000115,-0.00002163,0.00007443,
 -0.00003546,-0.00023727,-0.01134395,0.00368747,0.06216625,0.00271695,0
 .00324549,0.00128471,0.00979323,-0.01675376,0.01325292,0.00081643,-0.0
 0120815,0.00102427,-0.00025277,-0.00028786,-0.00002273,-0.03559147,-0.
 13479103,0.07895054,-0.00104779,0.00463169,0.00033628,-0.00061879,-0.0
 0016515,-0.00013311,0.00002729,-0.00004102,-0.00000723,-0.00003207,-0.
 00001535,-0.00000213,0.00001709,0.00006223,-0.00005249,-0.01022123,-0.
 01842854,0.00641734,0.03371380,0.16309474,-0.00529634,0.00126591,-0.00
 213438,-0.00733240,0.01619194,-0.00816302,0.00079422,0.00051123,-0.000
 38958,0.00022530,-0.00008212,0.00045040,0.02540552,0.07511568,-0.09394
 820,0.01681936,0.01319255,-0.02281243,0.00073487,-0.00051977,0.0000286
 3,0.00003401,0.00024751,-0.00006113,0.00005065,-0.00009212,-0.00003300
 ,-0.00002302,-0.00002806,-0.00012583,-0.00187760,-0.00514342,0.0066301
 6,-0.03199836,-0.10018397,0.12359993,-0.00360396,0.00295367,0.00156020
 ,-0.00076521,-0.00040144,-0.00077192,0.00103624,-0.00041404,-0.0005144
 0,0.00086446,-0.00080214,0.00015468,0.00472647,0.01321386,0.00956315,-
 0.04848511,-0.04473142,-0.01836831,0.00028714,-0.00057441,-0.00006806,
 0.00001128,0.00026848,-0.00008204,0.00007236,-0.00013276,-0.00000469,-
 0.00035714,0.00017255,-0.00040992,-0.00068931,0.00029059,0.00173917,0.
 00036779,0.00033660,0.00028034,0.05426417,0.00334020,0.00211205,-0.000
 08221,-0.00183613,0.00010791,0.00000266,0.00019296,-0.00126521,-0.0000
 3043,-0.00067700,-0.00046607,-0.00031604,0.00485569,-0.01309032,-0.015
 22253,-0.04319221,-0.18221149,-0.06046704,-0.00038285,-0.00007835,-0.0
 0001255,0.00005687,-0.00005466,0.00000510,-0.00008392,0.00000960,0.000
 00201,0.00003379,0.00031648,0.00013115,0.00018487,-0.00006517,-0.00068
 835,-0.00007995,0.00087204,0.00015631,0.04996870,0.21758455,0.00079078
 ,0.00030142,0.00259395,-0.00134952,0.00017987,-0.00098135,-0.00030137,
 0.00009864,-0.00069426,0.00081828,-0.00060369,-0.00087176,0.00364990,-
 0.02511973,-0.01596076,-0.01682297,-0.05786975,-0.05876209,-0.00011217
 ,-0.00003278,-0.00023316,0.00000450,-0.00003545,0.00001450,-0.00001761
 ,0.00000578,-0.00004128,-0.00044128,0.00027112,0.00002736,0.00135122,-
 0.00084492,-0.00196484,0.00000343,-0.00034799,-0.00052852,0.01609431,0
 .07920315,0.07257717,-0.00453064,-0.00082232,0.00250260,0.00055652,-0.
 00032869,-0.00162817,0.00040335,0.00055402,-0.00053490,0.00177856,0.00
 005449,0.00014932,0.00001368,-0.00777494,0.01840343,-0.03497248,0.0071
 8400,-0.00829130,0.00045108,-0.00038195,-0.00016108,-0.00004663,0.0002
 3544,-0.00005935,0.00012153,-0.00012110,-0.00002715,-0.00029894,-0.000
 08016,-0.00038949,0.00015487,0.00003203,0.00016912,-0.00098358,0.00062
 106,0.00158037,0.00402914,-0.00589721,0.00382803,0.03887804,-0.0015221
 2,0.00151349,-0.00032190,0.00027675,-0.00091235,0.00124133,0.00049588,
 -0.00035749,0.00001373,0.00019994,-0.00080089,0.00016477,-0.00376249,0
 .00711748,0.00079048,0.00701592,-0.11582789,0.09083678,0.00017795,-0.0
 0049886,0.00014465,0.00002659,0.00030877,-0.00010081,-0.00003129,-0.00
 012562,0.00004369,-0.00026429,0.00014625,-0.00008468,0.00042032,0.0003
 2330,-0.00033984,0.00074436,-0.00036308,-0.00059518,-0.00083824,-0.022
 36018,0.01333137,-0.00786867,0.13245539,0.00218588,0.00081865,0.002779
 62,-0.00280179,0.00031989,-0.00083583,-0.00034099,-0.00005196,-0.00042
 027,0.00103814,-0.00010430,-0.00134093,0.01181878,0.01107055,-0.031054
 13,-0.00697151,0.08942806,-0.13642114,-0.00032308,0.00013479,-0.000339
 90,0.00000959,-0.00017087,0.00004587,-0.00003424,0.00005500,-0.0000755
 7,-0.00032587,0.00007823,0.00011281,-0.00003641,-0.00020592,-0.0006940
 8,0.00133314,-0.00047659,-0.00173826,0.00055099,0.00084411,0.00529629,
 0.00151679,-0.11084504,0.17184064,-0.00160478,-0.00006025,-0.00025762,
 -0.00007124,0.00044793,0.00157721,0.00048124,0.00017266,0.00002004,0.0
 0033039,0.00001751,0.00032287,-0.03012932,0.00727115,0.00736324,-0.203
 67729,0.01042749,-0.04844548,0.00039352,-0.00031496,0.00005115,-0.0000
 1505,0.00021392,-0.00006226,0.00008348,-0.00010184,0.00001053,-0.00009
 945,-0.00004743,-0.00010595,0.00033925,0.00055332,0.00020502,-0.000245
 00,-0.00032821,0.00062820,-0.01173048,-0.00659701,-0.00750938,-0.00543
 460,0.00478786,-0.00762367,0.25144471,0.00018142,0.00042292,-0.0004049
 6,0.00122778,-0.00070347,-0.00014326,0.00008046,-0.00033950,0.00009648
 ,-0.00010676,-0.00016706,0.00000605,0.00926747,0.00194105,-0.00129458,
 0.01013898,-0.03387744,0.00215425,0.00001849,-0.00015746,0.00006614,0.
 00001159,0.00009663,-0.00003365,-0.00002091,-0.00004526,0.00000814,-0.
 00000134,0.00006426,0.00000070,0.00060786,0.00011154,-0.00047165,-0.00
 003568,0.00014835,-0.00007388,-0.01939265,-0.00138505,-0.00854605,0.01
 447658,-0.00069337,0.00912406,-0.01651341,0.03454909,-0.00016414,-0.00
 061045,-0.00006368,0.00308922,-0.00125521,-0.00124983,-0.00008210,0.00
 018692,-0.00016522,0.00009566,-0.00003211,-0.00027340,0.02061065,-0.00
 272720,0.00280247,-0.05141229,0.00304396,-0.04828491,0.00008928,0.0000
 0638,-0.00000439,-0.00001285,0.00001184,-0.00000120,0.00002404,-0.0000
 0725,-0.00002345,-0.00007195,0.00004236,0.00002510,0.00064869,-0.00037
 111,0.00003765,0.00025749,-0.00006796,-0.00083309,-0.00975422,-0.00353
 167,-0.00054797,-0.01712046,0.00577727,-0.00730631,0.05383562,-0.00048
 312,0.05585383,0.00430724,-0.00058153,0.00054973,-0.00080529,-0.000782
 74,-0.00018722,-0.00062162,0.00006051,-0.00007006,-0.00056316,0.000123
 25,-0.00004129,-0.00026686,-0.00011883,-0.00012122,0.00008287,-0.00017
 471,-0.00004033,-0.00229408,-0.00879061,-0.00172014,-0.11244963,-0.050
 52816,-0.06861707,-0.03314255,-0.00355311,-0.01536546,0.00001475,-0.00
 005702,-0.00002700,-0.00003508,0.00007253,-0.00002424,0.00007736,0.000
 01959,0.00000708,0.00001474,0.00003471,0.00001601,-0.00001266,0.000058
 39,0.00002961,-0.00000990,0.00002494,-0.00000932,0.14490392,-0.0020257
 9,-0.00592448,-0.00100144,0.00000583,-0.00029007,-0.00014249,0.0003235
 5,0.00066568,-0.00003702,-0.00011525,0.00039532,0.00019322,0.00022590,
 -0.00013787,0.00007793,-0.00014166,0.00002023,-0.00001092,-0.01816902,
 -0.03638258,-0.00801800,-0.04769802,-0.06146059,-0.04351969,0.00589948
 ,0.00560782,0.00284891,-0.00002194,-0.00001205,-0.00004897,-0.00001290
 ,0.00005152,0.00001342,-0.00003319,-0.00000282,0.00000807,0.00001589,-
 0.00001353,0.00000134,0.00003418,0.00001056,-0.00000232,0.00001501,0.0
 0000905,0.00001016,0.06250004,0.09391213,0.00335102,-0.00211640,0.0019
 9418,-0.00012573,-0.00054680,-0.00073626,-0.00043634,0.00009700,-0.000
 24676,-0.00011713,0.00022001,0.00014707,0.00002270,-0.00009131,-0.0000
 1690,-0.00005963,-0.00001711,-0.00010282,0.00044153,0.00532283,0.00446
 849,-0.07231815,-0.04795451,-0.10116642,-0.00439995,0.00027200,0.00304
 610,0.00000271,-0.00004271,-0.00011035,-0.00004494,0.00007222,0.000031
 85,0.00000990,0.00002100,0.00002680,0.00002957,-0.00000331,0.00001301,
 0.00004536,-0.00000928,0.00002958,0.00000986,0.00000499,0.00000790,0.0
 8574108,0.05431264,0.11129776,0.00261290,0.00092289,-0.00156867,-0.000
 29955,-0.00003919,0.00043859,-0.00038833,-0.00003095,0.00017616,-0.000
 70506,-0.00046777,0.00036034,-0.00005501,-0.00007214,-0.00003443,0.000
 06788,-0.00009764,0.00010687,0.00142021,-0.00352708,0.00466073,-0.0504
 4142,-0.00111327,0.04704889,-0.01880364,0.00739713,0.02573209,0.000124
 21,-0.00003758,0.00012776,-0.00000779,0.00000709,-0.00003011,0.0000232
 1,0.00000207,-0.00000753,-0.00001171,0.00003020,-0.00001160,-0.0000546
 4,0.00005498,-0.00003925,-0.00001247,0.00001507,-0.00001166,0.00492685
 ,-0.00197565,-0.01270496,0.06532932,-0.00132427,-0.00259847,0.00586769
 ,-0.00017940,-0.00002381,-0.00030035,0.00027213,0.00060868,-0.00067890
 ,-0.00011560,-0.00000474,-0.00048449,0.00004511,0.00002950,0.00002735,
 -0.00007122,0.00000883,-0.00003107,-0.00703932,-0.02193083,0.02932765,
 0.00118481,-0.03161087,-0.00668576,0.00828148,0.00187207,-0.00944119,0
 .00001008,-0.00004837,-0.00008966,0.00000911,0.00000177,0.00000740,-0.
 00002699,-0.00000331,0.00000125,0.00001187,-0.00000796,0.00000802,0.00
 002456,0.00000679,0.00000632,0.00000771,0.00000218,0.00000310,0.000303
 90,0.00344842,-0.00970589,-0.00265403,0.05037689,-0.00304653,0.0054866
 2,0.00131938,0.00069565,-0.00042164,0.00001802,0.00033598,-0.00052997,
 -0.00030767,-0.00028448,0.00062117,-0.00167269,-0.00031379,0.00014070,
 -0.00003372,0.00012932,-0.00002058,-0.00013611,0.00586610,0.01260734,-
 0.01349367,0.04929959,-0.00065738,-0.19351284,0.01201812,-0.00428310,-
 0.00746695,0.00012197,0.00000175,0.00011990,0.00001195,-0.00003098,0.0
 0000097,0.00003602,0.00000307,-0.00000301,-0.00001059,0.00000811,0.000
 03120,-0.00000415,-0.00002396,0.00006834,-0.00001552,-0.00000602,0.000
 00619,-0.00026952,-0.00470526,-0.01961311,-0.06562482,-0.00781708,0.23
 405746,-0.00096481,0.00079586,0.00070850,0.00033498,-0.00013916,-0.000
 01928,0.00008880,-0.00051440,0.00000028,0.00007189,-0.00008689,-0.0003
 1628,-0.00016322,0.00007980,-0.00002463,0.00009670,-0.00004228,-0.0000
 3057,0.00099788,-0.00126812,-0.00043938,-0.02143551,0.00468040,0.02799
 224,-0.05229870,-0.00616258,0.05233208,0.00002254,0.00007393,0.0000502
 5,-0.00000187,-0.00000716,-0.00000240,0.00001024,0.00001037,-0.0000090
 1,-0.00001358,0.00001630,0.00000597,-0.00001774,0.00000148,0.00001245,
 -0.00001811,0.00000483,-0.00000341,-0.00060349,-0.00020403,0.00040094,
 -0.00276304,0.00133634,0.00045803,0.06907877,0.00137986,-0.00018426,-0
 .00054615,-0.00048991,-0.00010225,-0.00006486,-0.00030436,0.00025461,0
 .00005774,-0.00021601,-0.00003066,0.00039318,0.00009103,-0.00014581,-0
 .00000432,-0.00008452,-0.00002725,0.00002864,-0.00090761,-0.00025533,0
 .00054502,0.00749729,0.00382631,-0.00972167,-0.00637657,-0.03734755,0.
 01944183,0.00000063,-0.00005334,-0.00003962,-0.00001234,0.00004292,0.0
 0000027,0.00001466,0.00000274,0.00000727,0.00001784,0.00000007,-0.0000
 0286,0.00001575,0.00002408,-0.00001106,0.00001639,0.00000967,0.0000000
 1,-0.00020288,0.00026986,0.00006671,0.00128993,-0.00035788,-0.00009163
 ,0.00377301,0.03712551,0.00120400,-0.00091479,0.00083516,-0.00038084,0
 .00004144,-0.00040436,-0.00014472,0.00043386,-0.00030726,-0.00025881,0
 .00019320,0.00004132,0.00012181,-0.00011273,0.00003754,-0.00009293,0.0
 0002557,-0.00005219,-0.00037501,0.00076519,-0.00112362,0.01511034,-0.0
 0508565,-0.00729858,0.05499709,0.02017653,-0.19827355,0.00004286,-0.00
 004322,-0.00005474,-0.00002399,0.00003345,0.00002272,-0.00001121,-0.00
 000124,0.00002935,0.00002151,-0.00001037,0.00000921,0.00003102,-0.0000
 0572,0.00001010,0.00001380,-0.00000111,0.00001165,0.00001300,0.0003520
 3,0.00063505,0.00029743,0.00009606,-0.00012654,-0.07229926,-0.02160074
 ,0.23732313,0.00084172,0.00075764,-0.00040759,-0.00013519,-0.00022256,
 -0.00002789,-0.00026417,0.00037361,-0.00003773,-0.00008309,-0.00018638
 ,0.00016755,-0.00005642,-0.00002538,-0.00000829,0.00000478,-0.00005753
 ,0.00000411,-0.00362748,0.00181896,0.00040797,-0.00811706,0.02769616,-
 0.00411523,-0.03369126,0.00182798,-0.00037579,0.00000187,0.00001824,-0
 .00000666,-0.00000265,0.00001707,-0.00000117,0.00001588,0.00000998,0.0
 0000224,0.00000483,0.00001356,0.00000130,-0.00000468,0.00002454,-0.000
 00354,-0.00000268,0.00001110,-0.00000323,-0.00067858,0.00025469,-0.000
 07716,-0.00049151,0.00023554,0.00030387,0.00299138,-0.00592131,0.00323
 805,0.04287845,0.00110078,-0.00110017,0.00021415,-0.00049295,0.0000891
 8,-0.00019586,-0.00014005,0.00025896,-0.00007077,-0.00026279,0.0002249
 4,0.00021829,0.00022109,-0.00013319,0.00002244,-0.00013481,0.00001442,
 0.00001641,0.00093004,0.00052122,-0.00049943,0.01420653,-0.02087304,0.
 00261377,0.00375170,-0.20903371,0.04075275,0.00003473,-0.00007145,-0.0
 0007834,-0.00001014,0.00004131,0.00000916,-0.00001071,-0.00000157,0.00
 001155,0.00002382,-0.00001186,-0.00000134,0.00003433,0.00001181,-0.000
 00887,0.00002371,0.00000526,0.00000467,0.00032320,0.00029436,0.0003796
 5,0.00030654,-0.00003330,-0.00050194,-0.00214359,-0.00683250,0.0083445
 2,-0.01143513,0.25483395,-0.00022330,0.00025792,0.00078036,0.00012395,
 -0.00006940,-0.00010872,0.00004476,-0.00014893,-0.00012646,-0.00004874
 ,0.00001327,-0.00033205,-0.00006371,0.00002094,0.00000178,0.00002851,-
 0.00000395,-0.00005223,0.00048832,-0.00064493,-0.00045302,-0.00080687,
 -0.00059436,0.00343923,-0.00090947,0.04131503,-0.04261970,0.00004210,0
 .00001544,0.00004804,-0.00000487,0.00000287,0.00000836,0.00000398,0.00
 000244,0.00000533,-0.00000123,0.00000290,0.00001023,0.00000051,-0.0000
 0884,0.00002014,-0.00000494,-0.00000100,0.00000538,-0.00026249,0.00008
 827,0.00016985,0.00043445,-0.00014909,0.00015769,0.00309244,0.02262802
 ,-0.00946211,0.00047064,-0.05020779,0.04403551,-0.00155868,0.00106743,
 0.00002759,0.00043872,-0.00006339,0.00017744,0.00016247,-0.00063823,0.
 00009959,0.00025305,-0.00025673,-0.00029083,-0.00016354,0.00013672,-0.
 00002340,0.00011833,-0.00003990,-0.00000786,0.00125291,-0.00149813,0.0
 0013802,-0.03629534,-0.00483198,-0.01554599,-0.11359763,-0.05677537,-0
 .06930819,0.00000818,0.00010011,0.00010129,0.00001139,-0.00002421,-0.0
 0000709,0.00000191,0.00000778,-0.00001781,-0.00002217,0.00001843,0.000
 00214,-0.00003016,0.00000219,0.00000492,-0.00002231,0.00000409,-0.0000
 0501,-0.00284479,0.00112253,0.00022931,-0.00047042,-0.00031180,0.00029
 270,0.00458697,0.00041908,-0.00150411,0.00041583,-0.00632624,-0.002404
 09,0.14775531,0.00113948,0.00042809,0.00035849,-0.00027063,-0.00016974
 ,-0.00009434,-0.00028926,0.00002225,-0.00010920,-0.00034084,-0.0001278
 5,0.00004255,0.00000335,-0.00010358,-0.00001209,-0.00003611,-0.0000399
 3,0.00000299,-0.00101953,-0.00077804,-0.00038545,0.00504293,0.00784254
 ,0.00349018,-0.05809633,-0.07724768,-0.05100181,0.00009845,-0.00001019
 ,-0.00000663,-0.00001238,0.00002720,-0.00000142,0.00001998,0.00000421,
 0.00000920,0.00001356,0.00000724,0.00000394,0.00000861,0.00002164,-0.0
 0000271,0.00000838,0.00000870,-0.00000073,0.00126855,-0.00046101,-0.00
 028177,-0.00001071,0.00026455,0.00022069,-0.00020426,0.00378114,-0.002
 68647,-0.01521096,-0.01820459,-0.01251876,0.06788777,0.08473516,-0.000
 72112,0.00085033,0.00100140,0.00036890,-0.00011007,-0.00001148,0.00011
 579,-0.00032595,-0.00016092,-0.00007424,-0.00011159,-0.00067925,-0.000
 13208,0.00008676,-0.00000405,0.00007463,-0.00001446,-0.00005692,0.0000
 1582,-0.00042390,-0.00070097,-0.00543308,0.00149973,0.00340540,-0.0719
 6843,-0.05196854,-0.09758103,0.00012439,0.00005107,0.00009813,0.000004
 70,-0.00001798,0.00000333,0.00000649,0.00000286,-0.00000008,-0.0000085
 0,0.00000906,0.00001308,-0.00001039,-0.00000892,0.00002316,-0.00001255
 ,-0.00000161,0.00000319,0.00039883,-0.00042017,0.00012505,0.00064970,0
 .00003883,0.00058713,-0.01190890,-0.01108587,-0.02185219,0.00046848,-0
 .00102303,0.00447246,0.08804146,0.06297340,0.11131461\\-0.00000046,0.0
 0000135,-0.00000018,-0.00000056,0.00000042,0.00000070,0.00000043,-0.00
 000105,-0.00000038,0.00000071,-0.00000042,0.00000031,-0.00000022,-0.00
 000013,-0.00000037,0.,-0.00000035,-0.00000007,0.00000094,-0.00000001,0
 .00000015,-0.00000009,0.00000002,-0.00000004,-0.00000005,0.00000016,0.
 00000003,-0.00000067,-0.00000025,-0.00000009,-0.00000007,0.00000004,-0
 .00000004,-0.00000002,0.,0.00000001,0.00000016,0.00000011,0.00000009,-
 0.00000011,0.00000014,-0.00000003,0.00000001,0.00000003,0.,-0.00000006
 ,-0.00000004,-0.00000010,0.00000006,-0.00000006,0.00000007,0.00000002,
 0.00000003,0.00000002,-0.00000005,0.,0.,0.00000002,0.,-0.00000006\\\@
 The archive entry for this job was punched.


 IT IS UNWORTHY OF EXCELLENT MEN TO LOSE HOURS LIKE SLAVES IN THE LABOR
 OF CALCULATION WHICH COULD BE SAFELY RELEGATED TO ANYONE ELSE
 IF A MACHINE WERE USED.
    -- G.W. VON LEIBNIZ
 Job cpu time:       0 days  0 hours  0 minutes  0.9 seconds.
 Elapsed time:       0 days  0 hours  0 minutes  0.8 seconds.
 File lengths (MBytes):  RWF=     28 Int=      0 D2E=      0 Chk=      2 Scr=      1
 Normal termination of Gaussian 16 at Wed Apr 24 12:09:30 2024.
