 Entering Gaussian System, Link 0=g16
 Initial command:
 /home/app/g16/l1.exe "/home/A23321P/work/myGaussian/nanoMoS/mols/Gau-882645.inp" -scrdir="/home/A23321P/work/myGaussian/nanoMoS/mols/"
 Entering Link 1 = /home/app/g16/l1.exe PID=    882646.
  
 Copyright (c) 1988-2019, Gaussian, Inc.  All Rights Reserved.
  
 This is part of the Gaussian(R) 16 program.  It is based on
 the Gaussian(R) 09 system (copyright 2009, Gaussian, Inc.),
 the Gaussian(R) 03 system (copyright 2003, Gaussian, Inc.),
 the Gaussian(R) 98 system (copyright 1998, Gaussian, Inc.),
 the Gaussian(R) 94 system (copyright 1995, Gaussian, Inc.),
 the Gaussian 92(TM) system (copyright 1992, Gaussian, Inc.),
 the Gaussian 90(TM) system (copyright 1990, Gaussian, Inc.),
 the Gaussian 88(TM) system (copyright 1988, Gaussian, Inc.),
 the Gaussian 86(TM) system (copyright 1986, Carnegie Mellon
 University), and the Gaussian 82(TM) system (copyright 1983,
 Carnegie Mellon University). Gaussian is a federally registered
 trademark of Gaussian, Inc.
  
 This software contains proprietary and confidential information,
 including trade secrets, belonging to Gaussian, Inc.
  
 This software is provided under written license and may be
 used, copied, transmitted, or stored only in accord with that
 written license.
  
 The following legend is applicable only to US Government
 contracts under FAR:
  
                    RESTRICTED RIGHTS LEGEND
  
 Use, reproduction and disclosure by the US Government is
 subject to restrictions as set forth in subparagraphs (a)
 and (c) of the Commercial Computer Software - Restricted
 Rights clause in FAR 52.227-19.
  
 Gaussian, Inc.
 340 Quinnipiac St., Bldg. 40, Wallingford CT 06492
  
  
 ---------------------------------------------------------------
 Warning -- This program may not be used in any manner that
 competes with the business of Gaussian, Inc. or will provide
 assistance to any competitor of Gaussian, Inc.  The licensee
 of this program is prohibited from giving any competitor of
 Gaussian, Inc. access to this program.  By using this program,
 the user acknowledges that Gaussian, Inc. is engaged in the
 business of creating and licensing software in the field of
 computational chemistry and represents and warrants to the
 licensee that it is not a competitor of Gaussian, Inc. and that
 it will not use this program in any manner prohibited above.
 ---------------------------------------------------------------
  

 Cite this work as:
 Gaussian 16, Revision C.01,
 M. J. Frisch, G. W. Trucks, H. B. Schlegel, G. E. Scuseria, 
 M. A. Robb, J. R. Cheeseman, G. Scalmani, V. Barone, 
 G. A. Petersson, H. Nakatsuji, X. Li, M. Caricato, A. V. Marenich, 
 J. Bloino, B. G. Janesko, R. Gomperts, B. Mennucci, H. P. Hratchian, 
 J. V. Ortiz, A. F. Izmaylov, J. L. Sonnenberg, D. Williams-Young, 
 F. Ding, F. Lipparini, F. Egidi, J. Goings, B. Peng, A. Petrone, 
 T. Henderson, D. Ranasinghe, V. G. Zakrzewski, J. Gao, N. Rega, 
 G. Zheng, W. Liang, M. Hada, M. Ehara, K. Toyota, R. Fukuda, 
 J. Hasegawa, M. Ishida, T. Nakajima, Y. Honda, O. Kitao, H. Nakai, 
 T. Vreven, K. Throssell, J. A. Montgomery, Jr., J. E. Peralta, 
 F. Ogliaro, M. J. Bearpark, J. J. Heyd, E. N. Brothers, K. N. Kudin, 
 V. N. Staroverov, T. A. Keith, R. Kobayashi, J. Normand, 
 K. Raghavachari, A. P. Rendell, J. C. Burant, S. S. Iyengar, 
 J. Tomasi, M. Cossi, J. M. Millam, M. Klene, C. Adamo, R. Cammi, 
 J. W. Ochterski, R. L. Martin, K. Morokuma, O. Farkas, 
 J. B. Foresman, and D. J. Fox, Gaussian, Inc., Wallingford CT, 2019.
 
 ******************************************
 Gaussian 16:  ES64L-G16RevC.01  3-Jul-2019
                24-Apr-2024 
 ******************************************
 ---------------------------------------------------------------
 # PM6 Freq scf(tight,maxcycle=9999) opt(calcall,maxcycles=9999)
 ---------------------------------------------------------------
 1/6=9999,10=4,18=20,19=15,26=1,38=1/1,3;
 2/9=110,12=2,17=6,18=5,40=1/2;
 3/5=2,25=1,41=3900000,71=2,140=1/1,2,3;
 4/35=1/1;
 5/5=2,7=9999,32=2,35=1,38=5/2;
 8/6=4,10=90,11=11/1;
 11/6=1,8=1,9=11,15=111,16=1/1,2,10;
 10/6=1/2;
 6/7=2,8=2,9=2,10=2,18=1,28=1/1;
 7/10=1,25=1/1,2,3,16;
 1/6=9999,10=4,18=20,19=15,26=1/3(3);
 2/9=110/2;
 7/8=1,9=1,25=1,44=-1/16;
 99//99;
 2/9=110/2;
 3/5=2,25=1,41=3900000,71=2,135=20,140=1/1,2,3;
 4/5=5,16=3,35=1/1;
 5/5=2,7=9999,32=2,35=1,38=5/2;
 8/6=4,10=90,11=11/1;
 11/6=1,8=1,9=11,15=111,16=1/1,2,10;
 10/6=1/2;
 7/10=1,25=1/1,2,3,16;
 1/6=9999,10=4,18=20,19=15,26=1/3(-8);
 2/9=110/2;
 6/7=2,8=2,9=2,10=2,18=1,19=2,28=1/1;
 7/8=1,9=1,25=1,44=-1/16;
 99//99;
 -------------------
 Title Card Required
 -------------------
 Symbolic Z-matrix:
 Charge =  0 Multiplicity = 1
 P                     0.169     0.226     0.279 
 O                    -1.159     0.149    -0.86 
 O                     0.825     0.708    -1.043 
 O                     1.547    -0.821     0.121 
 O                    -0.356    -1.423     0.102 
 C                    -2.14      1.089    -0.478 
 C                    -3.111     0.479     0.537 
 O                    -4.124     1.412     0.863 
 C                    -5.302     1.143     0.132 
 C                    -6.326     2.24      0.416 
 C                    -7.635     1.988    -0.342 
 C                    -8.656     3.086    -0.057 
 H                     2.087    -0.652     0.936 
 H                    -0.748    -1.663     0.982 
 H                    -2.711     1.366    -1.389 
 H                    -1.703     2.036    -0.086 
 H                    -2.553     0.248     1.469 
 H                    -3.5      -0.496     0.155 
 H                    -5.731     0.164     0.448 
 H                    -5.094     1.122    -0.962 
 H                    -5.901     3.221     0.108 
 H                    -6.53      2.273     1.509 
 H                    -8.064     1.01     -0.035 
 H                    -7.436     1.958    -1.436 
 H                    -9.592     2.877    -0.617 
 H                    -8.262     4.073    -0.379 
 H                    -8.892     3.121     1.028 
 

 GradGradGradGradGradGradGradGradGradGradGradGradGradGradGradGradGradGrad
 Berny optimization.
 Initialization pass.
                           ----------------------------
                           !    Initial Parameters    !
                           ! (Angstroms and Degrees)  !
 --------------------------                            --------------------------
 ! Name  Definition              Value          Derivative Info.                !
 --------------------------------------------------------------------------------
 ! R1    R(1,2)                  1.7512         calculate D2E/DX2 analytically  !
 ! R2    R(1,3)                  1.5525         calculate D2E/DX2 analytically  !
 ! R3    R(1,4)                  1.7378         calculate D2E/DX2 analytically  !
 ! R4    R(1,5)                  1.7396         calculate D2E/DX2 analytically  !
 ! R5    R(2,6)                  1.4113         calculate D2E/DX2 analytically  !
 ! R6    R(4,13)                 0.9922         calculate D2E/DX2 analytically  !
 ! R7    R(5,14)                 0.9928         calculate D2E/DX2 analytically  !
 ! R8    R(6,7)                  1.5314         calculate D2E/DX2 analytically  !
 ! R9    R(6,15)                 1.1103         calculate D2E/DX2 analytically  !
 ! R10   R(6,16)                 1.1142         calculate D2E/DX2 analytically  !
 ! R11   R(7,8)                  1.4153         calculate D2E/DX2 analytically  !
 ! R12   R(7,17)                 1.1106         calculate D2E/DX2 analytically  !
 ! R13   R(7,18)                 1.1171         calculate D2E/DX2 analytically  !
 ! R14   R(8,9)                  1.4122         calculate D2E/DX2 analytically  !
 ! R15   R(9,10)                 1.5273         calculate D2E/DX2 analytically  !
 ! R16   R(9,19)                 1.1146         calculate D2E/DX2 analytically  !
 ! R17   R(9,20)                 1.1138         calculate D2E/DX2 analytically  !
 ! R18   R(10,11)                1.5335         calculate D2E/DX2 analytically  !
 ! R19   R(10,21)                1.1126         calculate D2E/DX2 analytically  !
 ! R20   R(10,22)                1.1124         calculate D2E/DX2 analytically  !
 ! R21   R(11,12)                1.5262         calculate D2E/DX2 analytically  !
 ! R22   R(11,23)                1.1112         calculate D2E/DX2 analytically  !
 ! R23   R(11,24)                1.1124         calculate D2E/DX2 analytically  !
 ! R24   R(12,25)                1.1106         calculate D2E/DX2 analytically  !
 ! R25   R(12,26)                1.1104         calculate D2E/DX2 analytically  !
 ! R26   R(12,27)                1.1109         calculate D2E/DX2 analytically  !
 ! A1    A(2,1,3)               77.3054         calculate D2E/DX2 analytically  !
 ! A2    A(2,1,4)              121.043          calculate D2E/DX2 analytically  !
 ! A3    A(2,1,5)               70.3232         calculate D2E/DX2 analytically  !
 ! A4    A(3,1,4)               76.9724         calculate D2E/DX2 analytically  !
 ! A5    A(3,1,5)              109.5831         calculate D2E/DX2 analytically  !
 ! A6    A(4,1,5)               70.0594         calculate D2E/DX2 analytically  !
 ! A7    A(1,2,6)              108.7701         calculate D2E/DX2 analytically  !
 ! A8    A(1,4,13)             104.7301         calculate D2E/DX2 analytically  !
 ! A9    A(1,5,14)             104.9588         calculate D2E/DX2 analytically  !
 ! A10   A(2,6,7)              110.7825         calculate D2E/DX2 analytically  !
 ! A11   A(2,6,15)             107.5511         calculate D2E/DX2 analytically  !
 ! A12   A(2,6,16)             112.8732         calculate D2E/DX2 analytically  !
 ! A13   A(7,6,15)             108.4892         calculate D2E/DX2 analytically  !
 ! A14   A(7,6,16)             110.7356         calculate D2E/DX2 analytically  !
 ! A15   A(15,6,16)            106.161          calculate D2E/DX2 analytically  !
 ! A16   A(6,7,8)              110.116          calculate D2E/DX2 analytically  !
 ! A17   A(6,7,17)             108.693          calculate D2E/DX2 analytically  !
 ! A18   A(6,7,18)             109.9875         calculate D2E/DX2 analytically  !
 ! A19   A(8,7,17)             107.6651         calculate D2E/DX2 analytically  !
 ! A20   A(8,7,18)             113.8858         calculate D2E/DX2 analytically  !
 ! A21   A(17,7,18)            106.2841         calculate D2E/DX2 analytically  !
 ! A22   A(7,8,9)              110.625          calculate D2E/DX2 analytically  !
 ! A23   A(8,9,10)             109.0381         calculate D2E/DX2 analytically  !
 ! A24   A(8,9,19)             109.9748         calculate D2E/DX2 analytically  !
 ! A25   A(8,9,20)             110.8693         calculate D2E/DX2 analytically  !
 ! A26   A(10,9,19)            108.6692         calculate D2E/DX2 analytically  !
 ! A27   A(10,9,20)            108.7473         calculate D2E/DX2 analytically  !
 ! A28   A(19,9,20)            109.4988         calculate D2E/DX2 analytically  !
 ! A29   A(9,10,11)            111.2459         calculate D2E/DX2 analytically  !
 ! A30   A(9,10,21)            109.0094         calculate D2E/DX2 analytically  !
 ! A31   A(9,10,22)            109.0855         calculate D2E/DX2 analytically  !
 ! A32   A(11,10,21)           109.5198         calculate D2E/DX2 analytically  !
 ! A33   A(11,10,22)           109.5132         calculate D2E/DX2 analytically  !
 ! A34   A(21,10,22)           108.4158         calculate D2E/DX2 analytically  !
 ! A35   A(10,11,12)           111.1323         calculate D2E/DX2 analytically  !
 ! A36   A(10,11,23)           109.7321         calculate D2E/DX2 analytically  !
 ! A37   A(10,11,24)           109.7469         calculate D2E/DX2 analytically  !
 ! A38   A(12,11,23)           108.8644         calculate D2E/DX2 analytically  !
 ! A39   A(12,11,24)           108.8288         calculate D2E/DX2 analytically  !
 ! A40   A(23,11,24)           108.4845         calculate D2E/DX2 analytically  !
 ! A41   A(11,12,25)           109.5282         calculate D2E/DX2 analytically  !
 ! A42   A(11,12,26)           110.3617         calculate D2E/DX2 analytically  !
 ! A43   A(11,12,27)           110.314          calculate D2E/DX2 analytically  !
 ! A44   A(25,12,26)           108.6684         calculate D2E/DX2 analytically  !
 ! A45   A(25,12,27)           108.6245         calculate D2E/DX2 analytically  !
 ! A46   A(26,12,27)           109.304          calculate D2E/DX2 analytically  !
 ! D1    D(3,1,2,6)           -114.8458         calculate D2E/DX2 analytically  !
 ! D2    D(4,1,2,6)            179.0625         calculate D2E/DX2 analytically  !
 ! D3    D(5,1,2,6)            128.7033         calculate D2E/DX2 analytically  !
 ! D4    D(2,1,4,13)          -173.5388         calculate D2E/DX2 analytically  !
 ! D5    D(3,1,4,13)           120.1973         calculate D2E/DX2 analytically  !
 ! D6    D(5,1,4,13)          -123.0646         calculate D2E/DX2 analytically  !
 ! D7    D(2,1,5,14)          -112.8577         calculate D2E/DX2 analytically  !
 ! D8    D(3,1,5,14)           179.162          calculate D2E/DX2 analytically  !
 ! D9    D(4,1,5,14)           111.7179         calculate D2E/DX2 analytically  !
 ! D10   D(1,2,6,7)            -86.962          calculate D2E/DX2 analytically  !
 ! D11   D(1,2,6,15)           154.6272         calculate D2E/DX2 analytically  !
 ! D12   D(1,2,6,16)            37.8662         calculate D2E/DX2 analytically  !
 ! D13   D(2,6,7,8)           -177.2895         calculate D2E/DX2 analytically  !
 ! D14   D(2,6,7,17)            64.9946         calculate D2E/DX2 analytically  !
 ! D15   D(2,6,7,18)           -50.985          calculate D2E/DX2 analytically  !
 ! D16   D(15,6,7,8)           -59.4497         calculate D2E/DX2 analytically  !
 ! D17   D(15,6,7,17)         -177.1656         calculate D2E/DX2 analytically  !
 ! D18   D(15,6,7,18)           66.8548         calculate D2E/DX2 analytically  !
 ! D19   D(16,6,7,8)            56.68           calculate D2E/DX2 analytically  !
 ! D20   D(16,6,7,17)          -61.0359         calculate D2E/DX2 analytically  !
 ! D21   D(16,6,7,18)         -177.0155         calculate D2E/DX2 analytically  !
 ! D22   D(6,7,8,9)             99.2028         calculate D2E/DX2 analytically  !
 ! D23   D(17,7,8,9)          -142.4474         calculate D2E/DX2 analytically  !
 ! D24   D(18,7,8,9)           -24.8748         calculate D2E/DX2 analytically  !
 ! D25   D(7,8,9,10)          -174.9975         calculate D2E/DX2 analytically  !
 ! D26   D(7,8,9,19)            65.9425         calculate D2E/DX2 analytically  !
 ! D27   D(7,8,9,20)           -55.3            calculate D2E/DX2 analytically  !
 ! D28   D(8,9,10,11)         -179.3256         calculate D2E/DX2 analytically  !
 ! D29   D(8,9,10,21)           59.8025         calculate D2E/DX2 analytically  !
 ! D30   D(8,9,10,22)          -58.4116         calculate D2E/DX2 analytically  !
 ! D31   D(19,9,10,11)         -59.4553         calculate D2E/DX2 analytically  !
 ! D32   D(19,9,10,21)         179.6727         calculate D2E/DX2 analytically  !
 ! D33   D(19,9,10,22)          61.4587         calculate D2E/DX2 analytically  !
 ! D34   D(20,9,10,11)          59.6715         calculate D2E/DX2 analytically  !
 ! D35   D(20,9,10,21)         -61.2004         calculate D2E/DX2 analytically  !
 ! D36   D(20,9,10,22)        -179.4145         calculate D2E/DX2 analytically  !
 ! D37   D(9,10,11,12)        -179.968          calculate D2E/DX2 analytically  !
 ! D38   D(9,10,11,23)          59.5742         calculate D2E/DX2 analytically  !
 ! D39   D(9,10,11,24)         -59.5451         calculate D2E/DX2 analytically  !
 ! D40   D(21,10,11,12)        -59.3963         calculate D2E/DX2 analytically  !
 ! D41   D(21,10,11,23)       -179.8541         calculate D2E/DX2 analytically  !
 ! D42   D(21,10,11,24)         61.0266         calculate D2E/DX2 analytically  !
 ! D43   D(22,10,11,12)         59.3693         calculate D2E/DX2 analytically  !
 ! D44   D(22,10,11,23)        -61.0884         calculate D2E/DX2 analytically  !
 ! D45   D(22,10,11,24)        179.7923         calculate D2E/DX2 analytically  !
 ! D46   D(10,11,12,25)       -179.936          calculate D2E/DX2 analytically  !
 ! D47   D(10,11,12,26)         60.4671         calculate D2E/DX2 analytically  !
 ! D48   D(10,11,12,27)        -60.4227         calculate D2E/DX2 analytically  !
 ! D49   D(23,11,12,25)        -58.9668         calculate D2E/DX2 analytically  !
 ! D50   D(23,11,12,26)       -178.5637         calculate D2E/DX2 analytically  !
 ! D51   D(23,11,12,27)         60.5465         calculate D2E/DX2 analytically  !
 ! D52   D(24,11,12,25)         59.0998         calculate D2E/DX2 analytically  !
 ! D53   D(24,11,12,26)        -60.4971         calculate D2E/DX2 analytically  !
 ! D54   D(24,11,12,27)        178.6131         calculate D2E/DX2 analytically  !
 --------------------------------------------------------------------------------
 Trust Radius=3.00D-01 FncErr=1.00D-07 GrdErr=1.00D-07 EigMax=2.50D+02 EigMin=1.00D-04
 Number of steps in this run=    162 maximum allowed number of steps=    162.
 GradGradGradGradGradGradGradGradGradGradGradGradGradGradGradGradGradGrad

                          Input orientation:                          
 ---------------------------------------------------------------------
 Center     Atomic      Atomic             Coordinates (Angstroms)
 Number     Number       Type             X           Y           Z
 ---------------------------------------------------------------------
      1         15           0        0.169000    0.226000    0.279000
      2          8           0       -1.159000    0.149000   -0.860000
      3          8           0        0.825000    0.708000   -1.043000
      4          8           0        1.547000   -0.821000    0.121000
      5          8           0       -0.356000   -1.423000    0.102000
      6          6           0       -2.140000    1.089000   -0.478000
      7          6           0       -3.111000    0.479000    0.537000
      8          8           0       -4.124000    1.412000    0.863000
      9          6           0       -5.302000    1.143000    0.132000
     10          6           0       -6.326000    2.240000    0.416000
     11          6           0       -7.635000    1.988000   -0.342000
     12          6           0       -8.656000    3.086000   -0.057000
     13          1           0        2.087000   -0.652000    0.936000
     14          1           0       -0.748000   -1.663000    0.982000
     15          1           0       -2.711000    1.366000   -1.389000
     16          1           0       -1.703000    2.036000   -0.086000
     17          1           0       -2.553000    0.248000    1.469000
     18          1           0       -3.500000   -0.496000    0.155000
     19          1           0       -5.731000    0.164000    0.448000
     20          1           0       -5.094000    1.122000   -0.962000
     21          1           0       -5.901000    3.221000    0.108000
     22          1           0       -6.530000    2.273000    1.509000
     23          1           0       -8.064000    1.010000   -0.035000
     24          1           0       -7.436000    1.958000   -1.436000
     25          1           0       -9.592000    2.877000   -0.617000
     26          1           0       -8.262000    4.073000   -0.379000
     27          1           0       -8.892000    3.121000    1.028000
 ---------------------------------------------------------------------
                    Distance matrix (angstroms):
                    1          2          3          4          5
     1  P    0.000000
     2  O    1.751238   0.000000
     3  O    1.552528   2.069354   0.000000
     4  O    1.737831   3.037383   2.052808   0.000000
     5  O    1.739585   2.010333   2.692015   1.996040   0.000000
     6  C    2.578623   1.411342   3.042304   4.195339   3.135155
     7  C    3.299844   2.422976   4.247462   4.853867   3.375923
     8  O    4.491937   3.654466   5.349865   6.139796   4.776418
     9  C    5.549265   4.374534   6.253797   7.125042   5.572089
    10  C    6.801470   5.718247   7.457379   8.452270   7.011210
    11  C    8.024506   6.751949   8.584952   9.613219   8.050832
    12  C    9.282948   8.091711   9.824278  10.926918   9.447029
    13  H    2.209357   3.795225   2.712690   0.992162   2.694113
    14  H    2.214367   2.616339   3.492362   2.591777   0.992806
    15  H    3.517986   2.041968   3.613305   5.019326   3.943048
    16  H    2.629393   2.110872   3.011680   4.332182   3.716777
    17  H    2.970836   2.716115   4.234693   4.446332   3.080217
    18  H    3.741420   2.631830   4.646552   5.057568   3.278243
    19  H    5.902746   4.755447   6.745380   7.351628   5.615061
    20  H    5.481064   4.054794   5.934014   7.003643   5.482496
    21  H    6.770832   5.732432   7.271798   8.474116   7.232828
    22  H    7.111941   6.242690   7.940904   8.759983   7.332008
    23  H    8.276203   7.007209   8.951066   9.785102   8.084029
    24  H    7.986055   6.557819   8.364273   9.531074   7.995186
    25  H   10.154198   8.866596  10.648940  11.759982  10.213259
    26  H    9.290540   8.129068   9.712759  10.973501   9.640654
    27  H    9.541685   8.496859  10.224074  11.195300   9.714356
                    6          7          8          9         10
     6  C    0.000000
     7  C    1.531393   0.000000
     8  O    2.416375   1.415251   0.000000
     9  C    3.220755   2.324952   1.412234   0.000000
    10  C    4.432452   3.667695   2.394618   1.527299   0.000000
    11  C    5.569715   4.849361   3.756451   2.526181   1.533476
    12  C    6.828141   6.155998   4.918099   3.880758   2.523558
    13  H    4.785186   5.334563   6.545376   7.646291   8.911377
    14  H    3.412150   3.220242   4.568059   5.416184   6.831387
    15  H    1.110266   2.157833   2.658983   3.012715   4.134021
    16  H    1.114200   2.189713   2.674176   3.714536   4.654648
    17  H    2.160708   1.110562   2.046991   3.185215   4.394588
    18  H    2.182318   1.117081   2.128639   2.435991   3.942092
    19  H    3.822091   2.640369   2.076578   1.114602   2.159821
    20  H    2.993570   2.567633   2.087013   1.113796   2.160239
    21  H    4.362791   3.935315   2.645796   2.162744   1.112587
    22  H    4.962069   3.981555   2.635806   2.163565   1.112364
    23  H    5.941066   5.014115   4.060986   2.770239   2.176452
    24  H    5.451655   4.978533   4.068521   2.770705   2.177505
    25  H    7.664762   7.006103   5.851124   4.687415   3.484195
    26  H    6.811236   6.347337   5.074104   4.196144   2.782087
    27  H    7.210171   6.375046   5.067714   4.195641   2.781198
                   11         12         13         14         15
    11  C    0.000000
    12  C    1.526195   0.000000
    13  H   10.154810  11.418001   0.000000
    14  H    7.906551   9.282725   3.010226   0.000000
    15  H    5.072363   6.330533   5.700768   4.318547   0.000000
    16  H    5.937715   7.031895   4.757513   3.966768   1.778419
    17  H    5.668690   6.901415   4.756437   2.673409   3.072955
    18  H    4.849277   6.281720   5.643480   3.101503   2.544308
    19  H    2.752506   4.165181   7.875603   5.334170   3.733601
    20  H    2.755184   4.167033   7.636507   5.515712   2.433219
    21  H    2.174752   2.763236   8.915933   7.153373   3.982227
    22  H    2.174500   2.762825   9.117930   7.014367   4.879120
    23  H    1.111204   2.158871  10.331887   7.855130   5.533052
    24  H    1.112357   2.159265  10.155098   7.980458   4.762174
    25  H    2.166978   1.110575  12.298971  10.068999   7.087120
    26  H    2.177550   1.110445  11.452364   9.550613   6.257919
    27  H    2.177301   1.110921  11.609584   9.445290   6.864887
                   16         17         18         19         20
    16  H    0.000000
    17  H    2.517433   0.000000
    18  H    3.114212   1.782398   0.000000
    19  H    4.473737   3.339039   2.344954   0.000000
    20  H    3.619621   3.623578   2.531096   1.819789   0.000000
    21  H    4.366356   4.679760   4.425280   3.080544   2.490371
    22  H    5.089216   4.463043   4.322219   2.492389   3.081029
    23  H    6.443415   5.763140   4.809806   2.528220   3.113322
    24  H    5.890320   5.933533   4.903620   3.110453   2.531509
    25  H    7.951450   7.798112   7.006110   4.837553   4.840563
    26  H    6.874278   7.116067   6.620994   4.729712   4.368583
    27  H    7.355266   6.973631   6.551220   4.367170   4.730846
                   21         22         23         24         25
    21  H    0.000000
    22  H    1.804756   0.000000
    23  H    3.096375   2.516398   0.000000
    24  H    2.517008   3.097271   1.804408   0.000000
    25  H    3.777227   3.776312   2.481773   2.482672   0.000000
    26  H    2.556833   3.131193   3.088610   2.504546   1.804428
    27  H    3.130891   2.555290   2.504371   3.089304   1.804317
                   26         27
    26  H    0.000000
    27  H    1.811865   0.000000
 Stoichiometry    C6H15O5P
 Framework group  C1[X(C6H15O5P)]
 Deg. of freedom    75
 Full point group                 C1      NOp   1
 Largest Abelian subgroup         C1      NOp   1
 Largest concise Abelian subgroup C1      NOp   1
                         Standard orientation:                         
 ---------------------------------------------------------------------
 Center     Atomic      Atomic             Coordinates (Angstroms)
 Number     Number       Type             X           Y           Z
 ---------------------------------------------------------------------
      1         15           0       -2.997152    0.133738   -0.489022
      2          8           0       -1.780871    0.384743    0.745680
      3          8           0       -3.494589    1.420382    0.223331
      4          8           0       -4.635663   -0.261412   -0.065704
      5          8           0       -3.016062   -1.197211    0.630965
      6          6           0       -0.548685    0.667879    0.118433
      7          6           0        0.202339   -0.625039   -0.212460
      8          8           0        1.461696   -0.323844   -0.783631
      9          6           0        2.483200   -0.416655    0.187101
     10          6           0        3.803376    0.034779   -0.434175
     11          6           0        4.954121   -0.061907    0.574778
     12          6           0        6.271778    0.390496   -0.048425
     13          1           0       -5.080737   -0.452890   -0.931517
     14          1           0       -2.702158   -1.978846    0.105442
     15          1           0        0.063157    1.257409    0.833131
     16          1           0       -0.661134    1.302430   -0.790491
     17          1           0       -0.382416   -1.193333   -0.966418
     18          1           0        0.260643   -1.275399    0.693908
     19          1           0        2.591253   -1.472864    0.526343
     20          1           0        2.258692    0.233964    1.062791
     21          1           0        3.699896    1.087072   -0.780327
     22          1           0        4.027809   -0.604822   -1.316158
     23          1           0        5.062318   -1.112263    0.920929
     24          1           0        4.735355    0.579383    1.456949
     25          1           0        7.085298    0.308767    0.703162
     26          1           0        6.199357    1.447713   -0.380291
     27          1           0        6.527084   -0.250959   -0.918770
 ---------------------------------------------------------------------
 Rotational constants (GHZ):           3.4704774           0.2133515           0.2097750
 Standard basis: VSTO-6G (5D, 7F)
 There are    69 symmetry adapted cartesian basis functions of A   symmetry.
 There are    68 symmetry adapted basis functions of A   symmetry.
    68 basis functions,   414 primitive gaussians,    69 cartesian basis functions
    37 alpha electrons       37 beta electrons
       nuclear repulsion energy       468.5116901373 Hartrees.
 Integral buffers will be    131072 words long.
 Regular integral format.
 Two-electron integral symmetry is turned off.
 Do NDO integrals.
 One-electron integrals computed using PRISM.
 NBasis=    68 RedAO= F EigKep=  0.00D+00  NBF=    68
 NBsUse=    68 1.00D-04 EigRej=  0.00D+00 NBFU=    68
 Nonelectrostatic core Hamiltonian diagonalized for initial guess.
 Keep J ints in memory in canonical form, NReq=1862583.
 Overlap will be assumed to be unity.
 Requested convergence on RMS density matrix=1.00D-08 within9999 cycles.
 Requested convergence on MAX density matrix=1.00D-06.
 Requested convergence on             energy=1.00D-06.
 No special actions if energy rises.
 SCF Done:  E(RPM6) = -0.137815194129     A.U. after   31 cycles
            NFock= 30  Conv=0.93D-08     -V/T= 0.9991
 Range of M.O.s used for correlation:     1    68
 NBasis=    68 NAE=    37 NBE=    37 NFC=     0 NFV=     0
 NROrb=     68 NOA=    37 NOB=    37 NVA=    31 NVB=    31
 Symmetrizing basis deriv contribution to polar:
 IMax=3 JMax=2 DiffMx= 0.00D+00
 G2DrvN: will do    28 centers at a time, making    1 passes.
 Calling FoFCou, ICntrl=  3107 FMM=F I1Cent=   0 AccDes= 0.00D+00.
 End of G2Drv F.D. properties file   721 does not exist.
 End of G2Drv F.D. properties file   722 does not exist.
 End of G2Drv F.D. properties file   788 does not exist.
          IDoAtm=111111111111111111111111111
          Differentiating once with respect to electric field.
                with respect to dipole field.
          Differentiating once with respect to nuclear coordinates.
          Electric field/nuclear overlap derivatives assumed to be zero.
 Keep J ints in memory in canonical form, NReq=1865275.
          There are    84 degrees of freedom in the 1st order CPHF.  IDoFFX=5 NUNeed=    84.
 LinEq1:  Iter=  0 NonCon=    84 RMS=2.83D-01 Max=6.63D+00 NDo=    84
 AX will form    84 AO Fock derivatives at one time.
 LinEq1:  Iter=  1 NonCon=    84 RMS=7.08D-02 Max=6.87D-01 NDo=    84
 LinEq1:  Iter=  2 NonCon=    84 RMS=1.97D-02 Max=4.04D-01 NDo=    84
 LinEq1:  Iter=  3 NonCon=    84 RMS=4.83D-03 Max=8.67D-02 NDo=    84
 LinEq1:  Iter=  4 NonCon=    84 RMS=1.57D-03 Max=2.69D-02 NDo=    84
 LinEq1:  Iter=  5 NonCon=    84 RMS=5.72D-04 Max=1.10D-02 NDo=    84
 LinEq1:  Iter=  6 NonCon=    84 RMS=1.33D-04 Max=1.45D-03 NDo=    84
 LinEq1:  Iter=  7 NonCon=    82 RMS=3.18D-05 Max=4.75D-04 NDo=    84
 LinEq1:  Iter=  8 NonCon=    59 RMS=6.94D-06 Max=1.02D-04 NDo=    84
 LinEq1:  Iter=  9 NonCon=    35 RMS=1.95D-06 Max=2.22D-05 NDo=    59
 LinEq1:  Iter= 10 NonCon=    18 RMS=4.62D-07 Max=6.85D-06 NDo=    35
 LinEq1:  Iter= 11 NonCon=     5 RMS=1.04D-07 Max=1.56D-06 NDo=    18
 LinEq1:  Iter= 12 NonCon=     2 RMS=1.74D-08 Max=1.88D-07 NDo=     5
 LinEq1:  Iter= 13 NonCon=     0 RMS=3.71D-09 Max=4.08D-08 NDo=     2
 Linear equations converged to 1.000D-08 1.000D-07 after    13 iterations.
 Isotropic polarizability for W=    0.000000      126.79 Bohr**3.
 End of Minotr F.D. properties file   721 does not exist.
 End of Minotr F.D. properties file   722 does not exist.
 End of Minotr F.D. properties file   788 does not exist.

 **********************************************************************

            Population analysis using the SCF Density.

 **********************************************************************

 Orbital symmetries:
       Occupied  (A) (A) (A) (A) (A) (A) (A) (A) (A) (A) (A) (A)
                 (A) (A) (A) (A) (A) (A) (A) (A) (A) (A) (A) (A)
                 (A) (A) (A) (A) (A) (A) (A) (A) (A) (A) (A) (A)
                 (A)
       Virtual   (A) (A) (A) (A) (A) (A) (A) (A) (A) (A) (A) (A)
                 (A) (A) (A) (A) (A) (A) (A) (A) (A) (A) (A) (A)
                 (A) (A) (A) (A) (A) (A) (A)
 The electronic state is 1-A.
 Alpha  occ. eigenvalues --   -1.14134  -1.12344  -1.11961  -1.09591  -1.05923
 Alpha  occ. eigenvalues --   -1.05010  -0.97658  -0.92985  -0.83052  -0.80612
 Alpha  occ. eigenvalues --   -0.77095  -0.75146  -0.68417  -0.65725  -0.63653
 Alpha  occ. eigenvalues --   -0.62689  -0.60934  -0.59171  -0.57465  -0.56791
 Alpha  occ. eigenvalues --   -0.55473  -0.54218  -0.52500  -0.51762  -0.50018
 Alpha  occ. eigenvalues --   -0.48773  -0.46948  -0.45661  -0.44571  -0.44314
 Alpha  occ. eigenvalues --   -0.44217  -0.42949  -0.40035  -0.39223  -0.38399
 Alpha  occ. eigenvalues --   -0.36526  -0.34649
 Alpha virt. eigenvalues --   -0.14391   0.05269   0.07307   0.07482   0.10719
 Alpha virt. eigenvalues --    0.11582   0.12572   0.14215   0.14836   0.15187
 Alpha virt. eigenvalues --    0.16301   0.17208   0.17797   0.18313   0.18464
 Alpha virt. eigenvalues --    0.18747   0.19350   0.19586   0.19709   0.20488
 Alpha virt. eigenvalues --    0.20841   0.21105   0.21918   0.22540   0.23110
 Alpha virt. eigenvalues --    0.24059   4.44481   4.46274   4.46912   4.47183
 Alpha virt. eigenvalues --    4.47435
          Condensed to atoms (all electrons):
               1          2          3          4          5          6
     1  P    4.001676   0.000000   0.000000   0.000000   0.000000   0.000000
     2  O    0.000000   6.341913   0.000000   0.000000   0.000000   0.000000
     3  O    0.000000   0.000000   6.453783   0.000000   0.000000   0.000000
     4  O    0.000000   0.000000   0.000000   6.443208   0.000000   0.000000
     5  O    0.000000   0.000000   0.000000   0.000000   6.494381   0.000000
     6  C    0.000000   0.000000   0.000000   0.000000   0.000000   4.151008
     7  C    0.000000   0.000000   0.000000   0.000000   0.000000   0.000000
     8  O    0.000000   0.000000   0.000000   0.000000   0.000000   0.000000
     9  C    0.000000   0.000000   0.000000   0.000000   0.000000   0.000000
    10  C    0.000000   0.000000   0.000000   0.000000   0.000000   0.000000
    11  C    0.000000   0.000000   0.000000   0.000000   0.000000   0.000000
    12  C    0.000000   0.000000   0.000000   0.000000   0.000000   0.000000
    13  H    0.000000   0.000000   0.000000   0.000000   0.000000   0.000000
    14  H    0.000000   0.000000   0.000000   0.000000   0.000000   0.000000
    15  H    0.000000   0.000000   0.000000   0.000000   0.000000   0.000000
    16  H    0.000000   0.000000   0.000000   0.000000   0.000000   0.000000
    17  H    0.000000   0.000000   0.000000   0.000000   0.000000   0.000000
    18  H    0.000000   0.000000   0.000000   0.000000   0.000000   0.000000
    19  H    0.000000   0.000000   0.000000   0.000000   0.000000   0.000000
    20  H    0.000000   0.000000   0.000000   0.000000   0.000000   0.000000
    21  H    0.000000   0.000000   0.000000   0.000000   0.000000   0.000000
    22  H    0.000000   0.000000   0.000000   0.000000   0.000000   0.000000
    23  H    0.000000   0.000000   0.000000   0.000000   0.000000   0.000000
    24  H    0.000000   0.000000   0.000000   0.000000   0.000000   0.000000
    25  H    0.000000   0.000000   0.000000   0.000000   0.000000   0.000000
    26  H    0.000000   0.000000   0.000000   0.000000   0.000000   0.000000
    27  H    0.000000   0.000000   0.000000   0.000000   0.000000   0.000000
               7          8          9         10         11         12
     1  P    0.000000   0.000000   0.000000   0.000000   0.000000   0.000000
     2  O    0.000000   0.000000   0.000000   0.000000   0.000000   0.000000
     3  O    0.000000   0.000000   0.000000   0.000000   0.000000   0.000000
     4  O    0.000000   0.000000   0.000000   0.000000   0.000000   0.000000
     5  O    0.000000   0.000000   0.000000   0.000000   0.000000   0.000000
     6  C    0.000000   0.000000   0.000000   0.000000   0.000000   0.000000
     7  C    4.040211   0.000000   0.000000   0.000000   0.000000   0.000000
     8  O    0.000000   6.419553   0.000000   0.000000   0.000000   0.000000
     9  C    0.000000   0.000000   4.025063   0.000000   0.000000   0.000000
    10  C    0.000000   0.000000   0.000000   4.301065   0.000000   0.000000
    11  C    0.000000   0.000000   0.000000   0.000000   4.222386   0.000000
    12  C    0.000000   0.000000   0.000000   0.000000   0.000000   4.460242
    13  H    0.000000   0.000000   0.000000   0.000000   0.000000   0.000000
    14  H    0.000000   0.000000   0.000000   0.000000   0.000000   0.000000
    15  H    0.000000   0.000000   0.000000   0.000000   0.000000   0.000000
    16  H    0.000000   0.000000   0.000000   0.000000   0.000000   0.000000
    17  H    0.000000   0.000000   0.000000   0.000000   0.000000   0.000000
    18  H    0.000000   0.000000   0.000000   0.000000   0.000000   0.000000
    19  H    0.000000   0.000000   0.000000   0.000000   0.000000   0.000000
    20  H    0.000000   0.000000   0.000000   0.000000   0.000000   0.000000
    21  H    0.000000   0.000000   0.000000   0.000000   0.000000   0.000000
    22  H    0.000000   0.000000   0.000000   0.000000   0.000000   0.000000
    23  H    0.000000   0.000000   0.000000   0.000000   0.000000   0.000000
    24  H    0.000000   0.000000   0.000000   0.000000   0.000000   0.000000
    25  H    0.000000   0.000000   0.000000   0.000000   0.000000   0.000000
    26  H    0.000000   0.000000   0.000000   0.000000   0.000000   0.000000
    27  H    0.000000   0.000000   0.000000   0.000000   0.000000   0.000000
              13         14         15         16         17         18
     1  P    0.000000   0.000000   0.000000   0.000000   0.000000   0.000000
     2  O    0.000000   0.000000   0.000000   0.000000   0.000000   0.000000
     3  O    0.000000   0.000000   0.000000   0.000000   0.000000   0.000000
     4  O    0.000000   0.000000   0.000000   0.000000   0.000000   0.000000
     5  O    0.000000   0.000000   0.000000   0.000000   0.000000   0.000000
     6  C    0.000000   0.000000   0.000000   0.000000   0.000000   0.000000
     7  C    0.000000   0.000000   0.000000   0.000000   0.000000   0.000000
     8  O    0.000000   0.000000   0.000000   0.000000   0.000000   0.000000
     9  C    0.000000   0.000000   0.000000   0.000000   0.000000   0.000000
    10  C    0.000000   0.000000   0.000000   0.000000   0.000000   0.000000
    11  C    0.000000   0.000000   0.000000   0.000000   0.000000   0.000000
    12  C    0.000000   0.000000   0.000000   0.000000   0.000000   0.000000
    13  H    0.736819   0.000000   0.000000   0.000000   0.000000   0.000000
    14  H    0.000000   0.722273   0.000000   0.000000   0.000000   0.000000
    15  H    0.000000   0.000000   0.839384   0.000000   0.000000   0.000000
    16  H    0.000000   0.000000   0.000000   0.857713   0.000000   0.000000
    17  H    0.000000   0.000000   0.000000   0.000000   0.873460   0.000000
    18  H    0.000000   0.000000   0.000000   0.000000   0.000000   0.861754
    19  H    0.000000   0.000000   0.000000   0.000000   0.000000   0.000000
    20  H    0.000000   0.000000   0.000000   0.000000   0.000000   0.000000
    21  H    0.000000   0.000000   0.000000   0.000000   0.000000   0.000000
    22  H    0.000000   0.000000   0.000000   0.000000   0.000000   0.000000
    23  H    0.000000   0.000000   0.000000   0.000000   0.000000   0.000000
    24  H    0.000000   0.000000   0.000000   0.000000   0.000000   0.000000
    25  H    0.000000   0.000000   0.000000   0.000000   0.000000   0.000000
    26  H    0.000000   0.000000   0.000000   0.000000   0.000000   0.000000
    27  H    0.000000   0.000000   0.000000   0.000000   0.000000   0.000000
              19         20         21         22         23         24
     1  P    0.000000   0.000000   0.000000   0.000000   0.000000   0.000000
     2  O    0.000000   0.000000   0.000000   0.000000   0.000000   0.000000
     3  O    0.000000   0.000000   0.000000   0.000000   0.000000   0.000000
     4  O    0.000000   0.000000   0.000000   0.000000   0.000000   0.000000
     5  O    0.000000   0.000000   0.000000   0.000000   0.000000   0.000000
     6  C    0.000000   0.000000   0.000000   0.000000   0.000000   0.000000
     7  C    0.000000   0.000000   0.000000   0.000000   0.000000   0.000000
     8  O    0.000000   0.000000   0.000000   0.000000   0.000000   0.000000
     9  C    0.000000   0.000000   0.000000   0.000000   0.000000   0.000000
    10  C    0.000000   0.000000   0.000000   0.000000   0.000000   0.000000
    11  C    0.000000   0.000000   0.000000   0.000000   0.000000   0.000000
    12  C    0.000000   0.000000   0.000000   0.000000   0.000000   0.000000
    13  H    0.000000   0.000000   0.000000   0.000000   0.000000   0.000000
    14  H    0.000000   0.000000   0.000000   0.000000   0.000000   0.000000
    15  H    0.000000   0.000000   0.000000   0.000000   0.000000   0.000000
    16  H    0.000000   0.000000   0.000000   0.000000   0.000000   0.000000
    17  H    0.000000   0.000000   0.000000   0.000000   0.000000   0.000000
    18  H    0.000000   0.000000   0.000000   0.000000   0.000000   0.000000
    19  H    0.885997   0.000000   0.000000   0.000000   0.000000   0.000000
    20  H    0.000000   0.883811   0.000000   0.000000   0.000000   0.000000
    21  H    0.000000   0.000000   0.846764   0.000000   0.000000   0.000000
    22  H    0.000000   0.000000   0.000000   0.846527   0.000000   0.000000
    23  H    0.000000   0.000000   0.000000   0.000000   0.870865   0.000000
    24  H    0.000000   0.000000   0.000000   0.000000   0.000000   0.870095
    25  H    0.000000   0.000000   0.000000   0.000000   0.000000   0.000000
    26  H    0.000000   0.000000   0.000000   0.000000   0.000000   0.000000
    27  H    0.000000   0.000000   0.000000   0.000000   0.000000   0.000000
              25         26         27
     1  P    0.000000   0.000000   0.000000
     2  O    0.000000   0.000000   0.000000
     3  O    0.000000   0.000000   0.000000
     4  O    0.000000   0.000000   0.000000
     5  O    0.000000   0.000000   0.000000
     6  C    0.000000   0.000000   0.000000
     7  C    0.000000   0.000000   0.000000
     8  O    0.000000   0.000000   0.000000
     9  C    0.000000   0.000000   0.000000
    10  C    0.000000   0.000000   0.000000
    11  C    0.000000   0.000000   0.000000
    12  C    0.000000   0.000000   0.000000
    13  H    0.000000   0.000000   0.000000
    14  H    0.000000   0.000000   0.000000
    15  H    0.000000   0.000000   0.000000
    16  H    0.000000   0.000000   0.000000
    17  H    0.000000   0.000000   0.000000
    18  H    0.000000   0.000000   0.000000
    19  H    0.000000   0.000000   0.000000
    20  H    0.000000   0.000000   0.000000
    21  H    0.000000   0.000000   0.000000
    22  H    0.000000   0.000000   0.000000
    23  H    0.000000   0.000000   0.000000
    24  H    0.000000   0.000000   0.000000
    25  H    0.851783   0.000000   0.000000
    26  H    0.000000   0.848933   0.000000
    27  H    0.000000   0.000000   0.849333
 Mulliken charges:
               1
     1  P    0.998324
     2  O   -0.341913
     3  O   -0.453783
     4  O   -0.443208
     5  O   -0.494381
     6  C   -0.151008
     7  C   -0.040211
     8  O   -0.419553
     9  C   -0.025063
    10  C   -0.301065
    11  C   -0.222386
    12  C   -0.460242
    13  H    0.263181
    14  H    0.277727
    15  H    0.160616
    16  H    0.142287
    17  H    0.126540
    18  H    0.138246
    19  H    0.114003
    20  H    0.116189
    21  H    0.153236
    22  H    0.153473
    23  H    0.129135
    24  H    0.129905
    25  H    0.148217
    26  H    0.151067
    27  H    0.150667
 Sum of Mulliken charges =   0.00000
 Mulliken charges with hydrogens summed into heavy atoms:
               1
     1  P    0.998324
     2  O   -0.341913
     3  O   -0.453783
     4  O   -0.180027
     5  O   -0.216654
     6  C    0.151894
     7  C    0.224576
     8  O   -0.419553
     9  C    0.205129
    10  C    0.005644
    11  C    0.036655
    12  C   -0.010291
 APT charges:
               1
     1  P   -1.901200
     2  O    0.030675
     3  O    1.047966
     4  O   -0.045441
     5  O    0.149473
     6  C   -0.152888
     7  C    0.308781
     8  O   -0.699717
     9  C    0.213029
    10  C   -0.342510
    11  C   -0.146572
    12  C   -0.551308
    13  H    0.315159
    14  H    0.223533
    15  H    0.159904
    16  H    0.075530
    17  H    0.026061
    18  H    0.109791
    19  H    0.068341
    20  H    0.074641
    21  H    0.149028
    22  H    0.151696
    23  H    0.115588
    24  H    0.115585
    25  H    0.167136
    26  H    0.168853
    27  H    0.168973
 Sum of APT charges =   0.00010
 APT charges with hydrogens summed into heavy atoms:
               1
     1  P   -1.901200
     2  O    0.030675
     3  O    1.047966
     4  O    0.269718
     5  O    0.373007
     6  C    0.082547
     7  C    0.444633
     8  O   -0.699717
     9  C    0.356011
    10  C   -0.041786
    11  C    0.084601
    12  C   -0.046347
 Charge=              0.0000 electrons
 Dipole moment (field-independent basis, Debye):
    X=              3.1168    Y=             -2.5906    Z=             -3.7590  Tot=              5.5277
 N-N= 4.685116901373D+02 E-N=-7.348915300056D+02  KE=-1.537956506296D+02
  Exact polarizability:     179.882       1.071      96.855      13.058       2.359     103.619
 Approx polarizability:     123.064      -2.490      87.439      10.609       0.051      56.990
 Calling FoFJK, ICntrl=    100127 FMM=F ISym2X=0 I1Cent= 0 IOpClX= 0 NMat=1 NMatS=1 NMatT=0.
 ***** Axes restored to original set *****
 -------------------------------------------------------------------
 Center     Atomic                   Forces (Hartrees/Bohr)
 Number     Number              X              Y              Z
 -------------------------------------------------------------------
      1       15          -0.002262540    0.012589115   -0.006271527
      2        8          -0.042862630    0.023157975   -0.010760041
      3        8           0.029997251    0.032788800   -0.032884343
      4        8           0.046176668    0.004470193    0.023192738
      5        8          -0.024846013   -0.043693346    0.031716155
      6        6          -0.017933746    0.019461673   -0.011526817
      7        6           0.017480005   -0.022712224    0.005516183
      8        8           0.012193295    0.007505833    0.013540472
      9        6          -0.034918611   -0.007620402   -0.021549847
     10        6           0.002983800    0.005246950    0.004507228
     11        6           0.000455248   -0.000430198   -0.000580579
     12        6          -0.002147247    0.001061725    0.000123945
     13        1           0.026197388   -0.016478562    0.002260983
     14        1          -0.010791141   -0.022144407   -0.001776337
     15        1           0.002240831   -0.000517934   -0.003614676
     16        1          -0.001412947   -0.000226227   -0.001093999
     17        1          -0.008026249    0.003944811    0.004257280
     18        1          -0.000911658    0.004214870    0.001504129
     19        1           0.004512018   -0.000012264   -0.000946162
     20        1           0.002467410   -0.002179923    0.002388367
     21        1          -0.000893342   -0.000804501    0.004401651
     22        1           0.002078187    0.003453952   -0.001944598
     23        1           0.001417278    0.000457735   -0.003156299
     24        1          -0.000833880   -0.002864553    0.002272946
     25        1           0.005108013    0.004223651    0.005081757
     26        1          -0.005443813   -0.005534020    0.003767032
     27        1          -0.000023577    0.002641276   -0.008425642
 -------------------------------------------------------------------
 Cartesian Forces:  Max     0.046176668 RMS     0.014861524
 FormGI is forming the generalized inverse of G from B-inverse, IUseBI=4.

 GradGradGradGradGradGradGradGradGradGradGradGradGradGradGradGradGradGrad
 Berny optimization.
 Internal  Forces:  Max     0.070118236 RMS     0.016697737
 Search for a local minimum.
 Step number   1 out of a maximum of  162
 All quantities printed in internal units (Hartrees-Bohrs-Radians)
 Mixed Optimization -- RFO/linear search
 Second derivative matrix not updated -- analytic derivatives used.
 ITU=  0
     Eigenvalues ---   -0.81193  -0.19441  -0.05350   0.00005   0.00053
     Eigenvalues ---    0.00094   0.00126   0.00135   0.00221   0.00418
     Eigenvalues ---    0.00493   0.00649   0.01526   0.02653   0.03049
     Eigenvalues ---    0.03147   0.03649   0.03678   0.03684   0.03705
     Eigenvalues ---    0.03765   0.03778   0.03894   0.05247   0.05264
     Eigenvalues ---    0.05448   0.06537   0.06984   0.08308   0.09236
     Eigenvalues ---    0.09251   0.09795   0.10439   0.10800   0.11481
     Eigenvalues ---    0.12050   0.12256   0.12565   0.12900   0.14354
     Eigenvalues ---    0.15588   0.15677   0.16204   0.17056   0.17384
     Eigenvalues ---    0.17422   0.18122   0.20341   0.23251   0.24643
     Eigenvalues ---    0.24778   0.24840   0.24989   0.25163   0.25186
     Eigenvalues ---    0.25246   0.25289   0.25813   0.26424   0.26558
     Eigenvalues ---    0.26768   0.26900   0.27400   0.27554   0.34437
     Eigenvalues ---    0.34772   0.36283   0.40115   0.42537   0.43884
     Eigenvalues ---    0.45753   0.49615   0.55223   0.58441   0.60297
 RFO step:  Lambda=-8.16756242D-01 EMin=-8.11933026D-01
 I=     1 Eig=   -8.12D-01 Dot1= -3.71D-02
 I=     1 Stepn= -6.00D-01 RXN=   6.00D-01 EDone=F
 I=     2 Eig=   -1.94D-01 Dot1= -3.26D-03
 I=     2 Stepn= -3.00D-01 RXN=   6.71D-01 EDone=F
 I=     3 Eig=   -5.35D-02 Dot1= -3.74D-03
 I=     3 Stepn= -1.50D-01 RXN=   6.87D-01 EDone=F
 Mixed    3 eigenvectors in step.  Raw Step.Grad=  4.41D-02.
 RFO eigenvector is Hessian eigenvector with negative curvature.
 Taking step of  6.00D-01 in eigenvector direction(s).  Step.Grad= -1.97D-02.
 Linear search not attempted -- first point.
 Maximum step size (   0.300) exceeded in Quadratic search.
    -- Step size not scaled.
 Iteration  1 RMS(Cart)=  0.10488851 RMS(Int)=  0.01595675
 Iteration  2 RMS(Cart)=  0.04319414 RMS(Int)=  0.00387772
 Iteration  3 RMS(Cart)=  0.00230239 RMS(Int)=  0.00353946
 Iteration  4 RMS(Cart)=  0.00001276 RMS(Int)=  0.00353946
 Iteration  5 RMS(Cart)=  0.00000015 RMS(Int)=  0.00353946
 Variable       Old X    -DE/DX   Delta X   Delta X   Delta X     New X
                                 (Linear)    (Quad)   (Total)
    R1        3.30936   0.05802   0.00000   0.00799   0.00799   3.31735
    R2        2.93385   0.05086   0.00000  -0.09195  -0.09195   2.84190
    R3        3.28402   0.06231   0.00000  -0.06220  -0.06220   3.22182
    R4        3.28734   0.07012   0.00000  -0.10801  -0.10801   3.17933
    R5        2.66705   0.01974   0.00000  -0.01964  -0.01964   2.64741
    R6        1.87491   0.01331   0.00000  -0.02253  -0.02253   1.85239
    R7        1.87613   0.00804   0.00000  -0.02099  -0.02099   1.85514
    R8        2.89391   0.01373   0.00000   0.00023   0.00023   2.89415
    R9        2.09810   0.00168   0.00000  -0.00013  -0.00013   2.09797
   R10        2.10553  -0.00113   0.00000  -0.00057  -0.00057   2.10497
   R11        2.67444   0.01261   0.00000   0.00171   0.00171   2.67615
   R12        2.09866  -0.00128   0.00000  -0.00154  -0.00154   2.09712
   R13        2.11098  -0.00388   0.00000   0.00122   0.00122   2.11220
   R14        2.66874   0.02878   0.00000   0.00009   0.00009   2.66882
   R15        2.88618   0.00467   0.00000   0.00006   0.00006   2.88624
   R16        2.10629  -0.00199   0.00000   0.00002   0.00002   2.10632
   R17        2.10477  -0.00184   0.00000   0.00010   0.00010   2.10487
   R18        2.89785   0.00178   0.00000   0.00002   0.00002   2.89787
   R19        2.10248  -0.00227   0.00000  -0.00009  -0.00009   2.10240
   R20        2.10206  -0.00219   0.00000  -0.00012  -0.00012   2.10195
   R21        2.88409   0.00350   0.00000   0.00003   0.00003   2.88412
   R22        2.09987  -0.00182   0.00000   0.00006   0.00006   2.09993
   R23        2.10205  -0.00231   0.00000   0.00008   0.00008   2.10213
   R24        2.09868  -0.00766   0.00000   0.00008   0.00008   2.09876
   R25        2.09844  -0.00794   0.00000  -0.00003  -0.00003   2.09841
   R26        2.09934  -0.00814   0.00000  -0.00003  -0.00003   2.09931
    A1        1.34923   0.02110   0.00000   0.10631   0.08876   1.43800
    A2        2.11260   0.06588   0.00000   0.35341   0.35851   2.47111
    A3        1.22737   0.03086   0.00000   0.11756   0.10952   1.33689
    A4        1.34342   0.00733   0.00000   0.17520   0.15525   1.49867
    A5        1.91259   0.03864   0.00000   0.25023   0.24307   2.15566
    A6        1.22277   0.03890   0.00000   0.18029   0.17150   1.39426
    A7        1.89840   0.04770   0.00000  -0.00913  -0.00913   1.88927
    A8        1.82788   0.05256   0.00000   0.01770   0.01770   1.84558
    A9        1.83188   0.04341   0.00000   0.03853   0.03853   1.87041
   A10        1.93352  -0.00000   0.00000  -0.00897  -0.00897   1.92455
   A11        1.87712  -0.00360   0.00000   0.00538   0.00538   1.88250
   A12        1.97001   0.00130   0.00000   0.00307   0.00306   1.97307
   A13        1.89349   0.00231   0.00000   0.00048   0.00049   1.89398
   A14        1.93270   0.00069   0.00000   0.00156   0.00156   1.93426
   A15        1.85286  -0.00080   0.00000  -0.00107  -0.00107   1.85179
   A16        1.92189  -0.00418   0.00000   0.00229   0.00229   1.92418
   A17        1.89705   0.00960   0.00000  -0.00077  -0.00077   1.89628
   A18        1.91964   0.00108   0.00000  -0.00137  -0.00137   1.91827
   A19        1.87911  -0.00616   0.00000  -0.00040  -0.00040   1.87871
   A20        1.98768   0.00078   0.00000   0.00079   0.00079   1.98847
   A21        1.85501  -0.00055   0.00000  -0.00071  -0.00071   1.85430
   A22        1.93077   0.02411   0.00000   0.00038   0.00038   1.93115
   A23        1.90307  -0.01389   0.00000   0.00016   0.00016   1.90323
   A24        1.91942   0.00160   0.00000  -0.00028  -0.00028   1.91914
   A25        1.93503   0.00206   0.00000  -0.00039  -0.00039   1.93465
   A26        1.89664   0.00698   0.00000   0.00010   0.00010   1.89674
   A27        1.89800   0.00650   0.00000   0.00052   0.00052   1.89852
   A28        1.91112  -0.00311   0.00000  -0.00009  -0.00009   1.91103
   A29        1.94161  -0.00197   0.00000  -0.00011  -0.00011   1.94150
   A30        1.90257   0.00097   0.00000   0.00018   0.00018   1.90275
   A31        1.90390   0.00083   0.00000   0.00011   0.00011   1.90402
   A32        1.91148   0.00126   0.00000  -0.00008  -0.00008   1.91140
   A33        1.91137   0.00134   0.00000  -0.00020  -0.00020   1.91116
   A34        1.89221  -0.00247   0.00000   0.00010   0.00010   1.89232
   A35        1.93963  -0.00014   0.00000   0.00003   0.00003   1.93966
   A36        1.91519   0.00012   0.00000  -0.00001  -0.00001   1.91518
   A37        1.91544   0.00007   0.00000   0.00002   0.00002   1.91546
   A38        1.90004   0.00076   0.00000  -0.00004  -0.00004   1.90000
   A39        1.89942   0.00078   0.00000   0.00003   0.00003   1.89945
   A40        1.89341  -0.00162   0.00000  -0.00004  -0.00004   1.89337
   A41        1.91163   0.00358   0.00000  -0.00011  -0.00011   1.91152
   A42        1.92617   0.00331   0.00000   0.00010   0.00010   1.92627
   A43        1.92534   0.00341   0.00000   0.00009   0.00009   1.92543
   A44        1.89662  -0.00335   0.00000  -0.00005  -0.00005   1.89657
   A45        1.89585  -0.00333   0.00000  -0.00007  -0.00007   1.89579
   A46        1.90771  -0.00385   0.00000   0.00003   0.00003   1.90775
    D1       -2.00444   0.00375   0.00000   0.13703   0.14061  -1.86382
    D2        3.12523   0.01221   0.00000   0.01441   0.01281   3.13804
    D3        2.24630  -0.01647   0.00000  -0.04477  -0.04675   2.19954
    D4       -3.02882  -0.00886   0.00000   0.01258   0.01533  -3.01349
    D5        2.09784  -0.00728   0.00000  -0.07331  -0.08926   2.00858
    D6       -2.14788   0.01621   0.00000   0.04367   0.05686  -2.09102
    D7       -1.96974   0.01872   0.00000   0.10836   0.11499  -1.85475
    D8        3.12697  -0.00215   0.00000   0.05267   0.05748  -3.09874
    D9        1.94985  -0.01084   0.00000  -0.11736  -0.12880   1.82104
   D10       -1.51777  -0.00191   0.00000   0.00176   0.00176  -1.51602
   D11        2.69875  -0.00254   0.00000   0.00300   0.00302   2.70177
   D12        0.66089  -0.00001   0.00000  -0.00083  -0.00084   0.66005
   D13       -3.09429   0.00086   0.00000  -0.00213  -0.00213  -3.09642
   D14        1.13437   0.00503   0.00000  -0.00251  -0.00251   1.13186
   D15       -0.88986  -0.00037   0.00000  -0.00046  -0.00046  -0.89032
   D16       -1.03759  -0.00212   0.00000  -0.00048  -0.00048  -1.03807
   D17       -3.09212   0.00206   0.00000  -0.00086  -0.00086  -3.09298
   D18        1.16684  -0.00335   0.00000   0.00119   0.00119   1.16803
   D19        0.98925  -0.00135   0.00000  -0.00062  -0.00062   0.98863
   D20       -1.06528   0.00283   0.00000  -0.00100  -0.00100  -1.06628
   D21       -3.08950  -0.00257   0.00000   0.00105   0.00105  -3.08845
   D22        1.73142  -0.00331   0.00000   0.00153   0.00153   1.73294
   D23       -2.48618   0.00228   0.00000   0.00165   0.00165  -2.48453
   D24       -0.43415  -0.00204   0.00000   0.00096   0.00096  -0.43318
   D25       -3.05428   0.00009   0.00000  -0.00045  -0.00045  -3.05474
   D26        1.15091  -0.00093   0.00000  -0.00050  -0.00050   1.15041
   D27       -0.96517   0.00056   0.00000   0.00005   0.00005  -0.96512
   D28       -3.12982   0.00005   0.00000   0.00017   0.00017  -3.12965
   D29        1.04375  -0.00091   0.00000   0.00022   0.00022   1.04397
   D30       -1.01947   0.00102   0.00000  -0.00008  -0.00008  -1.01955
   D31       -1.03769  -0.00205   0.00000  -0.00002  -0.00002  -1.03771
   D32        3.13588  -0.00301   0.00000   0.00003   0.00003   3.13591
   D33        1.07266  -0.00108   0.00000  -0.00027  -0.00027   1.07239
   D34        1.04146   0.00198   0.00000   0.00023   0.00023   1.04169
   D35       -1.06815   0.00102   0.00000   0.00028   0.00028  -1.06787
   D36       -3.13137   0.00295   0.00000  -0.00002  -0.00002  -3.13139
   D37       -3.14103  -0.00004   0.00000  -0.00012  -0.00012  -3.14116
   D38        1.03977  -0.00097   0.00000  -0.00009  -0.00009   1.03967
   D39       -1.03926   0.00089   0.00000  -0.00005  -0.00005  -1.03931
   D40       -1.03666   0.00075   0.00000  -0.00002  -0.00002  -1.03668
   D41       -3.13905  -0.00019   0.00000   0.00001   0.00001  -3.13904
   D42        1.06512   0.00168   0.00000   0.00005   0.00005   1.06516
   D43        1.03619  -0.00070   0.00000  -0.00006  -0.00006   1.03613
   D44       -1.06619  -0.00164   0.00000  -0.00003  -0.00003  -1.06622
   D45        3.13797   0.00023   0.00000   0.00001   0.00001   3.13798
   D46       -3.14048  -0.00004   0.00000   0.00004   0.00004  -3.14043
   D47        1.05535  -0.00021   0.00000   0.00011   0.00011   1.05546
   D48       -1.05458   0.00020   0.00000  -0.00006  -0.00006  -1.05463
   D49       -1.02916   0.00052   0.00000   0.00003   0.00003  -1.02914
   D50       -3.11652   0.00034   0.00000   0.00009   0.00009  -3.11643
   D51        1.05674   0.00076   0.00000  -0.00007  -0.00007   1.05667
   D52        1.03149  -0.00055   0.00000  -0.00002  -0.00002   1.03146
   D53       -1.05587  -0.00072   0.00000   0.00004   0.00004  -1.05583
   D54        3.11739  -0.00030   0.00000  -0.00012  -0.00012   3.11727
         Item               Value     Threshold  Converged?
 Maximum Force            0.070118     0.000450     NO 
 RMS     Force            0.016698     0.000300     NO 
 Maximum Displacement     0.693678     0.001800     NO 
 RMS     Displacement     0.141242     0.001200     NO 
 Predicted change in Energy=-1.544490D-01
 GradGradGradGradGradGradGradGradGradGradGradGradGradGradGradGradGradGrad

                          Input orientation:                          
 ---------------------------------------------------------------------
 Center     Atomic      Atomic             Coordinates (Angstroms)
 Number     Number       Type             X           Y           Z
 ---------------------------------------------------------------------
      1         15           0        0.133295    0.104344    0.122113
      2          8           0       -1.213270    0.062295   -1.003344
      3          8           0        0.822082    0.769645   -1.037441
      4          8           0        1.638137   -0.634327    0.432846
      5          8           0       -0.326883   -1.513927    0.124917
      6          6           0       -2.154941    1.016453   -0.596536
      7          6           0       -3.114509    0.410079    0.431608
      8          8           0       -4.102123    1.356545    0.798107
      9          6           0       -5.303156    1.121309    0.093321
     10          6           0       -6.299168    2.231807    0.421189
     11          6           0       -7.631404    2.015940   -0.306908
     12          6           0       -8.624570    3.127169    0.021905
     13          1           0        1.931862   -0.284921    1.300321
     14          1           0       -0.786885   -1.682882    0.975553
     15          1           0       -2.740595    1.319205   -1.489783
     16          1           0       -1.689187    1.948288   -0.202161
     17          1           0       -2.539481    0.153054    1.345295
     18          1           0       -3.530444   -0.551861    0.043042
     19          1           0       -5.741909    0.145063    0.404456
     20          1           0       -5.122912    1.114378   -1.005824
     21          1           0       -5.864276    3.209978    0.118204
     22          1           0       -6.474927    2.250322    1.519361
     23          1           0       -8.070361    1.040808   -0.004791
     24          1           0       -7.460835    2.000485   -1.406044
     25          1           0       -9.578156    2.944158   -0.517216
     26          1           0       -8.221000    4.112191   -0.294186
     27          1           0       -8.832383    3.148402    1.112994
 ---------------------------------------------------------------------
                    Distance matrix (angstroms):
                    1          2          3          4          5
     1  P    0.000000
     2  O    1.755465   0.000000
     3  O    1.503868   2.155032   0.000000
     4  O    1.704916   3.267789   2.190622   0.000000
     5  O    1.682431   2.131462   2.808184   2.174815   0.000000
     6  C    2.566013   1.400948   3.019599   4.262879   3.203922
     7  C    3.276811   2.407229   4.217125   4.866048   3.400987
     8  O    4.468081   3.642222   5.287862   6.086672   4.790118
     9  C    5.530827   4.364785   6.238656   7.167920   5.631052
    10  C    6.781749   5.709854   7.414696   8.438937   7.055953
    11  C    8.008047   6.744939   8.576034   9.669309   8.124190
    12  C    9.265404   8.085293   9.793844  10.938047   9.507996
    13  H    2.185073   3.913986   2.794432   0.980240   2.827359
    14  H    2.183865   2.672729   3.557500   2.697170   0.981696
    15  H    3.511886   2.036951   3.633084   5.165857   4.057080
    16  H    2.612800   2.103654   2.897130   4.259603   3.734941
    17  H    2.939775   2.698737   4.166260   4.347991   3.027166
    18  H    3.722881   2.615608   4.675286   5.183915   3.345904
    19  H    5.882125   4.743135   6.749456   7.421141   5.670352
    20  H    5.469929   4.048727   5.955065   7.130184   5.584663
    21  H    6.753950   5.726922   7.210972   8.435868   7.278601
    22  H    7.087039   6.231897   7.872482   8.678912   7.342512
    23  H    8.257908   6.998164   8.956307   9.861670   8.155056
    24  H    7.975050   6.553687   8.381977   9.649613   8.098654
    25  H   10.138322   8.860744  10.637862  11.811579  10.289456
    26  H    9.275257   8.124829   9.669663  10.966339   9.702883
    27  H    9.520058   8.488452  10.173079  11.153628   9.749724
                    6          7          8          9         10
     6  C    0.000000
     7  C    1.531516   0.000000
     8  O    2.419135   1.416158   0.000000
     9  C    3.224617   2.326039   1.412281   0.000000
    10  C    4.437056   3.668903   2.394818   1.527332   0.000000
    11  C    5.574451   4.850416   3.756552   2.526121   1.533485
    12  C    6.833278   6.157208   4.918346   3.880769   2.523608
    13  H    4.689734   5.167548   6.273405   7.468588   8.651973
    14  H    3.410198   3.177136   4.501157   5.388740   6.783610
    15  H    1.110198   2.158255   2.662629   3.018625   4.141025
    16  H    1.113900   2.190729   2.678238   3.719136   4.660565
    17  H    2.159639   1.109749   2.046865   3.184784   4.394363
    18  H    2.181898   1.117727   2.130482   2.438141   3.944316
    19  H    3.824611   2.640871   2.076426   1.114614   2.159934
    20  H    2.997659   2.568254   2.086821   1.113847   2.160691
    21  H    4.368246   3.936861   2.646255   2.162871   1.112542
    22  H    4.966058   3.982727   2.636141   2.163633   1.112302
    23  H    5.944994   5.014851   4.060941   2.770114   2.176480
    24  H    5.456751   4.979649   4.068646   2.770672   2.177558
    25  H    7.669841   7.007179   5.851284   4.687341   3.484224
    26  H    6.817043   6.348910   5.074627   4.196350   2.782274
    27  H    7.214979   6.376267   5.068062   4.195745   2.781352
                   11         12         13         14         15
    11  C    0.000000
    12  C    1.526213   0.000000
    13  H    9.966605  11.167586   0.000000
    14  H    7.885014   9.245288   3.074305   0.000000
    15  H    5.079827   6.338383   5.673602   4.348263   0.000000
    16  H    5.943525   7.038431   4.511837   3.922570   1.777406
    17  H    5.668139   6.901089   4.492967   2.564949   3.072136
    18  H    4.851179   6.283775   5.611488   3.110611   2.544465
    19  H    2.752528   4.165217   7.737844   5.312232   3.738266
    20  H    2.755690   4.167632   7.552892   5.527355   2.439591
    21  H    2.174669   2.763215   8.625050   7.103170   3.989740
    22  H    2.174312   2.762644   8.783481   6.936833   4.885402
    23  H    1.111235   2.158880  10.173758   7.837639   5.539775
    24  H    1.112399   2.159336  10.038438   7.986289   4.769886
    25  H    2.166948   1.110617  12.091771  10.046109   7.094970
    26  H    2.177626   1.110429  11.178446   9.511108   6.266184
    27  H    2.177370   1.110906  11.300078   9.385640   6.872429
                   16         17         18         19         20
    16  H    0.000000
    17  H    2.518033   0.000000
    18  H    3.114658   1.781790   0.000000
    19  H    4.477071   3.337781   2.346679   0.000000
    20  H    3.623775   3.622985   2.532277   1.819785   0.000000
    21  H    4.373313   4.680256   4.427624   3.080684   2.490902
    22  H    5.094916   4.462798   4.324549   2.492477   3.081374
    23  H    6.448400   5.762072   4.811417   2.528148   3.113669
    24  H    5.896098   5.933177   4.905333   3.110499   2.532043
    25  H    7.957817   7.797574   7.007914   4.837479   4.841077
    26  H    6.881535   7.116342   6.623324   4.729915   4.369377
    27  H    7.361736   6.973283   6.553419   4.367275   4.731470
                   21         22         23         24         25
    21  H    0.000000
    22  H    1.804737   0.000000
    23  H    3.096327   2.516222   0.000000
    24  H    2.516983   3.097164   1.804443   0.000000
    25  H    3.777211   3.776120   2.481686   2.482657   0.000000
    26  H    2.556991   3.131179   3.088663   2.504672   1.804416
    27  H    3.130983   2.555245   2.504410   3.089402   1.804294
                   26         27
    26  H    0.000000
    27  H    1.811859   0.000000
 Stoichiometry    C6H15O5P
 Framework group  C1[X(C6H15O5P)]
 Deg. of freedom    75
 Full point group                 C1      NOp   1
 Largest Abelian subgroup         C1      NOp   1
 Largest concise Abelian subgroup C1      NOp   1
                         Standard orientation:                         
 ---------------------------------------------------------------------
 Center     Atomic      Atomic             Coordinates (Angstroms)
 Number     Number       Type             X           Y           Z
 ---------------------------------------------------------------------
      1         15           0       -2.994422    0.121227   -0.317417
      2          8           0       -1.749552    0.406712    0.886931
      3          8           0       -3.460738    1.478105    0.133193
      4          8           0       -4.649104   -0.262871   -0.463142
      5          8           0       -3.064890   -1.253634    0.649727
      6          6           0       -0.548989    0.683008    0.219874
      7          6           0        0.190504   -0.618784   -0.102661
      8          8           0        1.431543   -0.336518   -0.723667
      9          6           0        2.485286   -0.408455    0.213876
     10          6           0        3.785032    0.021758   -0.463118
     11          6           0        4.968991   -0.053936    0.508525
     12          6           0        6.266281    0.377000   -0.170193
     13          1           0       -4.802708   -0.419273   -1.418555
     14          1           0       -2.665745   -1.989427    0.136873
     15          1           0        0.085791    1.290198    0.898780
     16          1           0       -0.691858    1.295517   -0.699471
     17          1           0       -0.419479   -1.204787   -0.821038
     18          1           0        0.276741   -1.245824    0.818587
     19          1           0        2.601366   -1.456147    0.576136
     20          1           0        2.292095    0.264986    1.079791
     21          1           0        3.673369    1.065294   -0.832324
     22          1           0        3.977580   -0.640999   -1.335410
     23          1           0        5.085450   -1.095607    0.877581
     24          1           0        4.782312    0.610481    1.380953
     25          1           0        7.104472    0.311001    0.555444
     26          1           0        6.186266    1.425727   -0.526314
     27          1           0        6.489984   -0.287441   -1.031928
 ---------------------------------------------------------------------
 Rotational constants (GHZ):           3.3035296           0.2135472           0.2097164
 Standard basis: VSTO-6G (5D, 7F)
 There are    69 symmetry adapted cartesian basis functions of A   symmetry.
 There are    68 symmetry adapted basis functions of A   symmetry.
    68 basis functions,   414 primitive gaussians,    69 cartesian basis functions
    37 alpha electrons       37 beta electrons
       nuclear repulsion energy       466.9854103496 Hartrees.
 Integral buffers will be    131072 words long.
 Regular integral format.
 Two-electron integral symmetry is turned off.
 Do NDO integrals.
 One-electron integrals computed using PRISM.
 NBasis=    68 RedAO= F EigKep=  0.00D+00  NBF=    68
 NBsUse=    68 1.00D-04 EigRej=  0.00D+00 NBFU=    68
 Initial guess from the checkpoint file:  "/home/A23321P/work/myGaussian/nanoMoS/mols/Gau-882646.chk"
 B after Tr=    -0.000000    0.000000   -0.000000
         Rot=    0.999988    0.004756   -0.000265    0.000684 Ang=   0.55 deg.
 Keep J ints in memory in canonical form, NReq=1862583.
 Overlap will be assumed to be unity.
 Requested convergence on RMS density matrix=1.00D-08 within9999 cycles.
 Requested convergence on MAX density matrix=1.00D-06.
 Requested convergence on             energy=1.00D-06.
 No special actions if energy rises.
 SCF Done:  E(RPM6) = -0.232530464742     A.U. after   21 cycles
            NFock= 20  Conv=0.95D-08     -V/T= 0.9985
 Range of M.O.s used for correlation:     1    68
 NBasis=    68 NAE=    37 NBE=    37 NFC=     0 NFV=     0
 NROrb=     68 NOA=    37 NOB=    37 NVA=    31 NVB=    31
 Symmetrizing basis deriv contribution to polar:
 IMax=3 JMax=2 DiffMx= 0.00D+00
 G2DrvN: will do    28 centers at a time, making    1 passes.
 Calling FoFCou, ICntrl=  3107 FMM=F I1Cent=   0 AccDes= 0.00D+00.
 End of G2Drv F.D. properties file   721 does not exist.
 End of G2Drv F.D. properties file   722 does not exist.
 End of G2Drv F.D. properties file   788 does not exist.
          IDoAtm=111111111111111111111111111
          Differentiating once with respect to electric field.
                with respect to dipole field.
          Differentiating once with respect to nuclear coordinates.
          Electric field/nuclear overlap derivatives assumed to be zero.
 Keep J ints in memory in canonical form, NReq=1865275.
          There are    84 degrees of freedom in the 1st order CPHF.  IDoFFX=5 NUNeed=    84.
 LinEq1:  Iter=  0 NonCon=    84 RMS=1.68D-01 Max=2.74D+00 NDo=    84
 AX will form    84 AO Fock derivatives at one time.
 LinEq1:  Iter=  1 NonCon=    84 RMS=2.63D-02 Max=2.35D-01 NDo=    84
 LinEq1:  Iter=  2 NonCon=    84 RMS=9.25D-03 Max=1.35D-01 NDo=    84
 LinEq1:  Iter=  3 NonCon=    84 RMS=2.77D-03 Max=4.09D-02 NDo=    84
 LinEq1:  Iter=  4 NonCon=    84 RMS=6.67D-04 Max=9.43D-03 NDo=    84
 LinEq1:  Iter=  5 NonCon=    84 RMS=1.42D-04 Max=2.83D-03 NDo=    84
 LinEq1:  Iter=  6 NonCon=    84 RMS=3.46D-05 Max=7.06D-04 NDo=    84
 LinEq1:  Iter=  7 NonCon=    62 RMS=7.53D-06 Max=9.33D-05 NDo=    84
 LinEq1:  Iter=  8 NonCon=    43 RMS=1.62D-06 Max=1.50D-05 NDo=    62
 LinEq1:  Iter=  9 NonCon=    19 RMS=3.24D-07 Max=3.81D-06 NDo=    43
 LinEq1:  Iter= 10 NonCon=     3 RMS=5.60D-08 Max=7.54D-07 NDo=    19
 LinEq1:  Iter= 11 NonCon=     1 RMS=1.11D-08 Max=1.61D-07 NDo=     3
 LinEq1:  Iter= 12 NonCon=     0 RMS=1.96D-09 Max=2.23D-08 NDo=     1
 Linear equations converged to 1.000D-08 1.000D-07 after    12 iterations.
 Isotropic polarizability for W=    0.000000       85.01 Bohr**3.
 End of Minotr F.D. properties file   721 does not exist.
 End of Minotr F.D. properties file   722 does not exist.
 End of Minotr F.D. properties file   788 does not exist.
 Calling FoFJK, ICntrl=    100127 FMM=F ISym2X=0 I1Cent= 0 IOpClX= 0 NMat=1 NMatS=1 NMatT=0.
 ***** Axes restored to original set *****
 -------------------------------------------------------------------
 Center     Atomic                   Forces (Hartrees/Bohr)
 Number     Number              X              Y              Z
 -------------------------------------------------------------------
      1       15           0.041364497   -0.067827766   -0.167052918
      2        8          -0.035406881    0.024113596    0.032515927
      3        8           0.013059992    0.054492681    0.016160604
      4        8           0.003156439    0.023259879    0.066553785
      5        8          -0.018748030   -0.008923584    0.048883882
      6        6          -0.019736912    0.021731557   -0.007765075
      7        6           0.018156623   -0.022154176    0.004096959
      8        8           0.011807701    0.008171015    0.014434646
      9        6          -0.035390239   -0.006896264   -0.020489728
     10        6           0.003253748    0.005142272    0.004632636
     11        6           0.000417085   -0.000408919   -0.000566573
     12        6          -0.002142866    0.001112559    0.000240600
     13        1           0.030282497   -0.012669083    0.007453132
     14        1          -0.007725114   -0.026340368   -0.000141708
     15        1           0.002494184   -0.000381235   -0.003839253
     16        1          -0.003743429    0.001117292   -0.004446708
     17        1          -0.009056695    0.003068346    0.004410404
     18        1          -0.000641004    0.004286882    0.001902919
     19        1           0.004518608   -0.000077931   -0.001108287
     20        1           0.002571292   -0.002266180    0.002322944
     21        1          -0.000804368   -0.000891830    0.004355356
     22        1           0.002074341    0.003437547   -0.001994075
     23        1           0.001362237    0.000489225   -0.003207411
     24        1          -0.000813444   -0.002893344    0.002246864
     25        1           0.005322832    0.004048505    0.005008877
     26        1          -0.005443694   -0.005510679    0.003793653
     27        1          -0.000189401    0.002770005   -0.008401451
 -------------------------------------------------------------------
 Cartesian Forces:  Max     0.167052918 RMS     0.025981031
 FormGI is forming the generalized inverse of G from B-inverse, IUseBI=4.

 GradGradGradGradGradGradGradGradGradGradGradGradGradGradGradGradGradGrad
 Berny optimization.
 Using GEDIIS/GDIIS optimizer.
 Internal  Forces:  Max     0.111688097 RMS     0.019178965
 Search for a local minimum.
 Step number   2 out of a maximum of  162
 All quantities printed in internal units (Hartrees-Bohrs-Radians)
 Mixed Optimization -- RFO/linear search
 Second derivative matrix not updated -- analytic derivatives used.
 ITU=  0  0
 Use linear search instead of GDIIS.
     Eigenvalues ---   -0.07252  -0.01219  -0.00904  -0.00483  -0.00021
     Eigenvalues ---    0.00055   0.00095   0.00127   0.00136   0.00188
     Eigenvalues ---    0.00225   0.03050   0.03147   0.03649   0.03678
     Eigenvalues ---    0.03692   0.03702   0.03705   0.03775   0.03806
     Eigenvalues ---    0.03894   0.05128   0.05438   0.05449   0.06536
     Eigenvalues ---    0.06983   0.08463   0.09159   0.09232   0.09794
     Eigenvalues ---    0.10070   0.10301   0.10437   0.10928   0.11479
     Eigenvalues ---    0.12053   0.12251   0.12563   0.12626   0.12897
     Eigenvalues ---    0.15230   0.15665   0.15918   0.16716   0.17072
     Eigenvalues ---    0.17430   0.19181   0.20189   0.24642   0.24764
     Eigenvalues ---    0.24823   0.24971   0.25162   0.25184   0.25247
     Eigenvalues ---    0.25292   0.26087   0.26233   0.26532   0.26784
     Eigenvalues ---    0.26972   0.27314   0.27474   0.31754   0.34891
     Eigenvalues ---    0.36645   0.40133   0.42865   0.44941   0.45815
     Eigenvalues ---    0.47911   0.55421   0.58424   0.60283   0.62418
 RFO step:  Lambda=-1.32525931D-01 EMin=-7.25182770D-02
 Skip linear search -- no minimum in search direction.
 Maximum step size (   0.300) exceeded in Quadratic search.
    -- Step size scaled by   0.353
 Iteration  1 RMS(Cart)=  0.08752728 RMS(Int)=  0.00729955
 Iteration  2 RMS(Cart)=  0.01982217 RMS(Int)=  0.00171556
 Iteration  3 RMS(Cart)=  0.00048011 RMS(Int)=  0.00168602
 Iteration  4 RMS(Cart)=  0.00000509 RMS(Int)=  0.00168602
 Iteration  5 RMS(Cart)=  0.00000003 RMS(Int)=  0.00168602
 Variable       Old X    -DE/DX   Delta X   Delta X   Delta X     New X
                                 (Linear)    (Quad)   (Total)
    R1        3.31735   0.02814   0.00000  -0.04802  -0.04802   3.26933
    R2        2.84190   0.01763   0.00000  -0.01027  -0.01027   2.83163
    R3        3.22182   0.03841   0.00000  -0.02061  -0.02061   3.20121
    R4        3.17933   0.04124   0.00000   0.00362   0.00362   3.18295
    R5        2.64741   0.02566   0.00000   0.01310   0.01310   2.66051
    R6        1.85239   0.01115   0.00000   0.00657   0.00657   1.85896
    R7        1.85514   0.00803   0.00000  -0.00189  -0.00189   1.85325
    R8        2.89415   0.01437   0.00000   0.00538   0.00538   2.89953
    R9        2.09797   0.00167   0.00000   0.00053   0.00053   2.09850
   R10        2.10497  -0.00220   0.00000  -0.00413  -0.00413   2.10084
   R11        2.67615   0.01387   0.00000   0.00528   0.00528   2.68143
   R12        2.09712  -0.00177   0.00000  -0.00210  -0.00210   2.09502
   R13        2.11220  -0.00411   0.00000  -0.00504  -0.00504   2.10716
   R14        2.66882   0.02838   0.00000   0.01709   0.01709   2.68591
   R15        2.88624   0.00464   0.00000   0.00184   0.00184   2.88808
   R16        2.10632  -0.00202   0.00000  -0.00394  -0.00394   2.10238
   R17        2.10487  -0.00186   0.00000  -0.00389  -0.00389   2.10098
   R18        2.89787   0.00177   0.00000   0.00115   0.00115   2.89902
[...]
 04873,-0.00053248,-0.00037663,-0.00053440,-0.00004184,0.00000449,-0.00
 000997,0.00000179,0.00004253,0.00001237,-0.00003882,-0.00002852,0.0000
 1398,-0.00002482,0.00010462,0.00007239,-0.00059471,0.00020630,-0.00014
 245,-0.00017890,0.00336008,-0.00214414,0.04963719,0.09874583,-0.000173
 52,0.00013710,0.00031550,-0.00010749,-0.00013011,-0.00024668,0.0001398
 1,-0.00006067,-0.00003841,0.00015555,0.00010958,-0.00008831,0.00003600
 ,-0.00001960,-0.00004260,0.00024339,0.00004547,-0.00006939,0.00046309,
 0.00053769,0.00221498,-0.01258025,0.00091811,-0.00534191,-0.06389564,-
 0.06078209,-0.12586537,-0.00050537,-0.00379694,0.00405360,0.00040159,-
 0.00016277,0.00011237,-0.00015811,0.00014006,-0.00015031,-0.00014339,-
 0.00013533,-0.00001532,-0.00000505,0.00000272,0.00001178,0.00003185,0.
 00002010,0.00000073,0.00000706,0.00006976,0.00004317,0.00015727,-0.000
 09492,-0.00020968,-0.00064618,0.00006066,0.00012157,-0.00675001,-0.009
 68616,-0.02230496,0.08335465,0.07192252,0.14696293,-0.00182038,0.00092
 390,-0.00231133,0.00051750,-0.00026931,0.00049355,0.00070618,0.0001370
 4,0.00124281,-0.00029129,-0.00038929,0.00050272,0.00035640,-0.00014319
 ,0.00030868,-0.00415934,0.00477988,-0.00013898,0.00057423,0.00032365,-
 0.00076820,-0.00140219,0.00043972,0.00015308,-0.00181428,-0.00984644,0
 .00952456,-0.08997456,-0.01065597,0.07765939,-0.02921167,0.00750238,0.
 01876701,-0.00028133,0.00031591,0.00013887,0.00030400,0.00013735,-0.00
 006298,-0.00003386,0.00010099,-0.00008426,-0.00003924,0.00000855,0.000
 15805,0.00369910,-0.00407661,-0.00001783,-0.00010250,0.00006574,0.0001
 5485,0.00005960,0.00000816,0.00008171,0.00001065,-0.00037649,0.0002026
 8,-0.00019268,-0.00033791,0.00002675,0.12015637,0.00011771,0.00159131,
 0.00024206,-0.00039520,-0.00048317,-0.00054137,0.00059194,-0.00075931,
 0.00050104,-0.00026343,-0.00033353,0.00001060,0.00002076,-0.00019409,-
 0.00000586,0.00307080,-0.00229122,0.00010339,-0.00002382,-0.00032654,-
 0.00017358,-0.00016724,0.00088696,-0.00023013,-0.01689856,-0.01525510,
 0.02450949,-0.01028706,-0.03458788,0.01413109,0.01108632,0.00167324,-0
 .00782036,0.00024853,-0.00079656,-0.00009528,0.00020567,0.00004496,0.0
 0019373,0.00003830,0.00002694,0.00000872,0.00004588,-0.00000213,-0.000
 09552,-0.00035901,0.00091915,-0.00050545,0.00000758,-0.00005906,0.0000
 3099,0.00004269,-0.00019729,-0.00000115,-0.00056331,-0.00308527,0.0007
 0848,-0.00045019,-0.00018784,0.00036018,0.00946997,0.05120240,-0.00233
 963,0.00108445,0.00022181,-0.00017643,-0.00030482,-0.00076414,0.001314
 04,-0.00000577,-0.00009211,0.00034954,-0.00021701,0.00006551,0.0003248
 8,-0.00017500,0.00000595,0.00184238,-0.00172028,0.00038887,-0.00066785
 ,0.00026465,0.00049783,0.00058167,-0.00096513,-0.00009497,0.00771833,0
 .01243137,-0.00885450,0.08422923,0.01631196,-0.14593429,0.00678272,-0.
 00306985,0.00223296,-0.00002226,-0.00019193,-0.00027910,-0.00013477,0.
 00019116,-0.00014021,-0.00002227,0.00007909,-0.00000635,0.00006926,-0.
 00004488,0.00004034,-0.00356444,0.00274732,0.00045722,0.00004118,0.000
 02786,-0.00004736,0.00006021,-0.00005041,0.00004977,0.00027643,0.00055
 430,-0.00003640,0.00003990,-0.00030646,0.00049055,-0.10263487,-0.02311
 370,0.17481120,-0.00564306,0.00475128,-0.00002030,-0.00014474,-0.00098
 539,-0.00105993,0.00271520,-0.00126441,-0.00033603,0.00006133,-0.00123
 407,0.00049703,0.00086544,-0.00056380,0.00029298,0.00051974,0.00016030
 ,0.00020584,-0.00009171,0.00014910,-0.00053979,-0.00148962,0.00015610,
 0.00010658,-0.00009947,-0.01255768,-0.00402856,-0.07484865,-0.03707545
 ,-0.06227109,-0.02581015,-0.00175534,-0.02263913,-0.00034651,0.0000920
 2,-0.00030749,0.00043239,0.00068830,0.00000774,-0.00004367,0.00024002,
 -0.00007159,-0.00001214,-0.00001742,0.00003912,0.00005266,0.00007461,0
 .00032588,-0.00001546,0.00004912,0.00014181,0.00005256,-0.00005759,0.0
 0002433,-0.00017285,-0.00046865,0.00012371,-0.00005717,-0.00041428,-0.
 00010301,0.00611671,0.00263846,0.00655351,0.10110232,0.00109024,0.0025
 7669,0.00032379,-0.00043000,-0.00057401,-0.00056581,0.00124012,-0.0017
 2563,-0.00024779,-0.00065689,-0.00065251,0.00003216,0.00003817,-0.0003
 3018,-0.00001228,0.00027467,0.00013977,0.00034050,0.00009106,-0.000045
 57,-0.00050978,-0.00056194,0.00141727,0.00015040,-0.01596843,-0.029587
 79,-0.01702805,-0.03805645,-0.06799060,-0.05661158,0.00540351,0.006136
 46,0.00609299,0.00014836,-0.00068753,0.00015742,0.00061101,-0.00000468
 ,0.00039499,0.00005828,0.00005123,0.00001883,-0.00001213,-0.00001489,-
 0.00006888,0.00024198,-0.00001750,-0.00023547,-0.00000271,-0.00005857,
 0.00009423,-0.00002798,-0.00009146,0.00000082,-0.00058945,-0.00008230,
 -0.00002333,-0.00076772,-0.00302308,0.00065372,0.00019230,0.00316350,-
 0.00405758,0.04579957,0.09231372,-0.00063349,0.00077331,0.00251114,-0.
 00041199,-0.00028132,-0.00080969,0.00108371,-0.00021035,-0.00174152,0.
 00059068,-0.00035509,-0.00059304,0.00008528,-0.00007421,-0.00025048,0.
 00031880,0.00016957,0.00030915,-0.00017285,-0.00001435,-0.00014686,-0.
 00059783,0.00017455,-0.00055505,0.00005025,-0.00473504,0.00439980,-0.0
 6710080,-0.06049354,-0.13159953,-0.01369216,0.00100484,-0.00559055,-0.
 00012965,0.00021456,-0.00069122,-0.00016862,0.00047912,0.00035023,-0.0
 0003774,0.00002514,0.00006465,-0.00000405,-0.00001586,-0.00006608,0.00
 037526,-0.00035203,-0.00032957,0.00005966,-0.00003799,0.00002375,0.000
 02840,-0.00008051,-0.00002484,0.00019623,0.00057183,0.00068722,0.00000
 006,0.00096390,-0.00012902,-0.00314945,-0.00855143,-0.02382015,0.08391
 440,0.07028129,0.15707378,-0.00024962,0.00012530,0.00004127,0.00003335
 ,-0.00002855,-0.00003587,0.00016837,-0.00007205,-0.00003783,0.00008909
 ,-0.00003151,0.00001177,0.00009003,-0.00003370,0.00002513,-0.00002880,
 0.00000965,-0.00000075,-0.00004470,-0.00003820,0.00012867,0.00029525,-
 0.00029501,-0.00004641,-0.00076368,0.00098421,0.00023450,-0.02943416,0
 .00815037,0.01935557,-0.09166710,-0.00856602,0.08077983,-0.00301944,-0
 .00897664,0.00947975,-0.00006214,0.00002197,-0.00002908,-0.00001638,0.
 00002268,-0.00001058,-0.00000632,0.00001295,0.00000845,0.00001743,-0.0
 0000391,-0.00000823,0.00000588,0.00001481,-0.00002631,0.00000188,0.000
 01628,0.00000475,-0.00005648,0.00034470,-0.00016070,0.00001959,0.00003
 062,0.00004919,-0.00257846,0.00139311,-0.00038544,-0.00071830,-0.00014
 589,0.00022867,0.12151897,-0.00006620,0.00027556,-0.00002719,-0.000028
 64,-0.00007984,-0.00004040,0.00010869,-0.00009563,0.00001415,-0.000072
 66,-0.00011520,0.00002519,0.00000596,-0.00004003,0.00000253,0.00007122
 ,-0.00002755,0.00001225,0.00001858,0.00002786,-0.00014994,-0.00031897,
 0.00002321,0.00008534,0.00135950,-0.00102111,-0.00026299,0.01172981,0.
 00080178,-0.00806705,-0.00781709,-0.03457387,0.01028969,-0.01631750,-0
 .01503274,0.02471581,0.00008582,0.00006117,0.00003346,0.00000502,0.000
 01107,0.00000028,-0.00000266,-0.00000553,-0.00000021,-0.00005563,0.000
 04716,0.00002405,-0.00000555,0.00000318,0.00003612,0.00001263,-0.00000
 538,-0.00000283,0.00020533,-0.00037664,0.00023286,0.00008184,-0.000147
 01,-0.00008931,0.00134384,-0.00049319,0.00035279,-0.00021161,0.0003329
 3,-0.00006841,0.00815108,0.05121017,0.00014066,0.00007537,0.00033167,-
 0.00009863,-0.00004379,-0.00012019,-0.00008804,-0.00006518,-0.00015277
 ,0.00001205,-0.00001871,-0.00013359,-0.00004872,0.00000127,-0.00006719
 ,0.00004444,0.00004950,0.00006087,-0.00003104,0.00003886,-0.00010967,-
 0.00023809,0.00026936,-0.00008121,0.00023350,-0.00087596,0.00021664,0.
 00646992,-0.00220833,0.00196725,0.08319176,0.01113824,-0.15239543,0.00
 834096,0.01261336,-0.00933734,0.00000764,0.00003086,0.00011003,0.00000
 534,-0.00001069,0.00002140,0.00000333,-0.00000458,-0.00001498,0.000066
 24,-0.00003890,-0.00002981,0.00000136,-0.00001442,0.00002632,0.0000164
 5,-0.00002789,-0.00000060,-0.00005011,0.00007487,0.00014577,0.00000168
 ,-0.00006741,0.00001034,-0.00029870,0.00029656,-0.00000465,-0.00014207
 ,0.00020543,0.00061691,-0.10506565,-0.01949836,0.18251071,-0.00005820,
 -0.00001533,-0.00016059,0.00007791,0.00001393,0.00009053,0.00000560,-0
 .00003530,0.00006970,0.00000780,-0.00000167,0.00004268,0.00005504,-0.0
 0001048,0.00003932,-0.00003391,-0.00004550,-0.00004233,0.00001666,-0.0
 0003832,0.00006070,0.00023304,-0.00021183,0.00007670,-0.00064070,0.000
 55202,-0.00068112,-0.02608580,-0.00167001,-0.02337911,-0.07692211,-0.0
 3728867,-0.06377615,-0.00178740,-0.01121429,-0.00490437,-0.00001780,-0
 .00001875,-0.00002887,-0.00001275,0.00001380,-0.00001306,-0.00001169,0
 .00001072,0.00001321,-0.00006495,0.00005057,-0.00001290,-0.00000572,0.
 00001563,-0.00001329,-0.00000410,0.00003245,0.00000022,0.00001075,-0.0
 0001710,-0.00004524,-0.00004018,0.00040893,-0.00003357,-0.00059106,-0.
 00025299,-0.00030201,-0.00252464,0.00137164,-0.00051272,0.00601284,0.0
 0294449,0.00728636,0.10203119,-0.00018832,0.00022720,-0.00002176,-0.00
 001911,-0.00007841,-0.00005769,0.00016821,-0.00004056,0.00003630,-0.00
 000513,-0.00008211,0.00002585,0.00003286,-0.00003744,0.00001243,0.0000
 6466,-0.00000380,-0.00000139,-0.00001468,0.00003223,-0.00004632,-0.000
 20156,-0.00014997,-0.00000420,0.00118841,-0.00020112,0.00072085,0.0065
 2499,0.00497983,0.00677562,-0.03779860,-0.06631304,-0.05722773,-0.0162
 1438,-0.02901482,-0.01748340,0.00002892,0.00005471,0.00000706,0.000000
 06,0.00001499,-0.00000344,0.00000287,0.00000009,0.00000433,-0.00003091
 ,0.00003751,0.00002924,0.00000381,0.00000402,0.00001377,0.00003339,-0.
 00000327,0.00001509,0.00005902,-0.00002646,0.00007685,0.00014875,-0.00
 048528,-0.00000313,-0.00019959,0.00029548,0.00020108,0.00123259,-0.000
 60816,0.00005642,-0.00012038,0.00282930,-0.00321059,0.04642748,0.09261
 700,-0.00022825,-0.00003764,0.00012447,0.00002264,-0.00000841,-0.00007
 539,0.00009627,0.00003143,-0.00004049,0.00012232,0.00004492,-0.0000248
 4,0.00005718,-0.00000666,-0.00000768,0.00004656,-0.00000168,-0.0000446
 2,-0.00008120,-0.00001554,0.00021733,0.00035820,-0.00032816,-0.0001223
 0,-0.00077858,0.00122320,-0.00049937,-0.01314158,0.00028478,-0.0056427
 6,-0.06640523,-0.05816700,-0.13540871,-0.00104573,-0.00466178,0.003474
 46,-0.00009267,-0.00001339,-0.00004325,-0.00001271,0.00001004,0.000000
 48,0.00000799,-0.00000066,0.00002651,0.00000325,-0.00000621,0.00005329
 ,0.00001721,0.00000502,-0.00004081,0.00001866,0.00000974,0.00003476,-0
 .00002906,0.00006271,-0.00006841,-0.00009101,0.00029058,0.00009407,0.0
 0013624,-0.00007631,0.00051970,-0.00059247,0.00013849,0.00006116,-0.00
 478067,-0.00944747,-0.02399378,0.08612579,0.06991010,0.16054495,-0.000
 24506,0.00017623,-0.00010925,0.00005486,-0.00004188,0.00000636,0.00015
 214,-0.00010307,0.00005544,0.00003960,-0.00005034,0.00005637,0.0000972
 2,-0.00004579,0.00004680,0.00000394,-0.00002558,-0.00003167,-0.0000063
 9,-0.00002169,0.00007737,0.00015709,-0.00017756,-0.00000176,-0.0000456
 1,0.00011423,-0.00002042,0.00022559,-0.00055768,0.00014750,0.00115360,
 0.00789060,-0.00179554,-0.17631784,0.07714215,-0.01888927,-0.00002598,
 0.00001373,-0.00003772,-0.00001736,0.00002767,-0.00001664,-0.00000639,
 0.00001020,0.00001492,-0.00002958,0.00003290,0.00001094,-0.00000185,0.
 00001631,-0.00001679,0.00000149,0.00002013,0.00000741,0.00002586,0.000
 00796,-0.00003789,0.00002703,0.00001566,0.00002357,-0.00006919,0.00002
 283,-0.00000805,-0.00008367,0.00001861,-0.00002597,0.00048145,-0.00016
 221,-0.00015748,0.00039527,-0.00003884,0.00022412,0.20841154,0.0001865
 5,-0.00000847,0.00009424,-0.00006037,-0.00000559,-0.00003998,-0.000125
 80,-0.00000443,-0.00004446,-0.00004486,0.00000583,-0.00002879,-0.00006
 898,0.00000908,-0.00003429,0.00002111,0.00002969,0.00003117,-0.0000284
 4,-0.00000532,-0.00001124,0.00000062,-0.00009240,0.00001812,0.00045989
 ,-0.00029571,0.00007989,-0.00039123,-0.00287538,0.00062648,0.02253618,
 -0.02848851,0.00726679,0.07433705,-0.07509983,0.01005889,0.00002765,-0
 .00000563,0.00002116,0.00001030,-0.00001299,0.00001049,0.00000593,-0.0
 0000536,-0.00000799,0.00003162,-0.00002603,-0.00000408,0.00000845,-0.0
 0000857,0.00000475,0.00000873,-0.00001062,0.00000455,-0.00000044,-0.00
 000423,-0.00001029,0.00001167,0.00000499,0.00001951,-0.00007881,-0.000
 00406,0.00002449,-0.00007370,0.00000215,-0.00000502,0.00017081,-0.0003
 3955,0.00054544,0.00019571,-0.00076253,-0.00020593,-0.09511343,0.09943
 491,-0.00010057,0.00010373,0.00016785,-0.00001636,-0.00003678,-0.00008
 330,0.00006665,-0.00005290,-0.00008116,0.00004041,-0.00002420,-0.00004
 525,0.00002420,-0.00001900,-0.00002596,0.00004226,0.00000310,-0.000000
 42,-0.00003035,0.00001013,0.00001947,0.00000406,0.00000193,-0.00004913
 ,-0.00009649,0.00006990,-0.00001730,0.00005417,0.00064694,-0.00013418,
 -0.00489260,0.00696044,0.00128700,-0.01853968,0.01023051,-0.03680273,-
 0.00001372,0.00002082,0.00002129,-0.00000527,0.00000712,0.00000761,-0.
 00000049,-0.00000269,0.00000996,0.00000232,-0.00000442,0.00001889,0.00
 000358,0.00000085,0.00000034,0.00000690,-0.00000192,0.00000836,-0.0000
 1022,0.00001460,0.00002929,0.00000622,-0.00000546,0.00001756,0.0000380
 2,-0.00003428,0.00005384,-0.00000356,0.00007651,0.00007011,-0.00014085
 ,0.00071311,-0.00007639,0.00006065,-0.00037467,0.00030547,0.02345836,-
 0.01597289,0.03766678,-0.00022956,0.00059141,-0.00035653,0.00001592,-0
 .00016798,-0.00001052,0.00023619,-0.00033446,0.00031606,-0.00009846,-0
 .00017935,0.00014106,0.00012473,-0.00010489,0.00009751,0.00004409,-0.0
 0002258,0.00001712,0.00004726,-0.00000740,-0.00009308,-0.00017448,0.00
 004435,0.00004166,-0.00001427,-0.00009678,0.00002136,-0.00012852,0.000
 28453,-0.00020785,-0.00162166,-0.00823408,0.00791446,-0.08674146,-0.01
 128807,0.08203168,0.00008422,0.00003854,-0.00000019,-0.00001079,0.0000
 4269,-0.00002857,-0.00000880,0.00001944,0.00000909,-0.00003870,0.00011
 911,-0.00001279,-0.00001124,0.00001293,0.00001562,0.00001140,0.0000060
 0,0.00001124,0.00001321,-0.00002056,0.00000126,0.00001870,-0.00002545,
 0.00000934,0.00001404,0.00042233,-0.00001811,0.00008096,0.00016779,-0.
 00014475,0.00013376,-0.00053386,0.00030099,-0.00018991,-0.00050633,0.0
 0009200,-0.01768357,0.00309043,0.01905309,0.09923154,0.00032519,0.0001
 3851,0.00020184,-0.00014037,-0.00005008,-0.00011774,-0.00019650,-0.000
 12769,-0.00008677,-0.00009454,-0.00002765,-0.00005592,-0.00011196,-0.0
 0000661,-0.00005746,0.00006991,0.00005891,0.00007741,-0.00001793,0.000
 01371,-0.00007420,-0.00013726,0.00016212,-0.00003806,0.00002719,-0.000
 10424,-0.00000375,0.00004749,-0.00035021,0.00034547,-0.01609269,-0.014
 76539,0.02528002,-0.00993174,-0.03692215,0.01613608,0.00006774,0.00000
 139,0.00006444,0.00001799,-0.00001838,0.00001736,0.00001269,-0.0000114
 3,-0.00002197,0.00008391,-0.00006468,-0.00001074,0.00001235,-0.0000207
 3,0.00001510,0.00000751,-0.00002965,0.00000450,-0.00002847,0.00002872,
 0.00002621,-0.00002431,0.00000240,0.00000423,0.00048704,-0.00055850,0.
 00008425,0.00007945,-0.00001900,0.00019302,-0.00063714,-0.00311859,0.0
 0077503,-0.00051778,-0.00013246,0.00035197,0.00702223,0.00292651,-0.00
 690107,0.01681746,0.04992633,-0.00041229,0.00030574,0.00017009,0.00002
 624,-0.00008244,-0.00015406,0.00032648,-0.00017811,-0.00006397,0.00009
 626,-0.00006673,0.00000091,0.00012606,-0.00006333,0.00000232,0.0000740
 4,-0.00001141,-0.00003781,-0.00008478,0.00000250,0.00012677,0.00021240
 ,-0.00021568,-0.00005752,-0.00011106,0.00005703,-0.00005907,-0.0002384
 2,0.00039379,-0.00046405,0.00770591,0.01244444,-0.00905638,0.08299201,
 0.01841695,-0.16474206,-0.00004844,0.00003082,-0.00002035,-0.00001608,
 0.00003004,-0.00000215,-0.00000211,-0.00000695,0.00003519,-0.00001993,
 0.00000053,0.00007133,0.00000573,0.00001445,-0.00001676,0.00000874,0.0
 0001049,0.00001865,0.00001437,-0.00000694,-0.00002539,0.00001372,-0.00
 001638,0.00006481,-0.00019407,0.00027582,0.00016612,-0.00010411,0.0001
 8897,-0.00009495,0.00028937,0.00072594,-0.00004389,0.00005511,-0.00012
 882,0.00058251,0.00538457,-0.00137674,0.00059169,-0.10299663,-0.027357
 76,0.19708896,-0.00039747,0.00094205,-0.00010561,-0.00002699,-0.000249
 48,-0.00018137,0.00045313,-0.00059730,0.00010895,-0.00009176,-0.000276
 68,0.00013166,0.00017950,-0.00016446,0.00007523,0.00011108,-0.00000017
 ,0.00003493,0.00000418,0.00000231,-0.00007926,-0.00017130,0.00002916,0
 .00001829,-0.00002239,-0.00009556,0.00001669,-0.00017422,0.00038352,0.
 00001433,-0.00121262,-0.01049734,-0.00382332,-0.08094438,-0.04196807,-
 0.06759707,0.00010549,0.00007446,0.00001716,-0.00001362,0.00005909,-0.
 00002381,-0.00000936,0.00000680,0.00001265,-0.00000977,0.00005656,0.00
 001972,-0.00000457,0.00001445,0.00001689,0.00001040,0.00000104,0.00001
 156,0.00002433,-0.00002236,-0.00000527,0.00001127,-0.00003086,0.000002
 47,0.00004731,0.00023797,0.00009282,0.00010253,0.00047224,-0.00014935,
 -0.00022228,-0.00053108,0.00009582,0.00014493,-0.00057810,-0.00004936,
 -0.01669393,-0.00511687,-0.01901055,0.00689516,0.00285271,0.00689699,0
 .09190526,0.00050401,0.00007306,0.00018143,-0.00014610,-0.00002488,-0.
 00007164,-0.00034964,-0.00010940,-0.00009296,-0.00015255,-0.00001771,-
 0.00006200,-0.00016232,0.00000689,-0.00007531,0.00004081,0.00005740,0.
 00008831,0.00002413,0.00001143,-0.00013783,-0.00023798,0.00026645,0.00
 000796,0.00007789,-0.00013385,0.00004078,0.00024453,-0.00084927,-0.000
 27769,-0.01698737,-0.02829127,-0.01723236,-0.04118284,-0.07224122,-0.0
 6028664,0.00010481,-0.00001105,0.00007787,0.00002258,-0.00002782,0.000
 02291,0.00000805,-0.00001022,-0.00002978,0.00006939,-0.00005397,-0.000
 03650,0.00000855,-0.00002505,0.00002636,0.00000014,-0.00002946,-0.0000
 0470,-0.00003348,0.00001081,0.00003068,-0.00002709,0.00002336,-0.00004
 064,0.00013717,-0.00018926,-0.00013206,0.00056873,-0.00062038,0.000367
 65,-0.00049946,-0.00015158,-0.00002935,-0.00069920,-0.00315295,0.00061
 410,0.00380643,0.00564213,0.00457059,-0.00013516,0.00306874,-0.0033861
 9,0.05499604,0.09677906,-0.00007481,0.00023229,0.00044821,-0.00008005,
 -0.00007090,-0.00018950,0.00008009,-0.00013581,-0.00031725,0.00003990,
 -0.00007564,-0.00011419,0.00000518,-0.00003379,-0.00007740,0.00008136,
 0.00003249,0.00003626,-0.00004576,0.00002359,-0.00003191,-0.00012918,0
 .00006868,-0.00006575,0.00010463,-0.00002172,-0.00002639,0.00011421,-0
 .00033943,-0.00023750,-0.00046716,-0.00438372,0.00417406,-0.06871612,-
 0.06239672,-0.13474863,0.00001368,0.00005788,0.00007141,-0.00000335,0.
 00000596,0.00002171,0.00000051,-0.00001132,-0.00000088,0.00003865,-0.0
 0005515,0.00001697,0.00000901,-0.00000609,0.00001267,0.00000916,-0.000
 01546,0.00000345,-0.00000248,0.00003800,0.00006947,-0.00000029,-0.0000
 1547,-0.00001191,0.00007169,-0.00012773,0.00007245,-0.00001382,0.00021
 000,0.00027472,0.00009155,0.00039084,0.00054375,-0.00001573,0.00067807
 ,-0.00002645,-0.00836512,-0.00106416,-0.00295976,-0.00620479,-0.008851
 43,-0.02408077,0.08345886,0.07586702,0.15714320\\-0.00000009,0.0000005
 3,-0.00000111,0.,-0.00000015,-0.00000086,0.00000200,-0.00000019,0.0000
 0173,-0.00000011,0.00000077,0.00000049,0.00000009,-0.00000019,0.000000
 19,0.00000040,-0.00000106,-0.00000020,0.00000062,0.00000070,0.00000033
 ,-0.00000179,-0.00000103,0.00000092,-0.00000017,-0.00000135,-0.0000011
 0,-0.00000251,0.00000007,0.00000027,-0.00000014,-0.00000011,-0.0000002
 1,-0.00000079,-0.00000019,-0.00000071,0.00000054,-0.00000030,-0.000000
 12,0.00000004,0.00000005,-0.00000001,0.00000002,0.00000003,0.00000004,
 -0.00000231,0.00000226,0.00000089,-0.00000001,0.00000012,0.00000006,-0
 .00000010,0.00000009,0.,0.00000024,-0.00000027,-0.00000009,-0.00000020
 ,-0.00000025,0.00000012,0.00000267,-0.00000103,0.00000093,0.00000106,0
 .00000128,-0.00000212,0.00000001,0.00000005,-0.00000012,-0.00000012,0.
 00000007,0.00000007,0.00000002,0.,0.00000003,-0.00000011,0.00000015,0.
 00000058,0.00000074,-0.00000004,0.\\\@
 The archive entry for this job was punched.


 SUPPORT THE RIGHT TO ARM BEARS!
 (ADD A CLAWS TO THE BILL OF RIGHTS)
 Job cpu time:       0 days  0 hours  0 minutes  0.8 seconds.
 Elapsed time:       0 days  0 hours  0 minutes  0.8 seconds.
 File lengths (MBytes):  RWF=     58 Int=      0 D2E=      0 Chk=      3 Scr=      1
 Normal termination of Gaussian 16 at Wed Apr 24 12:07:26 2024.
