 Entering Gaussian System, Link 0=g16
 Initial command:
 /home/app/g16/l1.exe "/home/A23321P/work/myGaussian/nanoMoS/mols/Gau-459491.inp" -scrdir="/home/A23321P/work/myGaussian/nanoMoS/mols/"
 Entering Link 1 = /home/app/g16/l1.exe PID=    459492.
  
 Copyright (c) 1988-2019, Gaussian, Inc.  All Rights Reserved.
  
 This is part of the Gaussian(R) 16 program.  It is based on
 the Gaussian(R) 09 system (copyright 2009, Gaussian, Inc.),
 the Gaussian(R) 03 system (copyright 2003, Gaussian, Inc.),
 the Gaussian(R) 98 system (copyright 1998, Gaussian, Inc.),
 the Gaussian(R) 94 system (copyright 1995, Gaussian, Inc.),
 the Gaussian 92(TM) system (copyright 1992, Gaussian, Inc.),
 the Gaussian 90(TM) system (copyright 1990, Gaussian, Inc.),
 the Gaussian 88(TM) system (copyright 1988, Gaussian, Inc.),
 the Gaussian 86(TM) system (copyright 1986, Carnegie Mellon
 University), and the Gaussian 82(TM) system (copyright 1983,
 Carnegie Mellon University). Gaussian is a federally registered
 trademark of Gaussian, Inc.
  
 This software contains proprietary and confidential information,
 including trade secrets, belonging to Gaussian, Inc.
  
 This software is provided under written license and may be
 used, copied, transmitted, or stored only in accord with that
 written license.
  
 The following legend is applicable only to US Government
 contracts under FAR:
  
                    RESTRICTED RIGHTS LEGEND
  
 Use, reproduction and disclosure by the US Government is
 subject to restrictions as set forth in subparagraphs (a)
 and (c) of the Commercial Computer Software - Restricted
 Rights clause in FAR 52.227-19.
  
 Gaussian, Inc.
 340 Quinnipiac St., Bldg. 40, Wallingford CT 06492
  
  
 ---------------------------------------------------------------
 Warning -- This program may not be used in any manner that
 competes with the business of Gaussian, Inc. or will provide
 assistance to any competitor of Gaussian, Inc.  The licensee
 of this program is prohibited from giving any competitor of
 Gaussian, Inc. access to this program.  By using this program,
 the user acknowledges that Gaussian, Inc. is engaged in the
 business of creating and licensing software in the field of
 computational chemistry and represents and warrants to the
 licensee that it is not a competitor of Gaussian, Inc. and that
 it will not use this program in any manner prohibited above.
 ---------------------------------------------------------------
  

 Cite this work as:
 Gaussian 16, Revision C.01,
 M. J. Frisch, G. W. Trucks, H. B. Schlegel, G. E. Scuseria, 
 M. A. Robb, J. R. Cheeseman, G. Scalmani, V. Barone, 
 G. A. Petersson, H. Nakatsuji, X. Li, M. Caricato, A. V. Marenich, 
 J. Bloino, B. G. Janesko, R. Gomperts, B. Mennucci, H. P. Hratchian, 
 J. V. Ortiz, A. F. Izmaylov, J. L. Sonnenberg, D. Williams-Young, 
 F. Ding, F. Lipparini, F. Egidi, J. Goings, B. Peng, A. Petrone, 
 T. Henderson, D. Ranasinghe, V. G. Zakrzewski, J. Gao, N. Rega, 
 G. Zheng, W. Liang, M. Hada, M. Ehara, K. Toyota, R. Fukuda, 
 J. Hasegawa, M. Ishida, T. Nakajima, Y. Honda, O. Kitao, H. Nakai, 
 T. Vreven, K. Throssell, J. A. Montgomery, Jr., J. E. Peralta, 
 F. Ogliaro, M. J. Bearpark, J. J. Heyd, E. N. Brothers, K. N. Kudin, 
 V. N. Staroverov, T. A. Keith, R. Kobayashi, J. Normand, 
 K. Raghavachari, A. P. Rendell, J. C. Burant, S. S. Iyengar, 
 J. Tomasi, M. Cossi, J. M. Millam, M. Klene, C. Adamo, R. Cammi, 
 J. W. Ochterski, R. L. Martin, K. Morokuma, O. Farkas, 
 J. B. Foresman, and D. J. Fox, Gaussian, Inc., Wallingford CT, 2019.
 
 ******************************************
 Gaussian 16:  ES64L-G16RevC.01  3-Jul-2019
                22-Apr-2024 
 ******************************************
 %Mem=64GB
 ---------------------------------------------------------------
 # PM6 Freq scf(tight,maxcycle=9999) opt(calcall,maxcycles=9999)
 ---------------------------------------------------------------
 1/6=9999,10=4,18=20,19=15,26=1,38=1/1,3;
 2/9=110,12=2,17=6,18=5,40=1/2;
 3/5=2,25=1,41=3900000,71=2,140=1/1,2,3;
 4/35=1/1;
 5/5=2,7=9999,32=2,35=1,38=5/2;
 8/6=4,10=90,11=11/1;
 11/6=1,8=1,9=11,15=111,16=1/1,2,10;
 10/6=1/2;
 6/7=2,8=2,9=2,10=2,18=1,28=1/1;
 7/10=1,25=1/1,2,3,16;
 1/6=9999,10=4,18=20,19=15,26=1/3(3);
 2/9=110/2;
 7/8=1,9=1,25=1,44=-1/16;
 99//99;
 2/9=110/2;
 3/5=2,25=1,41=3900000,71=2,135=20,140=1/1,2,3;
 4/5=5,16=3,35=1/1;
 5/5=2,7=9999,32=2,35=1,38=5/2;
 8/6=4,10=90,11=11/1;
 11/6=1,8=1,9=11,15=111,16=1/1,2,10;
 10/6=1/2;
 7/10=1,25=1/1,2,3,16;
 1/6=9999,10=4,18=20,19=15,26=1/3(-8);
 2/9=110/2;
 6/7=2,8=2,9=2,10=2,18=1,19=2,28=1/1;
 7/8=1,9=1,25=1,44=-1/16;
 99//99;
 -------------------
 Title Card Required
 -------------------
 Symbolic Z-matrix:
 Charge =  0 Multiplicity = 1
 C                    -12.381    0.071     3.174 
 C                    -11.06     0.83      3.247 
 C                    -10.094    0.367     2.15 
 C                    -8.773     1.144     2.215 
 C                    -7.801     0.668     1.129 
 C                    -6.488     1.457     1.178 
 C                    -5.514     0.971     0.098 
 C                    -4.207     1.773     0.132 
 C                    -3.241     1.297    -0.959 
 C                    -1.94      2.108    -0.936 
 C                    -0.982     1.644    -2.041 
 C                     0.303     2.43     -2.01 
 C                     1.509     1.814    -1.633 
 C                     2.699     2.547    -1.615 
 C                     2.7       3.899    -1.975 
 C                     1.502     4.518    -2.352 
 C                     0.311     3.787    -2.375 
 S                     4.246     4.832    -1.953 
 O                     4.109     6.246    -2.568 
 O                     5.657     4.141    -2.676 
 O                     4.672     5.172    -0.505 
 Na                    4.981     2.5      -3.673 
 H                    -12.208   -1.019     3.304 
 H                    -12.875    0.249     2.195 
 H                    -13.057    0.422     3.981 
 H                    -10.602    0.659     4.245 
 H                    -11.263    1.917     3.134 
 H                    -10.565    0.525     1.154 
 H                    -9.889    -0.719     2.276 
 H                    -8.308     0.997     3.214 
 H                    -8.979     2.229     2.076 
 H                    -8.272     0.801     0.129 
 H                    -7.587    -0.414     1.278 
 H                    -6.019     1.331     2.18 
 H                    -6.703     2.537     1.022 
 H                    -5.988     1.085    -0.902 
 H                    -5.288    -0.106     0.263 
 H                    -3.726     1.652     1.128 
 H                    -4.434     2.851    -0.022 
 H                    -3.726     1.409    -1.954 
 H                    -3.007     0.221    -0.799 
 H                    -1.445     1.984     0.052 
 H                    -2.179     3.185    -1.077 
 H                    -1.461     1.77     -3.037 
 H                    -0.774     0.559    -1.907 
 H                     1.528     0.769    -1.351 
 H                     3.621     2.062    -1.321 
 H                     1.491     5.564    -2.633 
 H                    -0.605     4.278    -2.679 
 

 GradGradGradGradGradGradGradGradGradGradGradGradGradGradGradGradGradGrad
 Berny optimization.
 Initialization pass.
                           ----------------------------
                           !    Initial Parameters    !
                           ! (Angstroms and Degrees)  !
 --------------------------                            --------------------------
 ! Name  Definition              Value          Derivative Info.                !
 --------------------------------------------------------------------------------
 ! R1    R(1,2)                  1.5253         calculate D2E/DX2 analytically  !
 ! R2    R(1,23)                 1.1113         calculate D2E/DX2 analytically  !
 ! R3    R(1,24)                 1.1109         calculate D2E/DX2 analytically  !
 ! R4    R(1,25)                 1.1097         calculate D2E/DX2 analytically  !
 ! R5    R(2,3)                  1.5333         calculate D2E/DX2 analytically  !
 ! R6    R(2,26)                 1.1113         calculate D2E/DX2 analytically  !
 ! R7    R(2,27)                 1.1116         calculate D2E/DX2 analytically  !
 ! R8    R(3,4)                  1.5339         calculate D2E/DX2 analytically  !
 ! R9    R(3,28)                 1.113          calculate D2E/DX2 analytically  !
 ! R10   R(3,29)                 1.1123         calculate D2E/DX2 analytically  !
 ! R11   R(4,5)                  1.5332         calculate D2E/DX2 analytically  !
 ! R12   R(4,30)                 1.1117         calculate D2E/DX2 analytically  !
 ! R13   R(4,31)                 1.1131         calculate D2E/DX2 analytically  !
 ! R14   R(5,6)                  1.5326         calculate D2E/DX2 analytically  !
 ! R15   R(5,32)                 1.1133         calculate D2E/DX2 analytically  !
 ! R16   R(5,33)                 1.113          calculate D2E/DX2 analytically  !
 ! R17   R(6,7)                  1.5334         calculate D2E/DX2 analytically  !
 ! R18   R(6,34)                 1.1135         calculate D2E/DX2 analytically  !
 ! R19   R(6,35)                 1.1122         calculate D2E/DX2 analytically  !
 ! R20   R(7,8)                  1.5338         calculate D2E/DX2 analytically  !
 ! R21   R(7,36)                 1.1125         calculate D2E/DX2 analytically  !
 ! R22   R(7,37)                 1.1128         calculate D2E/DX2 analytically  !
 ! R23   R(8,9)                  1.533          calculate D2E/DX2 analytically  !
 ! R24   R(8,38)                 1.1127         calculate D2E/DX2 analytically  !
 ! R25   R(8,39)                 1.1124         calculate D2E/DX2 analytically  !
 ! R26   R(9,10)                 1.5332         calculate D2E/DX2 analytically  !
 ! R27   R(9,40)                 1.1126         calculate D2E/DX2 analytically  !
 ! R28   R(9,41)                 1.1127         calculate D2E/DX2 analytically  !
 ! R29   R(10,11)                1.5343         calculate D2E/DX2 analytically  !
 ! R30   R(10,42)                1.112          calculate D2E/DX2 analytically  !
 ! R31   R(10,43)                1.1122         calculate D2E/DX2 analytically  !
 ! R32   R(11,12)                1.5066         calculate D2E/DX2 analytically  !
 ! R33   R(11,44)                1.1124         calculate D2E/DX2 analytically  !
 ! R34   R(11,45)                1.1129         calculate D2E/DX2 analytically  !
 ! R35   R(12,13)                1.4057         calculate D2E/DX2 analytically  !
 ! R36   R(12,17)                1.4053         calculate D2E/DX2 analytically  !
 ! R37   R(13,14)                1.3978         calculate D2E/DX2 analytically  !
 ! R38   R(13,46)                1.0825         calculate D2E/DX2 analytically  !
 ! R39   R(14,15)                1.3991         calculate D2E/DX2 analytically  !
 ! R40   R(14,47)                1.0825         calculate D2E/DX2 analytically  !
 ! R41   R(15,16)                1.4002         calculate D2E/DX2 analytically  !
 ! R42   R(15,18)                1.8058         calculate D2E/DX2 analytically  !
 ! R43   R(16,17)                1.3976         calculate D2E/DX2 analytically  !
 ! R44   R(16,48)                1.0831         calculate D2E/DX2 analytically  !
 ! R45   R(17,49)                1.0828         calculate D2E/DX2 analytically  !
 ! R46   R(18,19)                1.548          calculate D2E/DX2 analytically  !
 ! R47   R(18,20)                1.7295         calculate D2E/DX2 analytically  !
 ! R48   R(18,21)                1.5472         calculate D2E/DX2 analytically  !
 ! R49   R(18,22)                2.9895         calculate D2E/DX2 analytically  !
 ! R50   R(20,22)                2.0356         calculate D2E/DX2 analytically  !
 ! A1    A(2,1,23)             110.3445         calculate D2E/DX2 analytically  !
 ! A2    A(2,1,24)             110.3385         calculate D2E/DX2 analytically  !
 ! A3    A(2,1,25)             109.5962         calculate D2E/DX2 analytically  !
 ! A4    A(23,1,24)            109.2369         calculate D2E/DX2 analytically  !
 ! A5    A(23,1,25)            108.6635         calculate D2E/DX2 analytically  !
 ! A6    A(24,1,25)            108.6206         calculate D2E/DX2 analytically  !
 ! A7    A(1,2,3)              111.1703         calculate D2E/DX2 analytically  !
 ! A8    A(1,2,26)             108.8653         calculate D2E/DX2 analytically  !
 ! A9    A(1,2,27)             108.8802         calculate D2E/DX2 analytically  !
 ! A10   A(3,2,26)             109.6576         calculate D2E/DX2 analytically  !
 ! A11   A(3,2,27)             109.7322         calculate D2E/DX2 analytically  !
 ! A12   A(26,2,27)            108.4836         calculate D2E/DX2 analytically  !
 ! A13   A(2,3,4)              111.0564         calculate D2E/DX2 analytically  !
 ! A14   A(2,3,28)             109.3151         calculate D2E/DX2 analytically  !
 ! A15   A(2,3,29)             109.2618         calculate D2E/DX2 analytically  !
 ! A16   A(4,3,28)             109.2954         calculate D2E/DX2 analytically  !
 ! A17   A(4,3,29)             109.3313         calculate D2E/DX2 analytically  !
 ! A18   A(28,3,29)            108.5389         calculate D2E/DX2 analytically  !
 ! A19   A(3,4,5)              111.0191         calculate D2E/DX2 analytically  !
 ! A20   A(3,4,30)             109.3487         calculate D2E/DX2 analytically  !
 ! A21   A(3,4,31)             109.213          calculate D2E/DX2 analytically  !
 ! A22   A(5,4,30)             109.2864         calculate D2E/DX2 analytically  !
 ! A23   A(5,4,31)             109.3596         calculate D2E/DX2 analytically  !
 ! A24   A(30,4,31)            108.5738         calculate D2E/DX2 analytically  !
 ! A25   A(4,5,6)              111.14           calculate D2E/DX2 analytically  !
 ! A26   A(4,5,32)             109.3247         calculate D2E/DX2 analytically  !
 ! A27   A(4,5,33)             109.2013         calculate D2E/DX2 analytically  !
 ! A28   A(6,5,32)             109.2475         calculate D2E/DX2 analytically  !
 ! A29   A(6,5,33)             109.3583         calculate D2E/DX2 analytically  !
 ! A30   A(32,5,33)            108.5253         calculate D2E/DX2 analytically  !
 ! A31   A(5,6,7)              111.0077         calculate D2E/DX2 analytically  !
 ! A32   A(5,6,34)             109.3515         calculate D2E/DX2 analytically  !
 ! A33   A(5,6,35)             109.2574         calculate D2E/DX2 analytically  !
 ! A34   A(7,6,34)             109.2928         calculate D2E/DX2 analytically  !
 ! A35   A(7,6,35)             109.3764         calculate D2E/DX2 analytically  !
 ! A36   A(34,6,35)            108.5135         calculate D2E/DX2 analytically  !
 ! A37   A(6,7,8)              111.0957         calculate D2E/DX2 analytically  !
 ! A38   A(6,7,36)             109.2678         calculate D2E/DX2 analytically  !
 ! A39   A(6,7,37)             109.3496         calculate D2E/DX2 analytically  !
 ! A40   A(8,7,36)             109.2326         calculate D2E/DX2 analytically  !
 ! A41   A(8,7,37)             109.252          calculate D2E/DX2 analytically  !
 ! A42   A(36,7,37)            108.6022         calculate D2E/DX2 analytically  !
 ! A43   A(7,8,9)              111.0282         calculate D2E/DX2 analytically  !
 ! A44   A(7,8,38)             109.3507         calculate D2E/DX2 analytically  !
 ! A45   A(7,8,39)             109.2546         calculate D2E/DX2 analytically  !
 ! A46   A(9,8,38)             109.3228         calculate D2E/DX2 analytically  !
 ! A47   A(9,8,39)             109.3285         calculate D2E/DX2 analytically  !
 ! A48   A(38,8,39)            108.5141         calculate D2E/DX2 analytically  !
 ! A49   A(8,9,10)             111.0866         calculate D2E/DX2 analytically  !
 ! A50   A(8,9,40)             109.3007         calculate D2E/DX2 analytically  !
 ! A51   A(8,9,41)             109.2958         calculate D2E/DX2 analytically  !
 ! A52   A(10,9,40)            109.2728         calculate D2E/DX2 analytically  !
 ! A53   A(10,9,41)            109.3229         calculate D2E/DX2 analytically  !
 ! A54   A(40,9,41)            108.5191         calculate D2E/DX2 analytically  !
 ! A55   A(9,10,11)            111.0415         calculate D2E/DX2 analytically  !
 ! A56   A(9,10,42)            109.3939         calculate D2E/DX2 analytically  !
 ! A57   A(9,10,43)            109.1455         calculate D2E/DX2 analytically  !
 ! A58   A(11,10,42)           109.1609         calculate D2E/DX2 analytically  !
 ! A59   A(11,10,43)           109.6166         calculate D2E/DX2 analytically  !
 ! A60   A(42,10,43)           108.4384         calculate D2E/DX2 analytically  !
 ! A61   A(10,11,12)           111.0969         calculate D2E/DX2 analytically  !
 ! A62   A(10,11,44)           109.9826         calculate D2E/DX2 analytically  !
 ! A63   A(10,11,45)           108.9553         calculate D2E/DX2 analytically  !
 ! A64   A(12,11,44)           109.0625         calculate D2E/DX2 analytically  !
 ! A65   A(12,11,45)           110.2882         calculate D2E/DX2 analytically  !
 ! A66   A(44,11,45)           107.3819         calculate D2E/DX2 analytically  !
 ! A67   A(11,12,13)           120.5723         calculate D2E/DX2 analytically  !
 ! A68   A(11,12,17)           120.2176         calculate D2E/DX2 analytically  !
 ! A69   A(13,12,17)           119.2054         calculate D2E/DX2 analytically  !
 ! A70   A(12,13,14)           120.2691         calculate D2E/DX2 analytically  !
 ! A71   A(12,13,46)           120.5263         calculate D2E/DX2 analytically  !
 ! A72   A(14,13,46)           119.2044         calculate D2E/DX2 analytically  !
 ! A73   A(13,14,15)           120.2684         calculate D2E/DX2 analytically  !
 ! A74   A(13,14,47)           119.5834         calculate D2E/DX2 analytically  !
 ! A75   A(15,14,47)           120.1482         calculate D2E/DX2 analytically  !
 ! A76   A(14,15,16)           119.7272         calculate D2E/DX2 analytically  !
 ! A77   A(14,15,18)           119.7843         calculate D2E/DX2 analytically  !
 ! A78   A(16,15,18)           120.4885         calculate D2E/DX2 analytically  !
 ! A79   A(15,16,17)           120.1534         calculate D2E/DX2 analytically  !
 ! A80   A(15,16,48)           120.3625         calculate D2E/DX2 analytically  !
 ! A81   A(17,16,48)           119.4833         calculate D2E/DX2 analytically  !
 ! A82   A(12,17,16)           120.3742         calculate D2E/DX2 analytically  !
 ! A83   A(12,17,49)           120.3957         calculate D2E/DX2 analytically  !
 ! A84   A(16,17,49)           119.23           calculate D2E/DX2 analytically  !
 ! A85   A(15,18,19)           113.0365         calculate D2E/DX2 analytically  !
 ! A86   A(15,18,20)           119.1394         calculate D2E/DX2 analytically  !
 ! A87   A(15,18,21)           111.1406         calculate D2E/DX2 analytically  !
 ! A88   A(15,18,22)            78.4892         calculate D2E/DX2 analytically  !
 ! A89   A(19,18,20)           105.728          calculate D2E/DX2 analytically  !
 ! A90   A(19,18,21)           101.2711         calculate D2E/DX2 analytically  !
 ! A91   A(19,18,22)           120.379          calculate D2E/DX2 analytically  !
 ! A92   A(20,18,21)           104.7386         calculate D2E/DX2 analytically  !
 ! A93   A(21,18,22)           129.9561         calculate D2E/DX2 analytically  !
 ! D1    D(23,1,2,3)            60.0789         calculate D2E/DX2 analytically  !
 ! D2    D(23,1,2,26)          -60.8221         calculate D2E/DX2 analytically  !
 ! D3    D(23,1,2,27)         -178.9174         calculate D2E/DX2 analytically  !
 ! D4    D(24,1,2,3)           -60.7318         calculate D2E/DX2 analytically  !
 ! D5    D(24,1,2,26)          178.3671         calculate D2E/DX2 analytically  !
 ! D6    D(24,1,2,27)           60.2718         calculate D2E/DX2 analytically  !
 ! D7    D(25,1,2,3)           179.7019         calculate D2E/DX2 analytically  !
 ! D8    D(25,1,2,26)           58.8008         calculate D2E/DX2 analytically  !
 ! D9    D(25,1,2,27)          -59.2945         calculate D2E/DX2 analytically  !
 ! D10   D(1,2,3,4)            179.3005         calculate D2E/DX2 analytically  !
 ! D11   D(1,2,3,28)            58.6275         calculate D2E/DX2 analytically  !
 ! D12   D(1,2,3,29)           -60.0167         calculate D2E/DX2 analytically  !
 ! D13   D(26,2,3,4)           -60.2654         calculate D2E/DX2 analytically  !
 ! D14   D(26,2,3,28)          179.0616         calculate D2E/DX2 analytically  !
 ! D15   D(26,2,3,29)           60.4174         calculate D2E/DX2 analytically  !
 ! D16   D(27,2,3,4)            58.7985         calculate D2E/DX2 analytically  !
 ! D17   D(27,2,3,28)          -61.8745         calculate D2E/DX2 analytically  !
 ! D18   D(27,2,3,29)          179.4813         calculate D2E/DX2 analytically  !
 ! D19   D(2,3,4,5)            179.2782         calculate D2E/DX2 analytically  !
 ! D20   D(2,3,4,30)            58.6182         calculate D2E/DX2 analytically  !
 ! D21   D(2,3,4,31)           -60.0593         calculate D2E/DX2 analytically  !
 ! D22   D(28,3,4,5)           -60.0371         calculate D2E/DX2 analytically  !
 ! D23   D(28,3,4,30)          179.3028         calculate D2E/DX2 analytically  !
 ! D24   D(28,3,4,31)           60.6254         calculate D2E/DX2 analytically  !
 ! D25   D(29,3,4,5)            58.6365         calculate D2E/DX2 analytically  !
 ! D26   D(29,3,4,30)          -62.0236         calculate D2E/DX2 analytically  !
 ! D27   D(29,3,4,31)          179.299          calculate D2E/DX2 analytically  !
 ! D28   D(3,4,5,6)            179.1488         calculate D2E/DX2 analytically  !
 ! D29   D(3,4,5,32)            58.4761         calculate D2E/DX2 analytically  !
 ! D30   D(3,4,5,33)           -60.1215         calculate D2E/DX2 analytically  !
 ! D31   D(30,4,5,6)           -60.1544         calculate D2E/DX2 analytically  !
 ! D32   D(30,4,5,32)          179.173          calculate D2E/DX2 analytically  !
 ! D33   D(30,4,5,33)           60.5753         calculate D2E/DX2 analytically  !
 ! D34   D(31,4,5,6)            58.5729         calculate D2E/DX2 analytically  !
 ! D35   D(31,4,5,32)          -62.0997         calculate D2E/DX2 analytically  !
 ! D36   D(31,4,5,33)          179.3026         calculate D2E/DX2 analytically  !
 ! D37   D(4,5,6,7)            179.5479         calculate D2E/DX2 analytically  !
 ! D38   D(4,5,6,34)            58.8853         calculate D2E/DX2 analytically  !
 ! D39   D(4,5,6,35)           -59.7469         calculate D2E/DX2 analytically  !
 ! D40   D(32,5,6,7)           -59.7339         calculate D2E/DX2 analytically  !
 ! D41   D(32,5,6,34)          179.6035         calculate D2E/DX2 analytically  !
 ! D42   D(32,5,6,35)           60.9713         calculate D2E/DX2 analytically  !
 ! D43   D(33,5,6,7)            58.9108         calculate D2E/DX2 analytically  !
 ! D44   D(33,5,6,34)          -61.7519         calculate D2E/DX2 analytically  !
 ! D45   D(33,5,6,35)          179.6159         calculate D2E/DX2 analytically  !
 ! D46   D(5,6,7,8)            179.1765         calculate D2E/DX2 analytically  !
 ! D47   D(5,6,7,36)            58.5878         calculate D2E/DX2 analytically  !
 ! D48   D(5,6,7,37)           -60.1571         calculate D2E/DX2 analytically  !
 ! D49   D(34,6,7,8)           -60.1262         calculate D2E/DX2 analytically  !
 ! D50   D(34,6,7,36)          179.2851         calculate D2E/DX2 analytically  !
 ! D51   D(34,6,7,37)           60.5402         calculate D2E/DX2 analytically  !
 ! D52   D(35,6,7,8)            58.5417         calculate D2E/DX2 analytically  !
 ! D53   D(35,6,7,36)          -62.047          calculate D2E/DX2 analytically  !
 ! D54   D(35,6,7,37)          179.2081         calculate D2E/DX2 analytically  !
 ! D55   D(6,7,8,9)           -179.328          calculate D2E/DX2 analytically  !
 ! D56   D(6,7,8,38)            59.9595         calculate D2E/DX2 analytically  !
 ! D57   D(6,7,8,39)           -58.6714         calculate D2E/DX2 analytically  !
 ! D58   D(36,7,8,9)           -58.7186         calculate D2E/DX2 analytically  !
 ! D59   D(36,7,8,38)         -179.4311         calculate D2E/DX2 analytically  !
 ! D60   D(36,7,8,39)           61.9381         calculate D2E/DX2 analytically  !
 ! D61   D(37,7,8,9)            59.9479         calculate D2E/DX2 analytically  !
 ! D62   D(37,7,8,38)          -60.7646         calculate D2E/DX2 analytically  !
 ! D63   D(37,7,8,39)         -179.3954         calculate D2E/DX2 analytically  !
 ! D64   D(7,8,9,10)           179.386          calculate D2E/DX2 analytically  !
 ! D65   D(7,8,9,40)            58.7314         calculate D2E/DX2 analytically  !
 ! D66   D(7,8,9,41)           -59.9003         calculate D2E/DX2 analytically  !
 ! D67   D(38,8,9,10)          -59.885          calculate D2E/DX2 analytically  !
 ! D68   D(38,8,9,40)          179.4603         calculate D2E/DX2 analytically  !
 ! D69   D(38,8,9,41)           60.8287         calculate D2E/DX2 analytically  !
 ! D70   D(39,8,9,10)           58.773          calculate D2E/DX2 analytically  !
 ! D71   D(39,8,9,40)          -61.8816         calculate D2E/DX2 analytically  !
 ! D72   D(39,8,9,41)          179.4867         calculate D2E/DX2 analytically  !
 ! D73   D(8,9,10,11)         -179.1985         calculate D2E/DX2 analytically  !
 ! D74   D(8,9,10,42)           60.254          calculate D2E/DX2 analytically  !
 ! D75   D(8,9,10,43)          -58.2461         calculate D2E/DX2 analytically  !
 ! D76   D(40,9,10,11)         -58.5274         calculate D2E/DX2 analytically  !
 ! D77   D(40,9,10,42)        -179.0749         calculate D2E/DX2 analytically  !
 ! D78   D(40,9,10,43)          62.425          calculate D2E/DX2 analytically  !
 ! D79   D(41,9,10,11)          60.1037         calculate D2E/DX2 analytically  !
 ! D80   D(41,9,10,42)         -60.4438         calculate D2E/DX2 analytically  !
 ! D81   D(41,9,10,43)        -178.9438         calculate D2E/DX2 analytically  !
 ! D82   D(9,10,11,12)        -179.3805         calculate D2E/DX2 analytically  !
 ! D83   D(9,10,11,44)          59.7705         calculate D2E/DX2 analytically  !
 ! D84   D(9,10,11,45)         -57.6806         calculate D2E/DX2 analytically  !
 ! D85   D(42,10,11,12)        -58.6953         calculate D2E/DX2 analytically  !
 ! D86   D(42,10,11,44)       -179.5442         calculate D2E/DX2 analytically  !
 ! D87   D(42,10,11,45)         63.0046         calculate D2E/DX2 analytically  !
 ! D88   D(43,10,11,12)         59.9449         calculate D2E/DX2 analytically  !
 ! D89   D(43,10,11,44)        -60.904          calculate D2E/DX2 analytically  !
 ! D90   D(43,10,11,45)       -178.3552         calculate D2E/DX2 analytically  !
 ! D91   D(10,11,12,13)        111.314          calculate D2E/DX2 analytically  !
 ! D92   D(10,11,12,17)        -69.4823         calculate D2E/DX2 analytically  !
 ! D93   D(44,11,12,13)       -127.2966         calculate D2E/DX2 analytically  !
 ! D94   D(44,11,12,17)         51.9071         calculate D2E/DX2 analytically  !
 ! D95   D(45,11,12,13)         -9.6046         calculate D2E/DX2 analytically  !
 ! D96   D(45,11,12,17)        169.5991         calculate D2E/DX2 analytically  !
 ! D97   D(11,12,13,14)        179.5746         calculate D2E/DX2 analytically  !
 ! D98   D(11,12,13,46)         -0.585          calculate D2E/DX2 analytically  !
 ! D99   D(17,12,13,14)          0.3629         calculate D2E/DX2 analytically  !
 ! D100  D(17,12,13,46)       -179.7967         calculate D2E/DX2 analytically  !
 ! D101  D(11,12,17,16)       -179.7718         calculate D2E/DX2 analytically  !
 ! D102  D(11,12,17,49)          0.1191         calculate D2E/DX2 analytically  !
 ! D103  D(13,12,17,16)         -0.5572         calculate D2E/DX2 analytically  !
 ! D104  D(13,12,17,49)        179.3336         calculate D2E/DX2 analytically  !
 ! D105  D(12,13,14,15)         -0.1459         calculate D2E/DX2 analytically  !
 ! D106  D(12,13,14,47)        179.8801         calculate D2E/DX2 analytically  !
 ! D107  D(46,13,14,15)       -179.9883         calculate D2E/DX2 analytically  !
 ! D108  D(46,13,14,47)          0.0377         calculate D2E/DX2 analytically  !
 ! D109  D(13,14,15,16)          0.1172         calculate D2E/DX2 analytically  !
 ! D110  D(13,14,15,18)       -179.773          calculate D2E/DX2 analytically  !
 ! D111  D(47,14,15,16)       -179.909          calculate D2E/DX2 analytically  !
 ! D112  D(47,14,15,18)          0.2008         calculate D2E/DX2 analytically  !
 ! D113  D(14,15,16,17)         -0.3108         calculate D2E/DX2 analytically  !
 ! D114  D(14,15,16,48)       -179.9769         calculate D2E/DX2 analytically  !
 ! D115  D(18,15,16,17)        179.5786         calculate D2E/DX2 analytically  !
 ! D116  D(18,15,16,48)         -0.0875         calculate D2E/DX2 analytically  !
 ! D117  D(14,15,18,19)        171.7584         calculate D2E/DX2 analytically  !
 ! D118  D(14,15,18,20)         46.7075         calculate D2E/DX2 analytically  !
 ! D119  D(14,15,18,21)        -75.1538         calculate D2E/DX2 analytically  !
 ! D120  D(14,15,18,22)         53.4496         calculate D2E/DX2 analytically  !
 ! D121  D(16,15,18,19)         -8.131          calculate D2E/DX2 analytically  !
 ! D122  D(16,15,18,20)       -133.1819         calculate D2E/DX2 analytically  !
 ! D123  D(16,15,18,21)        104.9568         calculate D2E/DX2 analytically  !
 ! D124  D(16,15,18,22)       -126.4398         calculate D2E/DX2 analytically  !
 ! D125  D(15,16,17,12)          0.5346         calculate D2E/DX2 analytically  !
 ! D126  D(15,16,17,49)       -179.3575         calculate D2E/DX2 analytically  !
 ! D127  D(48,16,17,12)       -179.7964         calculate D2E/DX2 analytically  !
 ! D128  D(48,16,17,49)          0.3115         calculate D2E/DX2 analytically  !
 --------------------------------------------------------------------------------
 Trust Radius=3.00D-01 FncErr=1.00D-07 GrdErr=1.00D-07 EigMax=2.50D+02 EigMin=1.00D-04
 Number of steps in this run=    294 maximum allowed number of steps=    294.
 GradGradGradGradGradGradGradGradGradGradGradGradGradGradGradGradGradGrad

                          Input orientation:                          
 ---------------------------------------------------------------------
 Center     Atomic      Atomic             Coordinates (Angstroms)
 Number     Number       Type             X           Y           Z
 ---------------------------------------------------------------------
      1          6           0      -12.381000    0.071000    3.174000
      2          6           0      -11.060000    0.830000    3.247000
      3          6           0      -10.094000    0.367000    2.150000
      4          6           0       -8.773000    1.144000    2.215000
      5          6           0       -7.801000    0.668000    1.129000
      6          6           0       -6.488000    1.457000    1.178000
      7          6           0       -5.514000    0.971000    0.098000
      8          6           0       -4.207000    1.773000    0.132000
      9          6           0       -3.241000    1.297000   -0.959000
     10          6           0       -1.940000    2.108000   -0.936000
     11          6           0       -0.982000    1.644000   -2.041000
     12          6           0        0.303000    2.430000   -2.010000
     13          6           0        1.509000    1.814000   -1.633000
     14          6           0        2.699000    2.547000   -1.615000
     15          6           0        2.700000    3.899000   -1.975000
     16          6           0        1.502000    4.518000   -2.352000
     17          6           0        0.311000    3.787000   -2.375000
     18         16           0        4.246000    4.832000   -1.953000
     19          8           0        4.109000    6.246000   -2.568000
     20          8           0        5.657000    4.141000   -2.676000
     21          8           0        4.672000    5.172000   -0.505000
     22         11           0        4.981000    2.500000   -3.673000
     23          1           0      -12.208000   -1.019000    3.304000
     24          1           0      -12.875000    0.249000    2.195000
     25          1           0      -13.057000    0.422000    3.981000
     26          1           0      -10.602000    0.659000    4.245000
     27          1           0      -11.263000    1.917000    3.134000
     28          1           0      -10.565000    0.525000    1.154000
     29          1           0       -9.889000   -0.719000    2.276000
     30          1           0       -8.308000    0.997000    3.214000
     31          1           0       -8.979000    2.229000    2.076000
     32          1           0       -8.272000    0.801000    0.129000
     33          1           0       -7.587000   -0.414000    1.278000
     34          1           0       -6.019000    1.331000    2.180000
     35          1           0       -6.703000    2.537000    1.022000
     36          1           0       -5.988000    1.085000   -0.902000
     37          1           0       -5.288000   -0.106000    0.263000
     38          1           0       -3.726000    1.652000    1.128000
     39          1           0       -4.434000    2.851000   -0.022000
     40          1           0       -3.726000    1.409000   -1.954000
     41          1           0       -3.007000    0.221000   -0.799000
     42          1           0       -1.445000    1.984000    0.052000
     43          1           0       -2.179000    3.185000   -1.077000
     44          1           0       -1.461000    1.770000   -3.037000
     45          1           0       -0.774000    0.559000   -1.907000
     46          1           0        1.528000    0.769000   -1.351000
     47          1           0        3.621000    2.062000   -1.321000
     48          1           0        1.491000    5.564000   -2.633000
     49          1           0       -0.605000    4.278000   -2.679000
 ---------------------------------------------------------------------
                    Distance matrix (angstroms):
                    1          2          3          4          5
     1  C    0.000000
     2  C    1.525271   0.000000
     3  C    2.523205   1.533276   0.000000
     4  C    3.884414   2.528634   1.533948   0.000000
     5  C    5.051221   3.890148   2.528021   1.533218   0.000000
     6  C    6.374360   5.057378   3.890517   2.528747   1.532609
     7  C    7.578091   6.379200   5.054891   3.890077   2.526883
     8  C    8.886217   7.586573   6.380120   5.057953   3.889970
     9  C   10.105660   8.890742   7.582506   6.379711   5.054600
    10  C   11.404208  10.114602   8.890568   7.586039   6.378804
    11  C   12.633596  11.410154  10.110576   8.891750   7.582891
    12  C   13.904050  12.621958  11.386798  10.093473   8.867513
    13  C   14.801263  13.518965  12.289610  10.998888   9.778449
    14  C   16.014728  14.693441  13.512530  12.175553  11.014090
    15  C   16.389092  15.034149  13.898816  12.521016  11.416881
    16  C   15.590067  14.239171  13.113582  11.739548  10.652965
    17  C   14.341789  13.024990  11.850572  10.515351   9.370737
    18  S   18.039135  16.653217  15.569407  14.158670  13.113650
    19  O   18.520834  17.124422  16.079408  14.657879  13.661259
    20  O   19.394763  18.041694  16.900513  15.528322  14.410327
    21  O   18.175810  16.745934  15.753470  14.296545  13.361576
    22  Na  18.820746  17.549615  16.300695  15.022643  13.776609
    23  H    1.111274   2.177144   2.778796   4.202822   5.195983
    24  H    1.110928   2.176807   2.783866   4.198551   5.201672
    25  H    1.109696   2.166386   3.483526   4.689637   5.984978
    26  H    2.158153   1.111310   2.175397   2.775134   4.189885
    27  H    2.158527   1.111552   2.176538   2.764451   4.191118
    28  H    2.753974   2.172257   1.113023   2.172590   2.767810
    29  H    2.764158   2.171056   1.112339   2.172544   2.756651
    30  H    4.177129   2.757260   2.172278   1.111681   2.170833
    31  H    4.175664   2.767490   2.171577   1.113096   2.172835
    32  H    5.166121   4.182787   2.755446   2.172567   1.113342
    33  H    5.178077   4.181654   2.766838   2.170698   1.112978
    34  H    6.561302   5.176985   4.187579   2.760563   2.172486
    35  H    6.553773   5.181498   4.180929   2.765610   2.170303
    36  H    7.649341   6.557775   5.166185   4.180358   2.754237
    37  H    7.669152   6.564780   5.184798   4.185454   2.768429
    38  H    9.032979   7.678112   6.576255   5.187662   4.192121
    39  H    9.005422   7.659940   6.551598   5.171551   4.174563
    40  H   10.148677   9.009617   7.647222   6.551564   5.163293
    41  H   10.182294   9.032818   7.677466   6.571368   5.186466
    42  H   11.532673  10.197449   9.045523   7.686596   6.579553
    43  H   11.482543  10.154564   9.000104   7.647469   6.542829
    44  H   12.677126  11.511432  10.168681   9.024451   7.665870
    45  H   12.679793  11.508212  10.166539   9.017600   7.655580
    46  H   14.643193  13.401607  12.144525  10.907226   9.653540
    47  H   16.740165  15.424533  14.248582  12.921194  11.764685
    48  H   16.010206  14.646254  13.568276  12.181511  11.156376
    49  H   13.806905  12.502528  11.342675  10.024441   8.905918
                    6          7          8          9         10
     6  C    0.000000
     7  C    1.533386   0.000000
     8  C    2.529216   1.533822   0.000000
     9  C    3.890421   2.527856   1.532975   0.000000
    10  C    5.057381   3.890424   2.528268   1.533249   0.000000
    11  C    6.380671   5.056409   3.890912   2.528678   1.534303
    12  C    7.564903   6.356873   5.035863   3.866294   2.507630
    13  C    8.484172   7.282138   5.982438   4.825356   3.530984
    14  C    9.663846   8.536481   7.165467   6.105443   4.708937
    15  C   10.016193   8.963276   7.527681   6.564917   5.081024
    16  C    9.255848   8.234559   6.804261   5.900113   4.434018
    17  C    8.017425   6.926486   5.545590   4.563098   3.155434
    18  S   11.679578  10.694462   9.228105   8.339031   6.835281
    19  O   12.217342  11.293153   9.821079   9.005775   7.508453
    20  O   13.021451  11.938811  10.525720   9.497938   8.054508
    21  O   11.881890  11.034791   9.528673   8.822546   7.300164
    22  Na  12.496320  11.256256   9.971254   8.741527   7.452857
    23  H    6.585503   7.684281   9.048362  10.195299  11.540691
    24  H    6.579310   7.687848   9.039512  10.191171  11.525332
    25  H    7.216633   8.501526   9.744871  11.023751  12.272211
    26  H    5.193100   6.571354   7.684646   9.037310  10.196696
    27  H    5.180556   6.569872   7.669412   9.027155  10.174464
    28  H    4.182240   5.179445   6.559432   7.661705   9.014689
    29  H    4.184182   5.171113   6.564444   7.663249   9.027484
    30  H    2.769349   4.185280   5.188362   6.571029   7.681682
    31  H    2.758164   4.183452   5.172916   6.557781   7.657304
    32  H    2.171035   2.763408   4.179595   5.171143   6.552610
    33  H    2.172198   2.758252   4.185772   5.178746   6.568934
    34  H    1.113481   2.172406   2.770020   4.191868   5.191476
    35  H    1.112187   2.172522   2.757864   4.177009   5.167589
    36  H    2.171355   1.112507   2.171281   2.755758   4.175403
    37  H    2.172601   1.112758   2.171719   2.766207   4.189093
    38  H    2.769326   2.172925   1.112663   2.171824   2.767278
    39  H    2.757200   2.171451   1.112353   2.171666   2.758166
    40  H    4.176167   2.756718   2.171463   1.112562   2.171341
    41  H    4.189700   2.766253   2.171512   1.112714   2.172102
    42  H    5.193982   4.193453   2.771203   2.172488   1.112000
    43  H    5.161249   4.171888   2.751038   2.169404   1.112174
    44  H    6.567718   5.185888   4.193219   2.776727   2.181258
    45  H    6.555412   5.163077   4.173345   2.743982   2.168363
    46  H    8.433590   7.192369   6.008122   4.814126   3.740611
    47  H   10.430863   9.308709   7.966951   6.913994   5.574501
    48  H    9.749647   8.810450   7.381335   6.587973   5.157083
    49  H    7.579194   6.538062   5.210677   4.335119   3.086936
                   11         12         13         14         15
    11  C    0.000000
    12  C    1.506646   0.000000
    13  C    2.529910   1.405710   0.000000
    14  C    3.814007   2.431158   1.397753   0.000000
    15  C    4.318160   2.811547   2.425422   1.399109   0.000000
    16  C    3.811411   2.431935   2.797968   2.420913   1.400176
    17  C    2.525045   1.405254   2.424561   2.796023   2.424843
    18  S    6.123975   4.617370   4.086795   2.780050   1.805849
    19  O    6.882907   5.418381   5.222724   4.071721   2.800953
    20  O    7.121415   5.660070   4.869156   3.523680   3.048576
    21  O    6.839137   5.373244   4.749012   3.466331   2.769515
    22  Na   6.241276   4.965295   4.084970   3.073288   3.169127
    23  H   12.715489  14.023527  14.851126  16.097564  16.562096
    24  H   12.701699  14.003516  14.966705  16.197110  16.531546
    25  H   13.548557  14.778828  15.672365  16.854743  17.200189
    26  H   11.533795  12.695688  13.511522  14.656764  15.037593
    27  H   11.513215  12.668712  13.633007  14.761008  14.999852
    28  H   10.163369  11.478386  12.458345  13.699983  14.040468
    29  H   10.176193  11.496211  12.313033  13.574402  14.066977
    30  H    9.039022  10.173150  10.978815  12.119232  12.510931
    31  H    9.013541  10.143536  11.132253  12.251542  12.473914
    32  H    7.652689   8.986634   9.989934  11.245128  11.593498
    33  H    7.673145   9.008406   9.806892  11.087776  11.619223
    34  H    6.579223   7.663654   8.452399   9.585625   9.993979
    35  H    6.550516   7.634691   8.660756   9.764808   9.962603
    36  H    5.164285   6.527892   7.567748   8.837974   9.195176
    37  H    5.187731   6.546534   7.313031   8.623077   9.211776
    38  H    4.191916   5.165769   5.920692   7.043131   7.481383
    39  H    4.177262   5.154469   6.244192   7.315036   7.470373
    40  H    2.755418   4.156732   5.260446   6.533804   6.891590
    41  H    2.769137   4.159604   4.860809   6.215671   6.890610
    42  H    2.170396   2.739756   3.405032   4.502066   4.995696
    43  H    2.176416   2.756962   3.973679   4.948876   5.012070
    44  H    1.112355   2.145233   3.285430   4.464461   4.793162
    45  H    1.112854   2.161291   2.619578   4.012373   4.819637
    46  H    2.746238   2.166524   1.082548   2.145279   3.399979
    47  H    4.677685   3.408705   2.149277   1.082472   2.156508
    48  H    4.672536   3.409022   3.881085   3.405566   2.160294
    49  H    2.736262   2.164978   3.410925   3.878772   3.400336
                   16         17         18         19         20
    16  C    0.000000
    17  C    1.397630   0.000000
    18  S    2.790579   4.093206   0.000000
    19  O    3.135138   4.528657   1.548028   0.000000
    20  O    4.184630   5.366156   1.729489   2.615147   0.000000
    21  O    3.726664   4.943020   1.547185   2.392993   2.597388
    22  Na   4.233297   5.014985   2.989456   4.001740   2.035649
    23  H   15.830755  14.562762  18.237444  18.801731  19.533157
    24  H   15.671557  14.396977  18.202704  18.630793  19.552732
    25  H   16.396603  15.179769  18.816330  19.273815  20.207929
    26  H   14.314996  13.141627  16.622041  17.147742  18.010543
    27  H   14.135297  12.953897  16.580225  16.957341  18.027442
    28  H   13.185165  11.890410  15.734339  16.183615  17.055722
    29  H   13.364110  12.082046  15.763764  16.368249  17.024101
    30  H   11.815832  10.644632  14.107021  14.668518  15.478955
    31  H   11.605950  10.418391  14.068016  14.456790  15.506442
    32  H   10.747210   9.426245  13.314804  13.791700  14.595913
    33  H   10.959537   9.662878  13.340906  13.997990  14.552858
    34  H    9.341383   8.176115  11.606417  12.217901  12.953988
    35  H    9.090119   7.892928  11.575761  11.980990  13.000678
    36  H    8.365888   7.010559  10.948944  11.461278  12.169315
    37  H    8.621119   7.311860  10.963196  11.690427  12.102386
    38  H    6.903357   5.755571   9.119087   9.805737  10.426228
    39  H    6.591198   5.378451   9.110188   9.538920  10.513615
    40  H    6.095594   4.704200   8.675812   9.228260   9.799275
    41  H    6.419276   5.119498   8.671738   9.490387   9.693009
    42  H    4.570031   3.496380   6.672227   7.475022   7.907783
    43  H    4.117314   2.871813   6.690337   7.150647   8.054417
    44  H    4.098792   2.765234   6.566639   7.160966   7.511184
    45  H    4.588233   3.437475   6.592499   7.524798   7.401341
    46  H    3.880422   3.411450   4.925231   6.175774   5.493146
    47  H    3.403683   3.878484   2.909115   4.393064   3.209916
    48  H    1.083143   2.148649   2.930571   2.706155   4.402537
    49  H    2.145688   1.082845   4.936212   5.109515   6.263499
                   21         22         23         24         25
    21  O    0.000000
    22  Na   4.155874   0.000000
    23  H   18.378557  18.881833   0.000000
    24  H   18.423440  18.929796   1.811793   0.000000
    25  H   18.894553  19.704600   1.804331   1.803566   0.000000
    26  H   16.620010  17.575946   2.506073   3.088224   2.480502
    27  H   16.666180  17.622221   3.089016   2.502497   2.484124
    28  H   16.016025  16.397520   3.115427   2.548717   3.769960
    29  H   15.951820  16.336140   2.554319   3.140029   3.774272
    30  H   14.133011  15.042849   4.391168   4.738708   4.844782
    31  H   14.201148  15.099869   4.741722   4.371885   4.850192
    32  H   13.676795  13.891861   5.374488   5.075497   6.154492
    33  H   13.589171  13.818771   5.081766   5.407717   6.158409
    34  H   11.673045  12.514958   6.714879   6.940871   7.321429
    35  H   11.775635  12.592071   6.939574   6.686139   7.321354
    36  H   11.423519  11.401738   7.797798   7.597439   8.617077
    37  H   11.298173  11.302022   7.613649   7.837169   8.629002
    38  H    9.251135   9.979006   9.154974   9.317247   9.834636
    39  H    9.409547  10.104218   9.299153   9.106919   9.812246
    40  H    9.315910   8.941873  10.270641  10.112567  11.102520
    41  H    9.141437   8.789873  10.150399  10.312238  11.130647
    42  H    6.920353   7.445492  11.637684  11.757873  12.357808
    43  H    7.156225   7.646832  11.723806  11.564190  12.310500
    44  H    7.456428   6.514350  12.786118  12.647793  13.621184
    45  H    7.273533   6.325050  12.664160  12.781107  13.622019
    46  H    5.476026   4.506801  14.613133  14.842201  15.532960
    47  H    3.382685   2.751972  16.776186  16.963704  17.577158
    48  H    3.847182   4.759180  16.317060  16.060534  16.787777
    49  H    5.776871   5.945815  14.088439  13.803681  14.638191
                   26         27         28         29         30
    26  H    0.000000
    27  H    1.803831   0.000000
    28  H    3.094124   2.518982   0.000000
    29  H    2.506833   3.093952   1.806487   0.000000
    30  H    2.537645   3.095937   3.091995   2.514769   0.000000
    31  H    3.131069   2.536408   2.503816   3.091732   1.806408
    32  H    4.731862   4.384240   2.526786   3.087831   3.091430
    33  H    4.364017   4.731942   3.124993   2.527495   2.501771
    34  H    5.071459   5.362187   4.729527   4.380481   2.533818
    35  H    5.396000   5.063452   4.356674   4.724897   3.122898
    36  H    6.925466   6.693814   5.048729   5.345269   4.725632
    37  H    6.684321   6.930786   5.388763   5.059362   4.364105
    38  H    7.614533   7.803886   6.931286   6.702396   5.076923
    39  H    7.813858   7.580761   6.662013   6.912505   5.377443
    40  H    9.288136   9.107809   7.563930   7.771992   6.919009
    41  H    9.127859   9.300884   7.812169   7.596127   6.693799
    42  H   10.158126  10.290595   9.301478   9.140762   7.620576
    43  H   10.278681  10.092542   9.076230   9.269732   7.795169
    44  H   11.739665  11.583698  10.099372  10.269093   9.303437
    45  H   11.595115  11.716440  10.258390  10.110094   9.120178
    46  H   13.359050  13.603044  12.352134  12.071336  10.846110
    47  H   15.337617  15.537101  14.482078  14.254560  12.806307
    48  H   14.751493  14.464557  13.604412  13.895279  12.290862
    49  H   12.687748  12.367629  11.312758  11.649665  10.238585
                   31         32         33         34         35
    31  H    0.000000
    32  H    2.515918   0.000000
    33  H    3.091912   1.807111   0.000000
    34  H    3.094967   3.092493   2.513415   0.000000
    35  H    2.527045   2.504577   3.091180   1.806448   0.000000
    36  H    4.373020   2.521958   3.091311   3.091957   2.514221
    37  H    4.728919   3.121676   2.531895   2.504839   3.092532
    38  H    5.368952   4.731630   4.381572   2.543146   3.107570
    39  H    5.044355   4.353797   4.721402   3.109892   2.517319
    40  H    6.671380   5.037328   5.355042   4.727990   4.357923
    41  H    6.925494   5.377528   5.068881   4.379348   4.726554
    42  H    7.804983   6.929166   6.706537   5.086872   5.375246
    43  H    7.556146   6.653010   6.909797   5.365721   5.029143
    44  H    9.103503   7.573126   7.804932   6.941554   6.674004
    45  H    9.272282   7.773279   7.583398   6.693996   6.902504
    46  H   11.147779   9.911177   9.560039   8.351109   8.746789
    47  H   13.050958  12.047243  11.768799  10.282070  10.597181
    48  H   11.954824  11.208523  11.551731   9.873366   9.469075
    49  H    9.845420   8.874530   9.296292   7.848954   7.342621
                   36         37         38         39         40
    36  H    0.000000
    37  H    1.807126   0.000000
    38  H    3.091769   2.505720   0.000000
    39  H    2.511588   3.091018   1.805925   0.000000
    40  H    2.515616   3.106470   3.091565   2.512619   0.000000
    41  H    3.105393   2.537269   2.505604   3.091433   1.806192
    42  H    4.728336   4.379643   2.543808   3.113083   3.091540
    43  H    4.353057   4.721458   3.099246   2.511893   2.513268
    44  H    5.051849   5.390297   4.742507   4.370070   2.536422
    45  H    5.335963   5.052457   4.372663   4.711909   3.072298
    46  H    7.536028   7.058929   5.876193   6.453403   5.327075
    47  H    9.667625   9.304814   7.755263   8.197130   7.403074
    48  H    8.887814   9.300030   7.527679   7.020208   6.703891
    49  H    6.506125   7.057288   5.579406   4.874138   4.300864
                   41         42         43         44         45
    41  H    0.000000
    42  H    2.504439   0.000000
    43  H    3.090010   1.804383   0.000000
    44  H    3.130201   3.096445   2.521775   0.000000
    45  H    2.515591   2.513672   3.091731   1.793151   0.000000
    46  H    4.601221   3.504763   4.433281   3.574733   2.377486
    47  H    6.898706   5.249340   5.912754   5.371838   4.681712
    48  H    7.221025   5.352170   4.642163   4.824102   5.541419
    49  H    5.075751   3.664205   2.497705   2.674129   3.802040
                   46         47         48         49
    46  H    0.000000
    47  H    2.460365   0.000000
    48  H    4.963559   4.303748   0.000000
    49  H    4.315826   4.961239   2.459498   0.000000
 Stoichiometry    C17H27NaO3S
 Framework group  C1[X(C17H27NaO3S)]
 Deg. of freedom   141
 Full point group                 C1      NOp   1
 Largest Abelian subgroup         C1      NOp   1
 Largest concise Abelian subgroup C1      NOp   1
                         Standard orientation:                         
 ---------------------------------------------------------------------
 Center     Atomic      Atomic             Coordinates (Angstroms)
 Number     Number       Type             X           Y           Z
 ---------------------------------------------------------------------
      1          6           0      -11.659702   -0.418944   -0.109603
      2          6           0      -10.282706   -1.038597   -0.324925
      3          6           0       -9.168184   -0.029913   -0.022715
      4          6           0       -7.784501   -0.660905   -0.223384
      5          6           0       -6.670851    0.353606    0.061759
      6          6           0       -5.286864   -0.279901   -0.117519
      7          6           0       -4.175554    0.740218    0.157471
      8          6           0       -2.789482    0.102931   -0.001525
      9          6           0       -1.679855    1.119690    0.289924
     10          6           0       -0.293858    0.480006    0.146168
     11          6           0        0.815468    1.493226    0.457400
     12          6           0        2.178352    0.870054    0.301890
     13          6           0        3.031522    1.267855   -0.742082
     14          6           0        4.298103    0.691854   -0.875154
     15          6           0        4.728220   -0.283127    0.031442
     16          6           0        3.883145   -0.683086    1.073735
     17          6           0        2.617630   -0.106293    1.212121
     18         16           0        6.369565   -1.014200   -0.149136
     19          8           0        6.764247   -1.918973    1.043342
     20          8           0        7.727551    0.021631   -0.421272
     21          8           0        6.404511   -2.024859   -1.320087
     22         11           0        7.017135    1.904038   -0.111888
     23          1           0      -11.797471    0.458141   -0.777938
     24          1           0      -11.776900   -0.096066    0.946889
     25          1           0      -12.445164   -1.168094   -0.340368
     26          1           0      -10.202841   -1.379071   -1.379775
     27          1           0      -10.178493   -1.923368    0.339805
     28          1           0       -9.263733    0.320010    1.029542
     29          1           0       -9.274253    0.847450   -0.698201
     30          1           0       -7.692795   -1.022108   -1.270742
     31          1           0       -7.675652   -1.530808    0.462475
     32          1           0       -6.771108    0.727014    1.105811
     33          1           0       -6.774636    1.216232   -0.633817
     34          1           0       -5.187402   -0.660439   -1.159219
     35          1           0       -5.182355   -1.137281    0.583150
     36          1           0       -4.283078    1.129762    1.193987
     37          1           0       -4.271926    1.590989   -0.553254
     38          1           0       -2.675941   -0.278201   -1.040690
     39          1           0       -2.697130   -0.754381    0.701196
     40          1           0       -1.799523    1.507819    1.325699
     41          1           0       -1.767091    1.972579   -0.419374
     42          1           0       -0.165679    0.106268   -0.893272
     43          1           0       -0.216759   -0.383726    0.842554
     44          1           0        0.704956    1.870174    1.498087
     45          1           0        0.709980    2.365793   -0.225202
     46          1           0        2.716189    2.020555   -1.453361
     47          1           0        4.945280    1.005077   -1.684350
     48          1           0        4.205796   -1.436741    1.781619
     49          1           0        1.980442   -0.419230    2.029810
 ---------------------------------------------------------------------
 Rotational constants (GHZ):           0.9468224           0.0393864           0.0385966
 Standard basis: VSTO-6G (5D, 7F)
 There are   121 symmetry adapted cartesian basis functions of A   symmetry.
 There are   120 symmetry adapted basis functions of A   symmetry.
   120 basis functions,   726 primitive gaussians,   121 cartesian basis functions
    60 alpha electrons       60 beta electrons
       nuclear repulsion energy       871.1268069703 Hartrees.
 Integral buffers will be    131072 words long.
 Regular integral format.
 Two-electron integral symmetry is turned off.
 Do NDO integrals.
 One-electron integrals computed using PRISM.
 NBasis=   120 RedAO= F EigKep=  0.00D+00  NBF=   120
 NBsUse=   120 1.00D-04 EigRej=  0.00D+00 NBFU=   120
 Nonelectrostatic core Hamiltonian diagonalized for initial guess.
 Keep J ints in memory in canonical form, NReq=1889245.
 Overlap will be assumed to be unity.
 Requested convergence on RMS density matrix=1.00D-08 within9999 cycles.
 Requested convergence on MAX density matrix=1.00D-06.
 Requested convergence on             energy=1.00D-06.
 No special actions if energy rises.
 EnCoef did     4 forward-backward iterations
 SCF Done:  E(RPM6) = -0.223045223817     A.U. after   22 cycles
            NFock= 21  Conv=0.79D-08     -V/T= 0.9989
 Range of M.O.s used for correlation:     1   120
 NBasis=   120 NAE=    60 NBE=    60 NFC=     0 NFV=     0
 NROrb=    120 NOA=    60 NOB=    60 NVA=    60 NVB=    60
 Symmetrizing basis deriv contribution to polar:
 IMax=3 JMax=2 DiffMx= 0.00D+00
 G2DrvN: will do    50 centers at a time, making    1 passes.
 Calling FoFCou, ICntrl=  3107 FMM=F I1Cent=   0 AccDes= 0.00D+00.
 End of G2Drv F.D. properties file   721 does not exist.
 End of G2Drv F.D. properties file   722 does not exist.
 End of G2Drv F.D. properties file   788 does not exist.
          IDoAtm=1111111111111111111111111111111111111111111111111
          Differentiating once with respect to electric field.
                with respect to dipole field.
          Differentiating once with respect to nuclear coordinates.
          Electric field/nuclear overlap derivatives assumed to be zero.
 Keep J ints in memory in canonical form, NReq=1893955.
          There are   150 degrees of freedom in the 1st order CPHF.  IDoFFX=5 NUNeed=   150.
 LinEq1:  Iter=  0 NonCon=   150 RMS=1.36D-01 Max=3.48D+00 NDo=   150
 AX will form   150 AO Fock derivatives at one time.
 LinEq1:  Iter=  1 NonCon=   150 RMS=2.82D-02 Max=5.92D-01 NDo=   150
 LinEq1:  Iter=  2 NonCon=   150 RMS=5.98D-03 Max=1.60D-01 NDo=   150
 LinEq1:  Iter=  3 NonCon=   150 RMS=1.55D-03 Max=4.07D-02 NDo=   150
 LinEq1:  Iter=  4 NonCon=   150 RMS=5.83D-04 Max=1.29D-02 NDo=   150
 LinEq1:  Iter=  5 NonCon=   150 RMS=1.61D-04 Max=2.68D-03 NDo=   150
 LinEq1:  Iter=  6 NonCon=   144 RMS=2.75D-05 Max=2.70D-04 NDo=   150
 LinEq1:  Iter=  7 NonCon=    87 RMS=5.51D-06 Max=8.15D-05 NDo=   150
 LinEq1:  Iter=  8 NonCon=    49 RMS=1.23D-06 Max=2.68D-05 NDo=    87
 LinEq1:  Iter=  9 NonCon=    14 RMS=3.16D-07 Max=8.67D-06 NDo=    49
 LinEq1:  Iter= 10 NonCon=     3 RMS=7.18D-08 Max=1.39D-06 NDo=    14
 LinEq1:  Iter= 11 NonCon=     3 RMS=1.38D-08 Max=2.62D-07 NDo=     3
 LinEq1:  Iter= 12 NonCon=     0 RMS=2.96D-09 Max=5.90D-08 NDo=     3
 Linear equations converged to 1.000D-08 1.000D-07 after    12 iterations.
 Isotropic polarizability for W=    0.000000      165.67 Bohr**3.
 End of Minotr F.D. properties file   721 does not exist.
 End of Minotr F.D. properties file   722 does not exist.
 End of Minotr F.D. properties file   788 does not exist.

 **********************************************************************

            Population analysis using the SCF Density.

 **********************************************************************

 Orbital symmetries:
       Occupied  (A) (A) (A) (A) (A) (A) (A) (A) (A) (A) (A) (A)
                 (A) (A) (A) (A) (A) (A) (A) (A) (A) (A) (A) (A)
                 (A) (A) (A) (A) (A) (A) (A) (A) (A) (A) (A) (A)
                 (A) (A) (A) (A) (A) (A) (A) (A) (A) (A) (A) (A)
                 (A) (A) (A) (A) (A) (A) (A) (A) (A) (A) (A) (A)
       Virtual   (A) (A) (A) (A) (A) (A) (A) (A) (A) (A) (A) (A)
                 (A) (A) (A) (A) (A) (A) (A) (A) (A) (A) (A) (A)
                 (A) (A) (A) (A) (A) (A) (A) (A) (A) (A) (A) (A)
                 (A) (A) (A) (A) (A) (A) (A) (A) (A) (A) (A) (A)
                 (A) (A) (A) (A) (A) (A) (A) (A) (A) (A) (A) (A)
 The electronic state is 1-A.
 Alpha  occ. eigenvalues --   -1.13828  -1.08354  -1.06693  -1.05256  -1.03199
 Alpha  occ. eigenvalues --   -0.99821  -0.99228  -0.95601  -0.91054  -0.90545
 Alpha  occ. eigenvalues --   -0.87374  -0.85897  -0.82072  -0.80847  -0.77294
 Alpha  occ. eigenvalues --   -0.76011  -0.74907  -0.73097  -0.72510  -0.71460
 Alpha  occ. eigenvalues --   -0.63581  -0.62929  -0.61907  -0.60125  -0.59415
 Alpha  occ. eigenvalues --   -0.57752  -0.55694  -0.55499  -0.55102  -0.54340
 Alpha  occ. eigenvalues --   -0.53756  -0.52775  -0.51960  -0.51186  -0.50087
 Alpha  occ. eigenvalues --   -0.49691  -0.48901  -0.48585  -0.47722  -0.47537
 Alpha  occ. eigenvalues --   -0.47051  -0.46431  -0.45444  -0.45066  -0.44176
 Alpha  occ. eigenvalues --   -0.43789  -0.43601  -0.42657  -0.42649  -0.41806
 Alpha  occ. eigenvalues --   -0.41204  -0.40702  -0.38981  -0.38429  -0.36911
 Alpha  occ. eigenvalues --   -0.36743  -0.36568  -0.35436  -0.33981  -0.33065
 Alpha virt. eigenvalues --   -0.02946  -0.01969  -0.00469   0.01620   0.06002
 Alpha virt. eigenvalues --    0.10989   0.11663   0.12647   0.12975   0.13494
 Alpha virt. eigenvalues --    0.13799   0.14024   0.14247   0.14445   0.14654
 Alpha virt. eigenvalues --    0.14856   0.15071   0.15390   0.15512   0.15754
 Alpha virt. eigenvalues --    0.15811   0.16431   0.16652   0.17034   0.17569
 Alpha virt. eigenvalues --    0.17777   0.17946   0.18175   0.18199   0.18518
 Alpha virt. eigenvalues --    0.18892   0.19389   0.19521   0.19960   0.20314
 Alpha virt. eigenvalues --    0.20501   0.20569   0.20827   0.20962   0.21420
 Alpha virt. eigenvalues --    0.21535   0.21870   0.21889   0.22303   0.22321
 Alpha virt. eigenvalues --    0.22702   0.22837   0.23126   0.23164   0.23371
 Alpha virt. eigenvalues --    0.23645   0.23774   0.23987   0.24050   0.24729
 Alpha virt. eigenvalues --    0.32132   0.32231   0.32611   0.34857   0.35552
          Condensed to atoms (all electrons):
               1          2          3          4          5          6
     1  C    4.463956   0.000000   0.000000   0.000000   0.000000   0.000000
     2  C    0.000000   4.227514   0.000000   0.000000   0.000000   0.000000
     3  C    0.000000   0.000000   4.266643   0.000000   0.000000   0.000000
     4  C    0.000000   0.000000   0.000000   4.266490   0.000000   0.000000
     5  C    0.000000   0.000000   0.000000   0.000000   4.264746   0.000000
     6  C    0.000000   0.000000   0.000000   0.000000   0.000000   4.265261
     7  C    0.000000   0.000000   0.000000   0.000000   0.000000   0.000000
     8  C    0.000000   0.000000   0.000000   0.000000   0.000000   0.000000
     9  C    0.000000   0.000000   0.000000   0.000000   0.000000   0.000000
    10  C    0.000000   0.000000   0.000000   0.000000   0.000000   0.000000
    11  C    0.000000   0.000000   0.000000   0.000000   0.000000   0.000000
    12  C    0.000000   0.000000   0.000000   0.000000   0.000000   0.000000
    13  C    0.000000   0.000000   0.000000   0.000000   0.000000   0.000000
    14  C    0.000000   0.000000   0.000000   0.000000   0.000000   0.000000
    15  C    0.000000   0.000000   0.000000   0.000000   0.000000   0.000000
    16  C    0.000000   0.000000   0.000000   0.000000   0.000000   0.000000
    17  C    0.000000   0.000000   0.000000   0.000000   0.000000   0.000000
    18  S    0.000000   0.000000   0.000000   0.000000   0.000000   0.000000
    19  O    0.000000   0.000000   0.000000   0.000000   0.000000   0.000000
    20  O    0.000000   0.000000   0.000000   0.000000   0.000000   0.000000
    21  O    0.000000   0.000000   0.000000   0.000000   0.000000   0.000000
    22  Na   0.000000   0.000000   0.000000   0.000000   0.000000   0.000000
    23  H    0.000000   0.000000   0.000000   0.000000   0.000000   0.000000
    24  H    0.000000   0.000000   0.000000   0.000000   0.000000   0.000000
    25  H    0.000000   0.000000   0.000000   0.000000   0.000000   0.000000
    26  H    0.000000   0.000000   0.000000   0.000000   0.000000   0.000000
    27  H    0.000000   0.000000   0.000000   0.000000   0.000000   0.000000
    28  H    0.000000   0.000000   0.000000   0.000000   0.000000   0.000000
    29  H    0.000000   0.000000   0.000000   0.000000   0.000000   0.000000
    30  H    0.000000   0.000000   0.000000   0.000000   0.000000   0.000000
    31  H    0.000000   0.000000   0.000000   0.000000   0.000000   0.000000
    32  H    0.000000   0.000000   0.000000   0.000000   0.000000   0.000000
    33  H    0.000000   0.000000   0.000000   0.000000   0.000000   0.000000
    34  H    0.000000   0.000000   0.000000   0.000000   0.000000   0.000000
    35  H    0.000000   0.000000   0.000000   0.000000   0.000000   0.000000
    36  H    0.000000   0.000000   0.000000   0.000000   0.000000   0.000000
    37  H    0.000000   0.000000   0.000000   0.000000   0.000000   0.000000
    38  H    0.000000   0.000000   0.000000   0.000000   0.000000   0.000000
    39  H    0.000000   0.000000   0.000000   0.000000   0.000000   0.000000
    40  H    0.000000   0.000000   0.000000   0.000000   0.000000   0.000000
    41  H    0.000000   0.000000   0.000000   0.000000   0.000000   0.000000
    42  H    0.000000   0.000000   0.000000   0.000000   0.000000   0.000000
    43  H    0.000000   0.000000   0.000000   0.000000   0.000000   0.000000
    44  H    0.000000   0.000000   0.000000   0.000000   0.000000   0.000000
    45  H    0.000000   0.000000   0.000000   0.000000   0.000000   0.000000
    46  H    0.000000   0.000000   0.000000   0.000000   0.000000   0.000000
    47  H    0.000000   0.000000   0.000000   0.000000   0.000000   0.000000
    48  H    0.000000   0.000000   0.000000   0.000000   0.000000   0.000000
    49  H    0.000000   0.000000   0.000000   0.000000   0.000000   0.000000
               7          8          9         10         11         12
     1  C    0.000000   0.000000   0.000000   0.000000   0.000000   0.000000
     2  C    0.000000   0.000000   0.000000   0.000000   0.000000   0.000000
     3  C    0.000000   0.000000   0.000000   0.000000   0.000000   0.000000
     4  C    0.000000   0.000000   0.000000   0.000000   0.000000   0.000000
     5  C    0.000000   0.000000   0.000000   0.000000   0.000000   0.000000
     6  C    0.000000   0.000000   0.000000   0.000000   0.000000   0.000000
     7  C    4.264687   0.000000   0.000000   0.000000   0.000000   0.000000
     8  C    0.000000   4.264308   0.000000   0.000000   0.000000   0.000000
     9  C    0.000000   0.000000   4.269076   0.000000   0.000000   0.000000
    10  C    0.000000   0.000000   0.000000   4.242332   0.000000   0.000000
    11  C    0.000000   0.000000   0.000000   0.000000   4.324895   0.000000
    12  C    0.000000   0.000000   0.000000   0.000000   0.000000   3.840813
    13  C    0.000000   0.000000   0.000000   0.000000   0.000000   0.000000
    14  C    0.000000   0.000000   0.000000   0.000000   0.000000   0.000000
    15  C    0.000000   0.000000   0.000000   0.000000   0.000000   0.000000
    16  C    0.000000   0.000000   0.000000   0.000000   0.000000   0.000000
    17  C    0.000000   0.000000   0.000000   0.000000   0.000000   0.000000
    18  S    0.000000   0.000000   0.000000   0.000000   0.000000   0.000000
    19  O    0.000000   0.000000   0.000000   0.000000   0.000000   0.000000
    20  O    0.000000   0.000000   0.000000   0.000000   0.000000   0.000000
    21  O    0.000000   0.000000   0.000000   0.000000   0.000000   0.000000
    22  Na   0.000000   0.000000   0.000000   0.000000   0.000000   0.000000
    23  H    0.000000   0.000000   0.000000   0.000000   0.000000   0.000000
    24  H    0.000000   0.000000   0.000000   0.000000   0.000000   0.000000
    25  H    0.000000   0.000000   0.000000   0.000000   0.000000   0.000000
    26  H    0.000000   0.000000   0.000000   0.000000   0.000000   0.000000
    27  H    0.000000   0.000000   0.000000   0.000000   0.000000   0.000000
    28  H    0.000000   0.000000   0.000000   0.000000   0.000000   0.000000
    29  H    0.000000   0.000000   0.000000   0.000000   0.000000   0.000000
    30  H    0.000000   0.000000   0.000000   0.000000   0.000000   0.000000
    31  H    0.000000   0.000000   0.000000   0.000000   0.000000   0.000000
    32  H    0.000000   0.000000   0.000000   0.000000   0.000000   0.000000
    33  H    0.000000   0.000000   0.000000   0.000000   0.000000   0.000000
    34  H    0.000000   0.000000   0.000000   0.000000   0.000000   0.000000
    35  H    0.000000   0.000000   0.000000   0.000000   0.000000   0.000000
    36  H    0.000000   0.000000   0.000000   0.000000   0.000000   0.000000
    37  H    0.000000   0.000000   0.000000   0.000000   0.000000   0.000000
    38  H    0.000000   0.000000   0.000000   0.000000   0.000000   0.000000
    39  H    0.000000   0.000000   0.000000   0.000000   0.000000   0.000000
    40  H    0.000000   0.000000   0.000000   0.000000   0.000000   0.000000
    41  H    0.000000   0.000000   0.000000   0.000000   0.000000   0.000000
    42  H    0.000000   0.000000   0.000000   0.000000   0.000000   0.000000
    43  H    0.000000   0.000000   0.000000   0.000000   0.000000   0.000000
    44  H    0.000000   0.000000   0.000000   0.000000   0.000000   0.000000
    45  H    0.000000   0.000000   0.000000   0.000000   0.000000   0.000000
    46  H    0.000000   0.000000   0.000000   0.000000   0.000000   0.000000
    47  H    0.000000   0.000000   0.000000   0.000000   0.000000   0.000000
    48  H    0.000000   0.000000   0.000000   0.000000   0.000000   0.000000
    49  H    0.000000   0.000000   0.000000   0.000000   0.000000   0.000000
              13         14         15         16         17         18
     1  C    0.000000   0.000000   0.000000   0.000000   0.000000   0.000000
     2  C    0.000000   0.000000   0.000000   0.000000   0.000000   0.000000
     3  C    0.000000   0.000000   0.000000   0.000000   0.000000   0.000000
     4  C    0.000000   0.000000   0.000000   0.000000   0.000000   0.000000
     5  C    0.000000   0.000000   0.000000   0.000000   0.000000   0.000000
     6  C    0.000000   0.000000   0.000000   0.000000   0.000000   0.000000
     7  C    0.000000   0.000000   0.000000   0.000000   0.000000   0.000000
     8  C    0.000000   0.000000   0.000000   0.000000   0.000000   0.000000
     9  C    0.000000   0.000000   0.000000   0.000000   0.000000   0.000000
    10  C    0.000000   0.000000   0.000000   0.000000   0.000000   0.000000
    11  C    0.000000   0.000000   0.000000   0.000000   0.000000   0.000000
    12  C    0.000000   0.000000   0.000000   0.000000   0.000000   0.000000
    13  C    4.274184   0.000000   0.000000   0.000000   0.000000   0.000000
    14  C    0.000000   4.018771   0.000000   0.000000   0.000000   0.000000
    15  C    0.000000   0.000000   4.539609   0.000000   0.000000   0.000000
    16  C    0.000000   0.000000   0.000000   3.959261   0.000000   0.000000
    17  C    0.000000   0.000000   0.000000   0.000000   4.270974   0.000000
    18  S    0.000000   0.000000   0.000000   0.000000   0.000000   3.644582
    19  O    0.000000   0.000000   0.000000   0.000000   0.000000   0.000000
    20  O    0.000000   0.000000   0.000000   0.000000   0.000000   0.000000
    21  O    0.000000   0.000000   0.000000   0.000000   0.000000   0.000000
    22  Na   0.000000   0.000000   0.000000   0.000000   0.000000   0.000000
    23  H    0.000000   0.000000   0.000000   0.000000   0.000000   0.000000
    24  H    0.000000   0.000000   0.000000   0.000000   0.000000   0.000000
    25  H    0.000000   0.000000   0.000000   0.000000   0.000000   0.000000
    26  H    0.000000   0.000000   0.000000   0.000000   0.000000   0.000000
    27  H    0.000000   0.000000   0.000000   0.000000   0.000000   0.000000
    28  H    0.000000   0.000000   0.000000   0.000000   0.000000   0.000000
    29  H    0.000000   0.000000   0.000000   0.000000   0.000000   0.000000
    30  H    0.000000   0.000000   0.000000   0.000000   0.000000   0.000000
    31  H    0.000000   0.000000   0.000000   0.000000   0.000000   0.000000
    32  H    0.000000   0.000000   0.000000   0.000000   0.000000   0.000000
    33  H    0.000000   0.000000   0.000000   0.000000   0.000000   0.000000
    34  H    0.000000   0.000000   0.000000   0.000000   0.000000   0.000000
    35  H    0.000000   0.000000   0.000000   0.000000   0.000000   0.000000
    36  H    0.000000   0.000000   0.000000   0.000000   0.000000   0.000000
    37  H    0.000000   0.000000   0.000000   0.000000   0.000000   0.000000
    38  H    0.000000   0.000000   0.000000   0.000000   0.000000   0.000000
    39  H    0.000000   0.000000   0.000000   0.000000   0.000000   0.000000
    40  H    0.000000   0.000000   0.000000   0.000000   0.000000   0.000000
    41  H    0.000000   0.000000   0.000000   0.000000   0.000000   0.000000
    42  H    0.000000   0.000000   0.000000   0.000000   0.000000   0.000000
    43  H    0.000000   0.000000   0.000000   0.000000   0.000000   0.000000
    44  H    0.000000   0.000000   0.000000   0.000000   0.000000   0.000000
    45  H    0.000000   0.000000   0.000000   0.000000   0.000000   0.000000
    46  H    0.000000   0.000000   0.000000   0.000000   0.000000   0.000000
    47  H    0.000000   0.000000   0.000000   0.000000   0.000000   0.000000
    48  H    0.000000   0.000000   0.000000   0.000000   0.000000   0.000000
    49  H    0.000000   0.000000   0.000000   0.000000   0.000000   0.000000
              19         20         21         22         23         24
     1  C    0.000000   0.000000   0.000000   0.000000   0.000000   0.000000
     2  C    0.000000   0.000000   0.000000   0.000000   0.000000   0.000000
     3  C    0.000000   0.000000   0.000000   0.000000   0.000000   0.000000
     4  C    0.000000   0.000000   0.000000   0.000000   0.000000   0.000000
     5  C    0.000000   0.000000   0.000000   0.000000   0.000000   0.000000
     6  C    0.000000   0.000000   0.000000   0.000000   0.000000   0.000000
     7  C    0.000000   0.000000   0.000000   0.000000   0.000000   0.000000
     8  C    0.000000   0.000000   0.000000   0.000000   0.000000   0.000000
     9  C    0.000000   0.000000   0.000000   0.000000   0.000000   0.000000
    10  C    0.000000   0.000000   0.000000   0.000000   0.000000   0.000000
    11  C    0.000000   0.000000   0.000000   0.000000   0.000000   0.000000
    12  C    0.000000   0.000000   0.000000   0.000000   0.000000   0.000000
    13  C    0.000000   0.000000   0.000000   0.000000   0.000000   0.000000
    14  C    0.000000   0.000000   0.000000   0.000000   0.000000   0.000000
    15  C    0.000000   0.000000   0.000000   0.000000   0.000000   0.000000
    16  C    0.000000   0.000000   0.000000   0.000000   0.000000   0.000000
    17  C    0.000000   0.000000   0.000000   0.000000   0.000000   0.000000
    18  S    0.000000   0.000000   0.000000   0.000000   0.000000   0.000000
    19  O    6.934188   0.000000   0.000000   0.000000   0.000000   0.000000
    20  O    0.000000   7.008920   0.000000   0.000000   0.000000   0.000000
    21  O    0.000000   0.000000   6.923146   0.000000   0.000000   0.000000
    22  Na   0.000000   0.000000   0.000000   0.267492   0.000000   0.000000
    23  H    0.000000   0.000000   0.000000   0.000000   0.852241   0.000000
    24  H    0.000000   0.000000   0.000000   0.000000   0.000000   0.852266
    25  H    0.000000   0.000000   0.000000   0.000000   0.000000   0.000000
    26  H    0.000000   0.000000   0.000000   0.000000   0.000000   0.000000
    27  H    0.000000   0.000000   0.000000   0.000000   0.000000   0.000000
    28  H    0.000000   0.000000   0.000000   0.000000   0.000000   0.000000
    29  H    0.000000   0.000000   0.000000   0.000000   0.000000   0.000000
    30  H    0.000000   0.000000   0.000000   0.000000   0.000000   0.000000
    31  H    0.000000   0.000000   0.000000   0.000000   0.000000   0.000000
    32  H    0.000000   0.000000   0.000000   0.000000   0.000000   0.000000
    33  H    0.000000   0.000000   0.000000   0.000000   0.000000   0.000000
    34  H    0.000000   0.000000   0.000000   0.000000   0.000000   0.000000
    35  H    0.000000   0.000000   0.000000   0.000000   0.000000   0.000000
    36  H    0.000000   0.000000   0.000000   0.000000   0.000000   0.000000
    37  H    0.000000   0.000000   0.000000   0.000000   0.000000   0.000000
    38  H    0.000000   0.000000   0.000000   0.000000   0.000000   0.000000
    39  H    0.000000   0.000000   0.000000   0.000000   0.000000   0.000000
    40  H    0.000000   0.000000   0.000000   0.000000   0.000000   0.000000
    41  H    0.000000   0.000000   0.000000   0.000000   0.000000   0.000000
    42  H    0.000000   0.000000   0.000000   0.000000   0.000000   0.000000
    43  H    0.000000   0.000000   0.000000   0.000000   0.000000   0.000000
    44  H    0.000000   0.000000   0.000000   0.000000   0.000000   0.000000
    45  H    0.000000   0.000000   0.000000   0.000000   0.000000   0.000000
    46  H    0.000000   0.000000   0.000000   0.000000   0.000000   0.000000
    47  H    0.000000   0.000000   0.000000   0.000000   0.000000   0.000000
    48  H    0.000000   0.000000   0.000000   0.000000   0.000000   0.000000
    49  H    0.000000   0.000000   0.000000   0.000000   0.000000   0.000000
              25         26         27         28         29         30
     1  C    0.000000   0.000000   0.000000   0.000000   0.000000   0.000000
     2  C    0.000000   0.000000   0.000000   0.000000   0.000000   0.000000
     3  C    0.000000   0.000000   0.000000   0.000000   0.000000   0.000000
     4  C    0.000000   0.000000   0.000000   0.000000   0.000000   0.000000
     5  C    0.000000   0.000000   0.000000   0.000000   0.000000   0.000000
     6  C    0.000000   0.000000   0.000000   0.000000   0.000000   0.000000
     7  C    0.000000   0.000000   0.000000   0.000000   0.000000   0.000000
     8  C    0.000000   0.000000   0.000000   0.000000   0.000000   0.000000
     9  C    0.000000   0.000000   0.000000   0.000000   0.000000   0.000000
    10  C    0.000000   0.000000   0.000000   0.000000   0.000000   0.000000
    11  C    0.000000   0.000000   0.000000   0.000000   0.000000   0.000000
    12  C    0.000000   0.000000   0.000000   0.000000   0.000000   0.000000
    13  C    0.000000   0.000000   0.000000   0.000000   0.000000   0.000000
    14  C    0.000000   0.000000   0.000000   0.000000   0.000000   0.000000
    15  C    0.000000   0.000000   0.000000   0.000000   0.000000   0.000000
    16  C    0.000000   0.000000   0.000000   0.000000   0.000000   0.000000
    17  C    0.000000   0.000000   0.000000   0.000000   0.000000   0.000000
    18  S    0.000000   0.000000   0.000000   0.000000   0.000000   0.000000
    19  O    0.000000   0.000000   0.000000   0.000000   0.000000   0.000000
    20  O    0.000000   0.000000   0.000000   0.000000   0.000000   0.000000
    21  O    0.000000   0.000000   0.000000   0.000000   0.000000   0.000000
    22  Na   0.000000   0.000000   0.000000   0.000000   0.000000   0.000000
    23  H    0.000000   0.000000   0.000000   0.000000   0.000000   0.000000
    24  H    0.000000   0.000000   0.000000   0.000000   0.000000   0.000000
    25  H    0.854734   0.000000   0.000000   0.000000   0.000000   0.000000
    26  H    0.000000   0.872430   0.000000   0.000000   0.000000   0.000000
    27  H    0.000000   0.000000   0.872256   0.000000   0.000000   0.000000
    28  H    0.000000   0.000000   0.000000   0.867035   0.000000   0.000000
    29  H    0.000000   0.000000   0.000000   0.000000   0.867247   0.000000
    30  H    0.000000   0.000000   0.000000   0.000000   0.000000   0.866931
    31  H    0.000000   0.000000   0.000000   0.000000   0.000000   0.000000
    32  H    0.000000   0.000000   0.000000   0.000000   0.000000   0.000000
    33  H    0.000000   0.000000   0.000000   0.000000   0.000000   0.000000
    34  H    0.000000   0.000000   0.000000   0.000000   0.000000   0.000000
    35  H    0.000000   0.000000   0.000000   0.000000   0.000000   0.000000
[...]
 -0.00061695,-0.00019346,-0.00057528,0.05620772,0.00000199,-0.00000570,
 0.00000063,0.00000063,-0.00000349,0.00000073,0.00000116,-0.00000524,0.
 00000147,0.00000031,-0.00000790,0.00000163,0.00000093,-0.00000991,0.00
 000432,-0.00000231,-0.00001858,0.00000386,-0.00000244,-0.00002353,0.00
 001527,-0.00001582,-0.00005968,0.00000633,-0.00000599,-0.00007679,0.00
 004201,0.00003252,-0.00017784,-0.00002087,0.00043021,-0.00052311,-0.00
 038060,0.01009736,-0.01870855,0.01659667,-0.02064240,-0.18358712,0.067
 87523,-0.01571088,-0.02198784,0.00841675,-0.00217399,0.00168619,0.0011
 7122,0.00071904,0.00035758,0.00007463,0.00001926,0.00035410,0.00239278
 ,-0.00142982,-0.00057214,0.00004538,0.00033482,0.00026665,-0.00007275,
 0.00055208,-0.00017253,-0.00012834,0.00043331,0.00015637,0.00025334,-0
 .00135028,0.00029193,-0.00032240,-0.00000096,0.00000189,-0.00000011,-0
 .00000062,0.00000171,-0.00000018,-0.00000065,0.00000154,-0.00000024,-0
 .00000069,0.00000190,-0.00000045,-0.00000001,0.00000182,-0.00000039,-0
 .00000043,0.00000221,-0.00000047,-0.00000139,0.00000296,-0.00000034,-0
 .00000124,0.00000387,-0.00000122,0.00000051,0.00000312,-0.00000092,-0.
 00000005,0.00000400,-0.00000079,-0.00000304,0.00000637,-0.00000102,-0.
 00000269,0.00000920,-0.00000360,0.00000256,0.00000555,-0.00000233,0.00
 000188,0.00000795,-0.00000087,-0.00000911,0.00001720,-0.00000384,-0.00
 000640,0.00003014,-0.00001274,0.00001332,0.00000990,-0.00000687,0.0000
 0466,0.00001587,0.00000358,-0.00004511,0.00006069,-0.00001706,0.000073
 72,0.00014361,-0.00007462,0.00007662,-0.00000279,0.00000555,-0.0001050
 4,-0.00001082,0.00004652,-0.00002173,0.00033122,-0.00000030,0.02855610
 ,0.22269156,-0.00000622,0.00000032,-0.00000151,-0.00000163,0.00000080,
 -0.00000186,-0.00000360,0.00000085,-0.00000257,-0.00000502,0.00000141,
 -0.00000366,-0.00000556,0.00000143,-0.00000682,-0.00000743,0.00000489,
 -0.00000944,-0.00000747,0.00000206,-0.00002478,-0.00000138,0.00002450,
 -0.00003082,0.00000989,-0.00000906,-0.00014848,0.00006519,0.00016898,-
 0.00003926,-0.00014244,-0.00025197,-0.00147138,-0.00771130,0.02052438,
 -0.00728082,0.01157769,0.06816206,-0.07213715,0.00274575,0.00410337,0.
 00353852,-0.00148432,0.00117678,0.00422945,-0.00036602,-0.00015697,-0.
 00003027,-0.00233250,0.00243031,0.00275372,0.00069989,0.00043621,0.000
 50816,-0.00016476,-0.00021676,-0.00004678,-0.00028440,-0.00008609,-0.0
 0009314,-0.00012944,-0.00001974,-0.00044033,0.00012689,-0.00006816,0.0
 0066686,0.00000150,0.00000019,0.00000063,0.00000156,-0.00000034,0.0000
 0100,0.00000136,-0.00000044,0.00000028,0.00000163,-0.00000021,0.000000
 48,0.00000135,-0.00000075,0.00000071,0.00000147,-0.00000041,0.00000171
 ,0.00000174,0.00000002,0.00000127,0.00000346,-0.00000061,0.00000133,0.
 00000239,-0.00000117,0.00000143,0.00000173,-0.00000081,0.00000334,0.00
 000305,-0.00000040,0.00000301,0.00000824,-0.00000217,0.00000431,0.0000
 0411,-0.00000206,0.00000351,0.00000014,-0.00000172,0.00000722,0.000006
 03,-0.00000248,0.00000920,0.00002933,-0.00001048,0.00001789,0.00000780
 ,-0.00000300,0.00000996,-0.00001943,-0.00000360,0.00001564,0.00000907,
 -0.00001196,0.00004028,0.00016803,-0.00006048,0.00010938,0.00002877,-0
 .00000286,0.00002224,-0.00009638,0.00004355,-0.00000294,-0.00061083,-0
 .00023754,-0.00002440,-0.00280817,-0.09489537,0.07160313,0.00000062,0.
 00000037,-0.00000002,0.00000004,0.00000013,0.00000015,0.00000014,0.000
 00025,0.00000028,0.00000009,0.00000023,0.00000041,-0.00000019,0.000000
 43,0.00000108,-0.00000078,0.00000002,0.00000130,-0.00000201,0.00000126
 ,0.00000452,-0.00000626,-0.00000255,0.00000380,-0.00001403,0.00000716,
 0.00002579,-0.00001873,-0.00002150,-0.00001505,-0.00044588,0.00027268,
 -0.00017635,-0.00141273,-0.00259448,-0.00116874,-0.03262644,0.00345628
 ,-0.01527832,-0.13217643,0.04867986,-0.05755726,0.00015618,0.00597381,
 -0.00510442,0.00061910,-0.00063891,-0.00113417,0.00025307,-0.00008534,
 0.00015439,0.00211999,-0.00275755,0.00183464,-0.00019906,0.00003797,-0
 .00004398,-0.00028152,0.00063042,-0.00047249,-0.00039651,0.00049710,0.
 00005563,-0.01517220,-0.00195558,-0.00370161,-0.00000015,-0.00000012,-
 0.00000002,-0.00000017,-0.00000007,-0.00000007,-0.00000017,-0.00000006
 ,0.00000004,-0.00000015,-0.00000010,-0.00000002,-0.00000014,-0.0000000
 9,-0.00000005,-0.00000006,-0.00000012,-0.00000009,-0.00000010,-0.00000
 010,-0.00000012,-0.00000030,-0.00000012,-0.00000021,-0.00000018,-0.000
 00025,-0.00000013,0.00000015,-0.00000022,-0.00000018,-0.00000006,0.000
 00004,-0.00000037,-0.00000070,-0.00000009,-0.00000091,-0.00000016,-0.0
 0000073,-0.00000044,0.00000111,-0.00000051,-0.00000024,0.00000018,0.00
 000078,-0.00000121,-0.00000252,0.00000020,-0.00000377,-0.00000005,-0.0
 0000295,-0.00000141,0.00000567,-0.00000235,0.00000100,0.00000107,0.000
 00501,-0.00000457,-0.00001646,0.00000272,-0.00002139,-0.00000152,-0.00
 001961,-0.00000152,-0.00005879,-0.00005942,0.00003200,0.00002139,0.000
 06264,-0.00000319,-0.00040126,-0.00000053,0.00035859,0.18019830,0.0000
 0052,-0.00000074,-0.00000059,0.00000003,-0.00000043,-0.00000015,0.0000
 0028,-0.00000064,-0.00000035,0.00000025,-0.00000084,-0.00000042,0.0000
 0055,-0.00000105,-0.00000055,0.00000050,-0.00000149,-0.00000068,0.0000
 0143,-0.00000197,-0.00000122,0.00000291,-0.00000141,-0.00000053,0.0000
 0170,-0.00000884,-0.00000837,0.00003396,0.00001294,-0.00000486,-0.0001
 4500,0.00004288,-0.00034036,-0.00169234,0.00014715,0.00231408,-0.00981
 305,0.00563880,-0.00366182,0.05045437,-0.06099610,0.02804716,0.0188306
 8,-0.02095781,0.02062183,-0.00186842,-0.00159283,0.00264230,0.00013467
 ,0.00044590,-0.00020597,0.00019834,-0.00411598,0.00274303,-0.00024912,
 0.00012589,-0.00022293,0.00003376,0.00023701,-0.00054367,-0.00004968,0
 .00080416,-0.00061312,-0.00434716,-0.00265952,-0.00107338,-0.00000015,
 0.00000023,0.00000019,-0.00000015,0.00000024,0.00000016,-0.00000008,0.
 00000024,0.00000017,-0.00000003,0.00000023,0.00000013,0.,0.00000027,0.
 00000015,-0.00000016,0.00000026,0.00000010,-0.00000020,0.00000027,0.00
 000016,-0.00000006,0.00000043,0.00000023,0.,0.00000046,0.00000019,-0.0
 0000029,0.00000042,0.00000016,-0.00000041,0.00000048,0.00000025,-0.000
 00011,0.00000087,0.00000043,0.00000004,0.00000083,0.00000037,-0.000000
 50,0.00000073,0.00000019,-0.00000080,0.00000095,0.00000032,-0.00000020
 ,0.00000191,0.00000120,-0.00000009,0.00000176,0.00000103,-0.00000062,0
 .00000033,0.00000013,-0.00000125,0.00000270,-0.00000054,0.00001383,-0.
 00000126,0.00000474,-0.00000211,0.00000686,-0.00000027,-0.00005393,-0.
 00002588,-0.00000042,0.00000128,0.00002130,0.00001515,-0.00041068,0.00
 007079,-0.00091860,-0.05164937,0.08305290,-0.00000236,-0.00000061,-0.0
 0000026,-0.00000054,-0.00000014,-0.00000055,-0.00000131,-0.00000032,-0
 .00000055,-0.00000193,-0.00000052,-0.00000087,-0.00000213,-0.00000063,
 -0.00000120,-0.00000337,-0.00000090,-0.00000199,-0.00000372,-0.0000014
 1,-0.00000317,-0.00000624,-0.00000171,-0.00000559,-0.00000223,-0.00000
 648,-0.00001377,0.00001866,0.00000732,-0.00000831,0.00005329,-0.000113
 27,-0.00033597,-0.00161900,0.00188669,0.00403211,-0.00841855,0.0010540
 0,0.00181732,-0.05844295,0.02745454,-0.07665345,-0.01181185,0.01602430
 ,-0.00677772,-0.00051255,0.00308091,0.00295717,0.00003780,-0.00025632,
 0.00012743,0.00029620,0.00169456,0.00022966,0.00010583,-0.00012206,-0.
 00003139,0.00011163,-0.00083444,-0.00012892,0.00006782,0.00008547,-0.0
 0058380,-0.00244820,-0.00022770,-0.00252022,0.00000050,0.00000032,0.00
 000013,0.00000058,0.00000007,0.00000028,0.00000047,0.00000002,0.,0.000
 00052,0.00000019,0.00000009,0.00000053,-0.00000005,0.00000016,0.000000
 59,0.00000010,0.00000049,0.00000052,0.00000039,0.00000031,0.00000104,0
 .00000032,0.00000022,0.00000099,-0.00000006,0.00000035,0.00000085,0.00
 000014,0.00000089,0.00000079,0.00000066,0.00000062,0.00000207,0.000000
 62,0.00000065,0.00000180,-0.00000014,0.00000078,0.00000115,0.00000017,
 0.00000181,0.00000112,0.00000127,0.00000146,0.00000502,0.00000160,0.00
 000220,0.00000391,-0.00000052,0.00000212,0.00000038,0.00000016,0.00000
 420,0.00000011,0.00000262,0.00000412,0.00001350,0.00001303,0.00001111,
 0.00000991,-0.00000804,0.00001207,-0.00001568,-0.00001927,0.00001232,-
 0.00002429,0.00000323,0.00000826,0.00057767,-0.00077975,-0.00080757,0.
 08197223,-0.04856736,0.07952644,0.00000308,0.00000113,-0.00000187,0.00
 000018,0.00000047,-0.00000025,0.00000124,0.00000079,-0.00000097,0.0000
 0161,0.00000131,-0.00000101,0.00000178,0.00000172,-0.00000115,0.000002
 02,0.00000264,-0.00000143,0.00000205,0.00000428,-0.00000052,0.00000063
 ,0.00000605,-0.00000129,-0.00000682,0.00001248,0.00001127,-0.00000792,
 -0.00000377,-0.00001324,-0.00008751,-0.00036784,0.00033596,-0.00194655
 ,-0.00157609,-0.00182650,0.00014599,0.00004264,0.00002327,-0.00150173,
 -0.00017271,-0.00233870,-0.00282184,0.02088099,-0.01386895,-0.03594869
 ,-0.01504848,0.01072177,-0.01055375,-0.02777806,0.00840489,-0.00213721
 ,0.00509415,-0.00364951,0.00152139,-0.00116212,0.00147671,-0.00008355,
 -0.00071247,0.00026149,-0.00013256,-0.00055061,0.00051092,-0.00010675,
 0.00036239,-0.00025961,-0.00000060,-0.00000055,0.00000049,-0.00000082,
 -0.00000020,0.00000026,-0.00000053,-0.00000011,0.00000059,-0.00000028,
 -0.00000034,0.00000055,-0.00000051,-0.00000007,0.00000037,-0.00000075,
 -0.00000038,0.00000013,-0.00000049,-0.00000071,0.00000032,-0.00000056,
 -0.00000062,0.00000085,-0.00000094,-0.00000035,0.00000062,-0.00000109,
 -0.00000078,0.00000019,-0.00000065,-0.00000116,0.00000040,-0.00000089,
 -0.00000119,0.00000129,-0.00000157,-0.00000113,0.00000110,-0.00000130,
 -0.00000186,0.00000020,-0.00000059,-0.00000187,0.00000028,-0.00000204,
 -0.00000269,0.00000183,-0.00000322,-0.00000442,0.00000222,0.00000155,-
 0.00000574,0.00000018,0.00000040,-0.00000132,-0.00000210,-0.00000731,-
 0.00001051,0.00000106,-0.00000721,-0.00001986,-0.00000378,0.00004625,0
 .00000369,0.00002726,-0.00007200,-0.00002376,-0.00000735,-0.00008564,0
 .00007223,0.00022697,-0.00000844,0.00045319,-0.00013619,0.05434453,0.0
 0001013,-0.00000266,-0.00000404,0.00000181,-0.00000195,0.00000022,0.00
 000566,-0.00000304,-0.00000239,0.00000808,-0.00000271,-0.00000169,0.00
 001071,-0.00000452,-0.00000437,0.00001619,-0.00000402,-0.00000296,0.00
 002252,-0.00000826,-0.00001005,0.00003575,-0.00000448,-0.00000284,0.00
 005409,-0.00001381,-0.00002425,0.00006893,0.00002006,0.00003112,0.0002
 7384,-0.00019718,-0.00011834,-0.00206770,-0.00000806,0.00216608,-0.000
 34454,0.00060312,-0.00041900,0.00034041,0.00091464,0.00242647,0.007593
 55,-0.01901816,0.01553740,-0.01574856,-0.18110375,0.06559796,-0.015273
 57,-0.02015263,0.00840442,0.00364670,0.00563922,-0.00128263,0.00166410
 ,-0.00262404,0.00146376,-0.00075894,-0.00067479,0.00023597,-0.00066833
 ,-0.00094065,-0.00018322,0.00061276,-0.00024609,0.00039365,-0.00000227
 ,0.00000009,0.00000102,-0.00000276,0.00000134,0.00000016,-0.00000176,0
 .00000135,0.00000104,-0.00000130,0.00000069,0.00000116,-0.00000163,0.0
 0000225,0.00000029,-0.00000305,0.00000152,-0.00000048,-0.00000251,-0.0
 0000013,0.00000082,-0.00000268,0.00000104,0.00000230,-0.00000322,0.000
 00389,0.00000073,-0.00000563,0.00000261,-0.00000109,-0.00000454,-0.000
 00096,0.00000153,-0.00000497,0.00000151,0.00000484,-0.00000622,0.00000
 790,0.00000137,-0.00001144,0.00000500,-0.00000304,-0.00000861,-0.00000
 372,0.00000284,-0.00001065,0.00000197,0.00001119,-0.00001386,0.0000183
 1,0.00000298,-0.00002463,0.00000960,-0.00001001,-0.00001648,-0.0000127
 1,0.00000373,-0.00003488,0.00000010,0.00002661,-0.00003927,0.00004806,
 0.00001143,-0.00005969,-0.00000038,-0.00004680,-0.00007196,-0.00006319
 ,-0.00002233,0.00006364,-0.00035463,-0.00022493,0.00003574,-0.00009655
 ,-0.00008890,0.02109217,0.21810094,-0.00000667,-0.00000030,0.00000117,
 -0.00000128,0.00000016,-0.00000071,-0.00000365,0.00000027,0.00000030,-
 0.00000530,-0.00000053,-0.00000026,-0.00000644,0.00000006,0.00000038,-
 0.00000982,-0.00000151,-0.00000072,-0.00001217,-0.00000053,0.00000025,
 -0.00001711,-0.00000391,-0.00000314,-0.00002110,-0.00001060,-0.0000160
 1,0.00003413,0.00002093,-0.00002279,0.00006607,-0.00040066,-0.00040992
 ,-0.00164583,0.00239182,0.00381306,0.00023764,-0.00028900,0.00024655,-
 0.00261019,0.00222592,0.00326405,-0.00699104,0.02025849,-0.00731523,0.
 01113682,0.06586279,-0.07440605,0.00188041,0.00393377,0.00503234,-0.00
 289692,-0.00076293,0.00006650,0.00000881,0.00046063,-0.00117997,0.0005
 4038,0.00001792,-0.00030674,0.00031797,0.00009100,0.00000822,-0.000389
 89,0.00030470,-0.00020206,0.00000142,0.00000052,-0.00000020,0.00000178
 ,-0.00000026,0.00000039,0.00000123,-0.00000031,-0.00000036,0.00000103,
 0.00000019,-0.00000044,0.00000131,-0.00000066,0.00000013,0.00000190,-0
 .00000025,0.00000087,0.00000148,0.00000072,0.00000003,0.00000203,0.000
 00045,-0.00000087,0.00000250,-0.00000098,0.00000010,0.00000326,-0.0000
 0047,0.00000171,0.00000246,0.00000149,0.00000004,0.00000366,0.00000115
 ,-0.00000182,0.00000476,-0.00000181,0.00000027,0.00000609,-0.00000104,
 0.00000393,0.00000422,0.00000338,0.00000020,0.00000748,0.00000349,-0.0
 0000395,0.00001060,-0.00000301,0.00000100,0.00001141,-0.00000285,0.000
 01111,0.00000595,0.00000789,0.00000144,0.00001956,0.00001431,-0.000009
 01,0.00003801,0.00000730,0.00000213,0.00000451,-0.00000358,0.00005540,
 -0.00003823,0.00000253,0.00001446,0.00022724,-0.00022795,-0.00063009,0
 .00008207,0.00005697,-0.00029413,-0.00042223,-0.09307154,0.07283199,0.
 00000516,0.00000486,-0.00000716,-0.00000073,0.00000248,-0.00000233,0.0
 0000104,0.00000416,-0.00000506,0.00000082,0.00000598,-0.00000639,0.000
 00004,0.00000915,-0.00000798,-0.00000375,0.00001239,-0.00001347,-0.000
 01012,0.00002633,-0.00001158,-0.00004244,0.00002684,-0.00004106,-0.000
 08066,0.00012911,0.00000861,-0.00021805,0.00003422,-0.00022742,-0.0004
 4128,-0.00007693,0.00055517,0.00306485,0.00739927,-0.00493667,0.000184
 31,-0.00125388,-0.00112608,0.00048030,-0.00028142,0.00029794,-0.001679
 05,-0.00193235,-0.00137694,-0.03656979,0.00242205,-0.01613927,-0.14288
 276,0.06058228,-0.06722548,-0.00108798,-0.00049161,-0.00023292,0.00027
 710,0.00031409,-0.00000560,0.00032204,0.00007594,-0.00003269,0.0002385
 0,0.00019078,0.00019474,-0.00023864,0.00005311,-0.00012325,-0.00000076
 ,-0.00000200,0.00000194,-0.00000145,-0.00000126,0.00000156,-0.00000067
 ,-0.00000095,0.00000208,0.00000031,-0.00000141,0.00000214,-0.00000067,
 -0.00000095,0.00000180,-0.00000122,-0.00000212,0.00000196,-0.00000018,
 -0.00000275,0.00000184,0.00000066,-0.00000256,0.00000360,-0.00000114,-
 0.00000246,0.00000364,-0.00000177,-0.00000486,0.00000413,0.00000054,-0
 .00000483,0.00000301,0.00000273,-0.00000501,0.00000608,-0.00000126,-0.
 00000715,0.00000844,-0.00000193,-0.00001509,0.00001137,0.00000398,-0.0
 0000861,0.00000509,0.00001225,-0.00001023,0.00000803,0.00000152,-0.000
 03024,0.00002954,-0.00000009,-0.00007410,0.00004444,0.00002222,-0.0000
 0991,0.00000797,0.00004798,0.00000779,-0.00000071,0.00003859,-0.000180
 01,0.00020079,0.00009787,-0.00050773,0.00006304,0.00003266,0.00002749,
 0.00000606,0.00011949,0.00010869,0.00009506,-0.00013216,0.00012281,0.0
 0016700,-0.00054006,-0.00036042,0.00041005,0.17898377,0.00000302,-0.00
 000352,-0.00000050,0.00000104,-0.00000207,0.00000047,0.00000245,-0.000
 00351,-0.00000059,0.00000384,-0.00000404,0.00000009,0.00000585,-0.0000
 0661,-0.00000238,0.00001035,-0.00000754,-0.00000040,0.00001639,-0.0000
 1582,-0.00001066,0.00003264,-0.00001429,-0.00000210,0.00005762,-0.0000
 4499,-0.00005966,0.00008243,-0.00000292,0.00002125,0.00010545,-0.00133
 149,-0.00009820,0.01849129,-0.02259578,0.02130412,-0.00105019,-0.00139
 613,0.00315200,-0.00031676,-0.00002513,-0.00007649,-0.00259663,0.00028
 233,0.00153581,-0.00878860,0.00673610,-0.00367347,0.06075179,-0.068924
 08,0.03567818,0.00081451,0.00091442,-0.00005320,-0.00008902,-0.0004630
 3,0.00012416,-0.00033245,-0.00004175,0.00007012,-0.00021205,-0.0002174
 5,-0.00027124,0.00012006,-0.00003542,0.00007454,-0.00000079,0.00000084
 ,0.00000014,-0.00000084,0.00000128,-0.00000018,-0.00000050,0.00000114,
 0.,-0.00000051,0.00000095,0.00000011,-0.00000040,0.00000174,-0.0000002
 8,-0.00000120,0.00000177,-0.00000051,-0.00000117,0.00000090,0.00000026
 ,-0.00000108,0.00000165,0.00000060,-0.00000097,0.00000361,-0.00000046,
 -0.00000283,0.00000354,-0.00000104,-0.00000260,0.00000092,0.00000090,-
 0.00000214,0.00000292,0.00000220,-0.00000225,0.00000890,-0.00000105,-0
 .00000792,0.00000844,-0.00000234,-0.00000624,-0.00000053,0.00000307,-0
 .00000336,0.00000528,0.00000770,-0.00000557,0.00002833,-0.00000315,-0.
 00003090,0.00001912,-0.00000146,-0.00001469,-0.00001140,0.00001195,0.0
 0001544,0.00000916,0.00002053,-0.00004372,0.00012127,0.00004926,-0.000
 67482,-0.00067909,-0.00009813,0.00002823,-0.00004985,0.00004658,0.0003
 8768,-0.00023043,0.00010741,0.00012843,-0.00015779,-0.00028430,-0.0005
 7972,0.00015753,-0.00088610,-0.06628900,0.08795205,-0.00000718,-0.0000
 0073,-0.00000100,-0.00000193,-0.00000011,-0.00000171,-0.00000464,-0.00
 000002,-0.00000133,-0.00000731,-0.00000143,-0.00000239,-0.00000908,-0.
 00000048,-0.00000233,-0.00001521,-0.00000422,-0.00000520,-0.00002013,-
 0.00000320,-0.00000642,-0.00002956,-0.00001524,-0.00001759,-0.00002298
 ,-0.00004710,-0.00006449,0.00007299,0.00001251,-0.00003831,0.00045213,
 -0.00028786,-0.00143816,-0.01071923,0.01731745,-0.00684179,-0.00121422
 ,0.00308757,0.00333327,0.00027799,-0.00015175,0.00021852,-0.00111384,0
 .00185499,0.00368766,-0.01022712,0.00030105,0.00186754,-0.06736366,0.0
 3561217,-0.08337406,-0.00087418,-0.00049520,0.00022271,0.00019963,0.00
 026061,-0.00023201,0.00032657,-0.00002470,-0.00018948,0.00024023,0.000
 11162,0.00006026,-0.00015685,0.00004850,-0.00005224,0.00000148,0.00000
 065,0.00000049,0.00000183,-0.00000018,0.00000121,0.00000131,-0.0000002
 5,0.00000017,0.00000140,0.00000039,-0.00000003,0.00000166,-0.00000055,
 0.00000067,0.00000219,-0.00000025,0.00000212,0.00000172,0.00000097,0.0
 0000084,0.00000288,0.00000094,-0.00000041,0.00000348,-0.00000087,0.000
 00109,0.00000407,-0.00000067,0.00000450,0.00000299,0.00000222,0.000001
 46,0.00000572,0.00000261,-0.00000167,0.00000765,-0.00000155,0.00000219
 ,0.00000829,-0.00000222,0.00001196,0.00000492,0.00000564,0.00000319,0.
 00001371,0.00000954,-0.00000683,0.00002305,0.00000075,0.00000419,0.000
 01315,-0.00000789,0.00004570,-0.00000287,0.00001071,0.00001184,0.00002
 916,0.00005983,-0.00003881,0.00016342,0.00008238,-0.00005364,0.0000437
 7,0.00010461,0.00032018,-0.00014156,-0.00005841,0.00008241,-0.00004163
 ,-0.00000423,-0.00032300,0.00016602,-0.00028631,-0.00058911,0.00052437
 ,-0.00080886,-0.00055680,0.08937541,-0.05668510,0.08395179\\0.,0.,0.,0
 .,0.,0.,0.,0.,0.,0.,0.,0.,0.,0.,0.,0.,0.,0.,0.,0.,0.,0.,0.,0.,0.000000
 01,-0.00000002,-0.00000003,0.00000037,0.00000026,0.00000007,0.,-0.0000
 0033,-0.00000031,0.00000007,0.00000010,-0.00000012,-0.00000014,0.00000
 004,0.00000013,0.00000003,-0.00000006,0.00000011,-0.00000010,0.0000000
 2,-0.00000006,0.00000009,0.00000005,0.00000007,-0.00000024,-0.00000007
 ,0.00000022,0.00000007,-0.00000004,-0.00000013,0.,0.00000005,0.0000000
 9,0.,0.00000001,-0.00000002,-0.00000001,0.,0.,-0.00000015,0.,0.,0.,0.,
 0.,0.,0.,0.,0.,0.,0.,0.,0.,0.,0.,0.,0.,0.,0.,0.,0.,0.,0.,0.,0.,0.,0.,0
 .,0.,0.,0.,0.,0.,0.,0.,0.,0.,0.,0.,0.,0.,0.,0.,0.,0.,0.,0.,0.,0.,0.,0.
 ,0.,0.,0.,0.,0.,0.,0.,0.,0.00000015,-0.00000001,-0.00000007,0.00000014
 ,0.00000004,-0.00000012,-0.00000008,-0.00000012,0.00000005,-0.00000018
 ,0.,-0.00000003,-0.00000007,0.00000005,0.00000006,0.00000009,0.0000000
 4,0.,0.,0.,0.,-0.00000005,0.,0.00000010\\\@
 The archive entry for this job was punched.


 WHAT, THEN, IS TIME?  IF NO ONE ASKS ME, I KNOW WHAT IT IS.
 IF I WISH TO EXPLAIN WHAT IT IS TO HIM WHO ASKS ME, I DO NOT KNOW.
                                   -- ST. AUGUSTINE (FIFTH CENTURY)
 Job cpu time:       0 days  0 hours  0 minutes  2.7 seconds.
 Elapsed time:       0 days  0 hours  0 minutes  2.6 seconds.
 File lengths (MBytes):  RWF=    296 Int=      0 D2E=      0 Chk=      5 Scr=      1
 Normal termination of Gaussian 16 at Mon Apr 22 13:43:59 2024.
