 Entering Gaussian System, Link 0=g16
 Initial command:
 /home/app/g16/l1.exe "/home/A23321P/work/myGaussian/nanoMoS/mols/Gau-882358.inp" -scrdir="/home/A23321P/work/myGaussian/nanoMoS/mols/"
 Entering Link 1 = /home/app/g16/l1.exe PID=    882359.
  
 Copyright (c) 1988-2019, Gaussian, Inc.  All Rights Reserved.
  
 This is part of the Gaussian(R) 16 program.  It is based on
 the Gaussian(R) 09 system (copyright 2009, Gaussian, Inc.),
 the Gaussian(R) 03 system (copyright 2003, Gaussian, Inc.),
 the Gaussian(R) 98 system (copyright 1998, Gaussian, Inc.),
 the Gaussian(R) 94 system (copyright 1995, Gaussian, Inc.),
 the Gaussian 92(TM) system (copyright 1992, Gaussian, Inc.),
 the Gaussian 90(TM) system (copyright 1990, Gaussian, Inc.),
 the Gaussian 88(TM) system (copyright 1988, Gaussian, Inc.),
 the Gaussian 86(TM) system (copyright 1986, Carnegie Mellon
 University), and the Gaussian 82(TM) system (copyright 1983,
 Carnegie Mellon University). Gaussian is a federally registered
 trademark of Gaussian, Inc.
  
 This software contains proprietary and confidential information,
 including trade secrets, belonging to Gaussian, Inc.
  
 This software is provided under written license and may be
 used, copied, transmitted, or stored only in accord with that
 written license.
  
 The following legend is applicable only to US Government
 contracts under FAR:
  
                    RESTRICTED RIGHTS LEGEND
  
 Use, reproduction and disclosure by the US Government is
 subject to restrictions as set forth in subparagraphs (a)
 and (c) of the Commercial Computer Software - Restricted
 Rights clause in FAR 52.227-19.
  
 Gaussian, Inc.
 340 Quinnipiac St., Bldg. 40, Wallingford CT 06492
  
  
 ---------------------------------------------------------------
 Warning -- This program may not be used in any manner that
 competes with the business of Gaussian, Inc. or will provide
 assistance to any competitor of Gaussian, Inc.  The licensee
 of this program is prohibited from giving any competitor of
 Gaussian, Inc. access to this program.  By using this program,
 the user acknowledges that Gaussian, Inc. is engaged in the
 business of creating and licensing software in the field of
 computational chemistry and represents and warrants to the
 licensee that it is not a competitor of Gaussian, Inc. and that
 it will not use this program in any manner prohibited above.
 ---------------------------------------------------------------
  

 Cite this work as:
 Gaussian 16, Revision C.01,
 M. J. Frisch, G. W. Trucks, H. B. Schlegel, G. E. Scuseria, 
 M. A. Robb, J. R. Cheeseman, G. Scalmani, V. Barone, 
 G. A. Petersson, H. Nakatsuji, X. Li, M. Caricato, A. V. Marenich, 
 J. Bloino, B. G. Janesko, R. Gomperts, B. Mennucci, H. P. Hratchian, 
 J. V. Ortiz, A. F. Izmaylov, J. L. Sonnenberg, D. Williams-Young, 
 F. Ding, F. Lipparini, F. Egidi, J. Goings, B. Peng, A. Petrone, 
 T. Henderson, D. Ranasinghe, V. G. Zakrzewski, J. Gao, N. Rega, 
 G. Zheng, W. Liang, M. Hada, M. Ehara, K. Toyota, R. Fukuda, 
 J. Hasegawa, M. Ishida, T. Nakajima, Y. Honda, O. Kitao, H. Nakai, 
 T. Vreven, K. Throssell, J. A. Montgomery, Jr., J. E. Peralta, 
 F. Ogliaro, M. J. Bearpark, J. J. Heyd, E. N. Brothers, K. N. Kudin, 
 V. N. Staroverov, T. A. Keith, R. Kobayashi, J. Normand, 
 K. Raghavachari, A. P. Rendell, J. C. Burant, S. S. Iyengar, 
 J. Tomasi, M. Cossi, J. M. Millam, M. Klene, C. Adamo, R. Cammi, 
 J. W. Ochterski, R. L. Martin, K. Morokuma, O. Farkas, 
 J. B. Foresman, and D. J. Fox, Gaussian, Inc., Wallingford CT, 2019.
 
 ******************************************
 Gaussian 16:  ES64L-G16RevC.01  3-Jul-2019
                24-Apr-2024 
 ******************************************
 ---------------------------------------------------------------
 # PM6 Freq scf(tight,maxcycle=9999) opt(calcall,maxcycles=9999)
 ---------------------------------------------------------------
 1/6=9999,10=4,18=20,19=15,26=1,38=1/1,3;
 2/9=110,12=2,17=6,18=5,40=1/2;
 3/5=2,25=1,41=3900000,71=2,140=1/1,2,3;
 4/35=1/1;
 5/5=2,7=9999,32=2,35=1,38=5/2;
 8/6=4,10=90,11=11/1;
 11/6=1,8=1,9=11,15=111,16=1/1,2,10;
 10/6=1/2;
 6/7=2,8=2,9=2,10=2,18=1,28=1/1;
 7/10=1,25=1/1,2,3,16;
 1/6=9999,10=4,18=20,19=15,26=1/3(3);
 2/9=110/2;
 7/8=1,9=1,25=1,44=-1/16;
 99//99;
 2/9=110/2;
 3/5=2,25=1,41=3900000,71=2,135=20,140=1/1,2,3;
 4/5=5,16=3,35=1/1;
 5/5=2,7=9999,32=2,35=1,38=5/2;
 8/6=4,10=90,11=11/1;
 11/6=1,8=1,9=11,15=111,16=1/1,2,10;
 10/6=1/2;
 7/10=1,25=1/1,2,3,16;
 1/6=9999,10=4,18=20,19=15,26=1/3(-8);
 2/9=110/2;
 6/7=2,8=2,9=2,10=2,18=1,19=2,28=1/1;
 7/8=1,9=1,25=1,44=-1/16;
 99//99;
 -------------------
 Title Card Required
 -------------------
 Symbolic Z-matrix:
 Charge =  0 Multiplicity = 1
 C                    -8.267     3.603     1.946 
 C                    -6.792     3.779     2.225 
 C                    -6.157     4.793     1.26 
 C                    -6.117     4.313    -0.202 
 C                    -5.092     3.192    -0.426 
 C                    -4.973     2.845    -1.915 
 C                    -4.013     1.67     -2.131 
 C                    -3.851     1.348    -3.624 
 C                    -3.187    -0.016    -3.866 
 C                    -1.732    -0.066    -3.371 
 N                    -1.089    -1.326    -3.74 
 C                    -8.92      2.427     1.881 
 C                    -8.315     1.07      2.139 
 C                    -8.076     0.332     0.816 
 C                    -7.383    -1.024     1.028 
 C                    -5.857    -0.874     1.138 
 C                    -5.151    -2.206     1.431 
 C                    -5.281    -2.627     2.903 
 C                    -4.399    -3.835     3.21 
 H                    -8.851     4.505     1.781 
 H                    -6.221     2.834     2.184 
 H                    -6.691     4.177     3.258 
 H                    -6.729     5.745     1.308 
 H                    -5.124     5.022     1.602 
 H                    -5.84      5.183    -0.838 
 H                    -7.126     3.973    -0.522 
 H                    -5.407     2.283     0.128 
 H                    -4.098     3.516    -0.047 
 H                    -4.604     3.733    -2.475 
 H                    -5.978     2.572    -2.307 
 H                    -4.412     0.78     -1.601 
 H                    -3.021     1.92     -1.697 
 H                    -3.256     2.149    -4.116 
 H                    -4.852     1.328    -4.108 
 H                    -3.202    -0.219    -4.959 
 H                    -3.784    -0.811    -3.366 
 H                    -1.703     0.034    -2.265 
 H                    -1.153     0.776    -3.809 
 H                    -1.077    -1.411    -4.783 
 H                    -1.654    -2.119    -3.359 
 H                    -9.977     2.452     1.634 
 H                    -9.037     0.487     2.751 
 H                    -7.388     1.129     2.74 
 H                    -7.477     0.964     0.123 
 H                    -9.06      0.151     0.33 
 H                    -7.609    -1.677     0.156 
 H                    -7.797    -1.52      1.931 
 H                    -5.589    -0.124     1.912 
 H                    -5.474    -0.495     0.166 
 H                    -4.073    -2.079     1.189 
 H                    -5.551    -3.005     0.769 
 H                    -6.334    -2.892     3.132 
 H                    -4.977    -1.788     3.565 
 H                    -3.331    -3.59      3.025 
 H                    -4.694    -4.7       2.577 
 H                    -4.515    -4.119     4.277 
 

 GradGradGradGradGradGradGradGradGradGradGradGradGradGradGradGradGradGrad
 Berny optimization.
 Initialization pass.
                           ----------------------------
                           !    Initial Parameters    !
                           ! (Angstroms and Degrees)  !
 --------------------------                            --------------------------
 ! Name  Definition              Value          Derivative Info.                !
 --------------------------------------------------------------------------------
 ! R1    R(1,2)                  1.5114         calculate D2E/DX2 analytically  !
 ! R2    R(1,12)                 1.3467         calculate D2E/DX2 analytically  !
 ! R3    R(1,20)                 1.0871         calculate D2E/DX2 analytically  !
 ! R4    R(2,3)                  1.5371         calculate D2E/DX2 analytically  !
 ! R5    R(2,21)                 1.1049         calculate D2E/DX2 analytically  !
 ! R6    R(2,22)                 1.1116         calculate D2E/DX2 analytically  !
 ! R7    R(3,4)                  1.5393         calculate D2E/DX2 analytically  !
 ! R8    R(3,23)                 1.1117         calculate D2E/DX2 analytically  !
 ! R9    R(3,24)                 1.112          calculate D2E/DX2 analytically  !
 ! R10   R(4,5)                  1.5354         calculate D2E/DX2 analytically  !
 ! R11   R(4,25)                 1.1127         calculate D2E/DX2 analytically  !
 ! R12   R(4,26)                 1.1118         calculate D2E/DX2 analytically  !
 ! R13   R(5,6)                  1.5335         calculate D2E/DX2 analytically  !
 ! R14   R(5,27)                 1.1101         calculate D2E/DX2 analytically  !
 ! R15   R(5,28)                 1.112          calculate D2E/DX2 analytically  !
 ! R16   R(6,7)                  1.5326         calculate D2E/DX2 analytically  !
 ! R17   R(6,29)                 1.1128         calculate D2E/DX2 analytically  !
 ! R18   R(6,30)                 1.1128         calculate D2E/DX2 analytically  !
 ! R19   R(7,8)                  1.5359         calculate D2E/DX2 analytically  !
 ! R20   R(7,31)                 1.11           calculate D2E/DX2 analytically  !
 ! R21   R(7,32)                 1.1113         calculate D2E/DX2 analytically  !
 ! R22   R(8,9)                  1.5362         calculate D2E/DX2 analytically  !
 ! R23   R(8,33)                 1.1125         calculate D2E/DX2 analytically  !
 ! R24   R(8,34)                 1.1121         calculate D2E/DX2 analytically  !
 ! R25   R(9,10)                 1.5377         calculate D2E/DX2 analytically  !
 ! R26   R(9,35)                 1.1118         calculate D2E/DX2 analytically  !
 ! R27   R(9,36)                 1.1128         calculate D2E/DX2 analytically  !
 ! R28   R(10,11)                1.4619         calculate D2E/DX2 analytically  !
 ! R29   R(10,37)                1.1109         calculate D2E/DX2 analytically  !
 ! R30   R(10,38)                1.1118         calculate D2E/DX2 analytically  !
 ! R31   R(11,39)                1.0465         calculate D2E/DX2 analytically  !
 ! R32   R(11,40)                1.0456         calculate D2E/DX2 analytically  !
 ! R33   R(12,13)                1.508          calculate D2E/DX2 analytically  !
 ! R34   R(12,41)                1.0858         calculate D2E/DX2 analytically  !
 ! R35   R(13,14)                1.5337         calculate D2E/DX2 analytically  !
 ! R36   R(13,42)                1.1116         calculate D2E/DX2 analytically  !
 ! R37   R(13,43)                1.1064         calculate D2E/DX2 analytically  !
 ! R38   R(14,15)                1.5375         calculate D2E/DX2 analytically  !
 ! R39   R(14,44)                1.1129         calculate D2E/DX2 analytically  !
 ! R40   R(14,45)                1.1123         calculate D2E/DX2 analytically  !
 ! R41   R(15,16)                1.5373         calculate D2E/DX2 analytically  !
 ! R42   R(15,46)                1.1126         calculate D2E/DX2 analytically  !
 ! R43   R(15,47)                1.1103         calculate D2E/DX2 analytically  !
 ! R44   R(16,17)                1.5357         calculate D2E/DX2 analytically  !
 ! R45   R(16,48)                1.1106         calculate D2E/DX2 analytically  !
 ! R46   R(16,49)                1.1114         calculate D2E/DX2 analytically  !
 ! R47   R(17,18)                1.5365         calculate D2E/DX2 analytically  !
 ! R48   R(17,50)                1.1121         calculate D2E/DX2 analytically  !
 ! R49   R(17,51)                1.112          calculate D2E/DX2 analytically  !
 ! R50   R(18,19)                1.5269         calculate D2E/DX2 analytically  !
 ! R51   R(18,52)                1.1097         calculate D2E/DX2 analytically  !
 ! R52   R(18,53)                1.1111         calculate D2E/DX2 analytically  !
 ! R53   R(19,54)                1.1112         calculate D2E/DX2 analytically  !
 ! R54   R(19,55)                1.1117         calculate D2E/DX2 analytically  !
 ! R55   R(19,56)                1.1102         calculate D2E/DX2 analytically  !
 ! A1    A(2,1,12)             125.7178         calculate D2E/DX2 analytically  !
 ! A2    A(2,1,20)             117.106          calculate D2E/DX2 analytically  !
 ! A3    A(12,1,20)            117.176          calculate D2E/DX2 analytically  !
 ! A4    A(1,2,3)              111.3514         calculate D2E/DX2 analytically  !
 ! A5    A(1,2,21)             113.4467         calculate D2E/DX2 analytically  !
 ! A6    A(1,2,22)             107.5716         calculate D2E/DX2 analytically  !
 ! A7    A(3,2,21)             109.1132         calculate D2E/DX2 analytically  !
 ! A8    A(3,2,22)             108.04           calculate D2E/DX2 analytically  !
 ! A9    A(21,2,22)            107.083          calculate D2E/DX2 analytically  !
 ! A10   A(2,3,4)              113.6599         calculate D2E/DX2 analytically  !
 ! A11   A(2,3,23)             108.9816         calculate D2E/DX2 analytically  !
 ! A12   A(2,3,24)             109.0591         calculate D2E/DX2 analytically  !
 ! A13   A(4,3,23)             108.7491         calculate D2E/DX2 analytically  !
 ! A14   A(4,3,24)             109.4019         calculate D2E/DX2 analytically  !
 ! A15   A(23,3,24)            106.7597         calculate D2E/DX2 analytically  !
 ! A16   A(3,4,5)              112.5557         calculate D2E/DX2 analytically  !
 ! A17   A(3,4,25)             107.7901         calculate D2E/DX2 analytically  !
 ! A18   A(3,4,26)             110.1908         calculate D2E/DX2 analytically  !
 ! A19   A(5,4,25)             108.74           calculate D2E/DX2 analytically  !
 ! A20   A(5,4,26)             109.913          calculate D2E/DX2 analytically  !
 ! A21   A(25,4,26)            107.4888         calculate D2E/DX2 analytically  !
 ! A22   A(4,5,6)              111.0182         calculate D2E/DX2 analytically  !
 ! A23   A(4,5,27)             109.6084         calculate D2E/DX2 analytically  !
 ! A24   A(4,5,28)             109.5283         calculate D2E/DX2 analytically  !
 ! A25   A(6,5,27)             108.7407         calculate D2E/DX2 analytically  !
 ! A26   A(6,5,28)             109.116          calculate D2E/DX2 analytically  !
 ! A27   A(27,5,28)            108.7908         calculate D2E/DX2 analytically  !
 ! A28   A(5,6,7)              111.0345         calculate D2E/DX2 analytically  !
 ! A29   A(5,6,29)             109.4992         calculate D2E/DX2 analytically  !
 ! A30   A(5,6,30)             109.116          calculate D2E/DX2 analytically  !
 ! A31   A(7,6,29)             109.4609         calculate D2E/DX2 analytically  !
 ! A32   A(7,6,30)             109.1467         calculate D2E/DX2 analytically  !
 ! A33   A(29,6,30)            108.5411         calculate D2E/DX2 analytically  !
 ! A34   A(6,7,8)              111.3338         calculate D2E/DX2 analytically  !
 ! A35   A(6,7,31)             108.799          calculate D2E/DX2 analytically  !
 ! A36   A(6,7,32)             109.3682         calculate D2E/DX2 analytically  !
 ! A37   A(8,7,31)             109.5084         calculate D2E/DX2 analytically  !
 ! A38   A(8,7,32)             109.4294         calculate D2E/DX2 analytically  !
 ! A39   A(31,7,32)            108.3469         calculate D2E/DX2 analytically  !
 ! A40   A(7,8,9)              112.6355         calculate D2E/DX2 analytically  !
 ! A41   A(7,8,33)             109.5941         calculate D2E/DX2 analytically  !
 ! A42   A(7,8,34)             109.3844         calculate D2E/DX2 analytically  !
 ! A43   A(9,8,33)             109.782          calculate D2E/DX2 analytically  !
 ! A44   A(9,8,34)             107.7303         calculate D2E/DX2 analytically  !
 ! A45   A(33,8,34)            107.571          calculate D2E/DX2 analytically  !
 ! A46   A(8,9,10)             112.7769         calculate D2E/DX2 analytically  !
 ! A47   A(8,9,35)             108.1289         calculate D2E/DX2 analytically  !
 ! A48   A(8,9,36)             109.3686         calculate D2E/DX2 analytically  !
 ! A49   A(10,9,35)            108.8623         calculate D2E/DX2 analytically  !
 ! A50   A(10,9,36)            109.8613         calculate D2E/DX2 analytically  !
 ! A51   A(35,9,36)            107.6996         calculate D2E/DX2 analytically  !
 ! A52   A(9,10,11)            111.2814         calculate D2E/DX2 analytically  !
 ! A53   A(9,10,37)            110.0149         calculate D2E/DX2 analytically  !
 ! A54   A(9,10,38)            109.9579         calculate D2E/DX2 analytically  !
 ! A55   A(11,10,37)           108.5057         calculate D2E/DX2 analytically  !
 ! A56   A(11,10,38)           108.9197         calculate D2E/DX2 analytically  !
 ! A57   A(37,10,38)           108.0869         calculate D2E/DX2 analytically  !
 ! A58   A(10,11,39)           109.0627         calculate D2E/DX2 analytically  !
 ! A59   A(10,11,40)           108.9068         calculate D2E/DX2 analytically  !
 ! A60   A(39,11,40)           107.9242         calculate D2E/DX2 analytically  !
 ! A61   A(1,12,13)            125.6629         calculate D2E/DX2 analytically  !
 ! A62   A(1,12,41)            117.5754         calculate D2E/DX2 analytically  !
 ! A63   A(13,12,41)           116.757          calculate D2E/DX2 analytically  !
 ! A64   A(12,13,14)           110.3623         calculate D2E/DX2 analytically  !
 ! A65   A(12,13,42)           107.7918         calculate D2E/DX2 analytically  !
 ! A66   A(12,13,43)           112.4024         calculate D2E/DX2 analytically  !
 ! A67   A(14,13,42)           108.8911         calculate D2E/DX2 analytically  !
 ! A68   A(14,13,43)           111.3276         calculate D2E/DX2 analytically  !
 ! A69   A(42,13,43)           105.8492         calculate D2E/DX2 analytically  !
 ! A70   A(13,14,15)           112.067          calculate D2E/DX2 analytically  !
 ! A71   A(13,14,44)           110.3519         calculate D2E/DX2 analytically  !
 ! A72   A(13,14,45)           108.5034         calculate D2E/DX2 analytically  !
 ! A73   A(15,14,44)           110.128          calculate D2E/DX2 analytically  !
 ! A74   A(15,14,45)           108.3892         calculate D2E/DX2 analytically  !
 ! A75   A(44,14,45)           107.247          calculate D2E/DX2 analytically  !
 ! A76   A(14,15,16)           111.7914         calculate D2E/DX2 analytically  !
 ! A77   A(14,15,46)           108.5423         calculate D2E/DX2 analytically  !
 ! A78   A(14,15,47)           109.7586         calculate D2E/DX2 analytically  !
 ! A79   A(16,15,46)           108.3599         calculate D2E/DX2 analytically  !
 ! A80   A(16,15,47)           110.8252         calculate D2E/DX2 analytically  !
 ! A81   A(46,15,47)           107.4266         calculate D2E/DX2 analytically  !
 ! A82   A(15,16,17)           112.6659         calculate D2E/DX2 analytically  !
 ! A83   A(15,16,48)           110.812          calculate D2E/DX2 analytically  !
 ! A84   A(15,16,49)           108.2271         calculate D2E/DX2 analytically  !
 ! A85   A(17,16,48)           109.9882         calculate D2E/DX2 analytically  !
 ! A86   A(17,16,49)           107.7111         calculate D2E/DX2 analytically  !
 ! A87   A(48,16,49)           107.2221         calculate D2E/DX2 analytically  !
 ! A88   A(16,17,18)           112.4281         calculate D2E/DX2 analytically  !
 ! A89   A(16,17,50)           107.7612         calculate D2E/DX2 analytically  !
 ! A90   A(16,17,51)           110.1355         calculate D2E/DX2 analytically  !
 ! A91   A(18,17,50)           108.7699         calculate D2E/DX2 analytically  !
 ! A92   A(18,17,51)           110.0599         calculate D2E/DX2 analytically  !
 ! A93   A(50,17,51)           107.5283         calculate D2E/DX2 analytically  !
 ! A94   A(17,18,19)           111.1317         calculate D2E/DX2 analytically  !
 ! A95   A(17,18,52)           110.0844         calculate D2E/DX2 analytically  !
 ! A96   A(17,18,53)           109.9217         calculate D2E/DX2 analytically  !
 ! A97   A(19,18,52)           108.5239         calculate D2E/DX2 analytically  !
 ! A98   A(19,18,53)           108.6361         calculate D2E/DX2 analytically  !
 ! A99   A(52,18,53)           108.4806         calculate D2E/DX2 analytically  !
 ! A100  A(18,19,54)           110.3198         calculate D2E/DX2 analytically  !
 ! A101  A(18,19,55)           110.3531         calculate D2E/DX2 analytically  !
 ! A102  A(18,19,56)           109.5881         calculate D2E/DX2 analytically  !
 ! A103  A(54,19,55)           109.3767         calculate D2E/DX2 analytically  !
 ! A104  A(54,19,56)           108.4703         calculate D2E/DX2 analytically  !
 ! A105  A(55,19,56)           108.6906         calculate D2E/DX2 analytically  !
 ! D1    D(12,1,2,3)           134.875          calculate D2E/DX2 analytically  !
 ! D2    D(12,1,2,21)           11.3191         calculate D2E/DX2 analytically  !
 ! D3    D(12,1,2,22)         -106.9238         calculate D2E/DX2 analytically  !
 ! D4    D(20,1,2,3)           -44.9652         calculate D2E/DX2 analytically  !
 ! D5    D(20,1,2,21)         -168.5211         calculate D2E/DX2 analytically  !
 ! D6    D(20,1,2,22)           73.236          calculate D2E/DX2 analytically  !
 ! D7    D(2,1,12,13)            3.0907         calculate D2E/DX2 analytically  !
 ! D8    D(2,1,12,41)         -177.7231         calculate D2E/DX2 analytically  !
 ! D9    D(20,1,12,13)        -177.0692         calculate D2E/DX2 analytically  !
 ! D10   D(20,1,12,41)           2.1169         calculate D2E/DX2 analytically  !
 ! D11   D(1,2,3,4)            -67.0684         calculate D2E/DX2 analytically  !
 ! D12   D(1,2,3,23)            54.3851         calculate D2E/DX2 analytically  !
 ! D13   D(1,2,3,24)           170.5822         calculate D2E/DX2 analytically  !
 ! D14   D(21,2,3,4)            58.9193         calculate D2E/DX2 analytically  !
 ! D15   D(21,2,3,23)         -179.6272         calculate D2E/DX2 analytically  !
 ! D16   D(21,2,3,24)          -63.4301         calculate D2E/DX2 analytically  !
 ! D17   D(22,2,3,4)           175.0126         calculate D2E/DX2 analytically  !
 ! D18   D(22,2,3,23)          -63.5339         calculate D2E/DX2 analytically  !
 ! D19   D(22,2,3,24)           52.6632         calculate D2E/DX2 analytically  !
 ! D20   D(2,3,4,5)            -71.5149         calculate D2E/DX2 analytically  !
 ! D21   D(2,3,4,25)           168.5757         calculate D2E/DX2 analytically  !
 ! D22   D(2,3,4,26)            51.5573         calculate D2E/DX2 analytically  !
 ! D23   D(23,3,4,5)           166.9021         calculate D2E/DX2 analytically  !
 ! D24   D(23,3,4,25)           46.9926         calculate D2E/DX2 analytically  !
 ! D25   D(23,3,4,26)          -70.0257         calculate D2E/DX2 analytically  !
 ! D26   D(24,3,4,5)            50.645          calculate D2E/DX2 analytically  !
 ! D27   D(24,3,4,25)          -69.2644         calculate D2E/DX2 analytically  !
 ! D28   D(24,3,4,26)          173.7172         calculate D2E/DX2 analytically  !
 ! D29   D(3,4,5,6)           -173.9156         calculate D2E/DX2 analytically  !
 ! D30   D(3,4,5,27)            65.935          calculate D2E/DX2 analytically  !
 ! D31   D(3,4,5,28)           -53.3508         calculate D2E/DX2 analytically  !
 ! D32   D(25,4,5,6)           -54.5573         calculate D2E/DX2 analytically  !
 ! D33   D(25,4,5,27)         -174.7067         calculate D2E/DX2 analytically  !
 ! D34   D(25,4,5,28)           66.0075         calculate D2E/DX2 analytically  !
 ! D35   D(26,4,5,6)            62.8569         calculate D2E/DX2 analytically  !
 ! D36   D(26,4,5,27)          -57.2925         calculate D2E/DX2 analytically  !
 ! D37   D(26,4,5,28)         -176.5783         calculate D2E/DX2 analytically  !
 ! D38   D(4,5,6,7)           -176.6048         calculate D2E/DX2 analytically  !
 ! D39   D(4,5,6,29)            62.4085         calculate D2E/DX2 analytically  !
 ! D40   D(4,5,6,30)           -56.2605         calculate D2E/DX2 analytically  !
 ! D41   D(27,5,6,7)           -55.9413         calculate D2E/DX2 analytically  !
 ! D42   D(27,5,6,29)         -176.9279         calculate D2E/DX2 analytically  !
 ! D43   D(27,5,6,30)           64.4031         calculate D2E/DX2 analytically  !
 ! D44   D(28,5,6,7)            62.5868         calculate D2E/DX2 analytically  !
 ! D45   D(28,5,6,29)          -58.3999         calculate D2E/DX2 analytically  !
 ! D46   D(28,5,6,30)         -177.0689         calculate D2E/DX2 analytically  !
 ! D47   D(5,6,7,8)           -178.0302         calculate D2E/DX2 analytically  !
 ! D48   D(5,6,7,31)            61.195          calculate D2E/DX2 analytically  !
 ! D49   D(5,6,7,32)           -56.9769         calculate D2E/DX2 analytically  !
 ! D50   D(29,6,7,8)           -57.021          calculate D2E/DX2 analytically  !
 ! D51   D(29,6,7,31)         -177.7958         calculate D2E/DX2 analytically  !
 ! D52   D(29,6,7,32)           64.0323         calculate D2E/DX2 analytically  !
 ! D53   D(30,6,7,8)            61.6437         calculate D2E/DX2 analytically  !
 ! D54   D(30,6,7,31)          -59.1311         calculate D2E/DX2 analytically  !
 ! D55   D(30,6,7,32)         -177.3031         calculate D2E/DX2 analytically  !
 ! D56   D(6,7,8,9)           -165.8526         calculate D2E/DX2 analytically  !
 ! D57   D(6,7,8,33)            71.6228         calculate D2E/DX2 analytically  !
 ! D58   D(6,7,8,34)           -46.084          calculate D2E/DX2 analytically  !
 ! D59   D(31,7,8,9)           -45.495          calculate D2E/DX2 analytically  !
 ! D60   D(31,7,8,33)         -168.0197         calculate D2E/DX2 analytically  !
 ! D61   D(31,7,8,34)           74.2735         calculate D2E/DX2 analytically  !
 ! D62   D(32,7,8,9)            73.1299         calculate D2E/DX2 analytically  !
 ! D63   D(32,7,8,33)          -49.3947         calculate D2E/DX2 analytically  !
 ! D64   D(32,7,8,34)         -167.1015         calculate D2E/DX2 analytically  !
 ! D65   D(7,8,9,10)           -65.3228         calculate D2E/DX2 analytically  !
 ! D66   D(7,8,9,35)           174.251          calculate D2E/DX2 analytically  !
 ! D67   D(7,8,9,36)            57.2378         calculate D2E/DX2 analytically  !
 ! D68   D(33,8,9,10)           57.0962         calculate D2E/DX2 analytically  !
 ! D69   D(33,8,9,35)          -63.33           calculate D2E/DX2 analytically  !
 ! D70   D(33,8,9,36)          179.6568         calculate D2E/DX2 analytically  !
 ! D71   D(34,8,9,10)          173.9562         calculate D2E/DX2 analytically  !
 ! D72   D(34,8,9,35)           53.5301         calculate D2E/DX2 analytically  !
 ! D73   D(34,8,9,36)          -63.4831         calculate D2E/DX2 analytically  !
 ! D74   D(8,9,10,11)         -174.1152         calculate D2E/DX2 analytically  !
 ! D75   D(8,9,10,37)           65.5928         calculate D2E/DX2 analytically  !
 ! D76   D(8,9,10,38)          -53.3415         calculate D2E/DX2 analytically  !
 ! D77   D(35,9,10,11)         -54.1104         calculate D2E/DX2 analytically  !
 ! D78   D(35,9,10,37)        -174.4024         calculate D2E/DX2 analytically  !
 ! D79   D(35,9,10,38)          66.6634         calculate D2E/DX2 analytically  !
 ! D80   D(36,9,10,11)          63.6006         calculate D2E/DX2 analytically  !
 ! D81   D(36,9,10,37)         -56.6914         calculate D2E/DX2 analytically  !
 ! D82   D(36,9,10,38)        -175.6256         calculate D2E/DX2 analytically  !
 ! D83   D(9,10,11,39)          61.0822         calculate D2E/DX2 analytically  !
 ! D84   D(9,10,11,40)         -56.469          calculate D2E/DX2 analytically  !
 ! D85   D(37,10,11,39)       -177.739          calculate D2E/DX2 analytically  !
 ! D86   D(37,10,11,40)         64.7099         calculate D2E/DX2 analytically  !
 ! D87   D(38,10,11,39)        -60.2996         calculate D2E/DX2 analytically  !
 ! D88   D(38,10,11,40)       -177.8507         calculate D2E/DX2 analytically  !
 ! D89   D(1,12,13,14)        -103.934          calculate D2E/DX2 analytically  !
 ! D90   D(1,12,13,42)         137.2629         calculate D2E/DX2 analytically  !
 ! D91   D(1,12,13,43)          20.9981         calculate D2E/DX2 analytically  !
 ! D92   D(41,12,13,14)         76.8739         calculate D2E/DX2 analytically  !
 ! D93   D(41,12,13,42)        -41.9291         calculate D2E/DX2 analytically  !
 ! D94   D(41,12,13,43)       -158.194          calculate D2E/DX2 analytically  !
 ! D95   D(12,13,14,15)        176.6371         calculate D2E/DX2 analytically  !
 ! D96   D(12,13,14,44)         53.5156         calculate D2E/DX2 analytically  !
 ! D97   D(12,13,14,45)        -63.7175         calculate D2E/DX2 analytically  !
 ! D98   D(42,13,14,15)        -65.2319         calculate D2E/DX2 analytically  !
 ! D99   D(42,13,14,44)        171.6465         calculate D2E/DX2 analytically  !
 ! D100  D(42,13,14,45)         54.4135         calculate D2E/DX2 analytically  !
 ! D101  D(43,13,14,15)         51.0945         calculate D2E/DX2 analytically  !
 ! D102  D(43,13,14,44)        -72.0271         calculate D2E/DX2 analytically  !
 ! D103  D(43,13,14,45)        170.7399         calculate D2E/DX2 analytically  !
 ! D104  D(13,14,15,16)        -83.7653         calculate D2E/DX2 analytically  !
 ! D105  D(13,14,15,46)        156.7693         calculate D2E/DX2 analytically  !
 ! D106  D(13,14,15,47)         39.632          calculate D2E/DX2 analytically  !
 ! D107  D(44,14,15,16)         39.4825         calculate D2E/DX2 analytically  !
 ! D108  D(44,14,15,46)        -79.9828         calculate D2E/DX2 analytically  !
 ! D109  D(44,14,15,47)        162.8798         calculate D2E/DX2 analytically  !
 ! D110  D(45,14,15,16)        156.5225         calculate D2E/DX2 analytically  !
 ! D111  D(45,14,15,46)         37.0571         calculate D2E/DX2 analytically  !
 ! D112  D(45,14,15,47)        -80.0802         calculate D2E/DX2 analytically  !
 ! D113  D(14,15,16,17)        176.6894         calculate D2E/DX2 analytically  !
 ! D114  D(14,15,16,48)         52.9766         calculate D2E/DX2 analytically  !
 ! D115  D(14,15,16,49)        -64.3232         calculate D2E/DX2 analytically  !
 ! D116  D(46,15,16,17)        -63.7378         calculate D2E/DX2 analytically  !
 ! D117  D(46,15,16,48)        172.5495         calculate D2E/DX2 analytically  !
 ! D118  D(46,15,16,49)         55.2497         calculate D2E/DX2 analytically  !
 ! D119  D(47,15,16,17)         53.8972         calculate D2E/DX2 analytically  !
 ! D120  D(47,15,16,48)        -69.8155         calculate D2E/DX2 analytically  !
 ! D121  D(47,15,16,49)        172.8846         calculate D2E/DX2 analytically  !
 ! D122  D(15,16,17,18)        -77.1849         calculate D2E/DX2 analytically  !
 ! D123  D(15,16,17,50)        162.9652         calculate D2E/DX2 analytically  !
 ! D124  D(15,16,17,51)         45.9464         calculate D2E/DX2 analytically  !
 ! D125  D(48,16,17,18)         46.9831         calculate D2E/DX2 analytically  !
 ! D126  D(48,16,17,50)        -72.8668         calculate D2E/DX2 analytically  !
 ! D127  D(48,16,17,51)        170.1143         calculate D2E/DX2 analytically  !
 ! D128  D(49,16,17,18)        163.5274         calculate D2E/DX2 analytically  !
 ! D129  D(49,16,17,50)         43.6775         calculate D2E/DX2 analytically  !
 ! D130  D(49,16,17,51)        -73.3413         calculate D2E/DX2 analytically  !
 ! D131  D(16,17,18,19)       -171.4185         calculate D2E/DX2 analytically  !
 ! D132  D(16,17,18,52)         68.3178         calculate D2E/DX2 analytically  !
 ! D133  D(16,17,18,53)        -51.1218         calculate D2E/DX2 analytically  !
 ! D134  D(50,17,18,19)        -52.1557         calculate D2E/DX2 analytically  !
 ! D135  D(50,17,18,52)       -172.4194         calculate D2E/DX2 analytically  !
 ! D136  D(50,17,18,53)         68.141          calculate D2E/DX2 analytically  !
 ! D137  D(51,17,18,19)         65.4078         calculate D2E/DX2 analytically  !
 ! D138  D(51,17,18,52)        -54.8558         calculate D2E/DX2 analytically  !
 ! D139  D(51,17,18,53)       -174.2954         calculate D2E/DX2 analytically  !
 ! D140  D(17,18,19,54)         60.825          calculate D2E/DX2 analytically  !
 ! D141  D(17,18,19,55)        -60.154          calculate D2E/DX2 analytically  !
 ! D142  D(17,18,19,56)       -179.8106         calculate D2E/DX2 analytically  !
 ! D143  D(52,18,19,54)       -177.9916         calculate D2E/DX2 analytically  !
 ! D144  D(52,18,19,55)         61.0294         calculate D2E/DX2 analytically  !
 ! D145  D(52,18,19,56)        -58.6272         calculate D2E/DX2 analytically  !
 ! D146  D(53,18,19,54)        -60.2298         calculate D2E/DX2 analytically  !
 ! D147  D(53,18,19,55)        178.7912         calculate D2E/DX2 analytically  !
 ! D148  D(53,18,19,56)         59.1346         calculate D2E/DX2 analytically  !
 --------------------------------------------------------------------------------
 Trust Radius=3.00D-01 FncErr=1.00D-07 GrdErr=1.00D-07 EigMax=2.50D+02 EigMin=1.00D-04
 Number of steps in this run=    336 maximum allowed number of steps=    336.
 GradGradGradGradGradGradGradGradGradGradGradGradGradGradGradGradGradGrad

 Stoichiometry    C18H37N
 Framework group  C1[X(C18H37N)]
 Deg. of freedom   162
 Full point group                 C1      NOp   1
 Largest Abelian subgroup         C1      NOp   1
 Largest concise Abelian subgroup C1      NOp   1
                         Standard orientation:                         
 ---------------------------------------------------------------------
 Center     Atomic      Atomic             Coordinates (Angstroms)
 Number     Number       Type             X           Y           Z
 ---------------------------------------------------------------------
      1          6           0       -4.049703   -1.724896    0.079758
      2          6           0       -3.302930   -1.715805   -1.234277
      3          6           0       -2.532914   -3.028595   -1.449462
      4          6           0       -1.370910   -3.232372   -0.460692
      5          6           0       -0.190820   -2.289595   -0.736373
      6          6           0        1.001942   -2.622323    0.168227
      7          6           0        2.149470   -1.629504   -0.047116
      8          6           0        3.366163   -1.985126    0.820159
      9          6           0        4.390319   -0.842816    0.898831
     10          6           0        5.046341   -0.536950   -0.457867
     11          7           0        6.110678    0.455828   -0.320787
     12          6           0       -4.085660   -0.715588    0.970609
     13          6           0       -3.441460    0.636385    0.793928
     14          6           0       -2.161519    0.731445    1.633456
     15          6           0       -1.427494    2.065218    1.418551
     16          6           0       -0.524275    2.025670    0.175206
     17          6           0        0.156364    3.373540   -0.104946
     18          6           0       -0.798509    4.389420   -0.750804
     19          6           0       -0.047064    5.637313   -1.208549
     20          1           0       -4.604243   -2.626383    0.328132
     21          1           0       -2.604655   -0.865770   -1.337232
     22          1           0       -4.055195   -1.620742   -2.047145
     23          1           0       -3.238726   -3.881909   -1.352115
     24          1           0       -2.141287   -3.053494   -2.489896
     25          1           0       -1.019704   -4.283448   -0.560792
     26          1           0       -1.727540   -3.097288    0.583649
     27          1           0       -0.500162   -1.240335   -0.547205
     28          1           0        0.120707   -2.385052   -1.799618
     29          1           0        1.357946   -3.653624   -0.050826
     30          1           0        0.676311   -2.578750    1.231375
     31          1           0        1.794253   -0.610404    0.212613
     32          1           0        2.444971   -1.634495   -1.118365
     33          1           0        3.854194   -2.901510    0.420463
     34          1           0        3.028445   -2.209104    1.855745
     35          1           0        5.181490   -1.136763    1.622520
     36          1           0        3.893708    0.071592    1.293380
     37          1           0        4.287115   -0.144245   -1.167399
     38          1           0        5.474631   -1.467193   -0.890608
     39          1           0        6.850211    0.078347    0.316250
     40          1           0        5.715423    1.317598    0.120078
     41          1           0       -4.634963   -0.878555    1.892883
     42          1           0       -4.162192    1.404974    1.148236
     43          1           0       -3.244389    0.873939   -0.268495
     44          1           0       -1.483384   -0.120335    1.403066
     45          1           0       -2.437479    0.651962    2.708045
     46          1           0       -0.790353    2.265795    2.308321
     47          1           0       -2.165038    2.891881    1.344539
     48          1           0       -1.096477    1.696450   -0.717878
     49          1           0        0.274775    1.273241    0.349804
     50          1           0        1.004303    3.187417   -0.800024
     51          1           0        0.579195    3.791521    0.834815
     52          1           0       -1.578884    4.694804   -0.023323
     53          1           0       -1.297890    3.932468   -1.631937
     54          1           0        0.719691    5.369553   -1.967012
     55          1           0        0.446647    6.130566   -0.343164
     56          1           0       -0.760256    6.353967   -1.667203
 ---------------------------------------------------------------------
 Rotational constants (GHZ):           0.2583178           0.1866859           0.1207520
 Standard basis: VSTO-6G (5D, 7F)
 There are   113 symmetry adapted cartesian basis functions of A   symmetry.
 There are   113 symmetry adapted basis functions of A   symmetry.
   113 basis functions,   678 primitive gaussians,   113 cartesian basis functions
    57 alpha electrons       57 beta electrons
       nuclear repulsion energy       875.7693589194 Hartrees.
 Integral buffers will be    131072 words long.
 Regular integral format.
 Two-electron integral symmetry is turned off.
 Do NDO integrals.
 One-electron integrals computed using PRISM.
 NBasis=   113 RedAO= F EigKep=  0.00D+00  NBF=   113
 NBsUse=   113 1.00D-04 EigRej=  0.00D+00 NBFU=   113
 Simple Huckel Guess.
 Keep J ints in memory in canonical form, NReq=887878.
 Overlap will be assumed to be unity.
 Requested convergence on RMS density matrix=1.00D-08 within9999 cycles.
 Requested convergence on MAX density matrix=1.00D-06.
 Requested convergence on             energy=1.00D-06.
 No special actions if energy rises.
 SCF Done:  E(RPM6) = -0.952451386778E-01 A.U. after   14 cycles
            NFock= 13  Conv=0.64D-08     -V/T= 0.9994
 Range of M.O.s used for correlation:     1   113
 NBasis=   113 NAE=    57 NBE=    57 NFC=     0 NFV=     0
 NROrb=    113 NOA=    57 NOB=    57 NVA=    56 NVB=    56
 Symmetrizing basis deriv contribution to polar:
 IMax=3 JMax=2 DiffMx= 0.00D+00
 G2DrvN: will do    57 centers at a time, making    1 passes.
 Calling FoFCou, ICntrl=  3107 FMM=F I1Cent=   0 AccDes= 0.00D+00.
 End of G2Drv F.D. properties file   721 does not exist.
 End of G2Drv F.D. properties file   722 does not exist.
 End of G2Drv F.D. properties file   788 does not exist.
          IDoAtm=11111111111111111111111111111111111111111111111111
          IDoAtm=111111
          Differentiating once with respect to electric field.
                with respect to dipole field.
          Differentiating once with respect to nuclear coordinates.
          Electric field/nuclear overlap derivatives assumed to be zero.
 Keep J ints in memory in canonical form, NReq=893183.
          There are   171 degrees of freedom in the 1st order CPHF.  IDoFFX=5 NUNeed=   171.
 LinEq1:  Iter=  0 NonCon=   171 RMS=1.10D-01 Max=2.59D+00 NDo=   171
 AX will form   171 AO Fock derivatives at one time.
 LinEq1:  Iter=  1 NonCon=   171 RMS=1.33D-02 Max=1.07D-01 NDo=   171
 LinEq1:  Iter=  2 NonCon=   171 RMS=2.49D-03 Max=9.32D-02 NDo=   171
 LinEq1:  Iter=  3 NonCon=   171 RMS=4.57D-04 Max=3.77D-03 NDo=   171
 LinEq1:  Iter=  4 NonCon=   171 RMS=7.32D-05 Max=1.10D-03 NDo=   171
 LinEq1:  Iter=  5 NonCon=   171 RMS=8.60D-06 Max=6.16D-05 NDo=   171
 LinEq1:  Iter=  6 NonCon=    80 RMS=1.24D-06 Max=1.29D-05 NDo=   171
 LinEq1:  Iter=  7 NonCon=     3 RMS=1.74D-07 Max=1.20D-06 NDo=    80
 LinEq1:  Iter=  8 NonCon=     3 RMS=2.47D-08 Max=3.45D-07 NDo=     3
 LinEq1:  Iter=  9 NonCon=     0 RMS=3.31D-09 Max=1.85D-08 NDo=     3
 Linear equations converged to 1.000D-08 1.000D-07 after     9 iterations.
 Isotropic polarizability for W=    0.000000      132.92 Bohr**3.
 End of Minotr F.D. properties file   721 does not exist.
 End of Minotr F.D. properties file   722 does not exist.
 End of Minotr F.D. properties file   788 does not exist.

 **********************************************************************

            Population analysis using the SCF Density.

 **********************************************************************

 Orbital symmetries:
       Occupied  (A) (A) (A) (A) (A) (A) (A) (A) (A) (A) (A) (A)
                 (A) (A) (A) (A) (A) (A) (A) (A) (A) (A) (A) (A)
                 (A) (A) (A) (A) (A) (A) (A) (A) (A) (A) (A) (A)
                 (A) (A) (A) (A) (A) (A) (A) (A) (A) (A) (A) (A)
                 (A) (A) (A) (A) (A) (A) (A) (A) (A)
       Virtual   (A) (A) (A) (A) (A) (A) (A) (A) (A) (A) (A) (A)
                 (A) (A) (A) (A) (A) (A) (A) (A) (A) (A) (A) (A)
                 (A) (A) (A) (A) (A) (A) (A) (A) (A) (A) (A) (A)
                 (A) (A) (A) (A) (A) (A) (A) (A) (A) (A) (A) (A)
                 (A) (A) (A) (A) (A) (A) (A) (A)
 The electronic state is 1-A.
 Alpha  occ. eigenvalues --   -1.13962  -1.07246  -1.05932  -1.04175  -1.02038
 Alpha  occ. eigenvalues --   -0.99177  -0.96313  -0.92774  -0.89460  -0.85284
 Alpha  occ. eigenvalues --   -0.83312  -0.80077  -0.78115  -0.74784  -0.74511
 Alpha  occ. eigenvalues --   -0.73595  -0.71870  -0.71420  -0.66338  -0.63511
 Alpha  occ. eigenvalues --   -0.60943  -0.60110  -0.58495  -0.57288  -0.56699
 Alpha  occ. eigenvalues --   -0.56144  -0.54955  -0.54794  -0.53536  -0.52489
 Alpha  occ. eigenvalues --   -0.51984  -0.51455  -0.50882  -0.49793  -0.48783
 Alpha  occ. eigenvalues --   -0.48275  -0.47881  -0.47279  -0.46762  -0.45839
 Alpha  occ. eigenvalues --   -0.44938  -0.44851  -0.44290  -0.44038  -0.43432
 Alpha  occ. eigenvalues --   -0.43108  -0.42460  -0.42089  -0.41713  -0.41540
 Alpha  occ. eigenvalues --   -0.41200  -0.40865  -0.40495  -0.40336  -0.39982
 Alpha  occ. eigenvalues --   -0.34798  -0.34418
 Alpha virt. eigenvalues --    0.05018   0.12758   0.14444   0.14568   0.14859
 Alpha virt. eigenvalues --    0.15124   0.15650   0.15805   0.15859   0.16237
 Alpha virt. eigenvalues --    0.16463   0.16793   0.16947   0.17180   0.17780
 Alpha virt. eigenvalues --    0.17866   0.18351   0.18605   0.19583   0.19966
 Alpha virt. eigenvalues --    0.20518   0.20613   0.20912   0.20981   0.21074
 Alpha virt. eigenvalues --    0.21229   0.21488   0.21756   0.21803   0.21961
 Alpha virt. eigenvalues --    0.22071   0.22196   0.22568   0.22806   0.22911
 Alpha virt. eigenvalues --    0.22951   0.23198   0.23234   0.23276   0.23349
 Alpha virt. eigenvalues --    0.23418   0.23598   0.23678   0.23743   0.23890
 Alpha virt. eigenvalues --    0.23994   0.24072   0.24227   0.24296   0.24419
 Alpha virt. eigenvalues --    0.24485   0.24777   0.24906   0.25069   0.25111
 Alpha virt. eigenvalues --    0.25373
          Condensed to atoms (all electrons):
 Mulliken charges:
               1
     1  C   -0.149430
     2  C   -0.258749
     3  C   -0.255437
     4  C   -0.257237
     5  C   -0.261722
     6  C   -0.270734
     7  C   -0.262897
     8  C   -0.250554
     9  C   -0.330355
    10  C   -0.138545
    11  N   -0.520789
    12  C   -0.180929
    13  C   -0.254278
    14  C   -0.256625
    15  C   -0.261707
    16  C   -0.260146
    17  C   -0.268896
    18  C   -0.220346
    19  C   -0.467863
    20  H    0.133433
    21  H    0.144832
    22  H    0.135096
    23  H    0.128622
    24  H    0.129091
    25  H    0.125522
    26  H    0.139447
    27  H    0.136871
    28  H    0.131035
    29  H    0.132527
    30  H    0.133217
    31  H    0.133022
    32  H    0.133989
    33  H    0.132587
    34  H    0.131157
    35  H    0.132789
    36  H    0.137970
    37  H    0.142645
    38  H    0.140795
    39  H    0.207483
    40  H    0.208076
    41  H    0.134276
    42  H    0.133000
    43  H    0.140115
    44  H    0.141443
    45  H    0.128323
    46  H    0.127454
    47  H    0.135347
    48  H    0.134285
    49  H    0.125878
    50  H    0.130141
    51  H    0.132601
    52  H    0.126719
    53  H    0.126919
    54  H    0.148006
    55  H    0.147721
    56  H    0.144803
 Sum of Mulliken charges =   0.00000
 Mulliken charges with hydrogens summed into heavy atoms:
               1
     1  C   -0.015997
     2  C    0.021179
     3  C    0.002276
     4  C    0.007732
     5  C    0.006184
     6  C   -0.004989
     7  C    0.004114
     8  C    0.013190
     9  C   -0.059596
    10  C    0.144895
    11  N   -0.105230
    12  C   -0.046654
    13  C    0.018837
    14  C    0.013142
    15  C    0.001094
    16  C    0.000017
    17  C   -0.006153
    18  C    0.033293
    19  C   -0.027332
 APT charges:
               1
     1  C   -0.110904
     2  C   -0.279987
     3  C   -0.224795
     4  C   -0.230287
     5  C   -0.226544
     6  C   -0.235446
     7  C   -0.228686
     8  C   -0.207583
     9  C   -0.367408
    10  C    0.025885
    11  N   -0.585047
    12  C   -0.158589
    13  C   -0.263156
    14  C   -0.221006
    15  C   -0.236390
    16  C   -0.227732
    17  C   -0.239301
    18  C   -0.144047
    19  C   -0.545756
    20  H    0.136648
    21  H    0.132040
    22  H    0.124442
    23  H    0.119349
    24  H    0.114818
    25  H    0.110958
    26  H    0.124356
    27  H    0.120518
    28  H    0.113609
    29  H    0.117378
    30  H    0.115701
    31  H    0.116736
    32  H    0.118439
    33  H    0.118321
    34  H    0.114435
    35  H    0.116341
    36  H    0.123044
    37  H    0.120885
    38  H    0.119664
    39  H    0.206371
    40  H    0.203503
    41  H    0.136845
    42  H    0.127757
    43  H    0.124293
    44  H    0.122970
    45  H    0.117194
    46  H    0.111218
    47  H    0.123660
    48  H    0.117159
    49  H    0.108222
    50  H    0.112631
    51  H    0.117920
    52  H    0.109792
    53  H    0.107537
    54  H    0.161053
    55  H    0.161677
    56  H    0.159395
 Sum of APT charges =   0.00010
 APT charges with hydrogens summed into heavy atoms:
               1
     1  C    0.025745
     2  C   -0.023505
     3  C    0.009373
     4  C    0.005027
     5  C    0.007582
     6  C   -0.002367
     7  C    0.006489
     8  C    0.025173
     9  C   -0.128022
    10  C    0.266433
    11  N   -0.175173
    12  C   -0.021744
    13  C   -0.011106
    14  C    0.019158
    15  C   -0.001513
    16  C   -0.002351
    17  C   -0.008751
    18  C    0.073281
    19  C   -0.063631
 Charge=             -0.0000 electrons
 Dipole moment (field-independent basis, Debye):
    X=             -0.7705    Y=             -0.5090    Z=              1.5723  Tot=              1.8234
 N-N= 8.757693589194D+02 E-N=-1.514302790938D+03  KE=-1.675697637452D+02
  Exact polarizability:     132.317       7.431     143.650      -1.449      13.913     122.785
 Approx polarizability:      82.668       2.061      93.721      -1.488       9.994      88.843
 Calling FoFJK, ICntrl=    100127 FMM=F ISym2X=0 I1Cent= 0 IOpClX= 0 NMat=1 NMatS=1 NMatT=0.
 ***** Axes restored to original set *****
 -------------------------------------------------------------------
 Center     Atomic                   Forces (Hartrees/Bohr)
 Number     Number              X              Y              Z
 -------------------------------------------------------------------
      1        6           0.002850768   -0.016556146   -0.000296497
      2        6          -0.010406979    0.007315394   -0.001387553
      3        6          -0.000220915   -0.000315558   -0.002694932
      4        6           0.001957263    0.002606402    0.001918513
      5        6          -0.000714721    0.001212907   -0.000391338
      6        6          -0.000556210    0.001140554   -0.001686815
      7        6           0.000655517   -0.000430510   -0.001675829
      8        6           0.000226007   -0.001610078   -0.000111963
      9        6          -0.005809680    0.005612976   -0.000528149
     10        6          -0.008624644    0.011598333    0.002562933
     11        7           0.003229998   -0.024780892   -0.011695764
     12        6           0.013957143    0.008583219    0.004293762
     13        6          -0.009222455    0.005834687   -0.001972637
     14        6           0.000080430   -0.002856013   -0.001033408
     15        6           0.001777952    0.001992507   -0.001416837
     16        6          -0.001403035   -0.002294126   -0.001612053
     17        6          -0.000040271    0.002140679    0.001879271
     18        6           0.000849013   -0.001642816   -0.001406403
     19        6           0.001834928   -0.003030840    0.001394819
     20        1           0.004513627    0.004980218   -0.000260934
     21        1          -0.003299499   -0.001887722    0.000354383
     22        1           0.000867891   -0.002570542    0.001071098
     23        1           0.002340564   -0.000958019   -0.000151812
     24        1          -0.002743934    0.000357113   -0.000582735
     25        1          -0.002904248   -0.001953723   -0.000130707
     26        1           0.002651808    0.001692601    0.001080080
     27        1           0.002506418    0.002207630    0.002193194
     28        1          -0.003027175   -0.003048438    0.001459492
     29        1          -0.003680394   -0.002591399    0.000134713
     30        1           0.002743958    0.003294344   -0.001164344
     31        1           0.003330057    0.000733897    0.000613110
     32        1          -0.002328302   -0.003026238    0.000509497
     33        1          -0.003187454   -0.002021111    0.000521788
     34        1           0.002156112    0.002396631   -0.000221909
     35        1          -0.002114348   -0.001336092    0.002226916
     36        1           0.001440014    0.001870488   -0.003026893
     37        1           0.001481384    0.002489875    0.001016779
     38        1           0.000938302    0.001360707    0.002272710
     39        1           0.000405197   -0.003639687    0.015211561
     40        1           0.010139446    0.007643959   -0.008398529
     41        1          -0.002432585   -0.005442998    0.000201025
     42        1           0.001793598   -0.000492608    0.001710206
     43        1          -0.000141155    0.001339118   -0.001692794
     44        1          -0.002923190   -0.001160703    0.001802215
     45        1           0.002655323    0.002111860   -0.001237355
     46        1          -0.000806730   -0.000330967    0.003738156
     47        1           0.001875919   -0.000294157   -0.002969442
     48        1          -0.001422056   -0.001299092   -0.002640659
     49        1           0.000255565    0.002571354    0.002246636
     50        1          -0.001843956   -0.002702486   -0.001087862
     51        1           0.002710018    0.002331642    0.002003869
     52        1           0.000856907    0.004010516    0.000374120
     53        1          -0.003723633   -0.000726510   -0.001194479
     54        1          -0.007374955   -0.005147703    0.001719425
     55        1           0.005034532    0.005297968    0.006060192
     56        1           0.002836867   -0.000580407   -0.007899825
 -------------------------------------------------------------------
 Cartesian Forces:  Max     0.024780892 RMS     0.004345099
 FormGI is forming the generalized inverse of G from B-inverse, IUseBI=4.

 GradGradGradGradGradGradGradGradGradGradGradGradGradGradGradGradGradGrad
 Berny optimization.
 Internal  Forces:  Max     0.025197933 RMS     0.002939938
 Search for a local minimum.
 Step number   1 out of a maximum of  336
 All quantities printed in internal units (Hartrees-Bohrs-Radians)
 Mixed Optimization -- RFO/linear search
 Second derivative matrix not updated -- analytic derivatives used.
 ITU=  0
     Eigenvalues ---   -0.00180  -0.00004   0.00075   0.00082   0.00087
     Eigenvalues ---    0.00089   0.00100   0.00104   0.00111   0.00117
     Eigenvalues ---    0.00120   0.00122   0.00138   0.00140   0.00168
     Eigenvalues ---    0.00176   0.00230   0.01720   0.01823   0.02460
     Eigenvalues ---    0.03025   0.03040   0.03050   0.03054   0.03059
     Eigenvalues ---    0.03069   0.03076   0.03089   0.03116   0.03125
     Eigenvalues ---    0.03150   0.03192   0.03361   0.03379   0.03604
     Eigenvalues ---    0.03641   0.03654   0.03678   0.03689   0.03692
     Eigenvalues ---    0.03718   0.03725   0.03745   0.03760   0.03761
     Eigenvalues ---    0.03789   0.03808   0.03866   0.03887   0.03976
     Eigenvalues ---    0.04121   0.04235   0.04729   0.06396   0.06487
     Eigenvalues ---    0.06616   0.06666   0.06828   0.06893   0.06975
     Eigenvalues ---    0.07090   0.07150   0.07211   0.07250   0.07281
     Eigenvalues ---    0.07492   0.07542   0.07743   0.09061   0.09300
     Eigenvalues ---    0.09555   0.09567   0.09852   0.09910   0.10009
     Eigenvalues ---    0.10338   0.10546   0.10548   0.10758   0.10820
     Eigenvalues ---    0.10887   0.10984   0.11219   0.11263   0.11372
     Eigenvalues ---    0.11453   0.12500   0.12818   0.13036   0.15162
     Eigenvalues ---    0.16312   0.16483   0.16731   0.16744   0.16756
     Eigenvalues ---    0.16913   0.16998   0.17125   0.17190   0.17219
     Eigenvalues ---    0.17350   0.17555   0.17656   0.18088   0.18195
     Eigenvalues ---    0.18460   0.19834   0.25093   0.25119   0.25119
     Eigenvalues ---    0.25129   0.25133   0.25134   0.25137   0.25149
     Eigenvalues ---    0.25165   0.25168   0.25174   0.25201   0.25243
     Eigenvalues ---    0.25302   0.25382   0.25409   0.25506   0.26370
     Eigenvalues ---    0.26425   0.26468   0.26527   0.26528   0.26544
     Eigenvalues ---    0.26579   0.26705   0.26795   0.26864   0.26906
     Eigenvalues ---    0.27029   0.27130   0.27180   0.27223   0.27382
     Eigenvalues ---    0.27474   0.27930   0.27957   0.28129   0.32699
     Eigenvalues ---    0.32932   0.33617   0.34751   0.35163   0.36895
     Eigenvalues ---    0.37057   0.38949   0.39940   0.41213   0.42541
     Eigenvalues ---    0.43350   0.44721   0.44816   0.45853   0.46210
     Eigenvalues ---    0.54073   0.74253
 RFO step:  Lambda=-1.18790036D-02 EMin=-1.79995353D-03
 Linear search not attempted -- first point.
 Iteration  1 RMS(Cart)=  0.66968664 RMS(Int)=  0.02126434
 Iteration  2 RMS(Cart)=  0.35268145 RMS(Int)=  0.00344400
 Iteration  3 RMS(Cart)=  0.01239400 RMS(Int)=  0.00015747
 Iteration  4 RMS(Cart)=  0.00001481 RMS(Int)=  0.00015733
 Iteration  5 RMS(Cart)=  0.00000000 RMS(Int)=  0.00015733
 Iteration  1 RMS(Cart)=  0.64685481 RMS(Int)=  0.01721419
 Iteration  2 RMS(Cart)=  0.27175189 RMS(Int)=  0.00203100
 Iteration  3 RMS(Cart)=  0.00744622 RMS(Int)=  0.00012743
 Iteration  4 RMS(Cart)=  0.00000578 RMS(Int)=  0.00012741
 Iteration  5 RMS(Cart)=  0.00000000 RMS(Int)=  0.00012741
 ITry= 2 IFail=0 DXMaxC= 3.30D+00 DCOld= 3.67D+00 DXMaxT= 3.00D-01 DXLimC= 3.00D+00 Rises=F
 Iteration  1 RMS(Cart)=  0.62278184 RMS(Int)=  0.01353177
 Iteration  2 RMS(Cart)=  0.19266108 RMS(Int)=  0.00100660
 Iteration  3 RMS(Cart)=  0.00388974 RMS(Int)=  0.00010064
 Iteration  4 RMS(Cart)=  0.00000190 RMS(Int)=  0.00010064
 Iteration  5 RMS(Cart)=  0.00000000 RMS(Int)=  0.00010064
 ITry= 3 IFail=0 DXMaxC= 2.93D+00 DCOld= 3.30D+00 DXMaxT= 3.00D-01 DXLimC= 3.00D+00 Rises=F
 Variable       Old X    -DE/DX   Delta X   Delta X   Delta X     New X
                                 (Linear)    (Quad)   (Total)
    R1        2.85620  -0.01198   0.00000  -0.02291  -0.01833   2.83787
    R2        2.54490  -0.00975   0.00000  -0.01852  -0.01482   2.53008
    R3        2.05441   0.00175   0.00000   0.00743   0.00594   2.06035
    R4        2.90468   0.00092   0.00000   0.00120   0.00096   2.90564
    R5        2.08791  -0.00010   0.00000   0.01031   0.00825   2.09616
    R6        2.10065   0.00015   0.00000  -0.00404  -0.00323   2.09742
    R7        2.90886  -0.00297   0.00000  -0.00502  -0.00402   2.90484
    R8        2.10074  -0.00203   0.00000  -0.00925  -0.00740   2.09334
    R9        2.10133  -0.00265   0.00000  -0.00957  -0.00765   2.09368
   R10        2.90148   0.00017   0.00000  -0.00017  -0.00014   2.90134
   R11        2.10272  -0.00218   0.00000  -0.01176  -0.00941   2.09331
   R12        2.10098  -0.00324   0.00000  -0.00654  -0.00523   2.09575
   R13        2.89794   0.00367   0.00000   0.00297   0.00237   2.90031
   R14        2.09787  -0.00142   0.00000   0.00018   0.00015   2.09802
   R15        2.10147  -0.00310   0.00000  -0.01152  -0.00921   2.09226
   R16        2.89621   0.00372   0.00000   0.00600   0.00480   2.90100
   R17        2.10287  -0.00336   0.00000  -0.01219  -0.00975   2.09312
   R18        2.10280  -0.00288   0.00000  -0.01038  -0.00830   2.09450
   R19        2.90242   0.00028   0.00000  -0.00110  -0.00088   2.90155
   R20        2.09768  -0.00149   0.00000  -0.00042  -0.00034   2.09735
   R21        2.10000  -0.00256   0.00000  -0.00855  -0.00684   2.09315
   R22        2.90303  -0.00020   0.00000  -0.00326  -0.00261   2.90042
   R23        2.10235  -0.00339   0.00000  -0.01021  -0.00817   2.09418
   R24        2.10147  -0.00189   0.00000  -0.00666  -0.00533   2.09614
   R25        2.90585   0.00765   0.00000   0.00586   0.00469   2.91054
   R26        2.10098  -0.00192   0.00000  -0.00825  -0.00660   2.09438
   R27        2.10298  -0.00347   0.00000  -0.01190  -0.00952   2.09346
   R28        2.76263   0.02520   0.00000   0.04341   0.03473   2.79736
   R29        2.09928   0.00128   0.00000   0.00264   0.00211   2.10139
   R30        2.10095   0.00062   0.00000   0.00049   0.00039   2.10134
   R31        1.97765  -0.01486   0.00000  -0.05888  -0.04710   1.93054
   R32        1.97586  -0.01434   0.00000  -0.05714  -0.04571   1.93015
   R33        2.84969  -0.00766   0.00000  -0.01420  -0.01136   2.83833
   R34        2.05180   0.00220   0.00000   0.00895   0.00716   2.05895
   R35        2.89819   0.00207   0.00000   0.00911   0.00729   2.90547
   R36        2.10067   0.00003   0.00000  -0.00633  -0.00506   2.09561
   R37        2.09070  -0.00097   0.00000   0.00481   0.00385   2.09455
   R38        2.90547   0.00027   0.00000  -0.00444  -0.00355   2.90191
   R39        2.10301  -0.00335   0.00000  -0.00559  -0.00447   2.09854
   R40        2.10194  -0.00215   0.00000  -0.01014  -0.00811   2.09383
   R41        2.90507  -0.00154   0.00000  -0.00320  -0.00256   2.90250
   R42        2.10250  -0.00257   0.00000  -0.00967  -0.00774   2.09476
   R43        2.09821  -0.00298   0.00000  -0.00733  -0.00587   2.09234
   R44        2.90214   0.00092   0.00000  -0.00106  -0.00085   2.90128
   R45        2.09870  -0.00306   0.00000  -0.00745  -0.00596   2.09275
   R46        2.10016  -0.00100   0.00000   0.00022   0.00017   2.10033
   R47        2.90362  -0.00044   0.00000  -0.00091  -0.00073   2.90289
   R48        2.10157  -0.00186   0.00000  -0.00788  -0.00630   2.09527
   R49        2.10146  -0.00384   0.00000  -0.01113  -0.00891   2.09256
   R50        2.88543   0.00434   0.00000   0.00254   0.00203   2.88746
   R51        2.09706  -0.00169   0.00000  -0.00463  -0.00370   2.09336
   R52        2.09971  -0.00228   0.00000  -0.00734  -0.00588   2.09383
   R53        2.09996  -0.00851   0.00000  -0.02859  -0.02287   2.07709
   R54        2.10086  -0.00891   0.00000  -0.03035  -0.02428   2.07658
   R55        2.09802  -0.00774   0.00000  -0.02692  -0.02154   2.07649
    A1        2.19419  -0.00271   0.00000  -0.00741  -0.00593   2.18825
    A2        2.04389  -0.00526   0.00000  -0.04756  -0.03806   2.00583
    A3        2.04511   0.00796   0.00000   0.05494   0.04394   2.08905
    A4        1.94345   0.00182   0.00000   0.00713   0.00539   1.94884
    A5        1.98002  -0.00400   0.00000  -0.03676  -0.02940   1.95062
    A6        1.87748   0.00032   0.00000   0.02259   0.01765   1.89513
    A7        1.90438   0.00139   0.00000  -0.00248  -0.00206   1.90233
    A8        1.88565   0.00123   0.00000   0.03206   0.02531   1.91096
    A9        1.86895  -0.00065   0.00000  -0.01976  -0.01569   1.85326
   A10        1.98374  -0.00300   0.00000  -0.02684  -0.02144   1.96230
   A11        1.90209   0.00164   0.00000   0.01665   0.01337   1.91546
   A12        1.90344   0.00074   0.00000   0.00278   0.00221   1.90565
   A13        1.89803   0.00073   0.00000   0.01085   0.00875   1.90678
   A14        1.90942   0.00108   0.00000   0.00878   0.00697   1.91640
   A15        1.86331  -0.00110   0.00000  -0.01142  -0.00918   1.85413
   A16        1.96447  -0.00114   0.00000  -0.00864  -0.00706   1.95741
   A17        1.88129   0.00137   0.00000   0.02669   0.02130   1.90259
   A18        1.92319  -0.00061   0.00000  -0.01457  -0.01171   1.91148
   A19        1.89787   0.00099   0.00000   0.01970   0.01567   1.91354
   A20        1.91834   0.00048   0.00000  -0.00444  -0.00367   1.91467
   A21        1.87603  -0.00106   0.00000  -0.01815  -0.01440   1.86164
   A22        1.93763   0.00023   0.00000   0.01026   0.00810   1.94574
   A23        1.91303  -0.00066   0.00000  -0.00729  -0.00591   1.90712
   A24        1.91163   0.00013   0.00000   0.00681   0.00528   1.91691
   A25        1.89788   0.00137   0.00000   0.01278   0.01026   1.90814
   A26        1.90443   0.00068   0.00000   0.01415   0.01123   1.91567
   A27        1.89876  -0.00178   0.00000  -0.03768  -0.03015   1.86861
   A28        1.93792   0.00015   0.00000   0.00033   0.00022   1.93814
   A29        1.91112   0.00023   0.00000   0.00661   0.00527   1.91639
   A30        1.90443   0.00047   0.00000   0.00926   0.00738   1.91181
   A31        1.91045   0.00032   0.00000   0.00893   0.00713   1.91758
   A32        1.90497   0.00053   0.00000   0.00880   0.00701   1.91198
   A33        1.89440  -0.00174   0.00000  -0.03484  -0.02784   1.86656
   A34        1.94314  -0.00059   0.00000   0.00208   0.00161   1.94475
   A35        1.89890   0.00123   0.00000   0.01336   0.01066   1.90956
   A36        1.90884   0.00051   0.00000   0.00593   0.00473   1.91357
   A37        1.91128   0.00021   0.00000   0.00530   0.00418   1.91547
   A38        1.90990   0.00031   0.00000   0.00606   0.00483   1.91473
   A39        1.89101  -0.00172   0.00000  -0.03379  -0.02701   1.86400
   A40        1.96586  -0.00030   0.00000   0.00131   0.00102   1.96688
   A41        1.91278   0.00035   0.00000   0.00272   0.00218   1.91496
   A42        1.90912  -0.00006   0.00000   0.00290   0.00226   1.91138
   A43        1.91606  -0.00009   0.00000   0.00124   0.00100   1.91706
   A44        1.88025   0.00128   0.00000   0.01586   0.01266   1.89291
   A45        1.87747  -0.00122   0.00000  -0.02522  -0.02016   1.85731
   A46        1.96833  -0.00104   0.00000  -0.00681  -0.00545   1.96288
   A47        1.88720   0.00030   0.00000   0.01108   0.00885   1.89606
   A48        1.90884   0.00030   0.00000   0.00602   0.00482   1.91366
   A49        1.90001   0.00129   0.00000   0.01183   0.00945   1.90946
   A50        1.91744   0.00046   0.00000   0.00237   0.00190   1.91935
   A51        1.87971  -0.00134   0.00000  -0.02541  -0.02031   1.85940
   A52        1.94223   0.01124   0.00000   0.04399   0.03504   1.97726
   A53        1.92012  -0.00244   0.00000   0.00173   0.00136   1.92148
   A54        1.91913  -0.00245   0.00000   0.00247   0.00196   1.92109
   A55        1.89378  -0.00316   0.00000  -0.01183  -0.00972   1.88406
   A56        1.90101  -0.00325   0.00000  -0.01333  -0.01092   1.89009
   A57        1.88647  -0.00027   0.00000  -0.02534  -0.02039   1.86608
   A58        1.90350   0.00645   0.00000   0.02843   0.02255   1.92605
   A59        1.90078   0.00707   0.00000   0.03065   0.02433   1.92511
   A60        1.88363  -0.00552   0.00000  -0.01950  -0.01599   1.86764
   A61        2.19323  -0.00207   0.00000  -0.00867  -0.00709   2.18614
   A62        2.05208   0.00671   0.00000   0.04839   0.03855   2.09062
   A63        2.03779  -0.00463   0.00000  -0.03923  -0.03154   2.00626
   A64        1.92618   0.00043   0.00000  -0.00787  -0.00663   1.91955
   A65        1.88132   0.00127   0.00000   0.03536   0.02822   1.90954
   A66        1.96179  -0.00147   0.00000  -0.01893  -0.01545   1.94634
   A67        1.90051   0.00104   0.00000   0.01943   0.01544   1.91594
   A68        1.94303  -0.00092   0.00000  -0.02188  -0.01777   1.92526
   A69        1.84742  -0.00022   0.00000  -0.00226  -0.00160   1.84582
   A70        1.95594   0.00057   0.00000   0.00765   0.00602   1.96195
   A71        1.92600  -0.00119   0.00000  -0.01445  -0.01154   1.91447
   A72        1.89374   0.00072   0.00000   0.01199   0.00941   1.90315
   A73        1.92210   0.00029   0.00000  -0.00095  -0.00072   1.92137
   A74        1.89175   0.00059   0.00000   0.01720   0.01362   1.90537
   A75        1.87181  -0.00101   0.00000  -0.02196  -0.01752   1.85429
   A76        1.95113   0.00047   0.00000   0.00465   0.00366   1.95479
   A77        1.89442   0.00018   0.00000   0.00966   0.00762   1.90204
   A78        1.91565   0.00089   0.00000   0.00768   0.00617   1.92182
   A79        1.89124   0.00098   0.00000   0.01483   0.01178   1.90302
   A80        1.93427  -0.00149   0.00000  -0.01272  -0.01016   1.92411
   A81        1.87495  -0.00107   0.00000  -0.02478  -0.01979   1.85516
   A82        1.96639  -0.00106   0.00000  -0.00176  -0.00149   1.96490
   A83        1.93403  -0.00086   0.00000  -0.01339  -0.01070   1.92333
   A84        1.88892   0.00101   0.00000   0.01478   0.01173   1.90065
   A85        1.91966   0.00076   0.00000   0.00200   0.00158   1.92123
   A86        1.87991   0.00140   0.00000   0.01984   0.01578   1.89569
   A87        1.87138  -0.00120   0.00000  -0.02129  -0.01699   1.85439
   A88        1.96224  -0.00042   0.00000   0.00041   0.00027   1.96251
   A89        1.88079   0.00136   0.00000   0.02049   0.01633   1.89712
   A90        1.92223   0.00010   0.00000  -0.00100  -0.00078   1.92145
   A91        1.89839   0.00043   0.00000   0.00901   0.00710   1.90549
   A92        1.92091  -0.00025   0.00000  -0.00549  -0.00439   1.91652
   A93        1.87672  -0.00122   0.00000  -0.02393  -0.01911   1.85761
   A94        1.93961   0.00108   0.00000   0.00852   0.00676   1.94637
   A95        1.92133  -0.00114   0.00000  -0.00636  -0.00521   1.91612
   A96        1.91849  -0.00071   0.00000  -0.00150  -0.00133   1.91716
   A97        1.89410   0.00124   0.00000   0.01738   0.01392   1.90802
   A98        1.89606   0.00099   0.00000   0.01564   0.01250   1.90856
   A99        1.89334  -0.00146   0.00000  -0.03430  -0.02752   1.86583
   A100       1.92544   0.00336   0.00000   0.02102   0.01667   1.94211
   A101       1.92602   0.00314   0.00000   0.02064   0.01638   1.94240
   A102       1.91267   0.00360   0.00000   0.02440   0.01932   1.93199
   A103       1.90898  -0.00382   0.00000  -0.02974  -0.02387   1.88512
   A104       1.89316  -0.00322   0.00000  -0.01781  -0.01445   1.87871
   A105       1.89701  -0.00329   0.00000  -0.01985  -0.01606   1.88095
    D1        2.35401  -0.00109   0.00000  -0.31887  -0.25505   2.09896
    D2        0.19756  -0.00132   0.00000  -0.29333  -0.23466  -0.03711
    D3       -1.86617   0.00164   0.00000  -0.26200  -0.20943  -2.07560
    D4       -0.78479  -0.00109   0.00000  -0.30885  -0.24718  -1.03197
    D5       -2.94125  -0.00133   0.00000  -0.28331  -0.22679   3.11515
    D6        1.27821   0.00163   0.00000  -0.25198  -0.20156   1.07665
    D7        0.05394  -0.00148   0.00000  -0.08547  -0.06864  -0.01470
    D8       -3.10185  -0.00084   0.00000  -0.04317  -0.03407  -3.13593
    D9       -3.09044  -0.00150   0.00000  -0.09565  -0.07698   3.11576
   D10        0.03695  -0.00085   0.00000  -0.05334  -0.04241  -0.00547
   D11       -1.17057   0.00156   0.00000   0.02055   0.01658  -1.15399
   D12        0.94920   0.00168   0.00000   0.02849   0.02287   0.97207
   D13        2.97722   0.00169   0.00000   0.02561   0.02059   2.99781
   D14        1.02834  -0.00127   0.00000  -0.02355  -0.01881   1.00953
   D15       -3.13509  -0.00116   0.00000  -0.01561  -0.01251   3.13559
   D16       -1.10706  -0.00115   0.00000  -0.01849  -0.01480  -1.12186
   D17        3.05455  -0.00063   0.00000  -0.03079  -0.02471   3.02983
   D18       -1.10888  -0.00051   0.00000  -0.02286  -0.01841  -1.12729
   D19        0.91915  -0.00051   0.00000  -0.02573  -0.02070   0.89844
   D20       -1.24817   0.00106   0.00000   0.06444   0.05154  -1.19663
   D21        2.94220  -0.00039   0.00000   0.02751   0.02196   2.96417
   D22        0.89984   0.00043   0.00000   0.04185   0.03354   0.93339
   D23        2.91299   0.00043   0.00000   0.05322   0.04258   2.95557
   D24        0.82018  -0.00102   0.00000   0.01629   0.01300   0.83318
   D25       -1.22218  -0.00020   0.00000   0.03063   0.02458  -1.19760
   D26        0.88392   0.00074   0.00000   0.05595   0.04474   0.92866
   D27       -1.20889  -0.00071   0.00000   0.01903   0.01516  -1.19373
   D28        3.03194   0.00011   0.00000   0.03337   0.02674   3.05867
   D29       -3.03540  -0.00096   0.00000  -0.07156  -0.05728  -3.09268
   D30        1.15078  -0.00238   0.00000  -0.08925  -0.07138   1.07940
   D31       -0.93115   0.00012   0.00000  -0.04289  -0.03432  -0.96547
   D32       -0.95220   0.00070   0.00000  -0.03046  -0.02437  -0.97658
   D33       -3.04921  -0.00072   0.00000  -0.04815  -0.03847  -3.08767
   D34        1.15205   0.00178   0.00000  -0.00179  -0.00141   1.15064
   D35        1.09706   0.00028   0.00000  -0.04339  -0.03475   1.06231
   D36       -0.99994  -0.00114   0.00000  -0.06107  -0.04885  -1.04879
   D37       -3.08187   0.00135   0.00000  -0.01472  -0.01179  -3.09366
   D38       -3.08234   0.00001   0.00000   0.02216   0.01773  -3.06460
   D39        1.08923  -0.00064   0.00000   0.00641   0.00513   1.09436
   D40       -0.98193   0.00106   0.00000   0.03930   0.03146  -0.95047
   D41       -0.97636   0.00023   0.00000   0.02778   0.02226  -0.95410
   D42       -3.08798  -0.00042   0.00000   0.01203   0.00965  -3.07832
   D43        1.12405   0.00128   0.00000   0.04492   0.03598   1.16003
   D44        1.09234  -0.00074   0.00000  -0.00206  -0.00169   1.09065
   D45       -1.01927  -0.00139   0.00000  -0.01781  -0.01430  -1.03357
   D46       -3.09044   0.00031   0.00000   0.01508   0.01203  -3.07840
   D47       -3.10721   0.00025   0.00000  -0.00275  -0.00219  -3.10941
   D48        1.06805  -0.00045   0.00000  -0.01944  -0.01557   1.05249
   D49       -0.99443   0.00061   0.00000   0.01014   0.00812  -0.98632
   D50       -0.99520   0.00085   0.00000   0.01163   0.00932  -0.98588
   D51       -3.10312   0.00014   0.00000  -0.00506  -0.00406  -3.10718
   D52        1.11757   0.00120   0.00000   0.02452   0.01963   1.13721
   D53        1.07588  -0.00076   0.00000  -0.02017  -0.01613   1.05975
   D54       -1.03203  -0.00147   0.00000  -0.03685  -0.02951  -1.06154
   D55       -3.09452  -0.00041   0.00000  -0.00728  -0.00582  -3.10035
   D56       -2.89467  -0.00094   0.00000  -0.01593  -0.01274  -2.90741
   D57        1.25005  -0.00087   0.00000  -0.02038  -0.01631   1.23375
   D58       -0.80432   0.00045   0.00000   0.00688   0.00550  -0.79881
   D59       -0.79404   0.00037   0.00000   0.00560   0.00448  -0.78955
   D60       -2.93250   0.00044   0.00000   0.00114   0.00092  -2.93158
   D61        1.29632   0.00175   0.00000   0.02841   0.02273   1.31905
   D62        1.27636  -0.00141   0.00000  -0.02874  -0.02300   1.25336
   D63       -0.86210  -0.00134   0.00000  -0.03320  -0.02657  -0.88867
   D64       -2.91647  -0.00003   0.00000  -0.00594  -0.00475  -2.92123
   D65       -1.14010   0.00042   0.00000   0.00201   0.00163  -1.13847
   D66        3.04125  -0.00075   0.00000  -0.01606  -0.01284   3.02842
   D67        0.99899   0.00051   0.00000   0.00473   0.00380   1.00279
   D68        0.99652   0.00059   0.00000   0.00731   0.00586   1.00238
   D69       -1.10532  -0.00057   0.00000  -0.01076  -0.00860  -1.11392
   D70        3.13560   0.00069   0.00000   0.01003   0.00803  -3.13955
   D71        3.03611  -0.00018   0.00000  -0.01313  -0.01052   3.02559
   D72        0.93428  -0.00135   0.00000  -0.03120  -0.02498   0.90929
   D73       -1.10799  -0.00009   0.00000  -0.01041  -0.00835  -1.11634
   D74       -3.03888  -0.00023   0.00000  -0.00695  -0.00556  -3.04445
   D75        1.14481  -0.00194   0.00000  -0.02182  -0.01753   1.12728
   D76       -0.93098   0.00140   0.00000   0.00675   0.00547  -0.92551
   D77       -0.94440   0.00037   0.00000   0.01072   0.00858  -0.93583
   D78       -3.04390  -0.00135   0.00000  -0.00416  -0.00339  -3.04728
   D79        1.16350   0.00200   0.00000   0.02441   0.01961   1.18311
   D80        1.11004  -0.00022   0.00000  -0.01169  -0.00936   1.10068
   D81       -0.98945  -0.00194   0.00000  -0.02657  -0.02132  -1.01078
   D82       -3.06525   0.00141   0.00000   0.00200   0.00167  -3.06357
   D83        1.06608   0.00046   0.00000   0.00249   0.00209   1.06817
   D84       -0.98557  -0.00060   0.00000  -0.00763  -0.00622  -0.99179
   D85       -3.10213   0.00240   0.00000   0.02444   0.01956  -3.08257
   D86        1.12940   0.00134   0.00000   0.01431   0.01125   1.14065
   D87       -1.05243  -0.00150   0.00000  -0.01984  -0.01566  -1.06808
   D88       -3.10408  -0.00256   0.00000  -0.02996  -0.02397  -3.12805
   D89       -1.81399   0.00177   0.00000   0.02538   0.02003  -1.79396
   D90        2.39569  -0.00051   0.00000  -0.01485  -0.01223   2.38346
   D91        0.36649  -0.00020   0.00000  -0.02332  -0.01880   0.34768
   D92        1.34170   0.00104   0.00000  -0.01725  -0.01356   1.32814
   D93       -0.73180  -0.00123   0.00000  -0.05748  -0.04582  -0.77762
   D94       -2.76101  -0.00092   0.00000  -0.06595  -0.05239  -2.81340
   D95        3.08290  -0.00214   0.00000  -0.07862  -0.06287   3.02003
   D96        0.93402  -0.00204   0.00000  -0.07231  -0.05780   0.87623
   D97       -1.11208  -0.00058   0.00000  -0.04466  -0.03565  -1.14773
   D98       -1.13851   0.00029   0.00000  -0.02845  -0.02274  -1.16126
   D99        2.99580   0.00039   0.00000  -0.02215  -0.01767   2.97812
   D100       0.94969   0.00185   0.00000   0.00550   0.00448   0.95417
   D101       0.89177   0.00013   0.00000  -0.03204  -0.02576   0.86601
   D102      -1.25711   0.00023   0.00000  -0.02574  -0.02069  -1.27780
   D103       2.97997   0.00169   0.00000   0.00192   0.00146   2.98143
   D104      -1.46198   0.00187   0.00000   0.01022   0.00823  -1.45375
   D105       2.73614   0.00025   0.00000  -0.01725  -0.01378   2.72236
   D106       0.69171   0.00094   0.00000   0.00265   0.00216   0.69387
   D107       0.68910   0.00095   0.00000  -0.00370  -0.00294   0.68616
   D108      -1.39596  -0.00068   0.00000  -0.03117  -0.02494  -1.42091
   D109       2.84279   0.00001   0.00000  -0.01127  -0.00900   2.83379
   D110       2.73183   0.00024   0.00000  -0.02065  -0.01656   2.71528
   D111       0.64677  -0.00138   0.00000  -0.04813  -0.03856   0.60820
   D112      -1.39766  -0.00070   0.00000  -0.02823  -0.02262  -1.42028
   D113       3.08381  -0.00091   0.00000  -0.01669  -0.01339   3.07043
   D114       0.92462  -0.00048   0.00000  -0.00790  -0.00636   0.91825
   D115      -1.12265   0.00086   0.00000   0.01664   0.01330  -1.10935
   D116      -1.11243   0.00024   0.00000   0.00770   0.00618  -1.10625
   D117       3.01156   0.00067   0.00000   0.01649   0.01321   3.02476
   D118       0.96429   0.00200   0.00000   0.04103   0.03287   0.99716
   D119       0.94068  -0.00132   0.00000  -0.02073  -0.01659   0.92409
   D120      -1.21851  -0.00089   0.00000  -0.01194  -0.00957  -1.22808
   D121       3.01741   0.00044   0.00000   0.01260   0.01010   3.02751
   D122      -1.34713   0.00162   0.00000   0.03029   0.02429  -1.32284
   D123       2.84428   0.00044   0.00000   0.00535   0.00427   2.84855
   D124       0.80192   0.00107   0.00000   0.02276   0.01824   0.82016
   D125       0.82001   0.00031   0.00000   0.01307   0.01049   0.83049
   D126      -1.27177  -0.00087   0.00000  -0.01187  -0.00953  -1.28129
   D127       2.96906  -0.00024   0.00000   0.00554   0.00444   2.97350
   D128       2.85409   0.00009   0.00000  -0.00001  -0.00001   2.85408
   D129       0.76232  -0.00109   0.00000  -0.02495  -0.02002   0.74230
   D130      -1.28005  -0.00046   0.00000  -0.00754  -0.00605  -1.28610
   D131      -2.99182  -0.00083   0.00000  -0.02344  -0.01876  -3.01058
   D132       1.19237  -0.00232   0.00000  -0.04655  -0.03720   1.15517
   D133      -0.89224   0.00063   0.00000   0.00065   0.00048  -0.89177
   D134      -0.91029   0.00089   0.00000   0.00836   0.00669  -0.90360
   D135      -3.00929  -0.00060   0.00000  -0.01475  -0.01175  -3.02103
   D136       1.18929   0.00236   0.00000   0.03244   0.02593   1.21521
   D137       1.14158  -0.00048   0.00000  -0.01842  -0.01475   1.12683
   D138      -0.95742  -0.00197   0.00000  -0.04153  -0.03318  -0.99060
   D139      -3.04203   0.00099   0.00000   0.00566   0.00449  -3.03754
   D140       1.06160  -0.00015   0.00000  -0.00379  -0.00307   1.05853
   D141      -1.04988   0.00036   0.00000   0.00615   0.00495  -1.04494
   D142      -3.13829   0.00021   0.00000   0.00248   0.00199  -3.13630
   D143      -3.10654  -0.00009   0.00000   0.00502   0.00401  -3.10253
   D144       1.06516   0.00043   0.00000   0.01496   0.01203   1.07720
   D145      -1.02324   0.00027   0.00000   0.01129   0.00907  -1.01417
   D146      -1.05121  -0.00060   0.00000  -0.01750  -0.01407  -1.06528
   D147       3.12050  -0.00008   0.00000  -0.00756  -0.00605   3.11444
   D148       1.03209  -0.00023   0.00000  -0.01123  -0.00902   1.02308
         Item               Value     Threshold  Converged?
 Maximum Force            0.025198     0.000450     NO 
 RMS     Force            0.002940     0.000300     NO 
 Maximum Displacement     2.926320     0.001800     NO 
 RMS     Displacement     0.807172     0.001200     NO 
 Predicted change in Energy=-7.048071D-03
 GradGradGradGradGradGradGradGradGradGradGradGradGradGradGradGradGradGrad

 Stoichiometry    C18H37N
 Framework group  C1[X(C18H37N)]
 Deg. of freedom   162
 Full point group                 C1      NOp   1
 Largest Abelian subgroup         C1      NOp   1
 Largest concise Abelian subgroup C1      NOp   1
                         Standard orientation:                         
 ---------------------------------------------------------------------
 Center     Atomic      Atomic             Coordinates (Angstroms)
 Number     Number       Type             X           Y           Z
[...]
 000481,0.00000794,0.00000679,0.00000211,0.00000377,-0.00000170,0.00000
 052,0.00000735,-0.00000485,0.00001736,0.00002852,-0.00003051,0.0000105
 8,0.00000833,-0.00000037,0.00000153,0.00000478,-0.00000179,0.00000036,
 0.00000478,-0.00000609,0.00000070,0.00000105,-0.00000547,0.00000463,0.
 00000213,-0.00001269,0.00000596,0.00000498,-0.00000382,0.00000341,0.00
 000352,-0.00000237,0.00001061,0.00000151,-0.00000366,0.00000772,0.0000
 0313,-0.00000813,-0.00000254,-0.00000078,0.00000890,-0.00000575,0.0000
 0504,0.00002363,0.00000128,0.00000881,0.00003593,-0.00000175,0.0000154
 4,-0.00001002,-0.00000683,-0.00000339,-0.00000908,0.00000197,-0.000006
 61,-0.00003290,-0.00007553,0.00004299,-0.00002726,-0.00007785,0.000650
 24,-0.00011817,0.00008714,-0.00008362,-0.00002023,0.00034132,-0.000204
 28,-0.00028290,0.00084590,0.00127846,-0.00243119,-0.00656542,-0.004254
 94,-0.00183630,0.04164376,0.09269228,0.19071759,0.00001447,-0.00001254
 ,0.00000266,-0.00000196,-0.00001201,-0.00000646,-0.00000796,-0.0000054
 5,-0.00000399,-0.00000950,-0.00000875,0.00000607,-0.00001786,-0.000015
 42,0.00000224,-0.00001409,-0.00000889,0.00000668,-0.00002969,-0.000016
 62,0.00001289,-0.00001921,-0.00001007,-0.00000078,-0.00002960,0.000005
 50,0.00000195,0.00003109,-0.00002265,-0.00001218,-0.00004273,0.0000381
 3,-0.00004133,-0.00000686,0.00000236,-0.00000442,0.00000953,-0.0000261
 2,0.00000286,0.00001830,-0.00002681,0.00002471,-0.00001886,-0.00003917
 ,0.00001447,-0.00008811,-0.00020625,0.00020385,-0.00010257,0.00021289,
 -0.00044641,-0.02238005,0.01375296,-0.00115914,-0.21800933,-0.01346958
 ,-0.00113615,-0.00000646,0.00000714,-0.00000128,0.00000447,0.00000891,
 0.00000332,0.00000098,0.00000334,0.00000395,0.00000172,0.00000375,0.00
 000102,0.00000435,0.00000172,0.00000236,0.00000290,0.00000232,-0.00000
 108,0.00000288,0.00000490,-0.00000325,0.00001180,0.00001654,-0.0000041
 0,0.00000887,0.00000302,0.00000183,0.00000401,0.00000145,-0.00000119,0
 .00000408,0.00000554,-0.00000419,0.00002374,0.00001822,-0.00001882,0.0
 0001490,-0.00000183,0.00000264,0.00000481,0.00000103,0.00000099,0.0000
 0551,0.00000472,-0.00000329,0.00000488,0.00000013,0.00000044,0.0000163
 9,-0.00000056,-0.00000341,0.00000554,-0.00000709,0.00000831,-0.0000017
 1,-0.00000090,0.00000233,0.00000393,0.00000134,0.00000771,0.00002942,-
 0.00001112,0.00004116,0.00000027,-0.00000030,0.00000104,-0.00000804,0.
 00001027,0.00000012,-0.00000155,0.00001687,0.00000275,0.00000532,0.000
 01547,-0.00001012,-0.00000288,0.00000227,-0.00000750,-0.00000551,0.000
 01020,-0.00001794,-0.00002414,0.00002101,-0.00001228,0.00002851,0.0000
 4500,0.00000904,0.00005693,-0.00001330,-0.00002306,0.00017732,0.000173
 34,-0.00011962,0.00000353,0.00005234,-0.00009457,-0.00069394,0.0013548
 1,-0.00003356,0.00011049,0.00025216,0.00038490,0.26657274,-0.00000419,
 0.00000836,0.00000054,-0.00000827,0.00001278,0.00000270,-0.00000613,0.
 00000987,0.00000083,-0.00000177,0.00000579,-0.00000633,-0.00000339,0.0
 0001474,-0.00000850,-0.00000120,0.00000978,-0.00001171,0.00000138,0.00
 002024,-0.00002216,-0.00000025,0.00001041,-0.00000927,0.00000797,-0.00
 000327,-0.00003047,-0.00000123,0.00001520,-0.00001636,0.00002030,-0.00
 001523,-0.00002635,-0.00000568,-0.00000361,0.00000331,-0.00001855,0.00
 000247,-0.00000034,-0.00003871,0.00000065,-0.00001468,-0.00002070,-0.0
 0001684,0.00002279,-0.00000950,0.00003429,-0.00006378,0.00034698,-0.00
 032627,0.00026059,0.02822786,-0.00601358,0.00067730,-0.01520385,-0.035
 91861,-0.00012165,0.00000405,-0.00000425,-0.00000067,0.00000611,-0.000
 00937,-0.00000180,0.00000297,-0.00000431,-0.00000249,0.00000149,-0.000
 00366,0.00000029,0.00000136,-0.00000533,-0.00000026,0.00000015,-0.0000
 0290,0.00000223,0.00000265,-0.00000225,0.00000250,0.00000435,-0.000011
 57,0.00000481,0.00000088,-0.00000904,0.00000311,-0.00000027,-0.0000031
 6,0.00000379,0.00000217,-0.00000340,0.00000473,0.00000010,-0.00001724,
 0.00002031,-0.00000298,-0.00000924,0.00000872,0.00000002,-0.00000318,0
 .00000394,0.00000244,-0.00000267,0.00000604,0.00000063,0.00000272,0.00
 000754,-0.00000228,0.,0.00002102,-0.00000406,-0.00000488,0.00001559,-0
 .00000274,-0.00000284,0.00000502,-0.00001491,0.00000371,0.00000777,-0.
 00000456,0.00000905,0.00001874,0.00000543,0.00000113,-0.00000017,0.000
 00797,0.00000296,-0.00000244,0.00001146,-0.00000416,-0.00000117,0.0000
 0891,-0.00000785,0.00000634,0.00000578,0.00000441,0.00000434,0.0000083
 4,0.00000731,0.00000690,0.00000125,0.00002222,-0.00002094,0.00003240,-
 0.00000602,-0.00001220,-0.00001152,-0.00000367,0.00003428,-0.00007476,
 -0.00049771,0.00043540,0.00010529,0.00000704,0.00010269,0.00143998,-0.
 00270605,0.00010644,0.00065969,-0.00004611,-0.00016194,0.00923782,0.04
 531015,0.00000752,-0.00000353,-0.00000284,-0.00000098,-0.00000342,-0.0
 0001638,-0.00000176,-0.00000687,-0.00000323,-0.00000079,-0.00000352,-0
 .00000385,-0.00000214,-0.00001116,-0.00000468,-0.00000097,-0.00001161,
 -0.00000058,-0.00000288,-0.00002237,0.00000397,-0.00000271,-0.00001398
 ,0.00000891,-0.00000653,-0.00003670,0.00002148,-0.00000347,-0.00001345
 ,0.00001625,-0.00004027,-0.00003182,0.00001993,0.00000018,0.00000065,-
 0.00001355,0.00000603,-0.00000257,-0.00001848,0.00002785,-0.00000524,0
 .00000689,0.00000744,-0.00003492,-0.00003994,0.00002591,-0.00006294,-0
 .00009105,-0.00033245,0.00034872,-0.00037781,-0.00196635,0.00058936,0.
 00327591,-0.00124516,-0.00015797,-0.03470251,-0.00000375,0.00000223,0.
 00000321,0.00000115,0.00000162,0.00001008,0.00000094,-0.00000109,0.000
 00658,0.00000031,0.00000214,0.00000072,0.00000150,0.00000161,0.0000034
 6,0.00000064,0.00000209,0.00000068,-0.00000118,0.00000224,0.00000111,0
 .00000026,0.00000950,0.00000428,0.00000225,0.00000428,0.00000571,0.000
 00122,0.00000409,-0.00000009,-0.00000150,0.00000473,-0.00000098,0.0000
 0089,0.00001974,-0.00000480,0.00000342,0.00001062,0.00000293,0.0000005
 7,0.00000541,-0.00000330,-0.00000138,0.00000690,-0.00000520,0.00000062
 ,0.00000735,-0.00001050,0.00000401,0.00002463,-0.00002010,0.00000730,0
 .00001538,-0.00000116,0.00000670,0.00000703,-0.00000259,0.00002044,0.0
 0000530,-0.00000772,0.00001514,0.00002629,-0.00003450,-0.00000189,-0.0
 0000025,0.00000535,-0.00000178,-0.00000254,0.00001094,0.00000021,0.000
 00014,0.00001452,-0.00000350,0.00000828,0.00000004,-0.00000410,-0.0000
 0300,0.,-0.00001594,0.00000906,0.00000240,-0.00001231,0.00000009,0.000
 02546,0.00001292,-0.00001363,0.00005717,0.00001044,0.00002210,-0.00000
 632,0.00004949,0.00049037,-0.00008207,-0.00016030,0.00016393,-0.000126
 57,-0.00005057,0.00017127,0.00034982,0.00042225,-0.00036202,0.00013853
 ,0.00199701,-0.00081182,0.03465907,0.00000627,-0.00000319,0.00000212,-
 0.00000547,-0.00000018,-0.00000076,-0.00000786,0.00000213,-0.00000167,
 -0.00000663,-0.00000237,0.00000152,-0.00001091,0.00000076,-0.00000188,
 -0.00000830,0.00000123,-0.00000108,-0.00001288,0.00000570,-0.00000435,
 -0.00001165,0.00000151,-0.00000650,-0.00001381,0.00001464,-0.00001364,
 0.00001706,-0.00000629,-0.00001431,-0.00000566,0.00003166,-0.00002872,
 -0.00001067,-0.00000023,0.,-0.00001475,-0.00001659,-0.00000119,-0.0000
 4063,-0.00001840,-0.00000203,-0.00002490,-0.00005069,0.00000773,-0.000
 04932,0.00001185,-0.00000465,-0.00012927,-0.00019109,0.00010860,0.0041
 8610,0.00820509,0.00695961,-0.04777359,-0.02814895,-0.03865539,-0.0000
 0167,0.00000281,-0.00000160,0.00000548,-0.00000103,-0.00000035,0.00000
 160,0.00000001,0.00000060,0.00000182,0.00000067,0.00000073,0.00000263,
 -0.00000143,0.00000078,0.00000171,0.00000006,0.00000011,0.00000382,0.0
 0000186,-0.00000097,0.00000877,0.00000032,0.00000006,0.00000373,-0.000
 00291,0.00000081,0.00000199,-0.00000102,0.00000061,0.00000466,0.000001
 04,0.00000015,0.00001027,-0.00000322,0.00000228,0.00000452,-0.00000607
 ,0.00000243,0.00000279,-0.00000177,0.00000246,0.00000614,0.00000092,0.
 00000197,0.00000428,-0.00000186,0.00000583,0.00000820,-0.00000941,0.00
 001037,-0.00000109,-0.00000884,0.00000600,-0.00000366,-0.00000306,0.00
 000296,-0.00000575,-0.00000185,0.00000824,0.00000754,-0.00001730,0.000
 03330,0.00000512,0.00000260,0.00000064,0.00000676,0.00001231,-0.000001
 12,0.00001007,0.00000282,0.00000004,0.00001253,0.00000295,-0.00000004,
 0.00000424,0.00001203,-0.00000136,0.00001195,0.00003658,-0.00001165,0.
 00001387,0.00005939,0.00000117,0.00000725,-0.00000464,-0.00001012,0.00
 000495,0.00000020,0.00000725,0.00003318,-0.00014461,0.00003761,0.00020
 881,0.00001378,-0.00003096,0.00007084,0.00067029,0.00042583,-0.0003832
 6,0.00141663,-0.00012093,-0.01256518,-0.01348886,-0.01915630,0.0515756
 1,-0.00001342,0.00001498,-0.00000021,-0.00000621,0.00001716,0.00000980
 ,-0.00000186,0.00001283,0.00000312,0.00000240,0.00000988,-0.00000757,0
 .00000595,0.00002282,-0.00000692,0.00000483,0.00001574,-0.00001375,0.0
 0001471,0.00003132,-0.00002667,0.00000589,0.00001683,-0.00001153,0.000
 01643,0.00000293,-0.00003633,-0.00000764,0.00002150,-0.00001637,0.0000
 3357,-0.00001372,-0.00002200,-0.00000319,-0.00000427,0.00001007,-0.000
 02424,0.00001767,0.00000335,-0.00005008,0.00002136,-0.00003194,-0.0000
 0683,0.00005223,-0.00000284,0.00005328,0.00018263,-0.00010600,-0.00026
 967,-0.00084533,0.00016440,0.00076585,-0.02976192,-0.02076275,-0.02720
 603,-0.09383601,-0.08087107,0.00000823,-0.00000767,-0.00000084,0.00000
 243,-0.00001203,-0.00000621,0.00000209,-0.00000468,-0.00000557,0.00000
 078,-0.00000550,-0.00000022,-0.00000074,-0.00000564,-0.00000208,-0.000
 00093,-0.00000409,0.00000247,0.00000172,-0.00000498,0.00000366,-0.0000
 0268,-0.00002070,0.00000445,-0.00000345,-0.00000968,-0.00000004,-0.000
 00179,-0.00000440,0.00000416,0.00000090,-0.00000682,0.00000699,-0.0000
 1195,-0.00002904,0.00002751,-0.00000902,-0.00000974,0.00000498,-0.0000
 0126,-0.00000458,0.00000454,0.00000107,-0.00000537,0.00000924,-0.00000
 022,0.00000181,0.00001075,-0.00000873,-0.00000546,0.00002671,-0.000006
 47,-0.00000602,0.00001094,-0.00000360,-0.00000368,0.00000530,-0.000018
 03,0.00000267,0.00000897,-0.00001102,0.00000316,0.00001742,0.00000672,
 0.00000180,-0.00000195,0.00001360,-0.00000273,-0.00000586,0.00000880,-
 0.00001240,-0.00000826,0.00000376,-0.00001571,0.00001179,0.00001050,0.
 00000493,0.00000997,0.00002289,-0.00000484,0.00002497,0.00003659,-0.00
 001797,-0.00000425,-0.00000892,-0.00001771,-0.00003765,-0.00004465,-0.
 00000217,0.00003884,-0.00010360,-0.00020029,0.00002709,0.00012545,-0.0
 0048818,0.00059789,0.00028933,-0.00001975,-0.00035575,0.00143103,-0.00
 275359,-0.00004277,-0.00599071,-0.00045635,-0.00579041,0.02960379,0.12
 201871,-0.00000007,0.00000276,-0.00000281,-0.00000139,0.00000304,-0.00
 000893,-0.00000030,-0.00000183,-0.00000119,0.00000097,0.00000074,-0.00
 000618,0.00000162,-0.00000056,-0.00000644,0.00000077,-0.00000497,-0.00
 000648,0.00000158,-0.00000730,-0.00000991,-0.00000553,-0.00000838,0.00
 000328,-0.00000979,-0.00003825,0.00000289,0.00000308,-0.00000973,0.000
 00480,-0.00003574,-0.00002387,-0.00000204,0.00000103,-0.00000040,-0.00
 001000,-0.00000286,0.00000850,-0.00001886,-0.00000147,0.00000347,-0.00
 001359,0.00000897,-0.00002372,-0.00006520,0.00005463,0.00008048,-0.000
 21028,-0.00008447,0.00022992,0.00014174,0.00197042,-0.00930295,0.00046
 119,-0.03786817,-0.08212380,-0.14705877,-0.00000001,-0.00000100,0.0000
 0292,0.00000026,-0.00000321,0.00000532,0.00000061,-0.00000220,0.000002
 90,0.00000010,0.,0.00000036,0.00000028,-0.00000006,0.00000157,0.,0.000
 00061,0.00000141,-0.00000076,0.00000020,0.00000264,-0.00000164,-0.0000
 0090,0.00000576,-0.00000003,0.00000011,0.00000396,0.00000051,0.0000024
 1,0.00000146,-0.00000074,0.00000247,0.00000235,-0.00000275,0.00000669,
 0.00001018,0.00000006,0.00000475,0.00000457,0.00000094,0.00000348,-0.0
 0000131,0.00000095,0.00000727,-0.00000124,0.00000371,0.00001002,-0.000
 00598,0.00000827,0.00002596,-0.00000602,0.00000371,0.00000926,0.000005
 00,0.00000358,0.00000535,-0.00000010,0.00001452,0.00000719,-0.00000152
 ,0.00001865,0.00002060,-0.00000883,-0.00000020,0.00000067,0.00000461,0
 .00000425,-0.00000744,0.00000969,0.00000266,-0.00000897,0.00000881,-0.
 00000052,0.00000100,0.00000723,-0.00000088,0.00000115,0.00000635,-0.00
 001018,0.00003080,0.00002072,0.00001033,-0.00000543,0.00005001,-0.0000
 0220,-0.00004170,0.00002343,-0.00001469,0.00003371,0.00001484,0.000025
 27,0.00012125,0.00006095,-0.00008161,0.00031967,-0.00012850,0.00036679
 ,-0.00011821,0.00014724,-0.00018120,0.00003958,0.00009133,-0.00606045,
 -0.00377919,-0.00125323,0.04595115,0.10267668,0.17299308,0.00000556,-0
 .00000258,0.00000217,-0.00000623,0.00000035,-0.00000005,-0.00000811,0.
 00000224,-0.00000172,-0.00000598,-0.00000188,0.00000050,-0.00000909,0.
 00000215,-0.00000264,-0.00000575,0.00000151,-0.00000280,-0.00000636,0.
 00000631,-0.00000771,-0.00000745,0.00000199,-0.00000424,-0.00000788,0.
 00000252,-0.00000896,0.00000987,-0.00000470,-0.00000832,-0.00001041,0.
 00001246,-0.00001881,-0.00001163,-0.00000022,0.00000463,-0.00001644,-0
 .00001745,0.00000622,-0.00003496,-0.00001272,-0.00000092,-0.00001510,-
 0.00003670,0.00002247,0.00007384,0.00017080,-0.00023498,-0.00051143,0.
 00130449,-0.00014276,0.00416039,0.00691814,-0.00754611,-0.04918345,-0.
 02480351,0.04400943,-0.00000118,0.00000252,-0.00000222,0.00000627,-0.0
 0000131,-0.00000094,0.00000224,0.00000022,0.00000022,0.00000186,0.0000
 0048,0.00000068,0.00000293,-0.00000173,0.00000103,0.00000152,0.0000000
 5,0.00000040,0.00000344,0.00000134,-0.00000084,0.00000755,-0.00000167,
 0.00000046,0.00000349,-0.00000318,0.00000152,0.00000168,-0.00000068,0.
 00000096,0.00000338,0.00000011,0.00000064,0.00000419,-0.00000458,0.000
 00664,0.00000257,-0.00000367,0.00000327,0.00000205,-0.00000120,0.00000
 155,0.00000379,0.00000041,0.00000164,0.00000236,0.00000017,0.00000294,
 0.00000400,-0.00000088,0.00000529,0.00000041,-0.00000318,0.00000597,-0
 .00000137,-0.00000138,0.00000246,-0.00000141,0.,0.00000501,0.00000919,
 -0.00000372,0.00001597,0.00000565,0.00000241,-0.00000104,0.00000650,0.
 00001528,-0.00000712,0.00001096,0.00000528,-0.00000328,0.00000964,0.00
 000151,0.00000054,0.00000505,0.00000987,-0.00000140,0.00000965,0.00001
 650,-0.00000587,0.00001838,0.00004001,-0.00002067,0.00001817,-0.000023
 92,-0.00001401,-0.00002249,0.00004452,0.00000630,-0.00000690,-0.000037
 54,0.00008616,0.00001579,0.00002274,0.00006345,-0.00000648,0.00069428,
 -0.00043271,0.00031578,-0.00007450,-0.00007756,-0.01309511,-0.01122706
 ,0.02038653,0.00483247,0.00134420,-0.00409236,0.05341418,-0.00000668,0
 .00001041,-0.00000134,-0.00000598,0.00001305,-0.00000164,-0.00000282,0
 .00000740,0.00000104,0.00000085,0.00000576,-0.00000686,0.00000121,0.00
 000990,-0.00000713,0.00000060,0.00000612,-0.00000791,0.00000236,0.0000
 0985,-0.00001210,0.00000087,0.00000564,-0.00000559,0.00000527,-0.00000
 118,-0.00001660,-0.00000148,0.00000801,-0.00000903,0.00001233,-0.00000
 646,-0.00001455,-0.00000205,-0.00000349,-0.00000240,-0.00001586,0.0000
 1619,-0.00001283,-0.00000737,0.00001086,-0.00001638,-0.00002176,0.0000
 1947,-0.00004312,-0.00010793,-0.00027377,0.00036185,0.00123141,-0.0025
 5377,0.00017252,-0.00006056,-0.02567041,0.02356110,-0.02378671,-0.0753
 4660,0.07168276,0.00000462,-0.00000526,0.00000118,0.00000274,-0.000009
 49,0.00000179,0.00000239,-0.00000534,-0.00000104,0.00000095,-0.0000035
 2,0.00000005,0.00000027,-0.00000398,0.00000003,-0.00000015,-0.00000252
 ,0.00000195,0.00000094,-0.00000261,0.00000312,-0.00000066,-0.00000706,
 0.00000524,-0.00000059,-0.00000509,0.00000311,-0.00000047,-0.00000217,
 0.00000266,0.00000059,-0.00000241,0.00000362,-0.00000127,-0.00000745,0
 .00000990,-0.00000223,-0.00000398,0.00000489,-0.00000039,-0.00000182,0
 .00000266,0.00000088,-0.00000158,0.00000391,0.00000017,0.00000094,0.00
 000485,-0.00000194,-0.00000073,0.00001022,-0.00000208,-0.00000202,0.00
 000760,-0.00000180,-0.00000148,0.00000321,-0.00000863,0.00000141,0.000
 00506,-0.00000234,0.00000223,0.00000986,0.00000413,0.00000127,0.000001
 72,0.00001207,-0.00000705,0.00000474,0.00000753,-0.00001360,0.00000686
 ,0.00000038,-0.00000484,0.00000643,0.00000533,-0.00000151,0.00000586,0
 .00000342,-0.00000094,0.00001316,0.00001779,-0.00001641,0.00002683,-0.
 00000575,0.00000320,0.00004529,0.00003510,-0.00008775,0.00001394,0.000
 07293,0.00002292,-0.00004819,0.00003738,0.00003063,-0.00009020,0.00041
 301,-0.00011116,0.00041230,-0.00011442,-0.00085259,0.00015695,-0.00538
 119,0.00060919,0.00543976,0.00202074,0.00612966,-0.00814527,0.02564535
 ,0.09809571,0.00001158,-0.00000789,-0.00000201,0.00000077,-0.00000827,
 -0.00001613,-0.00000205,-0.00000810,-0.00000364,-0.00000268,-0.0000056
 0,0.,-0.00000584,-0.00001445,-0.00000113,-0.00000446,-0.00001143,0.000
 00348,-0.00001136,-0.00002158,0.00001115,-0.00000605,-0.00001267,0.000
 00581,-0.00001037,-0.00001604,0.00001367,0.00000409,-0.00001152,0.0000
 0777,-0.00002731,-0.00000893,0.00000694,-0.00000008,0.00000127,-0.0000
 1444,0.00001215,-0.00001255,-0.00001626,0.00001909,-0.00001641,0.00001
 571,0.00000587,-0.00004796,-0.00000221,-0.00003049,-0.00008189,0.00005
 033,-0.00007659,0.00006709,0.00016302,-0.00183739,0.01236061,-0.004191
 59,0.04316312,0.07329998,-0.16376999,-0.00000572,0.00000431,0.00000283
 ,0.00000034,0.00000560,0.00000957,-0.00000014,0.00000040,0.00000756,0.
 00000032,0.00000319,0.00000100,0.00000145,0.00000264,0.00000326,0.0000
 0102,0.00000244,-0.00000020,-0.00000032,0.00000345,-0.00000038,0.00000
 303,0.00001310,0.00000103,0.00000309,0.00000531,0.00000352,0.00000156,
 0.00000352,-0.00000099,0.00000022,0.00000549,-0.00000251,0.00000893,0.
 00001872,-0.00001277,0.00000604,0.00000652,0.00000066,0.00000136,0.000
 00423,-0.00000205,0.00000090,0.00000571,-0.00000456,0.00000181,0.00000
 394,-0.00000576,0.00000648,0.00000986,-0.00001069,0.00000476,0.0000063
 6,-0.00000131,0.00000361,0.00000415,-0.00000205,0.00001187,0.00000340,
 -0.00000346,0.00000903,0.00000939,-0.00001030,-0.00000259,-0.00000061,
 0.00000569,-0.00000691,0.00000198,0.00001267,-0.00000326,0.00000755,0.
 00001378,0.00000062,0.00001017,-0.00000435,-0.00000511,0.00000035,-0.0
 0000341,-0.00000792,0.00001522,-0.00001249,-0.00002995,0.00002883,0.00
 000614,0.00001052,0.00003578,0.00002085,0.00001849,0.00001289,-0.00000
 707,0.00003070,0.00001384,-0.00000112,0.00001555,0.00004413,-0.0000308
 3,-0.00038481,0.00017786,0.00012052,0.00013836,-0.00013572,0.00054528,
 0.00648090,0.00332603,-0.00182116,0.00448915,0.00445205,-0.02527494,-0
 .05200540,-0.09355590,0.19419775\\0.00000001,0.00000007,-0.00000011,-0
 .00000008,0.,0.00000005,0.00000004,-0.00000004,0.00000004,0.00000001,-
 0.00000003,-0.00000002,0.00000005,-0.00000008,0.00000010,-0.00000007,-
 0.00000003,-0.00000009,0.00000006,0.00000011,-0.00000014,0.,0.00000005
 ,0.00000004,0.,0.00000005,0.00000009,0.,-0.00000004,-0.00000004,-0.000
 00001,0.00000001,0.,0.00000006,0.,0.00000004,-0.00000004,-0.00000007,-
 0.00000006,0.00000020,0.00000008,-0.00000008,0.00000005,0.00000003,0.0
 0000012,-0.00000012,-0.00000009,0.00000017,0.,-0.00000002,0.,0.,0.0000
 0001,-0.00000002,0.00000002,0.,-0.00000005,0.,0.,0.,0.,0.00000002,0.00
 000003,0.,0.,0.,0.,0.,0.,0.,0.,0.,0.,0.,0.,0.,-0.00000002,0.,-0.000000
 40,-0.00000013,-0.00000025,0.,0.,0.,0.,0.,0.,0.,0.,0.00000002,-0.00000
 007,-0.00000010,0.00000004,0.00000002,-0.00000003,0.,0.,0.00000003,0.0
 0000003,-0.00000002,-0.00000001,0.00000005,0.,0.00000002,-0.00000001,0
 .,0.,0.00000002,0.,0.00000004,0.,0.,0.,0.,0.,0.,0.,0.,0.,0.,0.,0.,0.,0
 .,0.,0.,0.,-0.00000002,0.,0.00000034,0.00000019,0.00000016,-0.00000002
 ,0.,0.00000002,0.,0.00000001,0.,-0.00000001,0.,0.,0.,0.,-0.00000002,0.
 00000002,-0.00000002,-0.00000016,0.,0.,0.00000002,-0.00000002,0.,0.000
 00001,0.,0.00000001,-0.00000001,0.,0.00000001,0.,0.,0.,0.00000001,0.,0
 .,0.,0.,0.,0.\\\@
 The archive entry for this job was punched.


 THE MORE POWERFUL THE METHOD, THE MORE CATASTROPHIC THE ERRORS.
     -- M.D. KAMEN
 Job cpu time:       0 days  0 hours  0 minutes  1.3 seconds.
 Elapsed time:       0 days  0 hours  0 minutes  1.3 seconds.
 File lengths (MBytes):  RWF=    275 Int=      0 D2E=      0 Chk=      6 Scr=      1
 Normal termination of Gaussian 16 at Wed Apr 24 12:06:06 2024.
