 Entering Gaussian System, Link 0=g16
 Initial command:
 /home/app/g16/l1.exe "/home/A23321P/work/myGaussian/nanoMoS/mols/Gau-882372.inp" -scrdir="/home/A23321P/work/myGaussian/nanoMoS/mols/"
 Entering Link 1 = /home/app/g16/l1.exe PID=    882373.
  
 Copyright (c) 1988-2019, Gaussian, Inc.  All Rights Reserved.
  
 This is part of the Gaussian(R) 16 program.  It is based on
 the Gaussian(R) 09 system (copyright 2009, Gaussian, Inc.),
 the Gaussian(R) 03 system (copyright 2003, Gaussian, Inc.),
 the Gaussian(R) 98 system (copyright 1998, Gaussian, Inc.),
 the Gaussian(R) 94 system (copyright 1995, Gaussian, Inc.),
 the Gaussian 92(TM) system (copyright 1992, Gaussian, Inc.),
 the Gaussian 90(TM) system (copyright 1990, Gaussian, Inc.),
 the Gaussian 88(TM) system (copyright 1988, Gaussian, Inc.),
 the Gaussian 86(TM) system (copyright 1986, Carnegie Mellon
 University), and the Gaussian 82(TM) system (copyright 1983,
 Carnegie Mellon University). Gaussian is a federally registered
 trademark of Gaussian, Inc.
  
 This software contains proprietary and confidential information,
 including trade secrets, belonging to Gaussian, Inc.
  
 This software is provided under written license and may be
 used, copied, transmitted, or stored only in accord with that
 written license.
  
 The following legend is applicable only to US Government
 contracts under FAR:
  
                    RESTRICTED RIGHTS LEGEND
  
 Use, reproduction and disclosure by the US Government is
 subject to restrictions as set forth in subparagraphs (a)
 and (c) of the Commercial Computer Software - Restricted
 Rights clause in FAR 52.227-19.
  
 Gaussian, Inc.
 340 Quinnipiac St., Bldg. 40, Wallingford CT 06492
  
  
 ---------------------------------------------------------------
 Warning -- This program may not be used in any manner that
 competes with the business of Gaussian, Inc. or will provide
 assistance to any competitor of Gaussian, Inc.  The licensee
 of this program is prohibited from giving any competitor of
 Gaussian, Inc. access to this program.  By using this program,
 the user acknowledges that Gaussian, Inc. is engaged in the
 business of creating and licensing software in the field of
 computational chemistry and represents and warrants to the
 licensee that it is not a competitor of Gaussian, Inc. and that
 it will not use this program in any manner prohibited above.
 ---------------------------------------------------------------
  

 Cite this work as:
 Gaussian 16, Revision C.01,
 M. J. Frisch, G. W. Trucks, H. B. Schlegel, G. E. Scuseria, 
 M. A. Robb, J. R. Cheeseman, G. Scalmani, V. Barone, 
 G. A. Petersson, H. Nakatsuji, X. Li, M. Caricato, A. V. Marenich, 
 J. Bloino, B. G. Janesko, R. Gomperts, B. Mennucci, H. P. Hratchian, 
 J. V. Ortiz, A. F. Izmaylov, J. L. Sonnenberg, D. Williams-Young, 
 F. Ding, F. Lipparini, F. Egidi, J. Goings, B. Peng, A. Petrone, 
 T. Henderson, D. Ranasinghe, V. G. Zakrzewski, J. Gao, N. Rega, 
 G. Zheng, W. Liang, M. Hada, M. Ehara, K. Toyota, R. Fukuda, 
 J. Hasegawa, M. Ishida, T. Nakajima, Y. Honda, O. Kitao, H. Nakai, 
 T. Vreven, K. Throssell, J. A. Montgomery, Jr., J. E. Peralta, 
 F. Ogliaro, M. J. Bearpark, J. J. Heyd, E. N. Brothers, K. N. Kudin, 
 V. N. Staroverov, T. A. Keith, R. Kobayashi, J. Normand, 
 K. Raghavachari, A. P. Rendell, J. C. Burant, S. S. Iyengar, 
 J. Tomasi, M. Cossi, J. M. Millam, M. Klene, C. Adamo, R. Cammi, 
 J. W. Ochterski, R. L. Martin, K. Morokuma, O. Farkas, 
 J. B. Foresman, and D. J. Fox, Gaussian, Inc., Wallingford CT, 2019.
 
 ******************************************
 Gaussian 16:  ES64L-G16RevC.01  3-Jul-2019
                24-Apr-2024 
 ******************************************
 ---------------------------------------------------------------
 # PM6 Freq scf(tight,maxcycle=9999) opt(calcall,maxcycles=9999)
 ---------------------------------------------------------------
 1/6=9999,10=4,18=20,19=15,26=1,38=1/1,3;
 2/9=110,12=2,17=6,18=5,40=1/2;
 3/5=2,25=1,41=3900000,71=2,140=1/1,2,3;
 4/35=1/1;
 5/5=2,7=9999,32=2,35=1,38=5/2;
 8/6=4,10=90,11=11/1;
 11/6=1,8=1,9=11,15=111,16=1/1,2,10;
 10/6=1/2;
 6/7=2,8=2,9=2,10=2,18=1,28=1/1;
 7/10=1,25=1/1,2,3,16;
 1/6=9999,10=4,18=20,19=15,26=1/3(3);
 2/9=110/2;
 7/8=1,9=1,25=1,44=-1/16;
 99//99;
 2/9=110/2;
 3/5=2,25=1,41=3900000,71=2,135=20,140=1/1,2,3;
 4/5=5,16=3,35=1/1;
 5/5=2,7=9999,32=2,35=1,38=5/2;
 8/6=4,10=90,11=11/1;
 11/6=1,8=1,9=11,15=111,16=1/1,2,10;
 10/6=1/2;
 7/10=1,25=1/1,2,3,16;
 1/6=9999,10=4,18=20,19=15,26=1/3(-8);
 2/9=110/2;
 6/7=2,8=2,9=2,10=2,18=1,19=2,28=1/1;
 7/8=1,9=1,25=1,44=-1/16;
 99//99;
 -------------------
 Title Card Required
 -------------------
 Symbolic Z-matrix:
 Charge =  0 Multiplicity = 1
 C                    -9.507    -0.859    -0.625 
 C                    -9.319    -0.953     0.892 
 C                    -7.929    -1.476     1.286 
 C                    -6.811    -0.466     0.988 
 C                    -5.465    -0.959     1.532 
 C                    -4.349     0.049     1.234 
 C                    -3.005    -0.43      1.8 
 C                    -1.869     0.558     1.505 
 C                    -2.012     1.823     2.318 
 C                    -2.362     3.031     1.836 
 P                    -11.262   -0.385    -1.034 
 C                    -2.783     3.323     0.415 
 C                    -1.706     4.114    -0.337 
 C                    -0.474     3.256    -0.654 
 C                     0.583     4.071    -1.414 
 C                     1.774     3.214    -1.871 
 C                     2.631     2.713    -0.695 
 C                     3.966     2.109    -1.156 
 C                     3.79      0.787    -1.901 
 O                    -12.483   -1.437    -0.39 
 O                    -11.598    1.       -0.421 
 O                    -11.591   -0.184    -2.726 
 H                    -9.287    -1.839    -1.1 
 H                    -8.833    -0.089    -1.054 
 H                    -10.079   -1.653     1.303 
 H                    -9.493     0.043     1.355 
 H                    -7.725    -2.434     0.759 
 H                    -7.941    -1.687     2.378 
 H                    -7.06      0.511     1.457 
 H                    -6.722    -0.32     -0.11 
 H                    -5.214    -1.936     1.063 
 H                    -5.543    -1.105     2.632 
 H                    -4.615     1.029     1.689 
 H                    -4.258     0.182     0.134 
 H                    -2.746    -1.409     1.341 
 H                    -3.089    -0.583     2.899 
 H                    -0.907     0.084     1.796 
 H                    -1.794     0.745     0.416 
 H                    -1.784     1.751     3.378 
 H                    -2.376     3.866     2.531 
 H                    -3.705     3.942     0.462 
 H                    -3.06      2.414    -0.154 
 H                    -1.406     5.003     0.262 
 H                    -2.146     4.482    -1.291 
 H                    -0.783     2.384    -1.272 
 H                    -0.037     2.883     0.296 
 H                     0.943     4.908    -0.776 
 H                     0.113     4.515    -2.319 
 H                     2.406     3.84     -2.539 
 H                     1.4       2.354    -2.467 
 H                     2.07      1.955    -0.107 
 H                     2.857     3.568    -0.02 
 H                     4.596     1.922    -0.259 
 H                     4.511     2.831    -1.802 
 H                     3.223     0.063    -1.278 
 H                     4.787     0.354    -2.126 
 H                     3.257     0.945    -2.862 
 H                    -12.227   -2.339    -0.709 
 H                    -11.361   -1.057    -3.131 
 

 GradGradGradGradGradGradGradGradGradGradGradGradGradGradGradGradGradGrad
 Berny optimization.
 Initialization pass.
                           ----------------------------
                           !    Initial Parameters    !
                           ! (Angstroms and Degrees)  !
 --------------------------                            --------------------------
 ! Name  Definition              Value          Derivative Info.                !
 --------------------------------------------------------------------------------
 ! R1    R(1,2)                  1.5315         calculate D2E/DX2 analytically  !
 ! R2    R(1,11)                 1.8633         calculate D2E/DX2 analytically  !
 ! R3    R(1,23)                 1.111          calculate D2E/DX2 analytically  !
 ! R4    R(1,24)                 1.1096         calculate D2E/DX2 analytically  !
 ! R5    R(2,3)                  1.5365         calculate D2E/DX2 analytically  !
 ! R6    R(2,25)                 1.112          calculate D2E/DX2 analytically  !
 ! R7    R(2,26)                 1.1121         calculate D2E/DX2 analytically  !
 ! R8    R(3,4)                  1.5358         calculate D2E/DX2 analytically  !
 ! R9    R(3,27)                 1.1123         calculate D2E/DX2 analytically  !
 ! R10   R(3,28)                 1.1123         calculate D2E/DX2 analytically  !
 ! R11   R(4,5)                  1.5332         calculate D2E/DX2 analytically  !
 ! R12   R(4,29)                 1.112          calculate D2E/DX2 analytically  !
 ! R13   R(4,30)                 1.1112         calculate D2E/DX2 analytically  !
 ! R14   R(5,6)                  1.5331         calculate D2E/DX2 analytically  !
 ! R15   R(5,31)                 1.1124         calculate D2E/DX2 analytically  !
 ! R16   R(5,32)                 1.1124         calculate D2E/DX2 analytically  !
 ! R17   R(6,7)                  1.535          calculate D2E/DX2 analytically  !
 ! R18   R(6,33)                 1.1127         calculate D2E/DX2 analytically  !
 ! R19   R(6,34)                 1.1117         calculate D2E/DX2 analytically  !
 ! R20   R(7,8)                  1.5342         calculate D2E/DX2 analytically  !
 ! R21   R(7,35)                 1.1118         calculate D2E/DX2 analytically  !
 ! R22   R(7,36)                 1.1128         calculate D2E/DX2 analytically  !
 ! R23   R(8,9)                  1.5105         calculate D2E/DX2 analytically  !
 ! R24   R(8,37)                 1.1112         calculate D2E/DX2 analytically  !
 ! R25   R(8,38)                 1.1075         calculate D2E/DX2 analytically  !
 ! R26   R(9,10)                 1.3469         calculate D2E/DX2 analytically  !
 ! R27   R(9,39)                 1.0866         calculate D2E/DX2 analytically  !
 ! R28   R(10,12)                1.5105         calculate D2E/DX2 analytically  !
 ! R29   R(10,40)                1.0865         calculate D2E/DX2 analytically  !
 ! R30   R(11,20)                1.7356         calculate D2E/DX2 analytically  !
 ! R31   R(11,21)                1.5514         calculate D2E/DX2 analytically  !
 ! R32   R(11,22)                1.7354         calculate D2E/DX2 analytically  !
 ! R33   R(12,13)                1.5333         calculate D2E/DX2 analytically  !
 ! R34   R(12,41)                1.1115         calculate D2E/DX2 analytically  !
 ! R35   R(12,42)                1.1076         calculate D2E/DX2 analytically  !
 ! R36   R(13,14)                1.5344         calculate D2E/DX2 analytically  !
 ! R37   R(13,43)                1.1132         calculate D2E/DX2 analytically  !
 ! R38   R(13,44)                1.1132         calculate D2E/DX2 analytically  !
 ! R39   R(14,15)                1.5359         calculate D2E/DX2 analytically  !
 ! R40   R(14,45)                1.1126         calculate D2E/DX2 analytically  !
 ! R41   R(14,46)                1.1102         calculate D2E/DX2 analytically  !
 ! R42   R(15,16)                1.5368         calculate D2E/DX2 analytically  !
 ! R43   R(15,47)                1.1123         calculate D2E/DX2 analytically  !
 ! R44   R(15,48)                1.1122         calculate D2E/DX2 analytically  !
 ! R45   R(16,17)                1.539          calculate D2E/DX2 analytically  !
 ! R46   R(16,49)                1.1124         calculate D2E/DX2 analytically  !
 ! R47   R(16,50)                1.1112         calculate D2E/DX2 analytically  !
 ! R48   R(17,18)                1.5361         calculate D2E/DX2 analytically  !
 ! R49   R(17,51)                1.1113         calculate D2E/DX2 analytically  !
 ! R50   R(17,52)                1.1125         calculate D2E/DX2 analytically  !
 ! R51   R(18,19)                1.5276         calculate D2E/DX2 analytically  !
 ! R52   R(18,53)                1.112          calculate D2E/DX2 analytically  !
 ! R53   R(18,54)                1.1116         calculate D2E/DX2 analytically  !
 ! R54   R(19,55)                1.1108         calculate D2E/DX2 analytically  !
 ! R55   R(19,56)                1.11           calculate D2E/DX2 analytically  !
 ! R56   R(19,57)                1.1102         calculate D2E/DX2 analytically  !
 ! R57   R(20,58)                0.9904         calculate D2E/DX2 analytically  !
 ! R58   R(22,59)                0.9895         calculate D2E/DX2 analytically  !
 ! A1    A(2,1,11)             110.4051         calculate D2E/DX2 analytically  !
 ! A2    A(2,1,23)             110.1838         calculate D2E/DX2 analytically  !
 ! A3    A(2,1,24)             110.5481         calculate D2E/DX2 analytically  !
 ! A4    A(11,1,23)            108.4839         calculate D2E/DX2 analytically  !
 ! A5    A(11,1,24)            108.1026         calculate D2E/DX2 analytically  !
 ! A6    A(23,1,24)            109.0579         calculate D2E/DX2 analytically  !
 ! A7    A(1,2,3)              112.7022         calculate D2E/DX2 analytically  !
 ! A8    A(1,2,25)             108.7143         calculate D2E/DX2 analytically  !
 ! A9    A(1,2,26)             109.7689         calculate D2E/DX2 analytically  !
 ! A10   A(3,2,25)             108.0136         calculate D2E/DX2 analytically  !
 ! A11   A(3,2,26)             109.8553         calculate D2E/DX2 analytically  !
 ! A12   A(25,2,26)            107.6369         calculate D2E/DX2 analytically  !
 ! A13   A(2,3,4)              112.6395         calculate D2E/DX2 analytically  !
 ! A14   A(2,3,27)             109.7308         calculate D2E/DX2 analytically  !
 ! A15   A(2,3,28)             107.8523         calculate D2E/DX2 analytically  !
 ! A16   A(4,3,27)             109.9359         calculate D2E/DX2 analytically  !
 ! A17   A(4,3,28)             108.8505         calculate D2E/DX2 analytically  !
 ! A18   A(27,3,28)            107.6839         calculate D2E/DX2 analytically  !
 ! A19   A(3,4,5)              111.0239         calculate D2E/DX2 analytically  !
 ! A20   A(3,4,29)             109.4481         calculate D2E/DX2 analytically  !
 ! A21   A(3,4,30)             109.659          calculate D2E/DX2 analytically  !
 ! A22   A(5,4,29)             109.2356         calculate D2E/DX2 analytically  !
 ! A23   A(5,4,30)             108.8156         calculate D2E/DX2 analytically  !
 ! A24   A(29,4,30)            108.6173         calculate D2E/DX2 analytically  !
 ! A25   A(4,5,6)              111.0191         calculate D2E/DX2 analytically  !
 ! A26   A(4,5,31)             109.3233         calculate D2E/DX2 analytically  !
 ! A27   A(4,5,32)             109.3603         calculate D2E/DX2 analytically  !
 ! A28   A(6,5,31)             109.3451         calculate D2E/DX2 analytically  !
 ! A29   A(6,5,32)             109.2419         calculate D2E/DX2 analytically  !
 ! A30   A(31,5,32)            108.5092         calculate D2E/DX2 analytically  !
 ! A31   A(5,6,7)              111.1326         calculate D2E/DX2 analytically  !
 ! A32   A(5,6,33)             109.0002         calculate D2E/DX2 analytically  !
 ! A33   A(5,6,34)             109.3034         calculate D2E/DX2 analytically  !
 ! A34   A(7,6,33)             109.4732         calculate D2E/DX2 analytically  !
 ! A35   A(7,6,34)             109.2994         calculate D2E/DX2 analytically  !
 ! A36   A(33,6,34)            108.5897         calculate D2E/DX2 analytically  !
 ! A37   A(6,7,8)              112.1155         calculate D2E/DX2 analytically  !
 ! A38   A(6,7,35)             109.0572         calculate D2E/DX2 analytically  !
 ! A39   A(6,7,36)             109.9368         calculate D2E/DX2 analytically  !
 ! A40   A(8,7,35)             108.3718         calculate D2E/DX2 analytically  !
 ! A41   A(8,7,36)             109.5329         calculate D2E/DX2 analytically  !
 ! A42   A(35,7,36)            107.7122         calculate D2E/DX2 analytically  !
 ! A43   A(7,8,9)              111.4526         calculate D2E/DX2 analytically  !
 ! A44   A(7,8,37)             108.4198         calculate D2E/DX2 analytically  !
 ! A45   A(7,8,38)             110.3628         calculate D2E/DX2 analytically  !
 ! A46   A(9,8,37)             107.3518         calculate D2E/DX2 analytically  !
 ! A47   A(9,8,38)             113.2192         calculate D2E/DX2 analytically  !
 ! A48   A(37,8,38)            105.718          calculate D2E/DX2 analytically  !
 ! A49   A(8,9,10)             125.6689         calculate D2E/DX2 analytically  !
 ! A50   A(8,9,39)             116.7234         calculate D2E/DX2 analytically  !
 ! A51   A(10,9,39)            117.5838         calculate D2E/DX2 analytically  !
 ! A52   A(9,10,12)            125.623          calculate D2E/DX2 analytically  !
 ! A53   A(9,10,40)            117.6274         calculate D2E/DX2 analytically  !
 ! A54   A(12,10,40)           116.7182         calculate D2E/DX2 analytically  !
 ! A55   A(1,11,20)            115.2754         calculate D2E/DX2 analytically  !
 ! A56   A(1,11,21)            110.1423         calculate D2E/DX2 analytically  !
 ! A57   A(1,11,22)            114.9636         calculate D2E/DX2 analytically  !
 ! A58   A(20,11,21)           104.0129         calculate D2E/DX2 analytically  !
 ! A59   A(20,11,22)           107.3743         calculate D2E/DX2 analytically  !
 ! A60   A(21,11,22)           103.933          calculate D2E/DX2 analytically  !
 ! A61   A(10,12,13)           111.4274         calculate D2E/DX2 analytically  !
 ! A62   A(10,12,41)           107.4014         calculate D2E/DX2 analytically  !
 ! A63   A(10,12,42)           113.224          calculate D2E/DX2 analytically  !
 ! A64   A(13,12,41)           108.4263         calculate D2E/DX2 analytically  !
 ! A65   A(13,12,42)           110.3091         calculate D2E/DX2 analytically  !
 ! A66   A(41,12,42)           105.7427         calculate D2E/DX2 analytically  !
 ! A67   A(12,13,14)           112.1366         calculate D2E/DX2 analytically  !
 ! A68   A(12,13,43)           109.7172         calculate D2E/DX2 analytically  !
 ! A69   A(12,13,44)           108.2532         calculate D2E/DX2 analytically  !
 ! A70   A(14,13,43)           109.959          calculate D2E/DX2 analytically  !
 ! A71   A(14,13,44)           108.9755         calculate D2E/DX2 analytically  !
 ! A72   A(43,13,44)           107.6785         calculate D2E/DX2 analytically  !
 ! A73   A(13,14,15)           110.9813         calculate D2E/DX2 analytically  !
 ! A74   A(13,14,45)           109.2701         calculate D2E/DX2 analytically  !
 ! A75   A(13,14,46)           109.094          calculate D2E/DX2 analytically  !
 ! A76   A(15,14,45)           109.4004         calculate D2E/DX2 analytically  !
 ! A77   A(15,14,46)           109.3173         calculate D2E/DX2 analytically  !
 ! A78   A(45,14,46)           108.7421         calculate D2E/DX2 analytically  !
 ! A79   A(14,15,16)           112.6171         calculate D2E/DX2 analytically  !
 ! A80   A(14,15,47)           109.7676         calculate D2E/DX2 analytically  !
 ! A81   A(14,15,48)           108.883          calculate D2E/DX2 analytically  !
 ! A82   A(16,15,47)           109.8384         calculate D2E/DX2 analytically  !
 ! A83   A(16,15,48)           107.9469         calculate D2E/DX2 analytically  !
 ! A84   A(47,15,48)           107.6432         calculate D2E/DX2 analytically  !
 ! A85   A(15,16,17)           112.6975         calculate D2E/DX2 analytically  !
 ! A86   A(15,16,49)           107.7608         calculate D2E/DX2 analytically  !
 ! A87   A(15,16,50)           109.2842         calculate D2E/DX2 analytically  !
 ! A88   A(17,16,49)           109.0068         calculate D2E/DX2 analytically  !
 ! A89   A(17,16,50)           110.2027         calculate D2E/DX2 analytically  !
 ! A90   A(49,16,50)           107.7381         calculate D2E/DX2 analytically  !
 ! A91   A(16,17,18)           112.4975         calculate D2E/DX2 analytically  !
 ! A92   A(16,17,51)           110.1968         calculate D2E/DX2 analytically  !
 ! A93   A(16,17,52)           109.0604         calculate D2E/DX2 analytically  !
 ! A94   A(18,17,51)           109.2273         calculate D2E/DX2 analytically  !
 ! A95   A(18,17,52)           107.9222         calculate D2E/DX2 analytically  !
 ! A96   A(51,17,52)           107.801          calculate D2E/DX2 analytically  !
 ! A97   A(17,18,19)           112.7373         calculate D2E/DX2 analytically  !
 ! A98   A(17,18,53)           108.4469         calculate D2E/DX2 analytically  !
 ! A99   A(17,18,54)           110.1892         calculate D2E/DX2 analytically  !
 ! A100  A(19,18,53)           108.2487         calculate D2E/DX2 analytically  !
 ! A101  A(19,18,54)           109.5822         calculate D2E/DX2 analytically  !
 ! A102  A(53,18,54)           107.4727         calculate D2E/DX2 analytically  !
 ! A103  A(18,19,55)           110.4473         calculate D2E/DX2 analytically  !
 ! A104  A(18,19,56)           109.4478         calculate D2E/DX2 analytically  !
 ! A105  A(18,19,57)           110.7499         calculate D2E/DX2 analytically  !
 ! A106  A(55,19,56)           108.5372         calculate D2E/DX2 analytically  !
 ! A107  A(55,19,57)           109.4625         calculate D2E/DX2 analytically  !
 ! A108  A(56,19,57)           108.1356         calculate D2E/DX2 analytically  !
 ! A109  A(11,20,58)           104.5174         calculate D2E/DX2 analytically  !
 ! A110  A(11,22,59)           104.6445         calculate D2E/DX2 analytically  !
 ! D1    D(11,1,2,3)           174.3044         calculate D2E/DX2 analytically  !
 ! D2    D(11,1,2,25)           54.592          calculate D2E/DX2 analytically  !
 ! D3    D(11,1,2,26)          -62.9038         calculate D2E/DX2 analytically  !
 ! D4    D(23,1,2,3)            54.4931         calculate D2E/DX2 analytically  !
 ! D5    D(23,1,2,25)          -65.2193         calculate D2E/DX2 analytically  !
 ! D6    D(23,1,2,26)          177.2849         calculate D2E/DX2 analytically  !
 ! D7    D(24,1,2,3)           -66.1254         calculate D2E/DX2 analytically  !
 ! D8    D(24,1,2,25)          174.1622         calculate D2E/DX2 analytically  !
 ! D9    D(24,1,2,26)           56.6664         calculate D2E/DX2 analytically  !
 ! D10   D(2,1,11,20)          -56.5427         calculate D2E/DX2 analytically  !
 ! D11   D(2,1,11,21)           60.7416         calculate D2E/DX2 analytically  !
 ! D12   D(2,1,11,22)          177.72           calculate D2E/DX2 analytically  !
 ! D13   D(23,1,11,20)          64.2885         calculate D2E/DX2 analytically  !
 ! D14   D(23,1,11,21)        -178.4272         calculate D2E/DX2 analytically  !
 ! D15   D(23,1,11,22)         -61.4489         calculate D2E/DX2 analytically  !
 ! D16   D(24,1,11,20)        -177.5804         calculate D2E/DX2 analytically  !
 ! D17   D(24,1,11,21)         -60.2961         calculate D2E/DX2 analytically  !
 ! D18   D(24,1,11,22)          56.6823         calculate D2E/DX2 analytically  !
 ! D19   D(1,2,3,4)             69.9606         calculate D2E/DX2 analytically  !
 ! D20   D(1,2,3,27)           -52.8636         calculate D2E/DX2 analytically  !
 ! D21   D(1,2,3,28)          -169.8996         calculate D2E/DX2 analytically  !
 ! D22   D(25,2,3,4)          -169.9227         calculate D2E/DX2 analytically  !
 ! D23   D(25,2,3,27)           67.2531         calculate D2E/DX2 analytically  !
 ! D24   D(25,2,3,28)          -49.783          calculate D2E/DX2 analytically  !
 ! D25   D(26,2,3,4)           -52.7828         calculate D2E/DX2 analytically  !
 ! D26   D(26,2,3,27)         -175.6071         calculate D2E/DX2 analytically  !
 ! D27   D(26,2,3,28)           67.3569         calculate D2E/DX2 analytically  !
 ! D28   D(2,3,4,5)            173.8379         calculate D2E/DX2 analytically  !
 ! D29   D(2,3,4,29)            53.173          calculate D2E/DX2 analytically  !
 ! D30   D(2,3,4,30)           -65.8828         calculate D2E/DX2 analytically  !
 ! D31   D(27,3,4,5)           -63.4528         calculate D2E/DX2 analytically  !
 ! D32   D(27,3,4,29)          175.8822         calculate D2E/DX2 analytically  !
 ! D33   D(27,3,4,30)           56.8264         calculate D2E/DX2 analytically  !
 ! D34   D(28,3,4,5)            54.2752         calculate D2E/DX2 analytically  !
 ! D35   D(28,3,4,29)          -66.3898         calculate D2E/DX2 analytically  !
 ! D36   D(28,3,4,30)          174.5544         calculate D2E/DX2 analytically  !
 ! D37   D(3,4,5,6)            179.9779         calculate D2E/DX2 analytically  !
 ! D38   D(3,4,5,31)            59.2613         calculate D2E/DX2 analytically  !
 ! D39   D(3,4,5,32)           -59.4099         calculate D2E/DX2 analytically  !
 ! D40   D(29,4,5,6)           -59.2317         calculate D2E/DX2 analytically  !
 ! D41   D(29,4,5,31)         -179.9483         calculate D2E/DX2 analytically  !
 ! D42   D(29,4,5,32)           61.3805         calculate D2E/DX2 analytically  !
 ! D43   D(30,4,5,6)            59.1995         calculate D2E/DX2 analytically  !
 ! D44   D(30,4,5,31)          -61.517          calculate D2E/DX2 analytically  !
 ! D45   D(30,4,5,32)          179.8117         calculate D2E/DX2 analytically  !
 ! D46   D(4,5,6,7)            178.9627         calculate D2E/DX2 analytically  !
 ! D47   D(4,5,6,33)            58.2264         calculate D2E/DX2 analytically  !
 ! D48   D(4,5,6,34)           -60.3185         calculate D2E/DX2 analytically  !
 ! D49   D(31,5,6,7)           -60.3336         calculate D2E/DX2 analytically  !
 ! D50   D(31,5,6,33)          178.9301         calculate D2E/DX2 analytically  !
 ! D51   D(31,5,6,34)           60.3852         calculate D2E/DX2 analytically  !
 ! D52   D(32,5,6,7)            58.2805         calculate D2E/DX2 analytically  !
 ! D53   D(32,5,6,33)          -62.4558         calculate D2E/DX2 analytically  !
 ! D54   D(32,5,6,34)          178.9993         calculate D2E/DX2 analytically  !
 ! D55   D(5,6,7,8)            179.5678         calculate D2E/DX2 analytically  !
 ! D56   D(5,6,7,35)            59.5467         calculate D2E/DX2 analytically  !
 ! D57   D(5,6,7,36)           -58.3382         calculate D2E/DX2 analytically  !
 ! D58   D(33,6,7,8)           -59.9751         calculate D2E/DX2 analytically  !
 ! D59   D(33,6,7,35)         -179.9962         calculate D2E/DX2 analytically  !
 ! D60   D(33,6,7,36)           62.1189         calculate D2E/DX2 analytically  !
 ! D61   D(34,6,7,8)            58.8467         calculate D2E/DX2 analytically  !
 ! D62   D(34,6,7,35)          -61.1745         calculate D2E/DX2 analytically  !
 ! D63   D(34,6,7,36)         -179.0594         calculate D2E/DX2 analytically  !
 ! D64   D(6,7,8,9)             70.8077         calculate D2E/DX2 analytically  !
 ! D65   D(6,7,8,37)          -171.2481         calculate D2E/DX2 analytically  !
 ! D66   D(6,7,8,38)           -55.8963         calculate D2E/DX2 analytically  !
 ! D67   D(35,7,8,9)          -168.7725         calculate D2E/DX2 analytically  !
 ! D68   D(35,7,8,37)          -50.8284         calculate D2E/DX2 analytically  !
 ! D69   D(35,7,8,38)           64.5234         calculate D2E/DX2 analytically  !
 ! D70   D(36,7,8,9)           -51.5163         calculate D2E/DX2 analytically  !
 ! D71   D(36,7,8,37)           66.4279         calculate D2E/DX2 analytically  !
 ! D72   D(36,7,8,38)         -178.2203         calculate D2E/DX2 analytically  !
 ! D73   D(7,8,9,10)          -108.5648         calculate D2E/DX2 analytically  !
 ! D74   D(7,8,9,39)            73.2671         calculate D2E/DX2 analytically  !
 ! D75   D(37,8,9,10)          132.8499         calculate D2E/DX2 analytically  !
 ! D76   D(37,8,9,39)          -45.3181         calculate D2E/DX2 analytically  !
 ! D77   D(38,8,9,10)           16.5623         calculate D2E/DX2 analytically  !
 ! D78   D(38,8,9,39)         -161.6057         calculate D2E/DX2 analytically  !
 ! D79   D(8,9,10,12)            5.1812         calculate D2E/DX2 analytically  !
 ! D80   D(8,9,10,40)         -176.9298         calculate D2E/DX2 analytically  !
 ! D81   D(39,9,10,12)        -176.6649         calculate D2E/DX2 analytically  !
 ! D82   D(39,9,10,40)           1.2241         calculate D2E/DX2 analytically  !
 ! D83   D(9,10,12,13)        -108.7223         calculate D2E/DX2 analytically  !
 ! D84   D(9,10,12,41)         132.6683         calculate D2E/DX2 analytically  !
 ! D85   D(9,10,12,42)          16.3165         calculate D2E/DX2 analytically  !
 ! D86   D(40,10,12,13)         73.3716         calculate D2E/DX2 analytically  !
 ! D87   D(40,10,12,41)        -45.2378         calculate D2E/DX2 analytically  !
 ! D88   D(40,10,12,42)       -161.5897         calculate D2E/DX2 analytically  !
 ! D89   D(1,11,20,58)         -54.2489         calculate D2E/DX2 analytically  !
 ! D90   D(21,11,20,58)       -174.9346         calculate D2E/DX2 analytically  !
 ! D91   D(22,11,20,58)         75.3028         calculate D2E/DX2 analytically  !
 ! D92   D(1,11,22,59)          58.3516         calculate D2E/DX2 analytically  !
 ! D93   D(20,11,22,59)        -71.3765         calculate D2E/DX2 analytically  !
 ! D94   D(21,11,22,59)        178.8056         calculate D2E/DX2 analytically  !
 ! D95   D(10,12,13,14)         71.3893         calculate D2E/DX2 analytically  !
 ! D96   D(10,12,13,43)        -51.1079         calculate D2E/DX2 analytically  !
 ! D97   D(10,12,13,44)       -168.3585         calculate D2E/DX2 analytically  !
 ! D98   D(41,12,13,14)       -170.6167         calculate D2E/DX2 analytically  !
 ! D99   D(41,12,13,43)         66.8862         calculate D2E/DX2 analytically  !
 ! D100  D(41,12,13,44)        -50.3644         calculate D2E/DX2 analytically  !
 ! D101  D(42,12,13,14)        -55.2608         calculate D2E/DX2 analytically  !
 ! D102  D(42,12,13,43)       -177.758          calculate D2E/DX2 analytically  !
 ! D103  D(42,12,13,44)         64.9914         calculate D2E/DX2 analytically  !
 ! D104  D(12,13,14,15)        179.6505         calculate D2E/DX2 analytically  !
 ! D105  D(12,13,14,45)         58.9239         calculate D2E/DX2 analytically  !
 ! D106  D(12,13,14,46)        -59.841          calculate D2E/DX2 analytically  !
 ! D107  D(43,13,14,15)        -57.9897         calculate D2E/DX2 analytically  !
 ! D108  D(43,13,14,45)       -178.7163         calculate D2E/DX2 analytically  !
 ! D109  D(43,13,14,46)         62.5188         calculate D2E/DX2 analytically  !
 ! D110  D(44,13,14,15)         59.8189         calculate D2E/DX2 analytically  !
 ! D111  D(44,13,14,45)        -60.9077         calculate D2E/DX2 analytically  !
 ! D112  D(44,13,14,46)       -179.6726         calculate D2E/DX2 analytically  !
 ! D113  D(13,14,15,16)       -174.4066         calculate D2E/DX2 analytically  !
 ! D114  D(13,14,15,47)         62.8834         calculate D2E/DX2 analytically  !
 ! D115  D(13,14,15,48)        -54.7175         calculate D2E/DX2 analytically  !
 ! D116  D(45,14,15,16)        -53.7571         calculate D2E/DX2 analytically  !
 ! D117  D(45,14,15,47)       -176.4671         calculate D2E/DX2 analytically  !
 ! D118  D(45,14,15,48)         65.932          calculate D2E/DX2 analytically  !
 ! D119  D(46,14,15,16)         65.2172         calculate D2E/DX2 analytically  !
 ! D120  D(46,14,15,47)        -57.4927         calculate D2E/DX2 analytically  !
 ! D121  D(46,14,15,48)       -175.0937         calculate D2E/DX2 analytically  !
 ! D122  D(14,15,16,17)        -68.2174         calculate D2E/DX2 analytically  !
 ! D123  D(14,15,16,49)        171.4738         calculate D2E/DX2 analytically  !
 ! D124  D(14,15,16,50)         54.6657         calculate D2E/DX2 analytically  !
 ! D125  D(47,15,16,17)         54.4528         calculate D2E/DX2 analytically  !
 ! D126  D(47,15,16,49)        -65.8561         calculate D2E/DX2 analytically  !
 ! D127  D(47,15,16,50)        177.3359         calculate D2E/DX2 analytically  !
 ! D128  D(48,15,16,17)        171.5529         calculate D2E/DX2 analytically  !
 ! D129  D(48,15,16,49)         51.244          calculate D2E/DX2 analytically  !
 ! D130  D(48,15,16,50)        -65.564          calculate D2E/DX2 analytically  !
 ! D131  D(15,16,17,18)       -168.2216         calculate D2E/DX2 analytically  !
 ! D132  D(15,16,17,51)         69.6274         calculate D2E/DX2 analytically  !
 ! D133  D(15,16,17,52)        -48.5197         calculate D2E/DX2 analytically  !
 ! D134  D(49,16,17,18)        -48.6315         calculate D2E/DX2 analytically  !
 ! D135  D(49,16,17,51)       -170.7825         calculate D2E/DX2 analytically  !
 ! D136  D(49,16,17,52)         71.0705         calculate D2E/DX2 analytically  !
 ! D137  D(50,16,17,18)         69.4103         calculate D2E/DX2 analytically  !
 ! D138  D(50,16,17,51)        -52.7407         calculate D2E/DX2 analytically  !
 ! D139  D(50,16,17,52)       -170.8878         calculate D2E/DX2 analytically  !
 ! D140  D(16,17,18,19)        -69.1709         calculate D2E/DX2 analytically  !
 ! D141  D(16,17,18,53)        170.9807         calculate D2E/DX2 analytically  !
 ! D142  D(16,17,18,54)         53.6006         calculate D2E/DX2 analytically  !
 ! D143  D(51,17,18,19)         53.5269         calculate D2E/DX2 analytically  !
 ! D144  D(51,17,18,53)        -66.3215         calculate D2E/DX2 analytically  !
 ! D145  D(51,17,18,54)        176.2984         calculate D2E/DX2 analytically  !
 ! D146  D(52,17,18,19)        170.4687         calculate D2E/DX2 analytically  !
 ! D147  D(52,17,18,53)         50.6203         calculate D2E/DX2 analytically  !
 ! D148  D(52,17,18,54)        -66.7599         calculate D2E/DX2 analytically  !
 ! D149  D(17,18,19,55)        -55.402          calculate D2E/DX2 analytically  !
 ! D150  D(17,18,19,56)       -174.8394         calculate D2E/DX2 analytically  !
 ! D151  D(17,18,19,57)         66.0319         calculate D2E/DX2 analytically  !
 ! D152  D(53,18,19,55)         64.5608         calculate D2E/DX2 analytically  !
 ! D153  D(53,18,19,56)        -54.8767         calculate D2E/DX2 analytically  !
 ! D154  D(53,18,19,57)       -174.0054         calculate D2E/DX2 analytically  !
 ! D155  D(54,18,19,55)       -178.5123         calculate D2E/DX2 analytically  !
 ! D156  D(54,18,19,56)         62.0502         calculate D2E/DX2 analytically  !
 ! D157  D(54,18,19,57)        -57.0785         calculate D2E/DX2 analytically  !
 --------------------------------------------------------------------------------
 Trust Radius=3.00D-01 FncErr=1.00D-07 GrdErr=1.00D-07 EigMax=2.50D+02 EigMin=1.00D-04
 Number of steps in this run=    354 maximum allowed number of steps=    354.
 GradGradGradGradGradGradGradGradGradGradGradGradGradGradGradGradGradGrad

 Stoichiometry    C18H37O3P
 Framework group  C1[X(C18H37O3P)]
 Deg. of freedom   171
 Full point group                 C1      NOp   1
 Largest Abelian subgroup         C1      NOp   1
 Largest concise Abelian subgroup C1      NOp   1
                         Standard orientation:                         
 ---------------------------------------------------------------------
 Center     Atomic      Atomic             Coordinates (Angstroms)
 Number     Number       Type             X           Y           Z
 ---------------------------------------------------------------------
      1          6           0       -5.292407   -0.215353    0.769434
      2          6           0       -5.156421    1.077435   -0.040303
      3          6           0       -3.948299    1.923099    0.391160
      4          6           0       -2.608195    1.279765    0.005064
      5          6           0       -1.437334    2.220118    0.314129
      6          6           0       -0.099668    1.577624   -0.070805
      7          6           0        1.072450    2.526995    0.213743
      8          6           0        2.424405    1.901818   -0.153728
      9          6           0        2.591746    1.787870   -1.650610
     10          6           0        2.563515    0.642743   -2.359112
     11         15           0       -6.865873   -1.104036    0.315090
     12          6           0        2.250340   -0.727173   -1.805039
     13          6           0        3.502448   -1.610818   -1.754940
     14          6           0        4.483990   -1.161476   -0.664461
     15          6           0        5.722888   -2.068749   -0.631889
     16          6           0        6.667064   -1.738105    0.534724
     17          6           0        7.353331   -0.370048    0.373844
     18          6           0        8.500478   -0.166569    1.374950
     19          6           0        8.009080   -0.017405    2.813687
     20          8           0       -8.321312   -0.177694    0.504480
     21          8           0       -6.852236   -1.478658   -1.190355
     22          8           0       -7.108871   -2.621524    1.121122
     23          1           0       -5.318625    0.013992    1.856236
     24          1           0       -4.440369   -0.895567    0.563138
     25          1           0       -6.073845    1.688454    0.106354
     26          1           0       -5.081487    0.836729   -1.123404
     27          1           0       -3.983711    2.095619    1.489382
     28          1           0       -4.029002    2.913197   -0.109161
     29          1           0       -2.610710    1.042655   -1.081335
     30          1           0       -2.469207    0.335375    0.573968
     31          1           0       -1.432884    2.457555    1.400911
     32          1           0       -1.565706    3.167898   -0.253881
     33          1           0       -0.117676    1.324844   -1.154299
     34          1           0        0.038021    0.639549    0.509736
     35          1           0        1.083993    2.774864    1.297547
     36          1           0        0.936527    3.477080   -0.349401
     37          1           0        3.232119    2.566994    0.220357
     38          1           0        2.560009    0.938397    0.375371
     39          1           0        2.778707    2.710679   -2.193046
     40          1           0        2.749445    0.706688   -3.427656
     41          1           0        1.512776   -1.201370   -2.488114
     42          1           0        1.762327   -0.695258   -0.811260
     43          1           0        4.007256   -1.603439   -2.747028
     44          1           0        3.183090   -2.656505   -1.545923
     45          1           0        3.975022   -1.195358    0.324271
     46          1           0        4.799248   -0.116547   -0.867768
     47          1           0        6.272130   -1.990208   -1.595931
     48          1           0        5.392862   -3.124657   -0.516992
     49          1           0        7.445807   -2.531422    0.576333
     50          1           0        6.097876   -1.772099    1.488434
     51          1           0        6.611329    0.448171    0.496233
     52          1           0        7.776859   -0.294456   -0.652136
     53          1           0        9.050025    0.759274    1.096938
     54          1           0        9.218808   -1.012570    1.312427
     55          1           0        7.269294    0.807864    2.887470
     56          1           0        8.868570    0.218944    3.475154
     57          1           0        7.547071   -0.961418    3.171403
     58          1           0       -8.295396    0.136203    1.443467
     59          1           0       -7.099567   -2.397226    2.084791
 ---------------------------------------------------------------------
 Rotational constants (GHZ):           0.4079727           0.0483846           0.0469896
 Standard basis: VSTO-6G (5D, 7F)
 There are   131 symmetry adapted cartesian basis functions of A   symmetry.
 There are   130 symmetry adapted basis functions of A   symmetry.
   130 basis functions,   786 primitive gaussians,   131 cartesian basis functions
    66 alpha electrons       66 beta electrons
       nuclear repulsion energy      1027.1272522123 Hartrees.
 Integral buffers will be    131072 words long.
 Regular integral format.
 Two-electron integral symmetry is turned off.
 Do NDO integrals.
 One-electron integrals computed using PRISM.
 NBasis=   130 RedAO= F EigKep=  0.00D+00  NBF=   130
 NBsUse=   130 1.00D-04 EigRej=  0.00D+00 NBFU=   130
 Nonelectrostatic core Hamiltonian diagonalized for initial guess.
 Keep J ints in memory in canonical form, NReq=1892552.
 Overlap will be assumed to be unity.
 Requested convergence on RMS density matrix=1.00D-08 within9999 cycles.
 Requested convergence on MAX density matrix=1.00D-06.
 Requested convergence on             energy=1.00D-06.
 No special actions if energy rises.
 EnCoef did     2 forward-backward iterations
 SCF Done:  E(RPM6) = -0.349512063912     A.U. after   20 cycles
            NFock= 19  Conv=0.55D-08     -V/T= 0.9984
 Range of M.O.s used for correlation:     1   130
 NBasis=   130 NAE=    66 NBE=    66 NFC=     0 NFV=     0
 NROrb=    130 NOA=    66 NOB=    66 NVA=    64 NVB=    64
 Symmetrizing basis deriv contribution to polar:
 IMax=3 JMax=2 DiffMx= 0.00D+00
 G2DrvN: will do    60 centers at a time, making    1 passes.
 Calling FoFCou, ICntrl=  3107 FMM=F I1Cent=   0 AccDes= 0.00D+00.
 End of G2Drv F.D. properties file   721 does not exist.
 End of G2Drv F.D. properties file   722 does not exist.
 End of G2Drv F.D. properties file   788 does not exist.
          IDoAtm=11111111111111111111111111111111111111111111111111
          IDoAtm=111111111
          Differentiating once with respect to electric field.
                with respect to dipole field.
          Differentiating once with respect to nuclear coordinates.
          Electric field/nuclear overlap derivatives assumed to be zero.
 Keep J ints in memory in canonical form, NReq=1898152.
          There are   180 degrees of freedom in the 1st order CPHF.  IDoFFX=5 NUNeed=   180.
 LinEq1:  Iter=  0 NonCon=   180 RMS=1.07D-01 Max=3.02D+00 NDo=   180
 AX will form   180 AO Fock derivatives at one time.
 LinEq1:  Iter=  1 NonCon=   180 RMS=1.38D-02 Max=2.63D-01 NDo=   180
 LinEq1:  Iter=  2 NonCon=   180 RMS=3.03D-03 Max=9.06D-02 NDo=   180
 LinEq1:  Iter=  3 NonCon=   180 RMS=7.54D-04 Max=1.95D-02 NDo=   180
 LinEq1:  Iter=  4 NonCon=   180 RMS=2.33D-04 Max=3.54D-03 NDo=   180
 LinEq1:  Iter=  5 NonCon=   180 RMS=4.64D-05 Max=6.42D-04 NDo=   180
 LinEq1:  Iter=  6 NonCon=   134 RMS=6.76D-06 Max=1.66D-04 NDo=   180
 LinEq1:  Iter=  7 NonCon=    34 RMS=1.35D-06 Max=2.32D-05 NDo=   134
 LinEq1:  Iter=  8 NonCon=     6 RMS=2.50D-07 Max=4.92D-06 NDo=    34
 LinEq1:  Iter=  9 NonCon=     3 RMS=4.20D-08 Max=7.18D-07 NDo=     6
 LinEq1:  Iter= 10 NonCon=     1 RMS=6.45D-09 Max=1.06D-07 NDo=     3
 LinEq1:  Iter= 11 NonCon=     0 RMS=8.11D-10 Max=7.85D-09 NDo=     1
 Linear equations converged to 1.000D-08 1.000D-07 after    11 iterations.
 Isotropic polarizability for W=    0.000000      155.47 Bohr**3.
 End of Minotr F.D. properties file   721 does not exist.
 End of Minotr F.D. properties file   722 does not exist.
 End of Minotr F.D. properties file   788 does not exist.

 **********************************************************************

            Population analysis using the SCF Density.

 **********************************************************************

 Orbital symmetries:
       Occupied  (A) (A) (A) (A) (A) (A) (A) (A) (A) (A) (A) (A)
                 (A) (A) (A) (A) (A) (A) (A) (A) (A) (A) (A) (A)
                 (A) (A) (A) (A) (A) (A) (A) (A) (A) (A) (A) (A)
                 (A) (A) (A) (A) (A) (A) (A) (A) (A) (A) (A) (A)
                 (A) (A) (A) (A) (A) (A) (A) (A) (A) (A) (A) (A)
                 (A) (A) (A) (A) (A) (A)
       Virtual   (A) (A) (A) (A) (A) (A) (A) (A) (A) (A) (A) (A)
                 (A) (A) (A) (A) (A) (A) (A) (A) (A) (A) (A) (A)
                 (A) (A) (A) (A) (A) (A) (A) (A) (A) (A) (A) (A)
                 (A) (A) (A) (A) (A) (A) (A) (A) (A) (A) (A) (A)
                 (A) (A) (A) (A) (A) (A) (A) (A) (A) (A) (A) (A)
                 (A) (A) (A) (A)
 The electronic state is 1-A.
 Alpha  occ. eigenvalues --   -1.11652  -1.11291  -1.08713  -1.07025  -1.05549
 Alpha  occ. eigenvalues --   -1.03359  -1.00683  -1.00078  -0.97952  -0.94561
 Alpha  occ. eigenvalues --   -0.91401  -0.88091  -0.84942  -0.82659  -0.77547
 Alpha  occ. eigenvalues --   -0.75422  -0.74895  -0.74387  -0.73607  -0.73003
 Alpha  occ. eigenvalues --   -0.70630  -0.68475  -0.66740  -0.65014  -0.62485
 Alpha  occ. eigenvalues --   -0.61030  -0.59607  -0.59398  -0.58819  -0.57263
 Alpha  occ. eigenvalues --   -0.56379  -0.55771  -0.55237  -0.54528  -0.53470
 Alpha  occ. eigenvalues --   -0.52910  -0.52305  -0.51419  -0.50748  -0.50342
 Alpha  occ. eigenvalues --   -0.49906  -0.49046  -0.48504  -0.48163  -0.47113
 Alpha  occ. eigenvalues --   -0.46824  -0.45851  -0.45618  -0.45242  -0.45098
 Alpha  occ. eigenvalues --   -0.44945  -0.43954  -0.43633  -0.43119  -0.42815
 Alpha  occ. eigenvalues --   -0.42523  -0.42461  -0.41942  -0.41549  -0.41214
 Alpha  occ. eigenvalues --   -0.40836  -0.40514  -0.40073  -0.39174  -0.38014
 Alpha  occ. eigenvalues --   -0.35036
 Alpha virt. eigenvalues --   -0.00289   0.04824   0.05025   0.09120   0.11729
 Alpha virt. eigenvalues --    0.12685   0.13296   0.14024   0.14799   0.14889
 Alpha virt. eigenvalues --    0.15232   0.15494   0.15978   0.16094   0.16204
 Alpha virt. eigenvalues --    0.16432   0.16587   0.16813   0.17020   0.17038
 Alpha virt. eigenvalues --    0.17243   0.17826   0.17907   0.18563   0.18942
 Alpha virt. eigenvalues --    0.19121   0.19741   0.20017   0.20401   0.20585
 Alpha virt. eigenvalues --    0.20849   0.20996   0.21095   0.21310   0.21706
 Alpha virt. eigenvalues --    0.21783   0.21930   0.22043   0.22054   0.22698
 Alpha virt. eigenvalues --    0.22791   0.22880   0.22949   0.23074   0.23127
 Alpha virt. eigenvalues --    0.23200   0.23289   0.23344   0.23433   0.23637
 Alpha virt. eigenvalues --    0.23833   0.23954   0.24108   0.24185   0.24349
 Alpha virt. eigenvalues --    0.24393   0.24858   0.25002   0.25262   3.89408
 Alpha virt. eigenvalues --    3.90037   3.91932   3.92605   3.93510
          Condensed to atoms (all electrons):
 Mulliken charges:
               1
     1  C   -0.589263
     2  C   -0.192300
     3  C   -0.270562
     4  C   -0.257841
     5  C   -0.272257
     6  C   -0.259061
     7  C   -0.252231
     8  C   -0.261958
     9  C   -0.164627
    10  C   -0.154752
    11  P    1.500047
    12  C   -0.264234
    13  C   -0.255760
    14  C   -0.253692
    15  C   -0.271777
    16  C   -0.254741
    17  C   -0.259788
    18  C   -0.229904
    19  C   -0.457719
    20  O   -0.603909
    21  O   -0.773913
    22  O   -0.603620
    23  H    0.166484
    24  H    0.211677
    25  H    0.128840
    26  H    0.163050
    27  H    0.130824
    28  H    0.140392
    29  H    0.141277
    30  H    0.129448
    31  H    0.130221
    32  H    0.135169
    33  H    0.143946
    34  H    0.129646
    35  H    0.126207
    36  H    0.134394
    37  H    0.133327
    38  H    0.143041
    39  H    0.133539
    40  H    0.133627
    41  H    0.134295
    42  H    0.141255
    43  H    0.134530
    44  H    0.127351
    45  H    0.128816
    46  H    0.141067
    47  H    0.132789
    48  H    0.127833
    49  H    0.127940
    50  H    0.131796
    51  H    0.133495
    52  H    0.128661
    53  H    0.123287
    54  H    0.127122
    55  H    0.146574
    56  H    0.141129
    57  H    0.147330
    58  H    0.286757
    59  H    0.286727
 Sum of Mulliken charges =   0.00000
 Mulliken charges with hydrogens summed into heavy atoms:
               1
     1  C   -0.211103
     2  C    0.099590
     3  C    0.000653
     4  C    0.012884
     5  C   -0.006866
     6  C    0.014532
     7  C    0.008370
     8  C    0.014410
     9  C   -0.031088
    10  C   -0.021125
    11  P    1.500047
    12  C    0.011316
    13  C    0.006121
    14  C    0.016191
    15  C   -0.011155
    16  C    0.004995
    17  C    0.002368
    18  C    0.020505
    19  C   -0.022687
    20  O   -0.317152
    21  O   -0.773913
    22  O   -0.316894
 APT charges:
               1
     1  C   -0.848082
     2  C   -0.118775
     3  C   -0.249769
     4  C   -0.219287
     5  C   -0.239663
     6  C   -0.217907
     7  C   -0.218833
     8  C   -0.274634
     9  C   -0.144602
    10  C   -0.124938
    11  P    2.595317
    12  C   -0.282670
    13  C   -0.219904
    14  C   -0.211612
    15  C   -0.238587
    16  C   -0.223596
    17  C   -0.227078
    18  C   -0.163611
    19  C   -0.527241
    20  O   -0.915276
    21  O   -1.004216
    22  O   -0.933313
    23  H    0.170240
    24  H    0.223564
    25  H    0.110001
    26  H    0.154265
    27  H    0.114592
    28  H    0.128126
    29  H    0.126071
    30  H    0.111631
    31  H    0.113761
    32  H    0.120819
    33  H    0.125104
    34  H    0.108586
    35  H    0.109014
    36  H    0.125666
    37  H    0.126550
    38  H    0.128702
    39  H    0.138673
    40  H    0.138297
    41  H    0.128483
    42  H    0.126548
    43  H    0.125377
    44  H    0.110382
    45  H    0.106371
    46  H    0.121096
    47  H    0.116769
    48  H    0.111361
    49  H    0.111391
    50  H    0.115450
    51  H    0.115986
    52  H    0.111689
    53  H    0.105977
    54  H    0.111227
    55  H    0.157686
    56  H    0.155781
    57  H    0.159988
    58  H    0.272137
    59  H    0.270982
 Sum of APT charges =   0.00007
 APT charges with hydrogens summed into heavy atoms:
               1
     1  C   -0.454278
     2  C    0.145490
     3  C   -0.007051
     4  C    0.018415
     5  C   -0.005083
     6  C    0.015784
     7  C    0.015846
     8  C   -0.019381
     9  C   -0.005929
    10  C    0.013359
    11  P    2.595317
    12  C   -0.027639
    13  C    0.015855
    14  C    0.015856
    15  C   -0.010457
    16  C    0.003245
    17  C    0.000597
    18  C    0.053594
    19  C   -0.053786
    20  O   -0.643139
    21  O   -1.004216
    22  O   -0.662332
 Charge=              0.0000 electrons
 Dipole moment (field-independent basis, Debye):
    X=              3.0695    Y=              3.2162    Z=              7.1926  Tot=              8.4558
 N-N= 1.027127252212D+03 E-N=-1.751146728765D+03  KE=-2.211556923027D+02
  Exact polarizability:     158.124       2.087     159.398      -1.515      12.649     148.881
 Approx polarizability:      95.364       0.223     113.439      -2.669       8.595     114.051
 Calling FoFJK, ICntrl=    100127 FMM=F ISym2X=0 I1Cent= 0 IOpClX= 0 NMat=1 NMatS=1 NMatT=0.
 ***** Axes restored to original set *****
 -------------------------------------------------------------------
 Center     Atomic                   Forces (Hartrees/Bohr)
 Number     Number              X              Y              Z
 -------------------------------------------------------------------
      1        6          -0.008638477   -0.022351545   -0.013720134
      2        6          -0.005451707   -0.001477435   -0.005435783
      3        6          -0.000954821    0.001519987   -0.002120587
      4        6          -0.001067560   -0.001924528   -0.000649684
      5        6           0.000204909   -0.001638594    0.000423970
      6        6           0.000400603   -0.000554791    0.000530919
      7        6          -0.001123259   -0.001363083   -0.001141399
      8        6           0.001010823    0.004719937    0.010941995
      9        6          -0.001377149    0.009518562   -0.014618584
     10        6          -0.001276044   -0.017566788   -0.003340320
     11       15          -0.054009304    0.115289533    0.042776251
     12        6           0.001416060    0.004573255    0.011103677
     13        6           0.000183902    0.000928166   -0.002811629
     14        6           0.000672427    0.001965047   -0.000936481
     15        6          -0.000274717   -0.001109733   -0.000756573
     16        6           0.000450105    0.001169163    0.002702990
     17        6           0.000575600    0.001792090   -0.002299220
     18        6          -0.000649912   -0.001604663    0.000360862
     19        6           0.001884077   -0.002251826   -0.001984015
     20        8           0.044262840    0.005178174   -0.028231551
     21        8           0.014936582   -0.057131704   -0.024975851
     22        8           0.018573454   -0.030553333    0.038981400
     23        1           0.008154439    0.002169002    0.000592163
     24        1           0.001535888   -0.000068721   -0.000553387
     25        1           0.000035270    0.001839456    0.004100777
     26        1          -0.000455811   -0.000049466    0.001867016
     27        1           0.000093557    0.002278752    0.003424940
     28        1           0.000495390   -0.002052474   -0.002000607
     29        1           0.000116854   -0.000893765   -0.003825980
     30        1          -0.001900147    0.002884767    0.002943457
     31        1          -0.000598148    0.001312837    0.004247037
     32        1           0.000912074   -0.002554186   -0.003102637
     33        1           0.002047068   -0.000533685   -0.003746673
     34        1          -0.000561184    0.002940909    0.003317177
     35        1          -0.000674761    0.000678651    0.003275777
     36        1           0.000219328   -0.001059325   -0.003475433
     37        1           0.001113188   -0.000137081   -0.001896747
     38        1          -0.000882696    0.002846183    0.001792080
     39        1           0.001219503   -0.005794194    0.001080001
     40        1          -0.001277764    0.005001912   -0.003141392
     41        1          -0.001394516   -0.001210347   -0.001031010
     42        1           0.001500633   -0.000550506    0.003089564
     43        1          -0.001221823   -0.002008529   -0.003128048
     44        1           0.001574970    0.001868128    0.002937496
     45        1           0.002228081    0.000875125    0.004214529
     46        1          -0.001394119   -0.002628074   -0.002387731
     47        1          -0.001740325   -0.001623770   -0.003022160
     48        1           0.001390517    0.001739727    0.002742455
     49        1          -0.001082494   -0.003559171   -0.000380022
     50        1           0.003028659    0.002267011    0.000809092
     51        1           0.000543032    0.003846639   -0.000675954
     52        1          -0.002623206   -0.002792435    0.000309606
     53        1           0.000560442    0.002550841   -0.001821750
     54        1          -0.000649204   -0.001434008    0.002781766
     55        1           0.003833928    0.003966678   -0.007212259
     56        1          -0.008006131    0.000367781    0.000205051
     57        1           0.003081522   -0.003659676    0.007293445
     58        1          -0.015014807   -0.014789406    0.007773886
     59        1          -0.003955640    0.000838533   -0.022195776
 -------------------------------------------------------------------
 Cartesian Forces:  Max     0.115289533 RMS     0.013302034
 FormGI is forming the generalized inverse of G from B-inverse, IUseBI=4.

 GradGradGradGradGradGradGradGradGradGradGradGradGradGradGradGradGradGrad
 Berny optimization.
 Internal  Forces:  Max     0.064106811 RMS     0.005910452
 Search for a local minimum.
 Step number   1 out of a maximum of  354
 All quantities printed in internal units (Hartrees-Bohrs-Radians)
 Mixed Optimization -- RFO/linear search
 Second derivative matrix not updated -- analytic derivatives used.
 ITU=  0
     Eigenvalues ---   -0.00161   0.00013   0.00064   0.00068   0.00073
     Eigenvalues ---    0.00081   0.00092   0.00096   0.00105   0.00122
     Eigenvalues ---    0.00131   0.00139   0.00145   0.00150   0.00157
     Eigenvalues ---    0.00159   0.00168   0.00170   0.00228   0.01754
     Eigenvalues ---    0.02094   0.02587   0.02606   0.02970   0.03040
     Eigenvalues ---    0.03045   0.03062   0.03072   0.03077   0.03080
     Eigenvalues ---    0.03087   0.03094   0.03122   0.03127   0.03161
     Eigenvalues ---    0.03193   0.03388   0.03409   0.03567   0.03624
     Eigenvalues ---    0.03647   0.03687   0.03706   0.03725   0.03741
     Eigenvalues ---    0.03762   0.03767   0.03800   0.03818   0.03838
     Eigenvalues ---    0.03868   0.03888   0.03951   0.04316   0.04365
     Eigenvalues ---    0.05184   0.06283   0.06397   0.06478   0.06611
     Eigenvalues ---    0.06701   0.06882   0.06970   0.07022   0.07116
     Eigenvalues ---    0.07157   0.07159   0.07262   0.07309   0.07542
     Eigenvalues ---    0.07548   0.07569   0.08132   0.09063   0.09210
     Eigenvalues ---    0.09517   0.09530   0.09726   0.10043   0.10185
     Eigenvalues ---    0.10229   0.10299   0.10518   0.10581   0.10713
     Eigenvalues ---    0.10797   0.10904   0.10977   0.11068   0.11174
     Eigenvalues ---    0.11295   0.11322   0.11947   0.12479   0.12754
     Eigenvalues ---    0.13110   0.14704   0.15020   0.16027   0.16071
     Eigenvalues ---    0.16933   0.16961   0.17017   0.17131   0.17258
     Eigenvalues ---    0.17346   0.17504   0.17540   0.17608   0.17704
     Eigenvalues ---    0.17899   0.18069   0.19280   0.19797   0.21033
     Eigenvalues ---    0.22600   0.25105   0.25114   0.25122   0.25137
     Eigenvalues ---    0.25139   0.25142   0.25146   0.25158   0.25172
     Eigenvalues ---    0.25184   0.25203   0.25213   0.25220   0.25245
     Eigenvalues ---    0.25350   0.25368   0.25618   0.26464   0.26514
     Eigenvalues ---    0.26544   0.26577   0.26624   0.26655   0.26661
     Eigenvalues ---    0.26758   0.26837   0.26873   0.26934   0.27032
     Eigenvalues ---    0.27229   0.27334   0.27453   0.27945   0.28429
     Eigenvalues ---    0.29301   0.32782   0.32980   0.34175   0.34295
     Eigenvalues ---    0.34606   0.35391   0.36104   0.36297   0.38208
     Eigenvalues ---    0.38437   0.40592   0.40811   0.43025   0.43367
     Eigenvalues ---    0.44810   0.45141   0.45230   0.46079   0.46304
     Eigenvalues ---    0.74401
 RFO step:  Lambda=-5.27470217D-02 EMin=-1.61341284D-03
 Linear search not attempted -- first point.
 Maximum step size (   0.300) exceeded in Quadratic search.
    -- Step size scaled by   0.667
 Iteration  1 RMS(Cart)=  0.04395670 RMS(Int)=  0.00582640
 Iteration  2 RMS(Cart)=  0.00967823 RMS(Int)=  0.00089494
 Iteration  3 RMS(Cart)=  0.00018901 RMS(Int)=  0.00088121
 Iteration  4 RMS(Cart)=  0.00000047 RMS(Int)=  0.00088121
 Variable       Old X    -DE/DX   Delta X   Delta X   Delta X     New X
                                 (Linear)    (Quad)   (Total)
    R1        2.89410  -0.00125   0.00000  -0.00266  -0.00266   2.89144
    R2        3.52117  -0.00283   0.00000  -0.00696  -0.00696   3.51421
    R3        2.09957  -0.00055   0.00000  -0.00661  -0.00661   2.09297
    R4        2.09684   0.00110   0.00000   0.00198   0.00198   2.09883
    R5        2.90358  -0.00060   0.00000   0.00165   0.00165   2.90524
    R6        2.10136   0.00033   0.00000  -0.00048  -0.00048   2.10087
    R7        2.10147   0.00080   0.00000   0.00102   0.00102   2.10250
    R8        2.90233  -0.00008   0.00000   0.00015   0.00015   2.90248
    R9        2.10186  -0.00357   0.00000  -0.00740  -0.00740   2.09445
   R10        2.10187  -0.00158   0.00000  -0.00360  -0.00360   2.09827
   R11        2.89733   0.00352   0.00000   0.00453   0.00453   2.90186
   R12        2.10133  -0.00243   0.00000  -0.00526  -0.00526   2.09607
   R13        2.09993  -0.00268   0.00000  -0.00552  -0.00552   2.09441
   R14        2.89709   0.00348   0.00000   0.00435   0.00435   2.90144
   R15        2.10218  -0.00308   0.00000  -0.00689  -0.00689   2.09529
   R16        2.10210  -0.00280   0.00000  -0.00626  -0.00626   2.09584
   R17        2.90067   0.00048   0.00000   0.00090   0.00090   2.90157
   R18        2.10277  -0.00249   0.00000  -0.00525  -0.00525   2.09751
   R19        2.10089  -0.00298   0.00000  -0.00634  -0.00634   2.09455
   R20        2.89915   0.00294   0.00000   0.00491   0.00491   2.90407
   R21        2.10109  -0.00211   0.00000  -0.00506  -0.00506   2.09602
   R22        2.10284  -0.00330   0.00000  -0.00684  -0.00684   2.09600
   R23        2.85445  -0.00994   0.00000  -0.01301  -0.01301   2.84145
   R24        2.09989   0.00053   0.00000   0.00057   0.00057   2.10046
   R25        2.09284  -0.00134   0.00000  -0.00044  -0.00044   2.09239
   R26        2.54524  -0.00979   0.00000  -0.01091  -0.01091   2.53433
   R27        2.05344   0.00169   0.00000   0.00521   0.00521   2.05865
   R28        2.85452  -0.00992   0.00000  -0.01313  -0.01313   2.84138
   R29        2.05316   0.00185   0.00000   0.00561   0.00561   2.05877
   R30        3.27979  -0.02234   0.00000  -0.07418  -0.07418   3.20562
   R31        2.93175  -0.06411   0.00000  -0.10612  -0.10612   2.82563
   R32        3.27937  -0.02258   0.00000  -0.08011  -0.08011   3.19926
   R33        2.89758   0.00350   0.00000   0.00581   0.00581   2.90339
   R34        2.10045   0.00044   0.00000   0.00034   0.00034   2.10079
   R35        2.09305  -0.00151   0.00000  -0.00084  -0.00084   2.09221
   R36        2.89965   0.00155   0.00000   0.00210   0.00210   2.90175
   R37        2.10356  -0.00362   0.00000  -0.00750  -0.00750   2.09606
   R38        2.10358  -0.00252   0.00000  -0.00621  -0.00621   2.09737
   R39        2.90248   0.00051   0.00000   0.00048   0.00048   2.90296
   R40        2.10243  -0.00365   0.00000  -0.00753  -0.00753   2.09490
   R41        2.09802  -0.00171   0.00000  -0.00317  -0.00317   2.09485
   R42        2.90415   0.00034   0.00000   0.00038   0.00038   2.90452
   R43        2.10194  -0.00352   0.00000  -0.00691  -0.00691   2.09503
   R44        2.10181  -0.00212   0.00000  -0.00474  -0.00474   2.09708
   R45        2.90823  -0.00339   0.00000  -0.00403  -0.00403   2.90420
   R46        2.10221  -0.00239   0.00000  -0.00496  -0.00496   2.09725
   R47        2.09980  -0.00321   0.00000  -0.00584  -0.00584   2.09396
   R48        2.90278   0.00097   0.00000   0.00135   0.00135   2.90413
   R49        2.10009  -0.00326   0.00000  -0.00594  -0.00594   2.09414
   R50        2.10238  -0.00249   0.00000  -0.00520  -0.00520   2.09718
   R51        2.88682   0.00210   0.00000   0.00179   0.00179   2.88861
   R52        2.10132  -0.00158   0.00000  -0.00367  -0.00367   2.09765
   R53        2.10059  -0.00287   0.00000  -0.00554  -0.00554   2.09505
   R54        2.09904  -0.00859   0.00000  -0.01704  -0.01704   2.08200
   R55        2.09762  -0.00738   0.00000  -0.01531  -0.01531   2.08230
   R56        2.09800  -0.00831   0.00000  -0.01627  -0.01627   2.08173
   R57        1.87159   0.00708   0.00000   0.00032   0.00032   1.87191
   R58        1.86983   0.00743   0.00000   0.00181   0.00181   1.87164
    A1        1.92693  -0.00910   0.00000  -0.02228  -0.02222   1.90471
    A2        1.92307   0.00051   0.00000   0.00522   0.00538   1.92845
    A3        1.92943   0.00217   0.00000  -0.00035  -0.00034   1.92908
    A4        1.89340   0.00852   0.00000   0.03303   0.03305   1.92645
    A5        1.88675   0.00149   0.00000   0.00775   0.00764   1.89438
    A6        1.90342  -0.00340   0.00000  -0.02281  -0.02294   1.88048
    A7        1.96702  -0.00481   0.00000  -0.00831  -0.00830   1.95873
    A8        1.89742   0.00403   0.00000   0.01692   0.01691   1.91433
    A9        1.91583   0.00174   0.00000   0.00657   0.00652   1.92235
   A10        1.88519   0.00058   0.00000   0.00018   0.00020   1.88539
   A11        1.91734   0.00067   0.00000  -0.00526  -0.00525   1.91209
   A12        1.87862  -0.00211   0.00000  -0.01013  -0.01021   1.86841
   A13        1.96593  -0.00107   0.00000  -0.00224  -0.00224   1.96368
   A14        1.91516   0.00090   0.00000   0.00300   0.00300   1.91816
   A15        1.88238   0.00072   0.00000   0.00528   0.00527   1.88765
   A16        1.91874   0.00000   0.00000  -0.00042  -0.00042   1.91833
   A17        1.89980   0.00080   0.00000   0.00314   0.00314   1.90294
   A18        1.87944  -0.00136   0.00000  -0.00902  -0.00902   1.87042
   A19        1.93773   0.00008   0.00000   0.00113   0.00112   1.93885
   A20        1.91023   0.00014   0.00000   0.00200   0.00199   1.91222
   A21        1.91391  -0.00011   0.00000   0.00065   0.00063   1.91454
   A22        1.90652   0.00058   0.00000   0.00321   0.00321   1.90973
   A23        1.89919   0.00107   0.00000   0.00582   0.00581   1.90500
   A24        1.89573  -0.00180   0.00000  -0.01315  -0.01314   1.88259
   A25        1.93765  -0.00001   0.00000  -0.00005  -0.00006   1.93759
   A26        1.90805   0.00051   0.00000   0.00342   0.00342   1.91147
   A27        1.90870   0.00044   0.00000   0.00288   0.00287   1.91157
   A28        1.90843   0.00041   0.00000   0.00283   0.00282   1.91126
   A29        1.90663   0.00035   0.00000   0.00272   0.00271   1.90934
   A30        1.89384  -0.00174   0.00000  -0.01210  -0.01210   1.88175
   A31        1.93963   0.00004   0.00000   0.00068   0.00067   1.94030
   A32        1.90241   0.00135   0.00000   0.00682   0.00682   1.90923
   A33        1.90770   0.00061   0.00000   0.00378   0.00377   1.91148
   A34        1.91067  -0.00059   0.00000  -0.00143  -0.00144   1.90922
   A35        1.90763   0.00032   0.00000   0.00278   0.00277   1.91040
   A36        1.89525  -0.00178   0.00000  -0.01298  -0.01298   1.88226
   A37        1.95679  -0.00070   0.00000  -0.00149  -0.00149   1.95529
   A38        1.90341   0.00065   0.00000   0.00415   0.00414   1.90755
   A39        1.91876   0.00001   0.00000  -0.00018  -0.00018   1.91858
   A40        1.89144   0.00089   0.00000   0.00446   0.00445   1.89590
   A41        1.91171   0.00039   0.00000   0.00099   0.00099   1.91270
   A42        1.87993  -0.00125   0.00000  -0.00815  -0.00814   1.87179
   A43        1.94522   0.00142   0.00000   0.00472   0.00469   1.94990
   A44        1.89228   0.00022   0.00000   0.00243   0.00238   1.89466
   A45        1.92619   0.00084   0.00000   0.00025   0.00024   1.92644
   A46        1.87364   0.00093   0.00000   0.00859   0.00856   1.88220
   A47        1.97605  -0.00332   0.00000  -0.01374  -0.01373   1.96232
   A48        1.84513  -0.00005   0.00000  -0.00167  -0.00165   1.84348
   A49        2.19334  -0.00061   0.00000   0.00198   0.00197   2.19531
   A50        2.03721  -0.00558   0.00000  -0.02316  -0.02317   2.01404
   A51        2.05222   0.00621   0.00000   0.02135   0.02135   2.07357
   A52        2.19254  -0.00036   0.00000   0.00283   0.00282   2.19535
   A53        2.05298   0.00604   0.00000   0.02082   0.02081   2.07380
   A54        2.03712  -0.00566   0.00000  -0.02341  -0.02342   2.01370
   A55        2.01194  -0.01305   0.00000  -0.09111  -0.09540   1.91654
   A56        1.92235   0.00884   0.00000   0.07438   0.07758   1.99993
   A57        2.00649  -0.01351   0.00000  -0.07891  -0.08361   1.92288
   A58        1.81537   0.00801   0.00000   0.06493   0.06666   1.88202
   A59        1.87404   0.00579   0.00000   0.00573  -0.00556   1.86847
   A60        1.81397   0.00811   0.00000   0.05351   0.05486   1.86884
   A61        1.94477   0.00152   0.00000   0.00476   0.00473   1.94950
   A62        1.87451   0.00083   0.00000   0.00827   0.00824   1.88275
   A63        1.97613  -0.00328   0.00000  -0.01335  -0.01334   1.96279
   A64        1.89240   0.00023   0.00000   0.00238   0.00232   1.89472
   A65        1.92526   0.00077   0.00000   0.00001   0.00000   1.92526
   A66        1.84556  -0.00003   0.00000  -0.00152  -0.00149   1.84407
   A67        1.95715  -0.00044   0.00000  -0.00124  -0.00125   1.95591
   A68        1.91493   0.00020   0.00000   0.00026   0.00026   1.91519
   A69        1.88937   0.00087   0.00000   0.00488   0.00487   1.89424
   A70        1.91915  -0.00004   0.00000  -0.00031  -0.00030   1.91884
   A71        1.90198   0.00065   0.00000   0.00449   0.00448   1.90646
   A72        1.87934  -0.00127   0.00000  -0.00829  -0.00829   1.87106
   A73        1.93699   0.00050   0.00000   0.00217   0.00215   1.93914
   A74        1.90712   0.00049   0.00000   0.00360   0.00359   1.91072
   A75        1.90405   0.00010   0.00000   0.00148   0.00147   1.90552
   A76        1.90940   0.00013   0.00000   0.00227   0.00226   1.91165
   A77        1.90795   0.00046   0.00000   0.00349   0.00349   1.91143
   A78        1.89791  -0.00174   0.00000  -0.01338  -0.01337   1.88454
   A79        1.96554  -0.00067   0.00000  -0.00144  -0.00145   1.96409
   A80        1.91581   0.00021   0.00000   0.00073   0.00073   1.91654
   A81        1.90037   0.00067   0.00000   0.00375   0.00375   1.90411
   A82        1.91704   0.00017   0.00000   0.00036   0.00036   1.91740
   A83        1.88403   0.00090   0.00000   0.00532   0.00532   1.88935
   A84        1.87873  -0.00131   0.00000  -0.00902  -0.00901   1.86971
   A85        1.96694  -0.00081   0.00000  -0.00124  -0.00124   1.96570
   A86        1.88078   0.00137   0.00000   0.00709   0.00709   1.88787
   A87        1.90737   0.00109   0.00000   0.00426   0.00426   1.91163
   A88        1.90253   0.00027   0.00000   0.00229   0.00228   1.90481
   A89        1.92340  -0.00062   0.00000  -0.00324  -0.00324   1.92016
   A90        1.88038  -0.00130   0.00000  -0.00938  -0.00939   1.87099
   A91        1.96345  -0.00046   0.00000  -0.00036  -0.00037   1.96308
   A92        1.92330  -0.00064   0.00000  -0.00303  -0.00303   1.92027
   A93        1.90346   0.00013   0.00000   0.00209   0.00208   1.90554
   A94        1.90638   0.00096   0.00000   0.00381   0.00381   1.91019
   A95        1.88360   0.00130   0.00000   0.00675   0.00674   1.89034
   A96        1.88148  -0.00130   0.00000  -0.00952  -0.00952   1.87196
   A97        1.96764   0.00056   0.00000   0.00138   0.00138   1.96901
   A98        1.89276  -0.00006   0.00000   0.00161   0.00159   1.89435
   A99        1.92316  -0.00054   0.00000  -0.00219  -0.00219   1.92097
   A100       1.88930   0.00090   0.00000   0.00578   0.00577   1.89506
   A101       1.91257   0.00009   0.00000   0.00089   0.00089   1.91346
   A102       1.87575  -0.00100   0.00000  -0.00779  -0.00779   1.86796
   A103       1.92767   0.00271   0.00000   0.00915   0.00911   1.93678
   A104       1.91022   0.00384   0.00000   0.01361   0.01354   1.92376
   A105       1.93295   0.00194   0.00000   0.00651   0.00647   1.93942
   A106       1.89433  -0.00290   0.00000  -0.00891  -0.00899   1.88534
   A107       1.91048  -0.00331   0.00000  -0.01406  -0.01406   1.89642
   A108       1.88732  -0.00249   0.00000  -0.00693  -0.00700   1.88033
   A109       1.82417   0.03990   0.00000   0.11460   0.11460   1.93877
   A110       1.82639   0.03983   0.00000   0.11537   0.11537   1.94176
    D1        3.04219   0.00324   0.00000   0.01658   0.01657   3.05875
    D2        0.95281   0.00282   0.00000   0.01017   0.01018   0.96299
    D3       -1.09788   0.00202   0.00000   0.00881   0.00876  -1.08911
    D4        0.95108  -0.00187   0.00000  -0.01361  -0.01361   0.93747
    D5       -1.13829  -0.00230   0.00000  -0.02003  -0.02000  -1.15830
    D6        3.09421  -0.00309   0.00000  -0.02139  -0.02142   3.07279
    D7       -1.15411   0.00064   0.00000   0.01171   0.01173  -1.14237
    D8        3.03970   0.00021   0.00000   0.00530   0.00534   3.04504
    D9        0.98901  -0.00058   0.00000   0.00393   0.00393   0.99294
   D10       -0.98686  -0.00875   0.00000  -0.08012  -0.07675  -1.06361
   D11        1.06014  -0.00064   0.00000  -0.00284  -0.00286   1.05728
   D12        3.10180   0.00724   0.00000   0.06721   0.06395  -3.11743
   D13        1.12205  -0.00830   0.00000  -0.06642  -0.06316   1.05889
   D14       -3.11414  -0.00019   0.00000   0.01087   0.01073  -3.10341
   D15       -1.07248   0.00769   0.00000   0.08091   0.07755  -0.99493
   D16       -3.09936  -0.00684   0.00000  -0.07110  -0.06771   3.11611
   D17       -1.05237   0.00127   0.00000   0.00619   0.00618  -1.04618
   D18        0.98929   0.00915   0.00000   0.07623   0.07300   1.06229
   D19        1.22104  -0.00132   0.00000  -0.00696  -0.00694   1.21410
   D20       -0.92264  -0.00123   0.00000  -0.00703  -0.00702  -0.92967
   D21       -2.96531  -0.00050   0.00000  -0.00089  -0.00088  -2.96619
   D22       -2.96571   0.00113   0.00000   0.00913   0.00913  -2.95658
   D23        1.17379   0.00121   0.00000   0.00906   0.00905   1.18284
   D24       -0.86888   0.00195   0.00000   0.01520   0.01520  -0.85368
   D25       -0.92123  -0.00070   0.00000  -0.00579  -0.00580  -0.92703
   D26       -3.06492  -0.00061   0.00000  -0.00587  -0.00588  -3.07080
   D27        1.17560   0.00012   0.00000   0.00027   0.00027   1.17587
   D28        3.03404   0.00004   0.00000   0.00182   0.00182   3.03587
   D29        0.92804  -0.00083   0.00000  -0.00422  -0.00422   0.92382
   D30       -1.14987   0.00136   0.00000   0.01023   0.01022  -1.13965
   D31       -1.10746   0.00046   0.00000   0.00381   0.00382  -1.10364
   D32        3.06972  -0.00041   0.00000  -0.00223  -0.00223   3.06749
   D33        0.99181   0.00177   0.00000   0.01222   0.01222   1.00402
   D34        0.94728  -0.00072   0.00000  -0.00549  -0.00549   0.94179
   D35       -1.15872  -0.00159   0.00000  -0.01153  -0.01154  -1.17026
   D36        3.04655   0.00059   0.00000   0.00291   0.00291   3.04946
   D37        3.14121   0.00003   0.00000   0.00004   0.00004   3.14125
   D38        1.03430  -0.00080   0.00000  -0.00569  -0.00569   1.02861
   D39       -1.03690   0.00074   0.00000   0.00527   0.00528  -1.03162
   D40       -1.03379   0.00064   0.00000   0.00536   0.00537  -1.02842
   D41       -3.14069  -0.00020   0.00000  -0.00037  -0.00037  -3.14106
   D42        1.07129   0.00135   0.00000   0.01060   0.01060   1.08189
   D43        1.03323  -0.00058   0.00000  -0.00526  -0.00526   1.02797
   D44       -1.07367  -0.00141   0.00000  -0.01099  -0.01100  -1.08467
   D45        3.13831   0.00014   0.00000  -0.00002  -0.00003   3.13828
   D46        3.12349  -0.00023   0.00000  -0.00105  -0.00105   3.12244
   D47        1.01624  -0.00041   0.00000  -0.00416  -0.00417   1.01208
   D48       -1.05276   0.00060   0.00000   0.00534   0.00534  -1.04741
   D49       -1.05302   0.00066   0.00000   0.00503   0.00503  -1.04799
   D50        3.12292   0.00048   0.00000   0.00192   0.00192   3.12484
   D51        1.05392   0.00149   0.00000   0.01142   0.01143   1.06535
   D52        1.01719  -0.00100   0.00000  -0.00638  -0.00638   1.01081
   D53       -1.09006  -0.00118   0.00000  -0.00949  -0.00949  -1.09955
   D54        3.12413  -0.00017   0.00000   0.00002   0.00002   3.12414
   D55        3.13405   0.00031   0.00000   0.00268   0.00268   3.13673
   D56        1.03929  -0.00080   0.00000  -0.00474  -0.00473   1.03455
   D57       -1.01819   0.00033   0.00000   0.00280   0.00280  -1.01539
   D58       -1.04676   0.00163   0.00000   0.01068   0.01067  -1.03609
   D59       -3.14153   0.00052   0.00000   0.00326   0.00326  -3.13827
   D60        1.08418   0.00166   0.00000   0.01079   0.01079   1.09497
   D61        1.02707  -0.00069   0.00000  -0.00430  -0.00430   1.02277
   D62       -1.06770  -0.00180   0.00000  -0.01171  -0.01172  -1.07941
   D63       -3.12518  -0.00067   0.00000  -0.00418  -0.00418  -3.12936
   D64        1.23583  -0.00193   0.00000  -0.01175  -0.01176   1.22407
   D65       -2.98884   0.00018   0.00000   0.00303   0.00304  -2.98581
   D66       -0.97558   0.00070   0.00000   0.00255   0.00255  -0.97303
   D67       -2.94564  -0.00097   0.00000  -0.00454  -0.00454  -2.95018
   D68       -0.88712   0.00115   0.00000   0.01025   0.01025  -0.87687
   D69        1.12615   0.00167   0.00000   0.00976   0.00977   1.13591
   D70       -0.89913  -0.00174   0.00000  -0.01121  -0.01121  -0.91034
   D71        1.15939   0.00037   0.00000   0.00358   0.00358   1.16297
   D72       -3.11053   0.00089   0.00000   0.00309   0.00310  -3.10744
   D73       -1.89481   0.00076   0.00000   0.00572   0.00570  -1.88911
   D74        1.27875   0.00002   0.00000  -0.00118  -0.00114   1.27762
   D75        2.31867  -0.00090   0.00000  -0.00523  -0.00529   2.31338
   D76       -0.79095  -0.00164   0.00000  -0.01213  -0.01213  -0.80308
   D77        0.28907   0.00043   0.00000  -0.00092  -0.00094   0.28813
   D78       -2.82055  -0.00031   0.00000  -0.00782  -0.00778  -2.82833
   D79        0.09043  -0.00160   0.00000  -0.01616  -0.01626   0.07417
   D80       -3.08801  -0.00090   0.00000  -0.00851  -0.00850  -3.09651
   D81       -3.08338  -0.00105   0.00000  -0.00994  -0.00995  -3.09333
   D82        0.02136  -0.00035   0.00000  -0.00229  -0.00219   0.01917
   D83       -1.89756   0.00084   0.00000   0.00640   0.00637  -1.89119
   D84        2.31550  -0.00082   0.00000  -0.00432  -0.00439   2.31111
   D85        0.28478   0.00054   0.00000  -0.00020  -0.00023   0.28455
   D86        1.28058  -0.00007   0.00000  -0.00202  -0.00197   1.27861
   D87       -0.78955  -0.00173   0.00000  -0.01274  -0.01273  -0.80227
   D88       -2.82027  -0.00038   0.00000  -0.00862  -0.00857  -2.82884
   D89       -0.94682   0.01104   0.00000   0.28746   0.28631  -0.66051
   D90       -3.05319   0.00190   0.00000   0.20161   0.20260  -2.85059
   D91        1.31428  -0.01271   0.00000   0.11244   0.11260   1.42688
   D92        1.01843  -0.01065   0.00000   0.11744   0.11813   1.13656
   D93       -1.24576   0.01279   0.00000   0.29893   0.29901  -0.94675
   D94        3.12075  -0.00173   0.00000   0.20190   0.20114  -2.96129
   D95        1.24598  -0.00195   0.00000  -0.01204  -0.01205   1.23393
   D96       -0.89200  -0.00174   0.00000  -0.01098  -0.01099  -0.90299
   D97       -2.93841  -0.00083   0.00000  -0.00398  -0.00399  -2.94240
   D98       -2.97782   0.00010   0.00000   0.00235   0.00235  -2.97547
   D99        1.16738   0.00030   0.00000   0.00340   0.00340   1.17079
   D100      -0.87902   0.00121   0.00000   0.01040   0.01041  -0.86862
   D101      -0.96448   0.00061   0.00000   0.00189   0.00189  -0.96260
   D102      -3.10246   0.00082   0.00000   0.00294   0.00294  -3.09952
   D103       1.13431   0.00173   0.00000   0.00994   0.00994   1.14426
   D104       3.13549   0.00044   0.00000   0.00357   0.00358   3.13907
   D105       1.02842  -0.00036   0.00000  -0.00298  -0.00299   1.02543
   D106      -1.04442   0.00140   0.00000   0.01023   0.01023  -1.03419
   D107      -1.01211   0.00037   0.00000   0.00284   0.00284  -1.00927
   D108      -3.11919  -0.00044   0.00000  -0.00372  -0.00372  -3.12291
   D109       1.09116   0.00132   0.00000   0.00949   0.00950   1.10066
   D110       1.04404  -0.00080   0.00000  -0.00473  -0.00473   1.03930
   D111      -1.06304  -0.00161   0.00000  -0.01129  -0.01130  -1.07433
   D112      -3.13588   0.00015   0.00000   0.00192   0.00192  -3.13395
   D113      -3.04397  -0.00056   0.00000  -0.00398  -0.00398  -3.04795
   D114       1.09752  -0.00047   0.00000  -0.00396  -0.00396   1.09356
   D115      -0.95500   0.00060   0.00000   0.00432   0.00432  -0.95068
   D116      -0.93824   0.00046   0.00000   0.00338   0.00338  -0.93486
   D117      -3.07993   0.00055   0.00000   0.00339   0.00340  -3.07654
   D118       1.15073   0.00162   0.00000   0.01167   0.01168   1.16241
   D119       1.13825  -0.00131   0.00000  -0.00945  -0.00946   1.12880
   D120      -1.00344  -0.00121   0.00000  -0.00944  -0.00944  -1.01288
   D121      -3.05596  -0.00014   0.00000  -0.00116  -0.00116  -3.05712
   D122      -1.19062   0.00077   0.00000   0.00454   0.00455  -1.18607
[...]
 00000431,0.00000244,-0.00000502,0.00000361,0.00000131,-0.00000087,0.00
 000525,0.00000235,-0.00000227,0.00000768,0.00000373,-0.00000382,0.0000
 0817,0.00000354,-0.00000484,0.00000319,0.00000587,-0.00000955,0.000037
 05,-0.00000259,-0.00002468,0.00001609,0.00001145,-0.00001645,0.0000141
 8,-0.00000846,-0.00000238,-0.00003731,-0.00000584,0.00000069,0.0000411
 8,-0.00002224,-0.00000355,0.00001428,-0.00003707,-0.00000646,0.0000360
 4,-0.00007017,-0.00001917,-0.00002139,-0.00011434,-0.00006129,-0.00025
 851,0.00036399,0.00019779,-0.00005601,0.00017527,0.00029763,0.00165077
 ,-0.00503499,-0.00507792,-0.06436201,-0.00613702,-0.06722172,0.0000158
 2,0.00000659,0.00000187,0.00001442,-0.00000130,-0.00000413,0.00001060,
 0.00000066,0.00000123,-0.00000327,-0.00000130,0.00000018,-0.00000548,-
 0.00000203,0.00000099,-0.00000122,-0.00000122,0.00000180,-0.00000228,-
 0.00000029,0.00000130,-0.00000169,-0.00000166,0.00000019,-0.00000119,-
 0.00000102,0.00000189,-0.00000287,0.00000015,0.00000176,-0.00000332,-0
 .00000089,-0.00000013,-0.00000271,-0.00000293,0.00000078,-0.00000221,-
 0.00000171,0.00000343,-0.00000551,-0.00000001,0.00000365,-0.00000577,-
 0.00000165,0.00000044,-0.00000366,-0.00000519,0.00000285,-0.00000163,-
 0.00000309,0.00000652,-0.00002481,-0.00000760,0.00001828,-0.00002118,-
 0.00000222,0.00000549,-0.00000809,-0.00000165,0.00001425,-0.00000919,0
 .00000765,0.00000876,-0.00001039,0.00000675,-0.00000128,-0.00002119,0.
 00000517,0.00000057,0.00000143,0.00001241,0.00000843,-0.00000367,0.000
 01151,-0.00000713,-0.00006087,0.00004219,-0.00000400,-0.00003195,0.000
 03802,0.00003839,0.00002199,0.00001711,0.00000679,-0.00000691,0.000035
 54,-0.00001052,0.00008321,0.00004793,-0.00002633,0.00017987,-0.0001779
 4,-0.00027257,-0.00003773,0.00019803,0.00016813,-0.00003691,-0.0000053
 2,-0.00001660,0.00026659,-0.00014185,-0.00019617,-0.00008219,-0.000475
 05,-0.00018968,0.00626511,-0.00099548,0.00985103,-0.01476997,0.0029427
 0,-0.02151940,0.07119594,0.00000103,-0.00000558,-0.00000018,-0.0000002
 7,-0.00000170,-0.00000036,0.00000053,-0.00000250,-0.00000029,0.0000004
 1,-0.00000351,-0.00000032,0.00000048,-0.00000529,-0.00000064,0.0000009
 5,-0.00000925,-0.00000129,0.00000172,-0.00001701,-0.00000547,0.0000197
 0,-0.00002110,-0.00000244,0.00000122,0.00000490,0.00002168,-0.00001682
 ,-0.00001190,-0.00001613,0.00000008,0.00001470,-0.00000053,-0.00003037
 ,-0.00000771,-0.00000189,-0.00002854,-0.00001060,0.00000856,-0.0000298
 9,-0.00000458,-0.00000166,-0.00005567,0.00009619,0.00001639,0.00019421
 ,-0.00064859,-0.00003362,0.00018685,-0.00014855,-0.00030421,-0.0110542
 8,-0.01298561,-0.02767892,-0.00560149,-0.03565703,-0.01276361,-0.00000
 134,-0.00000429,-0.00000056,0.00000043,-0.00000512,-0.00000074,-0.0000
 0001,-0.00000689,0.00000178,-0.00000040,0.00000179,0.00000049,-0.00000
 017,0.00000187,0.00000011,-0.00000009,0.00000076,-0.00000007,0.0000001
 7,0.00000118,0.00000025,-0.00000069,0.00000133,0.00000032,-0.00000037,
 0.00000111,0.00000005,0.00000042,0.00000170,0.,0.00000005,0.00000165,0
 .00000025,-0.00000152,0.00000236,0.00000092,-0.00000074,0.00000205,0.0
 0000011,0.00000291,0.00000429,0.00000026,0.00000057,0.00000389,0.00000
 082,-0.00000611,0.00000503,0.00000328,-0.00000300,0.00000593,0.0000003
 2,-0.00001565,0.00001303,0.00000392,-0.00000363,0.00001244,0.00000111,
 0.00000157,0.00000248,-0.00001074,0.00000926,0.00000624,0.00000296,0.0
 0000358,-0.00000166,0.00000318,0.00000579,0.00001178,0.00000217,0.0000
 0963,-0.00000268,-0.00000891,0.00000894,0.00000094,0.00000696,0.000022
 86,0.00002982,0.00000466,0.00002744,0.00001825,-0.00001637,-0.00001393
 ,-0.00002158,-0.00001363,0.00000619,-0.00001409,0.00002664,0.00003104,
 -0.00015010,0.00001671,0.00030029,0.00023981,0.00029051,0.00010518,-0.
 00003616,-0.00014453,-0.00009653,0.00004307,-0.00000049,-0.00027770,-0
 .00306622,-0.00107776,-0.00044935,-0.00020043,-0.00046791,0.00209684,0
 .00209967,0.01180738,0.00532919,0.00292631,0.00657145,0.00931843,0.047
 49221,-0.00000439,-0.00000089,-0.00000667,-0.00000097,-0.00000089,0.00
 000217,-0.00000216,-0.00000031,-0.00000287,-0.00000250,-0.00000097,-0.
 00000262,-0.00000402,-0.00000101,-0.00000361,-0.00000427,-0.00000131,-
 0.00000531,-0.00000387,-0.00000180,-0.00000766,-0.00002401,0.00000599,
 -0.00001417,-0.00001822,-0.00000042,-0.00000878,-0.00000769,-0.0000025
 4,0.00000535,0.00001024,-0.00000009,0.00001588,-0.00001175,0.00000207,
 -0.00001378,-0.00000602,0.00000629,-0.00002912,-0.00001898,0.00001276,
 -0.00006326,-0.00004656,-0.00001230,-0.00013466,0.00014939,0.00002193,
 -0.00004851,0.00030795,-0.00007460,-0.00011164,-0.00620402,-0.01448439
 ,-0.01395294,-0.06775151,-0.01396273,-0.18785283,-0.00000481,-0.000001
 79,-0.00000442,-0.00000342,-0.00000040,-0.00000505,-0.00000304,0.00000
 299,-0.00000711,0.00000067,0.00000050,0.00000160,0.00000116,0.00000044
 ,0.00000195,0.00000035,0.00000041,0.00000001,0.00000083,0.00000020,0.0
 0000034,0.00000074,0.00000059,0.00000129,0.00000094,0.00000035,0.00000
 068,0.00000135,0.00000011,0.00000091,0.00000094,0.00000025,0.00000201,
 0.00000137,0.00000113,0.00000222,0.00000207,0.00000061,0.00000081,0.00
 000251,0.00000027,0.00000151,0.00000131,0.00000050,0.00000407,0.000002
 64,0.00000182,0.00000509,0.00000473,0.00000073,0.00000171,0.00002175,0
 .00000165,0.00000878,0.00000577,-0.00000085,0.00001023,0.00001223,-0.0
 0000076,0.00000323,0.00000742,-0.00000276,-0.00000116,0.00000414,0.000
 00015,0.00000395,0.00000405,0.00000146,0.00000977,0.00000396,-0.000004
 20,0.00000675,-0.00000227,0.00000214,0.00001176,0.00000084,0.00000581,
 0.00004239,0.00003560,-0.00002137,0.00002760,0.00002075,-0.00001576,0.
 00002241,-0.00001856,0.00001774,0.00002631,-0.00002478,0.00007276,0.00
 006382,0.00020129,-0.00038662,0.00023360,0.00012918,-0.00017341,-0.000
 11821,-0.00008424,0.00001405,-0.00003131,-0.00023765,-0.00099106,-0.00
 024131,-0.00019389,-0.00001984,0.00049388,-0.00315368,0.00464993,-0.02
 267905,-0.00716461,0.00157922,-0.00251952,0.08406310,0.02375948,0.2268
 5178,0.00200841,-0.00069784,-0.00000620,-0.00012677,-0.00002886,-0.000
 09734,0.00009885,-0.00008880,0.00010791,0.00007833,-0.00001832,0.00004
 720,0.00005703,-0.00000442,0.00001698,0.00003907,-0.00000616,0.0000113
 1,0.00002106,0.00000307,0.00000512,0.00004371,-0.00000819,-0.00000164,
 0.00002006,-0.00000231,-0.00000801,0.00001558,0.00001363,0.00000847,-0
 .04274925,-0.02912617,-0.01028981,0.00002331,0.00000858,0.00000328,0.0
 0000441,0.00000845,-0.00000358,0.00000754,0.00000555,-0.00000230,0.000
 00701,0.00000262,-0.00000025,0.00001038,0.00000589,-0.00000511,0.00000
 766,0.00000396,-0.00000234,0.00000557,0.00000265,0.00000120,0.00001724
 ,-0.00000165,-0.00000168,-0.18543023,-0.00905785,0.01937851,-0.0026307
 5,0.00504085,0.00538077,0.00036622,0.00427081,-0.00277643,-0.00037156,
 0.00014878,0.00002277,-0.00033119,0.00003452,0.00002218,-0.00002384,0.
 00007367,-0.00006622,-0.00007604,-0.00003541,-0.00004135,-0.00002683,0
 .00005029,-0.00002173,-0.00000651,0.00002150,-0.00005821,-0.00004136,-
 0.00001696,-0.00002717,-0.00006045,0.00000036,-0.00000438,-0.00002249,
 0.00001645,0.00000071,-0.00001895,0.00000414,-0.00002007,-0.00002221,-
 0.00001009,-0.00000926,-0.00002218,-0.00000125,0.00000502,-0.00001078,
 0.00000736,0.00000157,-0.00001178,0.00000088,-0.00000906,-0.00001165,0
 .00000598,-0.00000009,-0.00001533,-0.00000073,0.00000460,-0.00001434,-
 0.00000090,-0.00000174,-0.00001158,-0.00000847,-0.00000655,-0.00001217
 ,-0.00000681,0.00000011,-0.00001218,-0.00000467,0.00000303,-0.00000372
 ,-0.00000533,0.00000002,-0.00000280,-0.00000359,0.00000249,-0.00000536
 ,-0.00000147,0.00000248,-0.00000739,-0.00000219,0.00000003,-0.00000341
 ,-0.00000278,-0.00000056,-0.00000241,-0.00000223,0.00000216,-0.0000024
 4,-0.00000224,0.00000185,-0.00000445,-0.00000106,0.00000221,-0.0000056
 6,-0.00000147,0.00000016,-0.00000342,-0.00000215,-0.00000015,-0.000002
 71,-0.00000114,-0.00000069,-0.00000307,-0.00000128,0.00000030,-0.00000
 580,0.00000038,-0.00000006,-0.00000428,0.00000035,0.00000047,-0.000005
 49,0.00000043,0.00000142,0.22817374,-0.00136842,-0.00163173,-0.0015462
 6,-0.00058208,0.00015431,0.00002932,-0.00001594,-0.00000576,-0.0001155
 0,0.00000245,-0.00000807,0.00000381,-0.00000493,-0.00000916,0.00000595
 ,-0.00000111,-0.00000523,0.00000357,-0.00000123,-0.00000571,0.00000229
 ,0.00000011,-0.00000291,0.00000260,-0.00000072,0.00000016,0.00000444,0
 .00000121,-0.00000165,-0.00000366,-0.04152310,-0.00644182,-0.00245156,
 0.00000507,-0.00000354,0.00000212,0.00000118,-0.00000201,0.00000289,0.
 00000085,-0.00000165,0.00000155,0.00000112,-0.00000136,0.00000121,0.00
 000042,-0.00000060,0.,0.00000035,-0.00000101,0.00000014,0.00000031,-0.
 00000001,0.00000098,0.00000108,-0.00000239,0.00000105,0.00967619,-0.02
 158730,-0.01129482,0.00367904,-0.00086757,0.00007935,0.00214913,-0.003
 25986,0.00189227,-0.00010500,-0.00017016,-0.00019729,-0.00035245,0.000
 13622,-0.00013097,-0.00001143,0.00003432,0.00001429,-0.00002449,0.0000
 3003,0.00003271,0.00000935,-0.00000139,-0.00000801,-0.00001864,0.00001
 492,0.00000318,0.00000006,0.00000844,-0.00000035,0.00000271,0.00000590
 ,-0.00000841,0.00000219,0.00000271,-0.00000388,0.00000251,0.00000365,0
 .00000040,0.00000005,0.00000397,-0.00000110,-0.00000098,0.00000302,-0.
 00000364,0.00000061,0.00000183,-0.00000144,0.00000106,0.00000236,-0.00
 000063,-0.00000066,0.00000062,-0.00000073,-0.00000081,0.00000170,-0.00
 000159,0.00000010,0.00000098,-0.00000234,-0.00000061,0.00000183,0.0000
 0120,-0.00000318,0.00000158,-0.00000107,-0.00000161,0.00000155,-0.0000
 0150,-0.00000098,0.00000110,-0.00000066,-0.00000152,0.00000068,-0.0000
 0097,-0.00000042,0.00000071,-0.00000072,-0.00000012,0.00000078,-0.0000
 0078,-0.00000056,0.00000052,-0.00000040,-0.00000064,0.00000046,-0.0000
 0046,-0.00000025,0.00000028,-0.00000013,-0.00000035,0.00000053,-0.0000
 0019,-0.00000021,0.00000062,-0.00000030,-0.00000021,0.00000032,-0.0000
 0016,-0.00000006,0.00000020,-0.00000034,-0.00000023,0.00000019,-0.0000
 0024,-0.00000018,0.00000081,-0.00000046,-0.00000024,0.00000054,-0.0000
 0032,-0.00000039,0.00000070,-0.00000031,0.03005080,0.03450547,-0.00280
 081,-0.00176797,-0.00070388,-0.00007435,0.00015052,0.00013373,-0.00003
 010,0.00005165,-0.00016830,-0.00000131,0.00001208,-0.00003853,-0.00000
 146,0.00001046,-0.00001919,-0.00000206,0.00000289,-0.00001099,-0.00000
 112,0.00000267,-0.00000721,-0.00000343,0.00000230,-0.00000584,-0.00000
 024,0.00000165,-0.00000489,-0.00000097,-0.00000204,0.00000116,-0.01831
 426,-0.00365070,0.00544160,-0.00000541,-0.00000032,-0.00000484,-0.0000
 0134,-0.00000012,-0.00000459,-0.00000131,0.00000012,-0.00000305,-0.000
 00141,0.00000013,-0.00000260,-0.00000077,-0.00000066,-0.00000071,-0.00
 000032,-0.00000016,-0.00000106,-0.00000079,0.00000007,-0.00000175,-0.0
 0000195,0.00000101,-0.00000290,0.03114312,-0.00897746,-0.01227820,0.00
 339987,0.00052348,-0.00330843,-0.00126544,0.00029937,-0.00067196,-0.00
 011670,-0.00044288,0.00000658,-0.00039731,0.00024096,-0.00014835,-0.00
 016630,-0.00006323,0.00005428,-0.00006426,-0.00001881,0.00004347,-0.00
 000601,-0.00002898,0.00002774,-0.00003574,-0.00000766,0.00001428,0.000
 00452,0.,0.00001314,0.00002169,0.00000047,0.00001804,-0.00000018,-0.00
 000456,0.00000735,-0.00000347,-0.00000304,0.00000736,0.00000156,-0.000
 00028,0.00000507,0.00000394,-0.00000106,0.00000572,0.00000060,-0.00000
 153,0.00000333,-0.00000044,-0.00000152,0.00000374,0.00000114,-0.000000
 77,0.00000207,0.00000206,-0.00000081,0.00000277,0.00000026,-0.00000077
 ,0.00000408,0.00000037,0.00000032,0.00000111,0.00000300,0.00000057,0.0
 0000243,0.00000245,0.00000026,0.00000239,0.00000070,0.00000007,0.00000
 158,0.00000147,0.00000038,0.00000178,0.00000087,0.00000014,0.00000140,
 0.00000049,-0.00000018,0.00000161,0.00000052,0.00000012,0.00000103,0.0
 0000069,0.00000018,0.00000103,0.00000034,0.00000021,0.00000045,0.00000
 061,0.00000009,0.00000064,0.00000035,-0.00000012,0.00000088,0.00000019
 ,0.00000013,0.00000068,0.00000017,-0.00000002,0.00000080,0.00000040,0.
 00000001,0.00000058,0.00000052,-0.00000043,0.00000110,0.00000046,-0.00
 000027,0.00000083,0.00000077,-0.00000025,0.00000090,-0.01184709,0.0133
 9985,0.01158029,0.00112190,-0.00096609,0.00139830,0.00034480,-0.000152
 44,-0.00006103,0.00008168,-0.00005276,0.00013341,0.00005917,-0.0000299
 8,0.00003088,0.00004258,-0.00000725,0.00000889,0.00003096,-0.00000793,
 0.00000682,0.00001603,0.00000208,0.00000230,0.00003375,-0.00000587,-0.
 00000305,0.00001592,-0.00000162,-0.00000778,0.00001305,0.00001108,0.00
 000724,0.00815839,0.00860821,-0.01171802,0.00001867,0.00000775,0.00000
 142,0.00000293,0.00000788,-0.00000471,0.00000557,0.00000535,-0.0000032
 9,0.00000476,0.00000298,-0.00000156,0.00000792,0.00000498,-0.00000430,
 0.00000575,0.00000367,-0.00000215,0.00000395,0.00000210,-0.00000001,0.
 00001214,0.00000025,-0.00000259,-0.00553167,-0.00317937,-0.00070512,-0
 .00471059,0.00177047,0.00358092,-0.08587347,0.09299558,-0.00992790,-0.
 00005573,0.00009194,0.00008734,-0.00021046,0.00015002,0.00012051,0.000
 00268,0.00005010,-0.00005539,-0.00004377,-0.00000367,-0.00005311,-0.00
 001971,0.00004033,-0.00000449,0.00000678,0.00000995,-0.00003894,-0.000
 03616,-0.00000489,-0.00002548,-0.00004573,0.00001569,0.00000274,-0.000
 01512,0.00001280,0.00000395,-0.00001406,0.00000291,-0.00001413,-0.0000
 1925,-0.00000626,-0.00000738,-0.00001845,0.00000182,0.00000554,-0.0000
 0773,0.00000552,0.00000261,-0.00000897,0.00000011,-0.00000614,-0.00000
 873,0.00000430,0.00000077,-0.00001207,-0.00000058,0.00000462,-0.000011
 39,-0.00000107,-0.00000033,-0.00000945,-0.00000746,-0.00000534,-0.0000
 1070,-0.00000642,0.00000080,-0.00000990,-0.00000373,0.00000349,-0.0000
 0253,-0.00000500,0.00000052,-0.00000158,-0.00000344,0.00000304,-0.0000
 0394,-0.00000140,0.00000276,-0.00000571,-0.00000217,0.00000062,-0.0000
 0230,-0.00000262,0.,-0.00000144,-0.00000212,0.00000235,-0.00000164,-0.
 00000197,0.00000169,-0.00000317,-0.00000109,0.00000206,-0.00000427,-0.
 00000150,0.00000045,-0.00000251,-0.00000190,0.00000011,-0.00000198,-0.
 00000102,-0.00000016,-0.00000213,-0.00000113,0.00000052,-0.00000422,-0
 .00000022,0.00000046,-0.00000299,-0.00000010,0.00000074,-0.00000382,-0
 .00000009,0.00000150,0.00111778,-0.00156431,0.00055326,0.08561111,-0.0
 0168617,0.00134350,0.00029851,0.00022268,-0.00021591,0.00015020,-0.000
 08607,0.00001560,-0.00007928,-0.00005038,-0.00004658,-0.00003358,-0.00
 004235,-0.00003118,-0.00000854,-0.00001907,-0.00002682,-0.00000277,-0.
 00001373,-0.00002426,-0.00000147,-0.00001446,-0.00000967,0.00000512,-0
 .00000877,0.00000268,0.00002001,0.00000340,-0.00001304,-0.00001981,0.0
 1576498,-0.03631732,0.02982730,0.00001884,-0.00002294,0.00000455,0.000
 00423,-0.00001282,0.00001038,0.00000142,-0.00000925,0.00000449,0.00000
 263,-0.00000682,0.00000288,-0.00000076,-0.00000427,0.00000019,-0.00000
 026,-0.00000494,0.00000023,-0.00000044,-0.00000042,0.00000241,-0.00000
 108,-0.00000794,0.00000197,-0.00034241,0.00234731,-0.00048931,0.001861
 67,-0.00223086,-0.00559347,0.08205757,-0.11161889,0.02717385,0.0001285
 2,-0.00015271,0.00000019,0.00038161,0.00005634,0.00002365,0.00002200,-
 0.00002510,0.00002808,0.00006035,0.00009929,0.00001874,0.00002708,-0.0
 0002103,0.00002450,0.00001026,0.00000151,0.00003904,0.00001775,0.00005
 120,0.00000936,0.00004642,0.00004078,0.00000579,0.00001990,0.00000099,
 0.00000007,0.00001436,0.00000922,0.00001199,0.00000675,0.00002480,0.00
 000133,0.00000775,0.00001924,-0.00000559,0.00000725,0.00000370,-0.0000
 0081,0.00000751,0.00000777,0.00000317,0.00000145,0.00000014,-0.0000005
 4,0.00000287,0.00000881,-0.00000398,0.00000435,0.00000378,-0.00000833,
 -0.00000116,0.00001130,0.00000761,-0.00001474,0.00001204,-0.00000262,-
 0.00000323,0.00001107,-0.00000413,-0.00000419,0.00000664,-0.00000213,-
 0.00000620,0.00000508,-0.00000284,0.00000032,0.00000409,-0.00000187,0.
 00000164,0.00000381,-0.00000225,-0.00000161,0.00000292,-0.00000084,-0.
 00000195,0.00000285,-0.00000129,-0.00000027,0.00000172,-0.00000038,0.0
 0000007,0.00000261,-0.00000046,0.00000057,0.00000273,-0.00000061,-0.00
 000012,0.00000177,-0.00000023,0.00000045,0.00000088,-0.00000070,-0.000
 00003,0.00000092,-0.00000054,0.00000102,0.00000262,-0.00000087,0.00000
 038,0.00000164,-0.00000062,0.00000037,0.00000244,-0.00000064,-0.000628
 54,-0.00091289,0.00027406,-0.09778029,0.14760242,-0.00028154,0.0023027
 8,-0.00300978,-0.00056015,0.00026227,0.00010951,-0.00003233,-0.0000519
 7,-0.00018153,0.00003591,-0.00004139,0.00000408,0.00000901,-0.00002147
 ,0.00000011,0.00001104,-0.00001158,-0.00000452,0.00000523,-0.00000500,
 -0.00000363,0.00001243,-0.00000396,-0.00000602,0.00000700,0.00000163,-
 0.00000515,0.00000802,0.00000026,0.00000064,-0.02102743,0.03895456,-0.
 01556723,0.00000760,-0.00000105,-0.00000543,0.00000046,0.00000160,-0.0
 0000705,0.00000159,0.00000124,-0.00000479,0.00000124,0.00000030,-0.000
 00353,0.00000290,0.00000088,-0.00000294,0.00000240,0.00000049,-0.00000
 220,0.00000093,0.00000095,-0.00000130,0.00000356,-0.00000066,-0.000003
 54,0.00017696,-0.00004725,-0.00039604,0.00154033,-0.00418796,0.0001938
 1,0.00370576,0.01340707,-0.02168243,-0.00044543,0.00015079,-0.00013207
 ,0.00009899,0.00039063,-0.00029741,-0.00002619,0.00003966,0.00002670,-
 0.00006323,0.00014257,0.00001965,0.00001345,-0.00000506,0.00000325,-0.
 00003894,0.00002249,0.00000228,-0.00002937,0.00002484,-0.00000949,-0.0
 0002539,0.00003228,0.00000105,-0.00000074,0.00000659,0.00000295,-0.000
 00236,0.00000585,-0.00000064,-0.00001132,0.00000462,0.00000092,-0.0000
 0888,0.00000442,0.00000642,-0.00000172,0.00000323,0.00000319,-0.000003
 03,0.00000180,-0.00000025,-0.00000346,0.00000176,0.00000202,-0.0000044
 6,0.00000037,0.00000464,-0.00000552,0.00000027,0.00000180,-0.00000592,
 -0.00000056,0.00000055,-0.00000557,-0.00000078,0.00000474,-0.00000321,
 0.,0.00000440,-0.00000130,-0.00000104,0.00000224,0.00000035,-0.0000005
 0,0.00000403,-0.00000092,0.00000011,0.00000281,-0.00000220,-0.00000048
 ,0.00000177,-0.00000085,-0.00000053,0.00000118,-0.00000009,-0.00000035
 ,0.00000237,-0.00000041,-0.00000038,0.00000129,-0.00000086,0.00000004,
 0.00000165,-0.00000168,-0.00000024,0.00000102,-0.00000107,-0.00000033,
 0.00000077,-0.00000068,-0.00000025,0.00000056,-0.00000056,-0.00000032,
 0.00000073,-0.00000130,0.00000009,0.00000103,-0.00000085,0.00000007,0.
 00000096,-0.00000095,0.00000020,0.00000145,0.00027494,0.00029593,-0.00
 000865,0.01668008,-0.05167904,0.04091968\\0.00000022,0.00000029,0.0000
 0042,0.00000023,-0.00000028,-0.00000020,-0.00000002,-0.00000011,-0.000
 00014,0.,0.00000004,0.,0.,0.00000002,-0.00000001,-0.00000002,0.,0.,0.,
 0.00000001,0.00000001,0.00000004,0.00000001,0.00000001,0.00000008,-0.0
 0000001,-0.00000003,-0.00000008,0.,0.00000001,-0.00000056,-0.00000006,
 0.00000030,0.,0.,0.,0.,0.,0.,0.,0.00000001,0.,0.,0.,0.,0.,0.,0.,0.,0.,
 0.,0.,0.,0.,0.,0.,0.,0.00000015,-0.00000002,0.00000002,-0.00000015,0.0
 0000025,-0.00000012,0.00000025,0.00000009,0.00000002,-0.00000005,-0.00
 000021,-0.00000014,0.00000018,-0.00000006,-0.00000022,0.00000016,0.000
 00027,0.00000002,-0.00000030,-0.00000010,0.00000019,0.00000003,0.00000
 002,-0.00000001,-0.00000001,0.00000002,0.,0.00000002,-0.00000003,0.000
 00004,0.,-0.00000003,-0.00000004,0.,0.,0.,0.,0.,0.,0.,-0.00000001,0.,0
 .,0.,0.,0.,0.,-0.00000001,0.,0.,0.00000001,0.,0.,-0.00000002,0.,0.,0.,
 -0.00000001,0.,0.00000002,-0.00000005,-0.00000001,0.,0.,0.,0.,0.,0.,0.
 ,0.,0.,0.,0.,0.,0.,0.,0.,0.,0.,0.,0.,0.,0.,0.,0.,0.,0.,0.,0.,0.,0.,0.,
 0.,0.,0.,0.,0.,0.,0.,0.,0.,0.,0.,0.,0.,0.,0.,0.,0.,0.,0.,0.,0.,0.,-0.0
 0000008,-0.00000005,-0.00000005,-0.00000007,-0.00000002,-0.00000008\\\
 @
 The archive entry for this job was punched.


 THE MORE ACCURATE THE CALCULATIONS BECOME, THE MORE THE CONCEPTS
 TEND TO VANISH INTO THIN AIR.
     -- R.S. MULLIKEN, J.C.P. 43,S2(1965)
 Job cpu time:       0 days  0 hours  0 minutes  1.7 seconds.
 Elapsed time:       0 days  0 hours  0 minutes  1.6 seconds.
 File lengths (MBytes):  RWF=    403 Int=      0 D2E=      0 Chk=      6 Scr=      1
 Normal termination of Gaussian 16 at Wed Apr 24 12:06:47 2024.
