lammps.data (written by ASE) 

6480 	 atoms 
2  atom types
0.0      57.460319999999996  xlo xhi
0.0      55.291218700000002  ylo yhi
0.0      56.574100000000001  zlo zhi
                      0                       0                       0  xy xz yz


Atoms 

     1   2      1.5961359612000001     0.92151109646355012       43.44551435399999
     2   2  1.5961200000000019e-05      3.6860720314635502       43.44551435399999
     3   2      1.5961359612000001     0.92151109646355012      16.689359499999995
     4   2  1.5961200000000019e-05      3.6860720314635502      16.689359499999995
     5   2      3.1922240388000005      1.8430498385364502      26.506663073000002
     6   2      1.5961040388000001      4.6076107735364502      26.506663073000002
     7   2      3.1922240388000005      1.8430498385364502      13.128585645999998
     8   2      1.5961040388000001      4.6076107735364502      13.128585645999998
     9   1      1.5961359612000001     0.92151109646355012      38.321032375999998
    10   1  1.5961200000000019e-05      3.6860720314635502      38.321032375999998
    11   1      1.5961359612000001     0.92151109646355012      11.564311781000001
    12   1  1.5961200000000019e-05      3.6860720314635502      11.564311781000001
    13   1      3.1922240388000005      1.8430498385364502      31.631710791999993
    14   2      3.1922240388000005      1.8430498385364502      23.378115343000001
    15   2      1.5961040388000001      4.6076107735364502      23.378115343000001
    16   1      1.5961040388000001      4.6076107735364502      31.631710791999993
    17   2      1.5961359612000001     0.92151109646355012      33.195984657000004
    18   2  1.5961200000000019e-05      3.6860720314635502      33.195984657000004
    19   1      3.1922240388000005      1.8430498385364502      45.009788218999994
    20   1      1.5961040388000001      4.6076107735364502      45.009788218999994
    21   1      1.5961359612000001     0.92151109646355012      24.942389208000002
    22   1  1.5961200000000019e-05      3.6860720314635502      24.942389208000002
    23   2      3.1922240388000005      1.8430498385364502      36.756758511000001
    24   2      1.5961040388000001      4.6076107735364502      36.756758511000001
    25   2      1.5961359612000001     0.92151109646355012      30.067436926999999
    26   2  1.5961200000000019e-05      3.6860720314635502      30.067436926999999
    27   2      3.1922240388000005      1.8430498385364502      39.884740499999999
    28   2      1.5961040388000001      4.6076107735364502      39.884740499999999
    29   1      3.1922240388000005      1.8430498385364502            18.253067624
    30   1      1.5961040388000001      4.6076107735364502            18.253067624
    31   2      1.5961359612000001     0.92151109646355012            19.817341489
    32   2  1.5961200000000019e-05      3.6860720314635502            19.817341489
    33   2      3.1922240388000005      1.8430498385364502            10.000037916
    34   2      1.5961040388000001      4.6076107735364502            10.000037916
    35   2      1.5961359612000001     0.92151109646355012      46.574062083999991
    36   2  1.5961200000000019e-05      3.6860720314635502      46.574062083999991
    37   2      1.5961359612000001      6.4506329664635516       43.44551435399999
    38   2  1.5961200000000019e-05      9.2151939014635502       43.44551435399999
    39   2      1.5961359612000001      6.4506329664635516      16.689359499999995
    40   2  1.5961200000000019e-05      9.2151939014635502      16.689359499999995
    41   2      3.1922240388000005      7.3721717085364515      26.506663073000002
    42   2      1.5961040388000001      10.136732643536451      26.506663073000002
    43   2      3.1922240388000005      7.3721717085364515      13.128585645999998
    44   2      1.5961040388000001      10.136732643536451      13.128585645999998
    45   1      1.5961359612000001      6.4506329664635516      38.321032375999998
    46   1  1.5961200000000019e-05      9.2151939014635502      38.321032375999998
    47   1      1.5961359612000001      6.4506329664635516      11.564311781000001
    48   1  1.5961200000000019e-05      9.2151939014635502      11.564311781000001
    49   1      3.1922240388000005      7.3721717085364515      31.631710791999993
    50   2      3.1922240388000005      7.3721717085364515      23.378115343000001
    51   2      1.5961040388000001      10.136732643536451      23.378115343000001
    52   1      1.5961040388000001      10.136732643536451      31.631710791999993
    53   2      1.5961359612000001      6.4506329664635516      33.195984657000004
    54   2  1.5961200000000019e-05      9.2151939014635502      33.195984657000004
    55   1      3.1922240388000005      7.3721717085364515      45.009788218999994
    56   1      1.5961040388000001      10.136732643536451      45.009788218999994
    57   1      1.5961359612000001      6.4506329664635516      24.942389208000002
    58   1  1.5961200000000019e-05      9.2151939014635502      24.942389208000002
    59   2      3.1922240388000005      7.3721717085364515      36.756758511000001
    60   2      1.5961040388000001      10.136732643536451      36.756758511000001
    61   2      1.5961359612000001      6.4506329664635516      30.067436926999999
    62   2  1.5961200000000019e-05      9.2151939014635502      30.067436926999999
    63   2      3.1922240388000005      7.3721717085364515      39.884740499999999
    64   2      1.5961040388000001      10.136732643536451      39.884740499999999
    65   1      3.1922240388000005      7.3721717085364515            18.253067624
    66   1      1.5961040388000001      10.136732643536451            18.253067624
    67   2      1.5961359612000001      6.4506329664635516            19.817341489
    68   2  1.5961200000000019e-05      9.2151939014635502            19.817341489
    69   2      3.1922240388000005      7.3721717085364515            10.000037916
    70   2      1.5961040388000001      10.136732643536451            10.000037916
    71   2      1.5961359612000001      6.4506329664635516      46.574062083999991
    72   2  1.5961200000000019e-05      9.2151939014635502      46.574062083999991
    73   2      1.5961359612000001      11.979754836463552       43.44551435399999
    74   2  1.5961200000000019e-05      14.744315771463553       43.44551435399999
    75   2      1.5961359612000001      11.979754836463552      16.689359499999995
    76   2  1.5961200000000019e-05      14.744315771463553      16.689359499999995
    77   2      3.1922240388000005      12.901293578536452      26.506663073000002
    78   2      1.5961040388000001      15.665854513536452      26.506663073000002
    79   2      3.1922240388000005      12.901293578536452      13.128585645999998
    80   2      1.5961040388000001      15.665854513536452      13.128585645999998
    81   1      1.5961359612000001      11.979754836463552      38.321032375999998
    82   1  1.5961200000000019e-05      14.744315771463553      38.321032375999998
    83   1      1.5961359612000001      11.979754836463552      11.564311781000001
    84   1  1.5961200000000019e-05      14.744315771463553      11.564311781000001
    85   1      3.1922240388000005      12.901293578536452      31.631710791999993
    86   2      3.1922240388000005      12.901293578536452      23.378115343000001
    87   2      1.5961040388000001      15.665854513536452      23.378115343000001
    88   1      1.5961040388000001      15.665854513536452      31.631710791999993
    89   2      1.5961359612000001      11.979754836463552      33.195984657000004
    90   2  1.5961200000000019e-05      14.744315771463553      33.195984657000004
    91   1      3.1922240388000005      12.901293578536452      45.009788218999994
    92   1      1.5961040388000001      15.665854513536452      45.009788218999994
    93   1      1.5961359612000001      11.979754836463552      24.942389208000002
    94   1  1.5961200000000019e-05      14.744315771463553      24.942389208000002
    95   2      3.1922240388000005      12.901293578536452      36.756758511000001
    96   2      1.5961040388000001      15.665854513536452      36.756758511000001
    97   2      1.5961359612000001      11.979754836463552      30.067436926999999
    98   2  1.5961200000000019e-05      14.744315771463553      30.067436926999999
    99   2      3.1922240388000005      12.901293578536452      39.884740499999999
   100   2      1.5961040388000001      15.665854513536452      39.884740499999999
   101   1      3.1922240388000005      12.901293578536452            18.253067624
   102   1      1.5961040388000001      15.665854513536452            18.253067624
   103   2      1.5961359612000001      11.979754836463552            19.817341489
   104   2  1.5961200000000019e-05      14.744315771463553            19.817341489
   105   2      3.1922240388000005      12.901293578536452            10.000037916
   106   2      1.5961040388000001      15.665854513536452            10.000037916
   107   2      1.5961359612000001      11.979754836463552      46.574062083999991
   108   2  1.5961200000000019e-05      14.744315771463553      46.574062083999991
   109   2      1.5961359612000001      17.508876706463553       43.44551435399999
   110   2  1.5961200000000019e-05      20.273437641463556       43.44551435399999
   111   2      1.5961359612000001      17.508876706463553      16.689359499999995
   112   2  1.5961200000000019e-05      20.273437641463556      16.689359499999995
   113   2      3.1922240388000005      18.430415448536454      26.506663073000002
   114   2      1.5961040388000001      21.194976383536453      26.506663073000002
   115   2      3.1922240388000005      18.430415448536454      13.128585645999998
   116   2      1.5961040388000001      21.194976383536453      13.128585645999998
   117   1      1.5961359612000001      17.508876706463553      38.321032375999998
   118   1  1.5961200000000019e-05      20.273437641463556      38.321032375999998
   119   1      1.5961359612000001      17.508876706463553      11.564311781000001
   120   1  1.5961200000000019e-05      20.273437641463556      11.564311781000001
   121   1      3.1922240388000005      18.430415448536454      31.631710791999993
   122   2      3.1922240388000005      18.430415448536454      23.378115343000001
   123   2      1.5961040388000001      21.194976383536453      23.378115343000001
   124   1      1.5961040388000001      21.194976383536453      31.631710791999993
   125   2      1.5961359612000001      17.508876706463553      33.195984657000004
   126   2  1.5961200000000019e-05      20.273437641463556      33.195984657000004
   127   1      3.1922240388000005      18.430415448536454      45.009788218999994
   128   1      1.5961040388000001      21.194976383536453      45.009788218999994
   129   1      1.5961359612000001      17.508876706463553      24.942389208000002
   130   1  1.5961200000000019e-05      20.273437641463556      24.942389208000002
   131   2      3.1922240388000005      18.430415448536454      36.756758511000001
   132   2      1.5961040388000001      21.194976383536453      36.756758511000001
   133   2      1.5961359612000001      17.508876706463553      30.067436926999999
   134   2  1.5961200000000019e-05      20.273437641463556      30.067436926999999
   135   2      3.1922240388000005      18.430415448536454      39.884740499999999
   136   2      1.5961040388000001      21.194976383536453      39.884740499999999
   137   1      3.1922240388000005      18.430415448536454            18.253067624
   138   1      1.5961040388000001      21.194976383536453            18.253067624
   139   2      1.5961359612000001      17.508876706463553            19.817341489
   140   2  1.5961200000000019e-05      20.273437641463556            19.817341489
   141   2      3.1922240388000005      18.430415448536454            10.000037916
   142   2      1.5961040388000001      21.194976383536453            10.000037916
   143   2      1.5961359612000001      17.508876706463553      46.574062083999991
   144   2  1.5961200000000019e-05      20.273437641463556      46.574062083999991
   145   2      1.5961359612000001      23.037998576463558       43.44551435399999
   146   2  1.5961200000000019e-05      25.802559511463553       43.44551435399999
   147   2      1.5961359612000001      23.037998576463558      16.689359499999995
   148   2  1.5961200000000019e-05      25.802559511463553      16.689359499999995
   149   2      3.1922240388000005      23.959537318536455      26.506663073000002
   150   2      1.5961040388000001      26.724098253536454      26.506663073000002
   151   2      3.1922240388000005      23.959537318536455      13.128585645999998
   152   2      1.5961040388000001      26.724098253536454      13.128585645999998
   153   1      1.5961359612000001      23.037998576463558      38.321032375999998
   154   1  1.5961200000000019e-05      25.802559511463553      38.321032375999998
   155   1      1.5961359612000001      23.037998576463558      11.564311781000001
   156   1  1.5961200000000019e-05      25.802559511463553      11.564311781000001
   157   1      3.1922240388000005      23.959537318536455      31.631710791999993
   158   2      3.1922240388000005      23.959537318536455      23.378115343000001
   159   2      1.5961040388000001      26.724098253536454      23.378115343000001
   160   1      1.5961040388000001      26.724098253536454      31.631710791999993
   161   2      1.5961359612000001      23.037998576463558      33.195984657000004
   162   2  1.5961200000000019e-05      25.802559511463553      33.195984657000004
   163   1      3.1922240388000005      23.959537318536455      45.009788218999994
   164   1      1.5961040388000001      26.724098253536454      45.009788218999994
   165   1      1.5961359612000001      23.037998576463558      24.942389208000002
   166   1  1.5961200000000019e-05      25.802559511463553      24.942389208000002
   167   2      3.1922240388000005      23.959537318536455      36.756758511000001
   168   2      1.5961040388000001      26.724098253536454      36.756758511000001
   169   2      1.5961359612000001      23.037998576463558      30.067436926999999
   170   2  1.5961200000000019e-05      25.802559511463553      30.067436926999999
   171   2      3.1922240388000005      23.959537318536455      39.884740499999999
   172   2      1.5961040388000001      26.724098253536454      39.884740499999999
   173   1      3.1922240388000005      23.959537318536455            18.253067624
   174   1      1.5961040388000001      26.724098253536454            18.253067624
   175   2      1.5961359612000001      23.037998576463558            19.817341489
   176   2  1.5961200000000019e-05      25.802559511463553            19.817341489
   177   2      3.1922240388000005      23.959537318536455            10.000037916
   178   2      1.5961040388000001      26.724098253536454            10.000037916
   179   2      1.5961359612000001      23.037998576463558      46.574062083999991
   180   2  1.5961200000000019e-05      25.802559511463553      46.574062083999991
   181   2      1.5961359612000001      28.567120446463552       43.44551435399999
   182   2  1.5961200000000019e-05       31.33168138146355       43.44551435399999
   183   2      1.5961359612000001      28.567120446463552      16.689359499999995
   184   2  1.5961200000000019e-05       31.33168138146355      16.689359499999995
   185   2      3.1922240388000005      29.488659188536452      26.506663073000002
   186   2      1.5961040388000001      32.253220123536451      26.506663073000002
   187   2      3.1922240388000005      29.488659188536452      13.128585645999998
   188   2      1.5961040388000001      32.253220123536451      13.128585645999998
   189   1      1.5961359612000001      28.567120446463552      38.321032375999998
   190   1  1.5961200000000019e-05       31.33168138146355      38.321032375999998
   191   1      1.5961359612000001      28.567120446463552      11.564311781000001
   192   1  1.5961200000000019e-05       31.33168138146355      11.564311781000001
   193   1      3.1922240388000005      29.488659188536452      31.631710791999993
   194   2      3.1922240388000005      29.488659188536452      23.378115343000001
   195   2      1.5961040388000001      32.253220123536451      23.378115343000001
   196   1      1.5961040388000001      32.253220123536451      31.631710791999993
   197   2      1.5961359612000001      28.567120446463552      33.195984657000004
   198   2  1.5961200000000019e-05       31.33168138146355      33.195984657000004
   199   1      3.1922240388000005      29.488659188536452      45.009788218999994
   200   1      1.5961040388000001      32.253220123536451      45.009788218999994
   201   1      1.5961359612000001      28.567120446463552      24.942389208000002
   202   1  1.5961200000000019e-05       31.33168138146355      24.942389208000002
   203   2      3.1922240388000005      29.488659188536452      36.756758511000001
   204   2      1.5961040388000001      32.253220123536451      36.756758511000001
   205   2      1.5961359612000001      28.567120446463552      30.067436926999999
   206   2  1.5961200000000019e-05       31.33168138146355      30.067436926999999
   207   2      3.1922240388000005      29.488659188536452      39.884740499999999
   208   2      1.5961040388000001      32.253220123536451      39.884740499999999
   209   1      3.1922240388000005      29.488659188536452            18.253067624
   210   1      1.5961040388000001      32.253220123536451            18.253067624
   211   2      1.5961359612000001      28.567120446463552            19.817341489
   212   2  1.5961200000000019e-05       31.33168138146355            19.817341489
   213   2      3.1922240388000005      29.488659188536452            10.000037916
   214   2      1.5961040388000001      32.253220123536451            10.000037916
   215   2      1.5961359612000001      28.567120446463552      46.574062083999991
   216   2  1.5961200000000019e-05       31.33168138146355      46.574062083999991
   217   2      1.5961359612000001      34.096242316463552       43.44551435399999
   218   2  1.5961200000000019e-05      36.860803251463558       43.44551435399999
   219   2      1.5961359612000001      34.096242316463552      16.689359499999995
   220   2  1.5961200000000019e-05      36.860803251463558      16.689359499999995
   221   2      3.1922240388000005      35.017781058536457      26.506663073000002
   222   2      1.5961040388000001      37.782341993536463      26.506663073000002
   223   2      3.1922240388000005      35.017781058536457      13.128585645999998
   224   2      1.5961040388000001      37.782341993536463      13.128585645999998
   225   1      1.5961359612000001      34.096242316463552      38.321032375999998
   226   1  1.5961200000000019e-05      36.860803251463558      38.321032375999998
   227   1      1.5961359612000001      34.096242316463552      11.564311781000001
   228   1  1.5961200000000019e-05      36.860803251463558      11.564311781000001
   229   1      3.1922240388000005      35.017781058536457      31.631710791999993
   230   2      3.1922240388000005      35.017781058536457      23.378115343000001
   231   2      1.5961040388000001      37.782341993536463      23.378115343000001
   232   1      1.5961040388000001      37.782341993536463      31.631710791999993
   233   2      1.5961359612000001      34.096242316463552      33.195984657000004
   234   2  1.5961200000000019e-05      36.860803251463558      33.195984657000004
   235   1      3.1922240388000005      35.017781058536457      45.009788218999994
   236   1      1.5961040388000001      37.782341993536463      45.009788218999994
   237   1      1.5961359612000001      34.096242316463552      24.942389208000002
   238   1  1.5961200000000019e-05      36.860803251463558      24.942389208000002
   239   2      3.1922240388000005      35.017781058536457      36.756758511000001
   240   2      1.5961040388000001      37.782341993536463      36.756758511000001
   241   2      1.5961359612000001      34.096242316463552      30.067436926999999
   242   2  1.5961200000000019e-05      36.860803251463558      30.067436926999999
   243   2      3.1922240388000005      35.017781058536457      39.884740499999999
   244   2      1.5961040388000001      37.782341993536463      39.884740499999999
   245   1      3.1922240388000005      35.017781058536457            18.253067624
   246   1      1.5961040388000001      37.782341993536463            18.253067624
   247   2      1.5961359612000001      34.096242316463552            19.817341489
   248   2  1.5961200000000019e-05      36.860803251463558            19.817341489
   249   2      3.1922240388000005      35.017781058536457            10.000037916
   250   2      1.5961040388000001      37.782341993536463            10.000037916
   251   2      1.5961359612000001      34.096242316463552      46.574062083999991
   252   2  1.5961200000000019e-05      36.860803251463558      46.574062083999991
   253   2      1.5961359612000001       39.62536418646355       43.44551435399999
   254   2  1.5961200000000019e-05      42.389925121463556       43.44551435399999
   255   2      1.5961359612000001       39.62536418646355      16.689359499999995
   256   2  1.5961200000000019e-05      42.389925121463556      16.689359499999995
   257   2      3.1922240388000005      40.546902928536454      26.506663073000002
   258   2      1.5961040388000001      43.311463863536453      26.506663073000002
   259   2      3.1922240388000005      40.546902928536454      13.128585645999998
   260   2      1.5961040388000001      43.311463863536453      13.128585645999998
   261   1      1.5961359612000001       39.62536418646355      38.321032375999998
   262   1  1.5961200000000019e-05      42.389925121463556      38.321032375999998
   263   1      1.5961359612000001       39.62536418646355      11.564311781000001
   264   1  1.5961200000000019e-05      42.389925121463556      11.564311781000001
   265   1      3.1922240388000005      40.546902928536454      31.631710791999993
   266   2      3.1922240388000005      40.546902928536454      23.378115343000001
   267   2      1.5961040388000001      43.311463863536453      23.378115343000001
   268   1      1.5961040388000001      43.311463863536453      31.631710791999993
   269   2      1.5961359612000001       39.62536418646355      33.195984657000004
   270   2  1.5961200000000019e-05      42.389925121463556      33.195984657000004
   271   1      3.1922240388000005      40.546902928536454      45.009788218999994
   272   1      1.5961040388000001      43.311463863536453      45.009788218999994
   273   1      1.5961359612000001       39.62536418646355      24.942389208000002
   274   1  1.5961200000000019e-05      42.389925121463556      24.942389208000002
   275   2      3.1922240388000005      40.546902928536454      36.756758511000001
   276   2      1.5961040388000001      43.311463863536453      36.756758511000001
   277   2      1.5961359612000001       39.62536418646355      30.067436926999999
   278   2  1.5961200000000019e-05      42.389925121463556      30.067436926999999
   279   2      3.1922240388000005      40.546902928536454      39.884740499999999
   280   2      1.5961040388000001      43.311463863536453      39.884740499999999
   281   1      3.1922240388000005      40.546902928536454            18.253067624
   282   1      1.5961040388000001      43.311463863536453            18.253067624
   283   2      1.5961359612000001       39.62536418646355            19.817341489
   284   2  1.5961200000000019e-05      42.389925121463556            19.817341489
   285   2      3.1922240388000005      40.546902928536454            10.000037916
   286   2      1.5961040388000001      43.311463863536453            10.000037916
   287   2      1.5961359612000001       39.62536418646355      46.574062083999991
   288   2  1.5961200000000019e-05      42.389925121463556      46.574062083999991
   289   2      1.5961359612000001      45.154486056463554       43.44551435399999
   290   2  1.5961200000000019e-05      47.919046991463567       43.44551435399999
   291   2      1.5961359612000001      45.154486056463554      16.689359499999995
   292   2  1.5961200000000019e-05      47.919046991463567      16.689359499999995
   293   2      3.1922240388000005      46.076024798536459      26.506663073000002
   294   2      1.5961040388000001      48.840585733536457      26.506663073000002
   295   2      3.1922240388000005      46.076024798536459      13.128585645999998
   296   2      1.5961040388000001      48.840585733536457      13.128585645999998
   297   1      1.5961359612000001      45.154486056463554      38.321032375999998
   298   1  1.5961200000000019e-05      47.919046991463567      38.321032375999998
   299   1      1.5961359612000001      45.154486056463554      11.564311781000001
   300   1  1.5961200000000019e-05      47.919046991463567      11.564311781000001
   301   1      3.1922240388000005      46.076024798536459      31.631710791999993
   302   2      3.1922240388000005      46.076024798536459      23.378115343000001
   303   2      1.5961040388000001      48.840585733536457      23.378115343000001
   304   1      1.5961040388000001      48.840585733536457      31.631710791999993
   305   2      1.5961359612000001      45.154486056463554      33.195984657000004
   306   2  1.5961200000000019e-05      47.919046991463567      33.195984657000004
   307   1      3.1922240388000005      46.076024798536459      45.009788218999994
   308   1      1.5961040388000001      48.840585733536457      45.009788218999994
   309   1      1.5961359612000001      45.154486056463554      24.942389208000002
   310   1  1.5961200000000019e-05      47.919046991463567      24.942389208000002
   311   2      3.1922240388000005      46.076024798536459      36.756758511000001
   312   2      1.5961040388000001      48.840585733536457      36.756758511000001
   313   2      1.5961359612000001      45.154486056463554      30.067436926999999
   314   2  1.5961200000000019e-05      47.919046991463567      30.067436926999999
   315   2      3.1922240388000005      46.076024798536459      39.884740499999999
   316   2      1.5961040388000001      48.840585733536457      39.884740499999999
   317   1      3.1922240388000005      46.076024798536459            18.253067624
   318   1      1.5961040388000001      48.840585733536457            18.253067624
   319   2      1.5961359612000001      45.154486056463554            19.817341489
   320   2  1.5961200000000019e-05      47.919046991463567            19.817341489
   321   2      3.1922240388000005      46.076024798536459            10.000037916
   322   2      1.5961040388000001      48.840585733536457            10.000037916
   323   2      1.5961359612000001      45.154486056463554      46.574062083999991
   324   2  1.5961200000000019e-05      47.919046991463567      46.574062083999991
   325   2      1.5961359612000001      50.683607926463552       43.44551435399999
   326   2  1.5961200000000019e-05      53.448168861463564       43.44551435399999
   327   2      1.5961359612000001      50.683607926463552      16.689359499999995
   328   2  1.5961200000000019e-05      53.448168861463564      16.689359499999995
   329   2      3.1922240388000005      51.605146668536463      26.506663073000002
   330   2      1.5961040388000001      54.369707603536455      26.506663073000002
   331   2      3.1922240388000005      51.605146668536463      13.128585645999998
   332   2      1.5961040388000001      54.369707603536455      13.128585645999998
   333   1      1.5961359612000001      50.683607926463552      38.321032375999998
   334   1  1.5961200000000019e-05      53.448168861463564      38.321032375999998
   335   1      1.5961359612000001      50.683607926463552      11.564311781000001
   336   1  1.5961200000000019e-05      53.448168861463564      11.564311781000001
   337   1      3.1922240388000005      51.605146668536463      31.631710791999993
   338   2      3.1922240388000005      51.605146668536463      23.378115343000001
   339   2      1.5961040388000001      54.369707603536455      23.378115343000001
   340   1      1.5961040388000001      54.369707603536455      31.631710791999993
   341   2      1.5961359612000001      50.683607926463552      33.195984657000004
   342   2  1.5961200000000019e-05      53.448168861463564      33.195984657000004
   343   1      3.1922240388000005      51.605146668536463      45.009788218999994
   344   1      1.5961040388000001      54.369707603536455      45.009788218999994
   345   1      1.5961359612000001      50.683607926463552      24.942389208000002
   346   1  1.5961200000000019e-05      53.448168861463564      24.942389208000002
   347   2      3.1922240388000005      51.605146668536463      36.756758511000001
   348   2      1.5961040388000001      54.369707603536455      36.756758511000001
   349   2      1.5961359612000001      50.683607926463552      30.067436926999999
   350   2  1.5961200000000019e-05      53.448168861463564      30.067436926999999
   351   2      3.1922240388000005      51.605146668536463      39.884740499999999
   352   2      1.5961040388000001      54.369707603536455      39.884740499999999
   353   1      3.1922240388000005      51.605146668536463            18.253067624
   354   1      1.5961040388000001      54.369707603536455            18.253067624
   355   2      1.5961359612000001      50.683607926463552            19.817341489
   356   2  1.5961200000000019e-05      53.448168861463564            19.817341489
   357   2      3.1922240388000005      51.605146668536463            10.000037916
   358   2      1.5961040388000001      54.369707603536455            10.000037916