
     Program PWSCF v.7.2 starts on 11Oct2023 at 10:30:45 

     This program is part of the open-source Quantum ESPRESSO suite
     for quantum simulation of materials; please cite
         "P. Giannozzi et al., J. Phys.:Condens. Matter 21 395502 (2009);
         "P. Giannozzi et al., J. Phys.:Condens. Matter 29 465901 (2017);
         "P. Giannozzi et al., J. Chem. Phys. 152 154105 (2020);
          URL http://www.quantum-espresso.org", 
     in publications or presentations arising from this work. More details at
     http://www.quantum-espresso.org/quote

     Parallel version (MPI), running on    36 processors

     MPI processes distributed on     1 nodes
     769804 MiB available memory on the printing compute node when the environment starts
 
     Waiting for input...
     Reading input from standard input
Warning: card &CELL ignored
Warning: card / ignored

     Current dimensions of program PWSCF are:
     Max number of different atomic species (ntypx) = 10
     Max number of k-points (npk) =  40000
     Max angular momentum in pseudopotentials (lmaxx) =  4
     file Mo.pbe-spn-kjpaw_psl.1.0.0.UPF: wavefunction(s)  4S 4D renormalized
     file S.pbe-n-kjpaw_psl.1.0.0.UPF: wavefunction(s)  3S 3P renormalized
     file Pd.pbe-spn-kjpaw_psl.1.0.0.UPF: wavefunction(s)  4S 5S 4D renormalized
 
     R & G space division:  proc/nbgrp/npool/nimage =      36
     Subspace diagonalization in iterative solution of the eigenvalue problem:
     one sub-group per band group will be used
     custom distributed-memory algorithm (size of sub-group:  6*  6 procs)

 
     Parallelization info
     --------------------
     sticks:   dense  smooth     PW     G-vecs:    dense   smooth      PW
     Min         585     334     89               198743    85850   11735
     Max         586     335     90               198750    85861   11748
     Sum       21073   12049   3205              7154885  3090769  422587
 
     Using Slab Decomposition
 


     bravais-lattice index     =            0
     lattice parameter (alat)  =      23.8199  a.u.
     unit-cell volume          =   33861.0370 (a.u.)^3
     number of atoms/cell      =          194
     number of atomic types    =            3
     number of electrons       =      1700.00
     number of Kohn-Sham states=         1020
     kinetic-energy cutoff     =      77.0000  Ry
     charge density cutoff     =     539.0000  Ry
     scf convergence threshold =      1.0E-06
     mixing beta               =       0.2000
     number of iterations used =            8  plain     mixing
     energy convergence thresh.=      1.0E-04
     force convergence thresh. =      1.0E-03
     Exchange-correlation= SLA  PW   PBX  PBC
                           (   1   4   3   4   0   0   0)
     nstep                     =         1000


     Effective Screening Medium Method
     =================================
     Boundary Conditions: Vacuum-Slab-Vacuum
     total charge in unit cell        =   0.0000
     grid points for fit at edges     =        4 
 

     celldm(1)=  23.819920  celldm(2)=   0.000000  celldm(3)=   0.000000
     celldm(4)=   0.000000  celldm(5)=   0.000000  celldm(6)=   0.000000

     crystal axes: (cart. coord. in units of alat)
               a(1) = (   1.000000   0.000000   0.000000 )  
               a(2) = (  -0.499999   0.866026   0.000000 )  
               a(3) = (   0.000000   0.000000   2.893000 )  

     reciprocal axes: (cart. coord. in units 2 pi/alat)
               b(1) = (  1.000000  0.577349  0.000000 )  
               b(2) = (  0.000000  1.154700  0.000000 )  
               b(3) = (  0.000000  0.000000  0.345662 )  


     PseudoPot. # 1 for Mo read from file:
     ./pseudo/Mo.pbe-spn-kjpaw_psl.1.0.0.UPF
     MD5 check sum: 317bf72632116215fd98f72de1686f13
     Pseudo is Projector augmented-wave + core cor, Zval = 14.0
     Generated using 'atomic' code by A. Dal Corso  v.7.2
     Shape of augmentation charge: PSQ
     Using radial grid of 1229 points,  6 beta functions with: 
                l(1) =   0
                l(2) =   0
                l(3) =   1
                l(4) =   1
                l(5) =   2
                l(6) =   2
     Q(r) pseudized with 0 coefficients 


     PseudoPot. # 2 for S  read from file:
     ./pseudo/S.pbe-n-kjpaw_psl.1.0.0.UPF
     MD5 check sum: 8b7b5302570d38d5e87fed6a1065abda
     Pseudo is Projector augmented-wave + core cor, Zval =  6.0
     Generated using 'atomic' code by A. Dal Corso  v.7.2
     Shape of augmentation charge: PSQ
     Using radial grid of 1151 points,  6 beta functions with: 
                l(1) =   0
                l(2) =   0
                l(3) =   1
                l(4) =   1
                l(5) =   2
                l(6) =   2
     Q(r) pseudized with 0 coefficients 


     PseudoPot. # 3 for Pd read from file:
     ./pseudo/Pd.pbe-spn-kjpaw_psl.1.0.0.UPF
     MD5 check sum: a60571a671f2502b8a6a4569d20a6edb
     Pseudo is Projector augmented-wave + core cor, Zval = 18.0
     Generated using 'atomic' code by A. Dal Corso  v.7.2
     Shape of augmentation charge: PSQ
     Using radial grid of 1235 points,  6 beta functions with: 
                l(1) =   0
                l(2) =   0
                l(3) =   1
                l(4) =   1
                l(5) =   2
                l(6) =   2
     Q(r) pseudized with 0 coefficients 


     atomic species   valence    mass     pseudopotential
        Mo            14.00    95.95000     Mo( 1.00)
        S              6.00    32.06000     S ( 1.00)
        Pd            18.00   106.42000     Pd( 1.00)

     No symmetry found



   Cartesian axes

     site n.     atom                  positions (alat units)
         1           Mo  tau(   1) = (   0.0000010   0.1443372  -0.7272732  )
         2           Mo  tau(   2) = (   0.1249995   0.0721706  -0.2424038  )
         3           S   tau(   3) = (   0.0000015   0.1443386  -0.3667807  )
         4           S   tau(   4) = (   0.1250010   0.0721682  -0.6030489  )
         5           S   tau(   5) = (   0.1250010   0.0721683  -0.8514963  )
         6           S   tau(   6) = (   0.0000015   0.1443389  -0.1180260  )
         7           Mo  tau(   7) = (   0.0000007   0.1443589   0.2424205  )
         8           Mo  tau(   8) = (   0.1250041   0.0720322   0.7266168  )
         9           S   tau(   9) = (   0.0000742   0.1444871   0.6020949  )
        10           S   tau(  10) = (   0.1250024   0.0721701   0.3667478  )
        11           S   tau(  11) = (   0.1250035   0.0721876   0.1180348  )
        12           S   tau(  12) = (  -0.0004118   0.1430864   0.8514340  )
        13           Mo  tau(  13) = (  -0.1249989   0.3608437  -0.7272732  )
        14           Mo  tau(  14) = (   0.0000030   0.2886752  -0.2424042  )
        15           S   tau(  15) = (  -0.1249977   0.3608450  -0.3667802  )
        16           S   tau(  16) = (   0.0000012   0.2886747  -0.6030489  )
        17           S   tau(  17) = (   0.0000012   0.2886748  -0.8514963  )
        18           S   tau(  18) = (  -0.1249977   0.3608454  -0.1180274  )
        19           Mo  tau(  19) = (  -0.1249729   0.3608584   0.2424608  )
        20           Mo  tau(  20) = (  -0.0007193   0.2876626   0.7275440  )
        21           S   tau(  21) = (  -0.1251115   0.3607789   0.6027257  )
        22           S   tau(  22) = (   0.0000621   0.2887099   0.3668377  )
        23           S   tau(  23) = (  -0.0000096   0.2886902   0.1180527  )
        24           S   tau(  24) = (  -0.1254673   0.3605734   0.8517408  )
        25           Mo  tau(  25) = (  -0.2499987   0.5773502  -0.7272732  )
        26           Mo  tau(  26) = (  -0.1249977   0.5051839  -0.2424055  )
        27           S   tau(  27) = (  -0.2499981   0.5773518  -0.3667809  )
        28           S   tau(  28) = (  -0.1249986   0.5051812  -0.6030489  )
        29           S   tau(  29) = (  -0.1249986   0.5051813  -0.8514963  )
        30           S   tau(  30) = (  -0.2499979   0.5773512  -0.1180266  )
        31           Mo  tau(  31) = (  -0.2499795   0.5773389   0.2424205  )
        32           Mo  tau(  32) = (  -0.1262356   0.5050639   0.7275441  )
        33           S   tau(  33) = (  -0.2498323   0.5773390   0.6020948  )
        34           S   tau(  34) = (  -0.1249376   0.5052159   0.3668377  )
        35           S   tau(  35) = (  -0.1249905   0.5051638   0.1180531  )
        36           S   tau(  36) = (  -0.2512883   0.5776183   0.8514340  )
        37           Mo  tau(  37) = (  -0.3749985   0.7938567  -0.7272732  )
        38           Mo  tau(  38) = (  -0.2500001   0.7216874  -0.2424031  )
        39           S   tau(  39) = (  -0.3749980   0.7938584  -0.3667800  )
        40           S   tau(  40) = (  -0.2499984   0.7216877  -0.6030489  )
        41           S   tau(  41) = (  -0.2499984   0.7216878  -0.8514963  )
        42           S   tau(  42) = (  -0.3749982   0.7938585  -0.1180264  )
        43           Mo  tau(  43) = (  -0.3749962   0.7938568   0.2423838  )
        44           Mo  tau(  44) = (  -0.2501148   0.7217588   0.7266170  )
        45           S   tau(  45) = (  -0.3749945   0.7938590   0.6021274  )
        46           S   tau(  46) = (  -0.2499958   0.7216877   0.3667488  )
        47           S   tau(  47) = (  -0.2499810   0.7216794   0.1180323  )
        48           S   tau(  48) = (  -0.3749953   0.7938585   0.8511588  )
        49           Mo  tau(  49) = (   0.2500010   0.1443372  -0.7272732  )
        50           Mo  tau(  50) = (   0.3750034   0.0721723  -0.2424032  )
        51           S   tau(  51) = (   0.2500017   0.1443391  -0.3667788  )
        52           S   tau(  52) = (   0.3750010   0.0721682  -0.6030489  )
        53           S   tau(  53) = (   0.3750010   0.0721683  -0.8514963  )
        54           S   tau(  54) = (   0.2500016   0.1443391  -0.1180271  )
        55           Mo  tau(  55) = (   0.2500054   0.1443594   0.2424211  )
        56           Mo  tau(  56) = (   0.3749279   0.0721263   0.7263991  )
        57           S   tau(  57) = (   0.2499344   0.1444864   0.6020948  )
        58           S   tau(  58) = (   0.3750316   0.0721860   0.3667597  )
        59           S   tau(  59) = (   0.3749924   0.0721644   0.1180346  )
        60           S   tau(  60) = (   0.2504199   0.1430865   0.8514340  )
        61           Mo  tau(  61) = (   0.1250012   0.3608437  -0.7272732  )
        62           Mo  tau(  62) = (   0.2500029   0.2886782  -0.2424031  )
        63           S   tau(  63) = (   0.1250024   0.3608455  -0.3667794  )
        64           S   tau(  64) = (   0.2500012   0.2886747  -0.6030489  )
        65           S   tau(  65) = (   0.2500012   0.2886748  -0.8514963  )
        66           S   tau(  66) = (   0.1250021   0.3608455  -0.1180270  )
        67           Mo  tau(  67) = (   0.1250038   0.3608653   0.2423963  )
        68           Mo  tau(  68) = (   0.2507284   0.2876625   0.7275438  )
        69           S   tau(  69) = (   0.1250046   0.3627170   0.6061948  )
        70           S   tau(  70) = (   0.2499461   0.2887116   0.3668373  )
        71           S   tau(  71) = (   0.2500171   0.2886900   0.1180543  )
        72           S   tau(  72) = (   0.1250046   0.3519103   0.8557806  )
        73           Mo  tau(  73) = (   0.0000014   0.5773502  -0.7272732  )
        74           Mo  tau(  74) = (   0.1250045   0.5051840  -0.2424036  )
        75           S   tau(  75) = (   0.0000030   0.5773520  -0.3667799  )
        76           S   tau(  76) = (   0.1250014   0.5051812  -0.6030489  )
        77           S   tau(  77) = (   0.1250014   0.5051813  -0.8514963  )
        78           S   tau(  78) = (   0.0000026   0.5773517  -0.1180274  )
        79           Mo  tau(  79) = (   0.0000222   0.5773400   0.2423964  )
        80           Mo  tau(  80) = (   0.1250047   0.5051836   0.7321380  )
        81           S   tau(  81) = (   0.0016251   0.5764170   0.6061946  )
        82           S   tau(  82) = (   0.1250047   0.5051815   0.3667777  )
        83           S   tau(  83) = (   0.1250048   0.5051819   0.1179962  )
        84           S   tau(  84) = (  -0.0077335   0.5818202   0.8557807  )
        85           Mo  tau(  85) = (  -0.1249984   0.7938567  -0.7272732  )
        86           Mo  tau(  86) = (   0.0000069   0.7216896  -0.2424039  )
        87           S   tau(  87) = (  -0.1249975   0.7938582  -0.3667782  )
        88           S   tau(  88) = (   0.0000016   0.7216877  -0.6030489  )
        89           S   tau(  89) = (   0.0000016   0.7216878  -0.8514963  )
        90           S   tau(  90) = (  -0.1249973   0.7938582  -0.1180279  )
        91           Mo  tau(  91) = (  -0.1249774   0.7938494   0.2424207  )
        92           Mo  tau(  92) = (  -0.0005116   0.7228241   0.7275438  )
        93           S   tau(  93) = (  -0.1249026   0.7937246   0.6020948  )
        94           S   tau(  94) = (   0.0000043   0.7216209   0.3668361  )
        95           S   tau(  95) = (   0.0000226   0.7216928   0.1180549  )
        96           S   tau(  96) = (  -0.1258721   0.7948451   0.8514341  )
        97           Mo  tau(  97) = (   0.5000010   0.1443372  -0.7272732  )
        98           Mo  tau(  98) = (   0.6250001   0.0721662  -0.2424040  )
        99           S   tau(  99) = (   0.5000017   0.1443386  -0.3667801  )
       100           S   tau( 100) = (   0.6250010   0.0721682  -0.6030489  )
       101           S   tau( 101) = (   0.6250010   0.0721683  -0.8514963  )
       102           S   tau( 102) = (   0.5000020   0.1443388  -0.1180261  )
       103           Mo  tau( 103) = (   0.5000075   0.1443411   0.2423793  )
       104           Mo  tau( 104) = (   0.6250042   0.0723339   0.7270464  )
       105           S   tau( 105) = (   0.5002366   0.1444733   0.6023595  )
       106           S   tau( 106) = (   0.6250029   0.0721787   0.3667562  )
       107           S   tau( 107) = (   0.6250040   0.0721260   0.1180315  )
       108           S   tau( 108) = (   0.4998752   0.1442648   0.8512770  )
       109           Mo  tau( 109) = (   0.3750012   0.3608437  -0.7272732  )
       110           Mo  tau( 110) = (   0.4999991   0.2886761  -0.2424038  )
       111           S   tau( 111) = (   0.3750012   0.3608452  -0.3667804  )
       112           S   tau( 112) = (   0.5000012   0.2886747  -0.6030489  )
       113           S   tau( 113) = (   0.5000012   0.2886748  -0.8514963  )
       114           S   tau( 114) = (   0.3750014   0.3608455  -0.1180261  )
       115           Mo  tau( 115) = (   0.3749795   0.3608597   0.2424601  )
       116           Mo  tau( 116) = (   0.5001461   0.2885951   0.7270464  )
       117           S   tau( 117) = (   0.3751205   0.3607791   0.6027254  )
       118           S   tau( 118) = (   0.5000105   0.2886721   0.3667569  )
       119           S   tau( 119) = (   0.4999655   0.2886989   0.1180297  )
       120           S   tau( 120) = (   0.3754765   0.3605739   0.8517402  )
       121           Mo  tau( 121) = (   0.2500014   0.5773502  -0.7272732  )
       122           Mo  tau( 122) = (   0.3749983   0.5051825  -0.2424043  )
       123           S   tau( 123) = (   0.2500017   0.5773519  -0.3667810  )
       124           S   tau( 124) = (   0.3750014   0.5051812  -0.6030489  )
       125           S   tau( 125) = (   0.3750014   0.5051813  -0.8514963  )
       126           S   tau( 126) = (   0.2500018   0.5773519  -0.1180256  )
       127           Mo  tau( 127) = (   0.2499863   0.5773402   0.2423965  )
       128           Mo  tau( 128) = (   0.3762454   0.5050642   0.7275433  )
       129           S   tau( 129) = (   0.2483844   0.5764169   0.6061944  )
       130           S   tau( 130) = (   0.3749442   0.5052158   0.3668400  )
       131           S   tau( 131) = (   0.3749972   0.5051650   0.1180510  )
       132           S   tau( 132) = (   0.2577438   0.5818204   0.8557797  )
       133           Mo  tau( 133) = (   0.1250016   0.7938567  -0.7272732  )
       134           Mo  tau( 134) = (   0.2499995   0.7216883  -0.2424036  )
       135           S   tau( 135) = (   0.1250024   0.7938578  -0.3667813  )
       136           S   tau( 136) = (   0.2500016   0.7216877  -0.6030489  )
       137           S   tau( 137) = (   0.2500016   0.7216878  -0.8514963  )
       138           S   tau( 138) = (   0.1250024   0.7938579  -0.1180253  )
       139           Mo  tau( 139) = (   0.1250047   0.7938294   0.2424606  )
       140           Mo  tau( 140) = (   0.2505220   0.7228241   0.7275433  )
       141           S   tau( 141) = (   0.1250053   0.7939926   0.6027252  )
       142           S   tau( 142) = (   0.2500048   0.7216200   0.3668387  )
       143           S   tau( 143) = (   0.2499864   0.7216915   0.1180524  )
       144           S   tau( 144) = (   0.1250054   0.7944033   0.8517402  )
       145           Mo  tau( 145) = (   0.7500010   0.1443372  -0.7272732  )
       146           Mo  tau( 146) = (   0.8750038   0.0721696  -0.2424038  )
       147           S   tau( 147) = (   0.7500016   0.1443382  -0.3667789  )
       148           S   tau( 148) = (   0.8750010   0.0721682  -0.6030489  )
       149           S   tau( 149) = (   0.8750010   0.0721683  -0.8514963  )
       150           S   tau( 150) = (   0.7500016   0.1443384  -0.1180279  )
       151           Mo  tau( 151) = (   0.7499986   0.1443409   0.2423802  )
       152           Mo  tau( 152) = (   0.8750804   0.0721266   0.7263988  )
       153           S   tau( 153) = (   0.7497713   0.1444738   0.6023592  )
       154           S   tau( 154) = (   0.8749758   0.0721848   0.3667595  )
       155           S   tau( 155) = (   0.8750127   0.0721632   0.1180342  )
       156           S   tau( 156) = (   0.7501331   0.1442647   0.8512770  )
       157           Mo  tau( 157) = (   0.6250012   0.3608437  -0.7272732  )
       158           Mo  tau( 158) = (   0.7500028   0.2886769  -0.2424041  )
       159           S   tau( 159) = (   0.6250015   0.3608451  -0.3667792  )
       160           S   tau( 160) = (   0.7500012   0.2886747  -0.6030489  )
       161           S   tau( 161) = (   0.7500012   0.2886748  -0.8514963  )
       162           S   tau( 162) = (   0.6250016   0.3608454  -0.1180280  )
       163           Mo  tau( 163) = (   0.6250032   0.3608391   0.2423797  )
       164           Mo  tau( 164) = (   0.7498627   0.2885951   0.7270467  )
       165           S   tau( 165) = (   0.6250046   0.3605769   0.6023590  )
       166           S   tau( 166) = (   0.7499943   0.2886711   0.3667569  )
       167           S   tau( 167) = (   0.7500399   0.2886970   0.1180318  )
       168           S   tau( 168) = (   0.6250043   0.3609947   0.8512770  )
       169           Mo  tau( 169) = (   0.5000014   0.5773502  -0.7272732  )
       170           Mo  tau( 170) = (   0.6250029   0.5051841  -0.2424047  )
       171           S   tau( 171) = (   0.5000014   0.5773518  -0.3667794  )
       172           S   tau( 172) = (   0.6250014   0.5051812  -0.6030489  )
       173           S   tau( 173) = (   0.6250014   0.5051813  -0.8514963  )
       174           S   tau( 174) = (   0.5000016   0.5773516  -0.1180277  )
       175           Mo  tau( 175) = (   0.4999855   0.5773383   0.2424207  )
       176           Mo  tau( 176) = (   0.6250049   0.5052713   0.7263986  )
       177           S   tau( 177) = (   0.4998428   0.5773389   0.6020941  )
       178           S   tau( 178) = (   0.6250030   0.5051500   0.3667588  )
       179           S   tau( 179) = (   0.6250025   0.5051935   0.1180351  )
       180           S   tau( 180) = (   0.5012979   0.5776190   0.8514332  )
       181           Mo  tau( 181) = (   0.3750016   0.7938567  -0.7272732  )
       182           Mo  tau( 182) = (   0.5000025   0.7216901  -0.2424039  )
       183           S   tau( 183) = (   0.3750019   0.7938578  -0.3667793  )
       184           S   tau( 184) = (   0.5000016   0.7216877  -0.6030489  )
       185           S   tau( 185) = (   0.5000016   0.7216878  -0.8514963  )
       186           S   tau( 186) = (   0.3750020   0.7938579  -0.1180272  )
       187           Mo  tau( 187) = (   0.3749848   0.7938487   0.2424206  )
       188           Mo  tau( 188) = (   0.5001249   0.7217591   0.7266160  )
       189           S   tau( 189) = (   0.3749125   0.7937251   0.6020942  )
       190           S   tau( 190) = (   0.5000021   0.7216868   0.3667472  )
       191           S   tau( 191) = (   0.4999874   0.7216780   0.1180346  )
       192           S   tau( 192) = (   0.3758826   0.7948451   0.8514332  )
       193           Pd  tau( 193) = (   0.1250063   0.5051842   0.9601361  )
       194           Pd  tau( 194) = (   0.1913929   0.4668798   1.1572430  )

     --------------------------------------------
     DFT-D3 Dispersion Correction (3-body terms):
     --------------------------------------------
       Reference C6 values for interpolation: 

         atom   Coordination number   C6
         S          0.000           268.01
         S          0.995           261.99
         S          1.990           251.62
         Mo         0.000          1691.79
         Mo         1.942          1004.01
         Mo        11.056           674.22
         Pd         0.000          1217.01
         Pd         1.863           573.90
         Pd         5.710           531.75

       Values used:

         atom   Coordination number  R0_AB[au]  C6      C8
         Mo        10.208            3.547    674.22  77634.20
         Mo        10.221            3.547    674.22  77634.20
         S          3.858            3.128    251.62  12327.25
         S          3.859            3.128    251.62  12327.25
         S          3.758            3.128    251.62  12327.25
         S          3.859            3.128    251.62  12327.25
         Mo        10.220            3.547    674.22  77634.20
         Mo        10.233            3.547    674.22  77634.20
         S          3.846            3.128    251.62  12327.25
         S          3.861            3.128    251.62  12327.25
         S          3.859            3.128    251.62  12327.25
         S          3.805            3.128    251.62  12327.25
         Mo        10.208            3.547    674.22  77634.20
         Mo        10.221            3.547    674.22  77634.20
         S          3.858            3.128    251.62  12327.25
         S          3.859            3.128    251.62  12327.25
         S          3.758            3.128    251.62  12327.25
         S          3.859            3.128    251.62  12327.25
         Mo        10.221            3.547    674.22  77634.20
         Mo        10.191            3.547    674.22  77634.20
         S          3.855            3.128    251.62  12327.25
         S          3.856            3.128    251.62  12327.25
         S          3.859            3.128    251.62  12327.25
         S          3.757            3.128    251.62  12327.25
         Mo        10.208            3.547    674.22  77634.20
         Mo        10.221            3.547    674.22  77634.20
         S          3.858            3.128    251.62  12327.25
         S          3.859            3.128    251.62  12327.25
         S          3.758            3.128    251.62  12327.25
         S          3.859            3.128    251.62  12327.25
         Mo        10.220            3.547    674.22  77634.20
         Mo        10.191            3.547    674.22  77634.20
         S          3.846            3.128    251.62  12327.25
         S          3.856            3.128    251.62  12327.25
         S          3.859            3.128    251.62  12327.25
         S          3.805            3.128    251.62  12327.25
         Mo        10.208            3.547    674.22  77634.20
         Mo        10.221            3.547    674.22  77634.20
         S          3.858            3.128    251.62  12327.25
         S          3.859            3.128    251.62  12327.25
         S          3.758            3.128    251.62  12327.25
         S          3.859            3.128    251.62  12327.25
         Mo        10.219            3.547    674.22  77634.20
         Mo        10.233            3.547    674.22  77634.20
         S          3.856            3.128    251.62  12327.25
         S          3.861            3.128    251.62  12327.25
         S          3.859            3.128    251.62  12327.25
         S          3.781            3.128    251.62  12327.25
         Mo        10.208            3.547    674.22  77634.20
         Mo        10.221            3.547    674.22  77634.20
         S          3.858            3.128    251.62  12327.25
         S          3.859            3.128    251.62  12327.25
         S          3.758            3.128    251.62  12327.25
         S          3.859            3.128    251.62  12327.25
         Mo        10.220            3.547    674.22  77634.20
         Mo        10.243            3.547    674.22  77634.20
         S          3.847            3.128    251.62  12327.25
         S          3.860            3.128    251.62  12327.25
         S          3.859            3.128    251.62  12327.25
         S          3.805            3.128    251.62  12327.25
         Mo        10.208            3.547    674.22  77634.20
         Mo        10.221            3.547    674.22  77634.20
         S          3.858            3.128    251.62  12327.25
         S          3.859            3.128    251.62  12327.25
         S          3.758            3.128    251.62  12327.25
         S          3.859            3.128    251.62  12327.25
         Mo        10.222            3.547    674.22  77634.20
         Mo        10.191            3.547    674.22  77634.20
         S          3.865            3.128    251.62  12327.25
         S          3.856            3.128    251.62  12327.25
         S          3.859            3.128    251.62  12327.25
         S          4.658            3.128    251.62  12327.25
         Mo        10.208            3.547    674.22  77634.20
         Mo        10.221            3.547    674.22  77634.20
         S          3.858            3.128    251.62  12327.25
         S          3.859            3.128    251.62  12327.25
         S          3.758            3.128    251.62  12327.25
         S          3.859            3.128    251.62  12327.25
         Mo        10.222            3.547    674.22  77634.20
         Mo        10.822            3.547    674.22  77634.20
         S          3.865            3.128    251.62  12327.25
         S          3.853            3.128    251.62  12327.25
         S          3.859            3.128    251.62  12327.25
         S          4.654            3.128    251.62  12327.25
         Mo        10.208            3.547    674.22  77634.20
         Mo        10.221            3.547    674.22  77634.20
         S          3.858            3.128    251.62  12327.25
         S          3.859            3.128    251.62  12327.25
         S          3.758            3.128    251.62  12327.25
         S          3.859            3.128    251.62  12327.25
         Mo        10.220            3.547    674.22  77634.20
         Mo        10.191            3.547    674.22  77634.20
         S          3.846            3.128    251.62  12327.25
         S          3.856            3.128    251.62  12327.25
         S          3.859            3.128    251.62  12327.25
         S          3.805            3.128    251.62  12327.25
         Mo        10.208            3.547    674.22  77634.20
         Mo        10.221            3.547    674.22  77634.20
         S          3.858            3.128    251.62  12327.25
         S          3.859            3.128    251.62  12327.25
         S          3.758            3.128    251.62  12327.25
         S          3.859            3.128    251.62  12327.25
         Mo        10.220            3.547    674.22  77634.20
         Mo        10.229            3.547    674.22  77634.20
         S          3.862            3.128    251.62  12327.25
         S          3.860            3.128    251.62  12327.25
         S          3.859            3.128    251.62  12327.25
         S          3.765            3.128    251.62  12327.25
         Mo        10.208            3.547    674.22  77634.20
         Mo        10.221            3.547    674.22  77634.20
         S          3.858            3.128    251.62  12327.25
         S          3.859            3.128    251.62  12327.25
         S          3.758            3.128    251.62  12327.25
         S          3.859            3.128    251.62  12327.25
         Mo        10.221            3.547    674.22  77634.20
         Mo        10.229            3.547    674.22  77634.20
         S          3.855            3.128    251.62  12327.25
         S          3.860            3.128    251.62  12327.25
         S          3.859            3.128    251.62  12327.25
         S          3.758            3.128    251.62  12327.25
         Mo        10.208            3.547    674.22  77634.20
         Mo        10.221            3.547    674.22  77634.20
         S          3.858            3.128    251.62  12327.25
         S          3.859            3.128    251.62  12327.25
         S          3.758            3.128    251.62  12327.25
         S          3.859            3.128    251.62  12327.25
         Mo        10.222            3.547    674.22  77634.20
         Mo        10.191            3.547    674.22  77634.20
         S          3.865            3.128    251.62  12327.25
         S          3.856            3.128    251.62  12327.25
         S          3.859            3.128    251.62  12327.25
         S          4.658            3.128    251.62  12327.25
         Mo        10.208            3.547    674.22  77634.20
         Mo        10.221            3.547    674.22  77634.20
         S          3.858            3.128    251.62  12327.25
         S          3.859            3.128    251.62  12327.25
         S          3.758            3.128    251.62  12327.25
         S          3.859            3.128    251.62  12327.25
         Mo        10.221            3.547    674.22  77634.20
         Mo        10.191            3.547    674.22  77634.20
         S          3.855            3.128    251.62  12327.25
         S          3.856            3.128    251.62  12327.25
         S          3.859            3.128    251.62  12327.25
         S          3.757            3.128    251.62  12327.25
         Mo        10.208            3.547    674.22  77634.20
         Mo        10.221            3.547    674.22  77634.20
         S          3.858            3.128    251.62  12327.25
         S          3.859            3.128    251.62  12327.25
         S          3.758            3.128    251.62  12327.25
         S          3.859            3.128    251.62  12327.25
         Mo        10.220            3.547    674.22  77634.20
         Mo        10.243            3.547    674.22  77634.20
         S          3.862            3.128    251.62  12327.25
         S          3.860            3.128    251.62  12327.25
         S          3.859            3.128    251.62  12327.25
         S          3.765            3.128    251.62  12327.25
         Mo        10.208            3.547    674.22  77634.20
         Mo        10.220            3.547    674.22  77634.20
         S          3.858            3.128    251.62  12327.25
         S          3.859            3.128    251.62  12327.25
         S          3.758            3.128    251.62  12327.25
         S          3.859            3.128    251.62  12327.25
         Mo        10.220            3.547    674.22  77634.20
         Mo        10.229            3.547    674.22  77634.20
         S          3.862            3.128    251.62  12327.25
         S          3.860            3.128    251.62  12327.25
         S          3.859            3.128    251.62  12327.25
         S          3.765            3.128    251.62  12327.25
         Mo        10.208            3.547    674.22  77634.20
         Mo        10.221            3.547    674.22  77634.20
         S          3.858            3.128    251.62  12327.25
         S          3.859            3.128    251.62  12327.25
         S          3.758            3.128    251.62  12327.25
         S          3.859            3.128    251.62  12327.25
         Mo        10.220            3.547    674.22  77634.20
         Mo        10.243            3.547    674.22  77634.20
         S          3.847            3.128    251.62  12327.25
         S          3.860            3.128    251.62  12327.25
         S          3.859            3.128    251.62  12327.25
         S          3.805            3.128    251.62  12327.25
         Mo        10.208            3.547    674.22  77634.20
         Mo        10.221            3.547    674.22  77634.20
         S          3.858            3.128    251.62  12327.25
         S          3.859            3.128    251.62  12327.25
         S          3.758            3.128    251.62  12327.25
         S          3.859            3.128    251.62  12327.25
         Mo        10.220            3.547    674.22  77634.20
         Mo        10.233            3.547    674.22  77634.20
         S          3.846            3.128    251.62  12327.25
         S          3.861            3.128    251.62  12327.25
         S          3.859            3.128    251.62  12327.25
         S          3.805            3.128    251.62  12327.25
         Pd         4.550            3.168    531.75  48720.73
         Pd         0.806            3.168   1113.60 102031.68

         Molecular C6 ( Ry / a.u.^6 ) =  14025435.64


     number of k points=     4  Gaussian smearing, width (Ry)=  0.0100
                       cart. coord. in units 2pi/alat
        k(    1) = (   0.0000000   0.0000000   0.0000000), wk =   0.5000000
        k(    2) = (   0.0000000  -0.5773499   0.0000000), wk =   0.5000000
        k(    3) = (  -0.5000000  -0.2886744   0.0000000), wk =   0.5000000
        k(    4) = (  -0.5000000  -0.8660242   0.0000000), wk =   0.5000000

     Dense  grid:  7154885 G-vectors     FFT dimensions: ( 180, 180, 512)

     Smooth grid:  3090769 G-vectors     FFT dimensions: ( 135, 135, 400)

     Estimated max dynamical RAM per process >       3.19 GB

     Estimated total dynamical RAM >     114.77 GB

     Atomic positions and unit cell read from directory:
     ./outdir/pwscf.save/
     Atomic positions from file used, from input discarded
 

     The initial density is read from file :
     ./outdir/pwscf.save/charge-density


     negative rho (up, down):  1.909E-03 0.000E+00
     Starting wfcs from file
     Checking if some PAW data can be deallocated... 
     Calculation restarted from scf iteration #     2

     total cpu time spent up to now is       27.0 secs

     Self-consistent Calculation

     iteration #  2     ecut=    77.00 Ry     beta= 0.20
     Calculation restarted from kpoint #     2
     Davidson diagonalization with overlap
     c_bands:  4 eigenvalues not converged
     c_bands:  4 eigenvalues not converged
     c_bands:  4 eigenvalues not converged
     ethr =  4.75E-06,  avg # of iterations = 19.0

     negative rho (up, down):  1.541E-03 0.000E+00

     total cpu time spent up to now is      459.0 secs

     total energy              =  -32817.60574965 Ry
     estimated scf accuracy    <       0.03355399 Ry

     iteration #  3     ecut=    77.00 Ry     beta= 0.20
     Davidson diagonalization with overlap
     ethr =  1.97E-06,  avg # of iterations =  9.5

     negative rho (up, down):  1.155E-03 0.000E+00

     total cpu time spent up to now is      929.7 secs

     total energy              =  -32817.57864082 Ry
     estimated scf accuracy    <       0.01009699 Ry

     iteration #  4     ecut=    77.00 Ry     beta= 0.20
     Davidson diagonalization with overlap
     c_bands:  1 eigenvalues not converged
     ethr =  5.94E-07,  avg # of iterations = 16.8

     negative rho (up, down):  1.075E-03 0.000E+00

     total cpu time spent up to now is     1465.6 secs

     total energy              =  -32817.57206555 Ry
     estimated scf accuracy    <       0.00466253 Ry

     iteration #  5     ecut=    77.00 Ry     beta= 0.20
     Davidson diagonalization with overlap
     ethr =  2.74E-07,  avg # of iterations = 12.0

     negative rho (up, down):  1.042E-03 0.000E+00

     total cpu time spent up to now is     1950.5 secs

     total energy              =  -32817.56453919 Ry
     estimated scf accuracy    <       0.00190923 Ry

     iteration #  6     ecut=    77.00 Ry     beta= 0.20
     Davidson diagonalization with overlap
     ethr =  1.12E-07,  avg # of iterations = 10.5

     negative rho (up, down):  1.025E-03 0.000E+00

     total cpu time spent up to now is     2447.5 secs

     total energy              =  -32817.56205812 Ry
     estimated scf accuracy    <       0.00079868 Ry

     iteration #  7     ecut=    77.00 Ry     beta= 0.20
     Davidson diagonalization with overlap
     ethr =  4.70E-08,  avg # of iterations = 11.2

     negative rho (up, down):  1.013E-03 0.000E+00

     total cpu time spent up to now is     2950.0 secs

     total energy              =  -32817.56089571 Ry
     estimated scf accuracy    <       0.00035075 Ry

     iteration #  8     ecut=    77.00 Ry     beta= 0.20
     Davidson diagonalization with overlap
     ethr =  2.06E-08,  avg # of iterations = 11.0

     negative rho (up, down):  1.002E-03 0.000E+00

     total cpu time spent up to now is     3555.9 secs

     total energy              =  -32817.56061180 Ry
     estimated scf accuracy    <       0.00016512 Ry

     iteration #  9     ecut=    77.00 Ry     beta= 0.20
     Davidson diagonalization with overlap
     ethr =  9.71E-09,  avg # of iterations =  9.8

     negative rho (up, down):  9.972E-04 0.000E+00

     total cpu time spent up to now is     4037.0 secs

     total energy              =  -32817.56048521 Ry
     estimated scf accuracy    <       0.00005911 Ry

     iteration # 10     ecut=    77.00 Ry     beta= 0.20
     Davidson diagonalization with overlap
     ethr =  3.48E-09,  avg # of iterations = 13.0

     negative rho (up, down):  9.842E-04 0.000E+00

     total cpu time spent up to now is     4728.9 secs

     total energy              =  -32817.56050513 Ry
     estimated scf accuracy    <       0.00001587 Ry

     iteration # 11     ecut=    77.00 Ry     beta= 0.20
     Davidson diagonalization with overlap
     ethr =  9.33E-10,  avg # of iterations = 11.0

     negative rho (up, down):  9.747E-04 0.000E+00

     total cpu time spent up to now is     5338.2 secs

     total energy              =  -32817.56050780 Ry
     estimated scf accuracy    <       0.00000717 Ry

     iteration # 12     ecut=    77.00 Ry     beta= 0.20
     Davidson diagonalization with overlap
     ethr =  4.22E-10,  avg # of iterations = 10.0

     negative rho (up, down):  9.692E-04 0.000E+00

     total cpu time spent up to now is     5913.6 secs

     total energy              =  -32817.56051004 Ry
     estimated scf accuracy    <       0.00000254 Ry

     iteration # 13     ecut=    77.00 Ry     beta= 0.20
     Davidson diagonalization with overlap
     ethr =  1.49E-10,  avg # of iterations = 10.8

     negative rho (up, down):  9.476E-04 0.000E+00

     total cpu time spent up to now is     6582.8 secs

     End of self-consistent calculation

          k = 0.0000 0.0000 0.0000 (386245 PWs)   bands (ev):

   -88.4978 -87.1688 -66.5483 -66.5465 -66.5464 -66.5452 -66.5336 -66.5333
   -66.5297 -66.5296 -66.5256 -66.5255 -66.5254 -66.5252 -66.5252 -66.5252
   -66.5251 -66.5251 -66.5251 -66.5251 -66.5250 -66.5248 -66.5239 -66.5239
   -66.5239 -66.5238 -66.5238 -66.5238 -66.5229 -66.5145 -66.5143 -66.5125
   -66.5068 -66.5045 -66.5041 -66.5041 -66.5040 -66.5038 -66.5038 -66.5038
   -66.5038 -66.5038 -66.5038 -66.5037 -66.5037 -66.5037 -66.5037 -66.5036
   -66.5036 -66.5034 -66.5032 -66.5025 -66.5025 -66.5025 -66.5025 -66.5025
   -66.5024 -66.5024 -66.5024 -66.5024 -66.4903 -66.4888 -66.4831 -66.4799
   -66.4613 -66.4520 -54.3822 -54.2498 -54.2449 -53.1871 -52.9191 -52.8338
   -40.8739 -40.8738 -40.8738 -40.8738 -40.8738 -40.8736 -40.8732 -40.8732
   -40.8732 -40.8686 -40.8674 -40.8673 -40.7987 -40.7986 -40.7985 -40.7985
   -40.7985 -40.7985 -40.7985 -40.7985 -40.7984 -40.7984 -40.7983 -40.7982
   -40.7978 -40.7978 -40.7978 -40.7978 -40.7978 -40.7978 -40.7969 -40.7967
   -40.7903 -40.7887 -40.7878 -40.7862 -40.7182 -40.7061 -40.7060 -40.7054
   -40.6965 -40.6745 -40.6724 -40.6723 -40.6722 -40.6722 -40.6722 -40.6721
   -40.6721 -40.6721 -40.6721 -40.6720 -40.6720 -40.6719 -40.6716 -40.6714
   -40.6714 -40.6714 -40.6714 -40.6714 -40.6714 -40.6703 -40.6702 -40.6696
   -40.6679 -40.6654 -40.6647 -40.6646 -40.6646 -40.6644 -40.6644 -40.6644
   -40.6643 -40.6643 -40.6643 -40.6642 -40.6642 -40.6641 -40.6637 -40.6637
   -40.6637 -40.6637 -40.6637 -40.6637 -40.6636 -40.6626 -40.6516 -40.6499
   -40.6375 -40.6373 -40.6373 -40.6372 -40.6372 -40.6371 -40.6371 -40.6371
   -40.6371 -40.6371 -40.6370 -40.6370 -40.6369 -40.6364 -40.6363 -40.6363
   -40.6363 -40.6363 -40.6363 -40.6363 -40.6350 -40.6335 -40.6321 -40.6311
   -40.6292 -40.6269 -40.6234 -40.6230 -40.6228 -40.6227 -40.6226 -40.6224
   -40.6224 -40.6224 -40.6224 -40.6224 -40.6224 -40.6223 -40.6223 -40.6223
   -40.6222 -40.6222 -40.6222 -40.6222 -40.6221 -40.6217 -40.6217 -40.6217
   -40.6217 -40.6217 -40.6216 -40.6216 -40.6216 -40.6216 -40.6178 -40.6166
   -40.6131 -40.6109 -40.6057 -40.5927 -40.5589 -40.5588 -40.5588 -40.5588
   -40.5588 -40.5587 -40.5579 -40.5579 -40.5579 -40.5531 -40.5509 -40.5474
   -40.5120 -40.5118 -40.5117 -40.5117 -40.5117 -40.5116 -40.5116 -40.5116
   -40.5116 -40.5116 -40.5115 -40.5113 -40.5107 -40.5107 -40.5107 -40.5107
   -40.5107 -40.5107 -40.5062 -40.5034 -40.5030 -40.5007 -40.4988 -40.4915
   -40.4640 -40.4640 -40.4640 -40.4640 -40.4631 -40.4631 -40.4510 -40.4501
   -20.0493 -19.9942 -19.9000 -19.8048 -19.2324 -19.2054 -19.1941 -19.1683
   -19.1657 -19.1656 -19.1511 -19.1460 -19.1421 -19.1117 -19.1015 -19.1006
   -19.0599 -19.0545 -19.0535 -19.0325 -19.0205 -19.0162 -18.9610 -18.9595
   -18.9584 -18.9517 -18.9476 -18.9444 -18.8171 -18.7045 -18.5561 -18.4616
   -18.4371 -18.4312 -18.4082 -18.3965 -18.3875 -18.3858 -18.3392 -18.3332
   -18.3271 -18.3225 -18.2795 -18.2783 -18.2243 -18.2103 -18.2075 -18.2039
   -18.1711 -18.1709 -18.1415 -18.1211 -18.1086 -18.1067 -18.0977 -18.0970
   -18.0905 -18.0903 -18.0530 -18.0461 -18.0450 -18.0425 -18.0395 -18.0389
   -18.0330 -18.0211 -18.0186 -18.0140 -18.0023 -18.0005 -18.0002 -17.9989
   -17.9957 -17.9931 -17.9801 -17.9777 -17.9742 -17.9728 -17.9677 -17.9651
   -17.9510 -17.9504 -17.9472 -17.9344 -17.9300 -17.9273 -17.9240 -17.9224
   -17.9214 -17.9091 -17.9046 -17.9037 -17.8841 -17.8724 -17.8669 -17.8422
   -17.8415 -17.8358 -17.8349 -17.8335 -17.8328 -17.8201 -17.8174 -17.8154
   -17.7952 -17.7935 -17.7923 -17.7888 -17.7872 -17.7819 -17.7779 -17.7742
   -17.7740 -17.7636 -17.7631 -17.7624 -17.7483 -17.7466 -17.7459 -17.7435
   -17.7409 -17.7387 -17.7192 -17.7186 -17.7185 -17.7166 -17.7162 -17.7156
   -11.9033 -11.7878 -11.7499 -11.7442 -11.7076 -11.6843 -11.6750 -11.6707
   -11.5849 -11.5736 -11.5688 -11.4751 -11.4716 -11.4703 -11.3632 -11.1990
   -11.1833 -11.1649 -11.1555 -11.1534 -11.1515 -11.1190 -11.0990 -11.0780
   -11.0637 -11.0584 -11.0523 -11.0497 -11.0433 -11.0359 -11.0275 -11.0147
   -11.0083 -10.9884 -10.9846 -10.9791 -10.9763 -10.9693 -10.9685 -10.9666
   -10.9563 -10.9414 -10.9404 -10.9249 -10.9084 -10.9020 -10.8781 -10.8778
   -10.8607 -10.8442 -10.8428 -10.8392 -10.8232 -10.8229 -10.8102 -10.8010
   -10.7825 -10.7804 -10.7682 -10.7678 -10.7678 -10.7675 -10.7592 -10.7560
   -10.7537 -10.7516 -10.7487 -10.7472 -10.7454 -10.7282 -10.7270 -10.7234
   -10.7192 -10.7160 -10.7155 -10.7132 -10.7000 -10.6995 -10.6946 -10.6912
   -10.6897 -10.6792 -10.6672 -10.6644 -10.6628 -10.6595 -10.6593 -10.6561
   -10.6527 -10.6471 -10.6426 -10.5744 -10.5725 -10.5710 -10.5282 -10.5190
   -10.5114 -10.4995 -10.4993 -10.4960 -10.2440 -10.1711 -10.1546 -10.0602
   -10.0151  -9.9908  -9.8659  -9.8429  -9.8015  -9.7502  -9.7351  -9.7296
    -9.7215  -9.7185  -9.7170  -9.7050  -9.6933  -9.6932  -9.6904  -9.6886
    -9.6856  -9.6830  -9.6800  -9.6790  -9.6726  -9.6718  -9.6622  -9.6615
    -9.6530  -9.6342  -9.6245  -9.5681  -9.5633  -9.5560  -9.5531  -9.5518
    -9.5435  -9.5392  -9.5377  -9.5372  -9.5368  -9.5358  -9.5344  -9.5250
    -9.5223  -9.5170  -9.4945  -9.4900  -9.4641  -9.4639  -9.4636  -9.4635
    -9.4631  -9.4628  -9.4517  -9.4486  -9.4402  -9.4384  -9.4353  -9.4289
    -9.4131  -9.4105  -9.3913  -9.3770  -9.3659  -9.3626  -9.2878  -9.2843
    -9.2738  -9.2701  -9.2627  -9.2578  -9.2497  -9.2482  -9.2428  -9.2305
    -9.2287  -9.2195  -9.1677  -9.1660  -9.1593  -9.1490  -9.1469  -9.1368
    -9.1054  -9.1052  -9.1041  -9.1021  -9.1015  -9.0982  -9.0667  -9.0623
    -9.0482  -9.0458  -9.0261  -9.0203  -8.9683  -8.9642  -8.9352  -8.9051
    -8.9031  -8.9025  -8.9019  -8.8819  -8.8782  -8.8724  -8.8641  -8.8600
    -8.8540  -8.8491  -8.8477  -8.8389  -8.8384  -8.8368  -8.8220  -8.8063
    -8.8050  -8.7937  -8.7765  -8.7508  -8.7437  -8.7434  -8.7428  -8.7426
    -8.7417  -8.7382  -8.6769  -8.6698  -8.6621  -8.6620  -8.6479  -8.6448
    -8.5931  -8.5846  -8.5822  -8.5817  -8.5660  -8.5612  -8.5167  -8.5146
    -8.5134  -8.5132  -8.5094  -8.5074  -8.4541  -8.3761  -8.3534  -8.2884
    -8.2884  -8.2834  -8.2831  -8.2784  -8.2770  -8.2751  -8.2685  -8.2424
    -8.2170  -8.2127  -8.1996  -8.1974  -8.1973  -8.1961  -8.1948  -8.1938
    -8.1790  -8.1717  -8.1706  -8.1683  -8.1676  -8.1663  -8.1552  -8.1481
    -8.1428  -8.1418  -8.1417  -8.1410  -8.1382  -8.1371  -8.0446  -7.9808
    -7.9383  -7.7856  -7.7798  -7.7761  -7.7643  -7.6973  -7.6905  -7.6824
    -7.6193  -7.6070  -7.5900  -7.5665  -7.5568  -7.5559  -7.5485  -7.5406
    -7.5372  -7.5267  -7.5263  -7.5088  -7.5010  -7.4978  -7.4873  -7.4730
    -7.4638  -7.4597  -7.4593  -7.4570  -7.4551  -7.4549  -7.4538  -7.4534
    -7.4421  -7.4396  -7.4382  -7.4280  -7.4278  -7.4266  -7.4251  -7.4214
    -7.4198  -7.4047  -7.4043  -7.4036  -7.4035  -7.4027  -7.4013  -7.3917
    -7.3754  -7.3738  -7.3444  -7.3399  -7.3316  -7.3305  -7.3259  -7.3217
    -7.3205  -7.3184  -7.3167  -7.2666  -7.2551  -7.2447  -7.2329  -7.2206
    -7.2177  -7.2152  -7.2128  -7.2103  -7.2071  -7.2059  -7.1969  -7.1870
    -7.1792  -7.1715  -7.1691  -7.1528  -7.1513  -7.1352  -7.1348  -7.1128
    -7.0584  -7.0217  -7.0152  -7.0083  -6.9989  -6.8994  -6.8948  -6.8696
    -6.8071  -6.7949  -6.7686  -6.7675  -6.7647  -6.7162  -6.7081  -6.7008
    -6.7006  -6.6666  -6.6545  -6.6318  -6.6274  -6.6160  -6.6075  -6.5901
    -6.5612  -6.5551  -6.5398  -6.5374  -6.5353  -6.5257  -6.5231  -6.5211
    -6.5015  -6.4859  -6.4830  -6.4653  -6.4573  -6.4518  -6.4461  -6.4383
    -6.4353  -6.4344  -6.4292  -6.4278  -6.4263  -6.4249  -6.4243  -6.4196
    -6.4194  -6.4192  -6.4188  -6.4174  -6.4174  -6.4079  -6.3917  -6.3817
    -6.3658  -6.3609  -6.3397  -6.3318  -6.3309  -6.3213  -6.2805  -6.2769
    -6.2666  -6.2579  -6.2537  -6.2534  -6.2485  -6.2480  -6.2441  -6.2301
    -6.2152  -6.2149  -6.2093  -6.2076  -6.2053  -6.1986  -6.1780  -6.1767
    -6.1741  -6.1734  -6.1728  -6.1713  -6.1462  -6.1304  -6.0986  -5.8969
    -5.8205  -5.6480  -5.6186  -5.6094  -5.5314  -5.3106  -5.2732  -5.2480
    -5.1085  -5.0734  -4.0250  -3.8238  -3.7735  -3.7693  -3.7663  -3.7656
    -3.7517  -3.7487  -3.7440  -3.7418  -3.7389  -3.7361  -3.7212  -3.6737
    -3.6216  -3.6136  -3.6113  -3.6042  -3.6004  -3.5982  -3.5963  -3.5906
    -3.5868  -3.5819  -3.5003  -3.4533  -3.4385  -3.4330  -3.4172  -3.4157
    -3.4100  -3.3984  -3.3972  -3.3972  -3.3914  -3.3897  -3.3894  -3.3884
    -3.3799  -3.3762  -3.3719  -3.3688  -3.3652  -3.3638  -3.3636  -3.3556
    -3.3524  -3.3498  -3.3451  -3.3427  -3.3399  -3.3392  -3.3353  -3.3332
    -3.3273  -3.3255  -3.3243  -3.3210  -3.3181  -3.3086  -3.2871  -3.2734
    -3.2706  -3.2683  -3.2672  -3.2662  -3.2626  -3.2593  -3.2541  -3.2540
    -3.2436  -3.2316  -3.2177  -3.2080  -3.2074  -3.2033  -3.2028  -3.1960
    -3.1842  -3.1581  -3.1434  -3.1344  -3.1271  -3.1218  -3.0362  -2.9890
    -2.9823  -2.9793  -2.9774  -2.9753  -2.9709  -2.9688  -2.9617  -2.9607
    -2.9288  -2.9093  -2.8991  -2.8982  -2.8952  -2.8947  -2.8941  -2.8897
    -2.8884  -2.8838  -2.8836  -2.8824  -2.8819  -2.8767  -2.8736  -2.8733
    -2.8684  -2.8639  -2.8599  -2.8559  -2.8555  -2.8538  -2.8525  -2.8524
    -2.8509  -2.8490  -2.8480  -2.8403  -2.8348  -2.8039  -2.8019  -2.7911
    -2.7781  -2.7766  -2.7665  -2.7547  -2.7369  -2.7286  -2.7286  -2.7286
    -2.7286  -2.7285  -2.7285  -2.7274  -2.7257  -2.7254  -2.7114  -2.7088
    -2.7043  -2.6747  -2.6677  -2.6621  -2.6595  -2.6560  -2.6473  -2.6395
    -2.5937  -2.5926  -2.5764  -2.5600  -2.5588  -2.5495  -2.5471  -2.5401
    -2.5379  -2.5349  -2.5300  -2.4868  -2.4831  -2.4690  -2.4670  -2.4661
    -2.4225  -2.3409  -2.3370  -2.3303

          k = 0.0000-0.5773 0.0000 (386352 PWs)   bands (ev):

   -88.4978 -87.1688 -66.5453 -66.5410 -66.5404 -66.5402 -66.5402 -66.5402
   -66.5389 -66.5389 -66.5320 -66.5311 -66.5297 -66.5296 -66.5295 -66.5295
   -66.5283 -66.5283 -66.5259 -66.5206 -66.5166 -66.5146 -66.5146 -66.5146
   -66.5144 -66.5144 -66.5144 -66.5144 -66.5144 -66.5141 -66.5132 -66.5132
   -66.5132 -66.5132 -66.5104 -66.5102 -66.5100 -66.5100 -66.5100 -66.5087
   -66.5087 -66.5087 -66.5040 -66.5040 -66.5038 -66.5037 -66.5037 -66.5037
   -66.5037 -66.5036 -66.5025 -66.5025 -66.5024 -66.5024 -66.4994 -66.4993
   -66.4993 -66.4993 -66.4980 -66.4980 -66.4899 -66.4889 -66.4836 -66.4797
   -66.4614 -66.4520 -54.3822 -54.2498 -54.2449 -53.1871 -52.9191 -52.8338
   -40.8455 -40.8423 -40.8422 -40.8422 -40.8422 -40.8421 -40.8421 -40.8421
   -40.8420 -40.8416 -40.8416 -40.8416 -40.8415 -40.8373 -40.8338 -40.8256
   -40.8154 -40.8154 -40.8153 -40.8153 -40.8147 -40.8147 -40.8144 -40.8104
   -40.8033 -40.8033 -40.8033 -40.8032 -40.8027 -40.8027 -40.7947 -40.7912
   -40.7526 -40.7526 -40.7526 -40.7526 -40.7526 -40.7526 -40.7526 -40.7525
   -40.7519 -40.7519 -40.7519 -40.7519 -40.7487 -40.7463 -40.7433 -40.7412
   -40.7148 -40.6965 -40.6940 -40.6939 -40.6938 -40.6938 -40.6932 -40.6932
   -40.6863 -40.6844 -40.6843 -40.6843 -40.6843 -40.6835 -40.6835 -40.6813
   -40.6732 -40.6730 -40.6730 -40.6730 -40.6724 -40.6724 -40.6721 -40.6699
   -40.6624 -40.6469 -40.6454 -40.6437 -40.6436 -40.6434 -40.6434 -40.6434
   -40.6434 -40.6433 -40.6433 -40.6427 -40.6427 -40.6427 -40.6427 -40.6386
   -40.6373 -40.6349 -40.6347 -40.6346 -40.6346 -40.6346 -40.6340 -40.6339
   -40.6270 -40.6255 -40.6229 -40.6229 -40.6228 -40.6228 -40.6226 -40.6225
   -40.6225 -40.6224 -40.6223 -40.6223 -40.6223 -40.6223 -40.6220 -40.6220
   -40.6217 -40.6216 -40.6216 -40.6216 -40.6198 -40.6185 -40.6139 -40.6137
   -40.6136 -40.6136 -40.6129 -40.6129 -40.6123 -40.6089 -40.6066 -40.5979
   -40.5926 -40.5922 -40.5921 -40.5920 -40.5919 -40.5919 -40.5919 -40.5917
   -40.5916 -40.5911 -40.5910 -40.5910 -40.5910 -40.5862 -40.5832 -40.5757
   -40.5572 -40.5572 -40.5572 -40.5572 -40.5572 -40.5572 -40.5571 -40.5571
   -40.5563 -40.5563 -40.5563 -40.5563 -40.5534 -40.5516 -40.5466 -40.5451
   -40.5450 -40.5450 -40.5450 -40.5441 -40.5441 -40.5391 -40.5383 -40.5259
   -40.5257 -40.5257 -40.5257 -40.5254 -40.5248 -40.5248 -40.5206 -40.5178
   -40.5088 -40.5087 -40.5087 -40.5086 -40.5078 -40.5078 -40.4931 -40.4895
   -40.4782 -40.4781 -40.4780 -40.4779 -40.4771 -40.4771 -40.4734 -40.4581
   -19.8334 -19.8022 -19.7740 -19.7379 -19.6748 -19.6502 -19.5738 -19.5658
   -19.3778 -19.3680 -19.3301 -19.3129 -19.2410 -19.2288 -19.1463 -19.1425
   -18.7492 -18.7230 -18.6812 -18.6696 -18.6624 -18.6524 -18.6366 -18.6358
   -18.6306 -18.6175 -18.6061 -18.5746 -18.5616 -18.5549 -18.5451 -18.5368
   -18.4949 -18.4923 -18.4761 -18.4720 -18.4649 -18.4640 -18.4539 -18.4316
   -18.4056 -18.3982 -18.3935 -18.3828 -18.3712 -18.3566 -18.3306 -18.3280
   -18.3146 -18.2994 -18.2760 -18.2639 -18.2457 -18.2370 -18.2187 -18.1793
   -18.1705 -18.1624 -18.1470 -18.1418 -18.1140 -18.0989 -18.0842 -18.0698
   -18.0478 -18.0390 -18.0334 -18.0249 -18.0217 -18.0207 -18.0174 -18.0160
   -17.9966 -17.9951 -17.9926 -17.9909 -17.9894 -17.9858 -17.9711 -17.9678
   -17.9657 -17.9557 -17.9533 -17.9516 -17.9324 -17.9278 -17.9232 -17.9228
   -17.9181 -17.9173 -17.9126 -17.9079 -17.9040 -17.8959 -17.8737 -17.8582
   -17.8567 -17.8537 -17.8396 -17.8341 -17.8167 -17.8097 -17.7936 -17.7904
   -17.7711 -17.7684 -17.7618 -17.7567 -17.7508 -17.7428 -17.7413 -17.7401
   -17.7386 -17.7376 -17.7348 -17.7341 -17.7229 -17.7205 -17.7024 -17.6996
   -17.6808 -17.6793 -17.6632 -17.6615 -17.6486 -17.6477 -17.6406 -17.6405
   -11.6615 -11.6317 -11.5610 -11.5005 -11.4583 -11.4341 -11.4319 -11.4220
   -11.4125 -11.4032 -11.4022 -11.3908 -11.3676 -11.3527 -11.3522 -11.3175
   -11.3001 -11.2968 -11.2666 -11.2595 -11.2452 -11.2403 -11.2343 -11.2266
   -11.2016 -11.1929 -11.1904 -11.1850 -11.1787 -11.1774 -11.1710 -11.1647
   -11.1403 -11.1233 -11.1203 -11.1115 -11.1107 -11.0958 -11.0882 -11.0835
   -11.0826 -11.0672 -11.0651 -11.0646 -11.0458 -11.0247 -10.9932 -10.9797
   -10.9788 -10.9714 -10.8982 -10.8782 -10.8629 -10.8495 -10.8436 -10.8376
   -10.8216 -10.8065 -10.8038 -10.7922 -10.7738 -10.7667 -10.7594 -10.7508
   -10.7475 -10.7441 -10.7322 -10.7310 -10.7301 -10.7295 -10.7277 -10.7192
   -10.7164 -10.7152 -10.7137 -10.7109 -10.7075 -10.7053 -10.7006 -10.6989
   -10.6983 -10.6773 -10.6637 -10.6634 -10.6631 -10.6603 -10.4771 -10.4608
   -10.4529 -10.4507 -10.4294 -10.3929 -10.3509 -10.3186 -10.2871 -10.2269
   -10.1671 -10.1212 -10.0886 -10.0635 -10.0594 -10.0550 -10.0480 -10.0206
   -10.0127 -10.0084  -9.9993  -9.9728  -9.9694  -9.9514  -9.9449  -9.9404
    -9.9350  -9.9344  -9.9158  -9.9140  -9.8863  -9.8518  -9.8507  -9.8432
    -9.8385  -9.8229  -9.8161  -9.8138  -9.8103  -9.7836  -9.7632  -9.7585
    -9.7390  -9.7221  -9.7133  -9.7101  -9.6921  -9.6849  -9.6827  -9.6635
    -9.6408  -9.6326  -9.6155  -9.6075  -9.5947  -9.5893  -9.5677  -9.5600
    -9.5393  -9.5304  -9.5278  -9.5005  -9.4835  -9.4775  -9.4645  -9.4625
    -9.4574  -9.4562  -9.4370  -9.4275  -9.4083  -9.4068  -9.3959  -9.3909
    -9.3884  -9.3838  -9.3760  -9.3754  -9.3593  -9.3488  -9.3476  -9.3410
    -9.2821  -9.2764  -9.2132  -9.1756  -9.1726  -9.1639  -9.1350  -9.1277
    -9.1266  -9.1201  -9.1008  -9.0945  -9.0844  -9.0776  -9.0524  -9.0453
    -9.0298  -9.0192  -9.0075  -9.0016  -8.9854  -8.9706  -8.9640  -8.9604
    -8.9494  -8.9397  -8.9387  -8.9347  -8.8909  -8.8856  -8.8817  -8.8699
    -8.8687  -8.8603  -8.8559  -8.8482  -8.8304  -8.8140  -8.8098  -8.8091
    -8.8074  -8.8027  -8.7992  -8.7951  -8.7909  -8.7901  -8.7867  -8.7859
    -8.7751  -8.7745  -8.7663  -8.7609  -8.7601  -8.7577  -8.7539  -8.7464
    -8.7349  -8.7186  -8.7134  -8.7079  -8.7061  -8.7051  -8.7040  -8.6963
    -8.6829  -8.6750  -8.6537  -8.6516  -8.6465  -8.6429  -8.6207  -8.6173
    -8.5770  -8.5691  -8.5551  -8.5068  -8.4770  -8.4599  -8.4221  -8.4187
    -8.3608  -8.3534  -8.2825  -8.2733  -8.2687  -8.2209  -8.1916  -8.1545
    -8.1264  -8.0611  -8.0485  -8.0480  -8.0399  -8.0381  -8.0289  -8.0274
    -8.0190  -7.9925  -7.9805  -7.9278  -7.8964  -7.8882  -7.8650  -7.8168
    -7.8024  -7.7716  -7.7631  -7.7586  -7.7515  -7.7494  -7.7425  -7.7327
    -7.7297  -7.7258  -7.7244  -7.7209  -7.7167  -7.7141  -7.7107  -7.7075
    -7.7035  -7.7033  -7.7010  -7.6974  -7.6922  -7.6900  -7.6876  -7.6862
    -7.6845  -7.6836  -7.6828  -7.6789  -7.6784  -7.6703  -7.6576  -7.6529
    -7.6510  -7.6460  -7.6421  -7.6339  -7.6282  -7.6199  -7.6162  -7.6162
    -7.6159  -7.6055  -7.5877  -7.5870  -7.5848  -7.5841  -7.5759  -7.5685
    -7.5563  -7.5379  -7.5353  -7.5281  -7.5262  -7.5225  -7.5176  -7.5140
    -7.5116  -7.5048  -7.5034  -7.5011  -7.4847  -7.4837  -7.4804  -7.4700
    -7.4612  -7.4541  -7.4127  -7.3852  -7.3810  -7.3767  -7.3697  -7.3568
    -7.3134  -7.2140  -7.1974  -7.1431  -7.0926  -7.0907  -7.0881  -7.0865
    -7.0499  -7.0445  -7.0408  -7.0305  -7.0241  -7.0208  -7.0002  -6.9761
    -6.9657  -6.9494  -6.9440  -6.9414  -6.9388  -6.9098  -6.8979  -6.8932
    -6.8776  -6.8462  -6.8333  -6.8297  -6.8178  -6.8139  -6.7878  -6.7843
    -6.7813  -6.7797  -6.7700  -6.7453  -6.7222  -6.6982  -6.6701  -6.6668
    -6.6597  -6.6107  -6.5985  -6.5943  -6.5744  -6.5672  -6.5429  -6.5419
    -6.5325  -6.5272  -6.5258  -6.5247  -6.5192  -6.5103  -6.5084  -6.5076
    -6.5060  -6.5016  -6.4999  -6.4998  -6.4995  -6.4980  -6.4521  -6.4189
    -6.3950  -6.3868  -6.3467  -6.3271  -6.3066  -6.2655  -6.2469  -6.2411
    -6.2389  -6.2265  -6.2236  -6.2135  -6.2034  -6.1973  -6.1961  -6.1934
    -6.1926  -6.1813  -6.1729  -6.1659  -6.1615  -6.1552  -6.1305  -6.1263
    -6.1230  -6.1213  -6.1186  -6.0947  -6.0137  -5.9264  -5.9095  -5.8902
    -5.8737  -5.8479  -5.8290  -5.7835  -5.7772  -5.7673  -5.7414  -5.6947
    -5.6431  -5.6126  -5.5952  -5.5672  -5.5294  -5.5067  -5.4691  -5.3098
    -5.2563  -5.1014  -4.0754  -4.0146  -4.0065  -4.0038  -3.9585  -3.8740
    -3.8474  -3.8410  -3.8288  -3.8269  -3.7715  -3.7625  -3.7612  -3.7519
    -3.7460  -3.7340  -3.7308  -3.7200  -3.7188  -3.7151  -3.6671  -3.6146
    -3.6082  -3.5990  -3.5516  -3.5357  -3.5221  -3.5189  -3.5182  -3.5148
    -3.4786  -3.4714  -3.4696  -3.4538  -3.4470  -3.4430  -3.4358  -3.4343
    -3.4313  -3.4065  -3.4015  -3.4003  -3.3953  -3.3938  -3.3907  -3.3890
    -3.3737  -3.3693  -3.3659  -3.3636  -3.3486  -3.3410  -3.3363  -3.3291
    -3.3151  -3.2799  -3.2720  -3.2700  -3.2680  -3.2673  -3.2636  -3.2606
    -3.2547  -3.2372  -3.2254  -3.2155  -3.2113  -3.2028  -3.2010  -3.2006
    -3.1966  -3.1954  -3.1899  -3.1722  -3.1682  -3.1638  -3.1596  -3.1551
    -3.1481  -3.1444  -3.1335  -3.1318  -3.1282  -3.1207  -3.1121  -3.1032
    -3.0976  -3.0946  -3.0910  -3.0879  -3.0813  -3.0813  -3.0802  -3.0706
    -3.0354  -3.0138  -3.0005  -2.9935  -2.9864  -2.9849  -2.9819  -2.9793
    -2.9555  -2.9468  -2.9446  -2.9420  -2.9403  -2.9394  -2.9375  -2.9352
    -2.9286  -2.9233  -2.9207  -2.9195  -2.9134  -2.9126  -2.9028  -2.8953
    -2.8948  -2.8906  -2.8876  -2.8842  -2.8784  -2.8754  -2.8735  -2.8677
    -2.8659  -2.8574  -2.8522  -2.8503  -2.8461  -2.8402  -2.8229  -2.8142
    -2.8089  -2.8054  -2.7985  -2.7938  -2.7768  -2.7710  -2.7263  -2.7139
    -2.7105  -2.7087  -2.6945  -2.6436  -2.6339  -2.6276  -2.5844  -2.5297
    -2.5287  -2.5041  -2.4958  -2.4862  -2.4792  -2.4647  -2.4571  -2.4507
    -2.4476  -2.4461  -2.4421  -2.4397  -2.4209  -2.3359  -2.3196  -2.3170
    -2.3155  -2.3077  -2.2985  -2.2941

          k =-0.5000-0.2887 0.0000 (386352 PWs)   bands (ev):

   -88.4978 -87.1688 -66.5453 -66.5410 -66.5404 -66.5402 -66.5402 -66.5402
   -66.5389 -66.5389 -66.5320 -66.5311 -66.5297 -66.5296 -66.5295 -66.5295
   -66.5283 -66.5283 -66.5259 -66.5206 -66.5166 -66.5146 -66.5146 -66.5145
   -66.5145 -66.5144 -66.5144 -66.5144 -66.5144 -66.5141 -66.5132 -66.5132
   -66.5132 -66.5132 -66.5104 -66.5102 -66.5100 -66.5100 -66.5100 -66.5087
   -66.5087 -66.5087 -66.5040 -66.5040 -66.5038 -66.5037 -66.5037 -66.5037
   -66.5037 -66.5036 -66.5025 -66.5025 -66.5024 -66.5024 -66.4994 -66.4993
   -66.4993 -66.4993 -66.4980 -66.4980 -66.4899 -66.4889 -66.4836 -66.4797
   -66.4614 -66.4520 -54.3822 -54.2498 -54.2449 -53.1871 -52.9191 -52.8338
   -40.8455 -40.8423 -40.8422 -40.8422 -40.8422 -40.8422 -40.8422 -40.8421
   -40.8420 -40.8416 -40.8416 -40.8416 -40.8415 -40.8373 -40.8338 -40.8256
   -40.8154 -40.8154 -40.8153 -40.8153 -40.8147 -40.8147 -40.8144 -40.8104
   -40.8033 -40.8033 -40.8033 -40.8032 -40.8027 -40.8027 -40.7947 -40.7912
   -40.7526 -40.7526 -40.7526 -40.7526 -40.7526 -40.7526 -40.7526 -40.7525
   -40.7519 -40.7519 -40.7519 -40.7519 -40.7487 -40.7463 -40.7433 -40.7412
   -40.7148 -40.6965 -40.6940 -40.6939 -40.6938 -40.6938 -40.6932 -40.6932
   -40.6863 -40.6844 -40.6843 -40.6843 -40.6843 -40.6835 -40.6835 -40.6813
   -40.6732 -40.6730 -40.6730 -40.6730 -40.6724 -40.6724 -40.6721 -40.6699
   -40.6624 -40.6469 -40.6455 -40.6437 -40.6436 -40.6434 -40.6434 -40.6434
   -40.6434 -40.6433 -40.6433 -40.6427 -40.6427 -40.6427 -40.6427 -40.6386
   -40.6373 -40.6349 -40.6347 -40.6346 -40.6346 -40.6346 -40.6340 -40.6339
   -40.6270 -40.6255 -40.6229 -40.6229 -40.6228 -40.6228 -40.6226 -40.6225
   -40.6225 -40.6224 -40.6223 -40.6223 -40.6223 -40.6223 -40.6220 -40.6220
   -40.6217 -40.6216 -40.6216 -40.6216 -40.6198 -40.6185 -40.6139 -40.6137
   -40.6136 -40.6136 -40.6129 -40.6129 -40.6123 -40.6089 -40.6066 -40.5979
   -40.5926 -40.5922 -40.5921 -40.5920 -40.5919 -40.5919 -40.5919 -40.5917
   -40.5916 -40.5911 -40.5910 -40.5910 -40.5910 -40.5862 -40.5832 -40.5757
   -40.5572 -40.5572 -40.5572 -40.5572 -40.5572 -40.5572 -40.5571 -40.5571
   -40.5563 -40.5563 -40.5563 -40.5563 -40.5534 -40.5516 -40.5466 -40.5451
   -40.5450 -40.5450 -40.5450 -40.5441 -40.5441 -40.5391 -40.5383 -40.5259
   -40.5257 -40.5257 -40.5257 -40.5255 -40.5248 -40.5248 -40.5206 -40.5178
   -40.5088 -40.5087 -40.5087 -40.5086 -40.5078 -40.5078 -40.4931 -40.4895
   -40.4782 -40.4781 -40.4780 -40.4779 -40.4771 -40.4771 -40.4734 -40.4581
   -19.8335 -19.8022 -19.7740 -19.7379 -19.6749 -19.6502 -19.5738 -19.5658
   -19.3778 -19.3679 -19.3301 -19.3129 -19.2410 -19.2288 -19.1464 -19.1425
   -18.7492 -18.7230 -18.6812 -18.6695 -18.6624 -18.6524 -18.6366 -18.6358
   -18.6306 -18.6175 -18.6061 -18.5745 -18.5616 -18.5549 -18.5451 -18.5368
   -18.4949 -18.4924 -18.4761 -18.4720 -18.4649 -18.4640 -18.4539 -18.4316
   -18.4056 -18.3982 -18.3935 -18.3828 -18.3712 -18.3566 -18.3306 -18.3280
   -18.3146 -18.2994 -18.2760 -18.2639 -18.2457 -18.2370 -18.2187 -18.1793
   -18.1705 -18.1624 -18.1470 -18.1417 -18.1140 -18.0989 -18.0842 -18.0698
   -18.0478 -18.0390 -18.0334 -18.0249 -18.0217 -18.0207 -18.0174 -18.0160
   -17.9966 -17.9951 -17.9926 -17.9909 -17.9894 -17.9858 -17.9711 -17.9678
   -17.9657 -17.9557 -17.9533 -17.9516 -17.9324 -17.9278 -17.9232 -17.9228
   -17.9181 -17.9173 -17.9126 -17.9079 -17.9040 -17.8959 -17.8737 -17.8582
   -17.8567 -17.8537 -17.8397 -17.8341 -17.8167 -17.8097 -17.7936 -17.7903
   -17.7712 -17.7684 -17.7618 -17.7566 -17.7508 -17.7428 -17.7414 -17.7401
   -17.7386 -17.7376 -17.7348 -17.7341 -17.7229 -17.7205 -17.7024 -17.6996
   -17.6808 -17.6793 -17.6632 -17.6616 -17.6485 -17.6478 -17.6406 -17.6405
   -11.6615 -11.6316 -11.5611 -11.5005 -11.4583 -11.4341 -11.4319 -11.4220
   -11.4125 -11.4032 -11.4022 -11.3908 -11.3676 -11.3527 -11.3522 -11.3175
   -11.3001 -11.2968 -11.2666 -11.2595 -11.2452 -11.2403 -11.2343 -11.2266
   -11.2016 -11.1929 -11.1904 -11.1850 -11.1786 -11.1774 -11.1710 -11.1647
   -11.1404 -11.1233 -11.1204 -11.1115 -11.1107 -11.0958 -11.0882 -11.0835
   -11.0826 -11.0672 -11.0651 -11.0646 -11.0458 -11.0247 -10.9932 -10.9797
   -10.9788 -10.9714 -10.8982 -10.8783 -10.8629 -10.8495 -10.8436 -10.8376
   -10.8216 -10.8065 -10.8038 -10.7922 -10.7738 -10.7666 -10.7594 -10.7508
   -10.7475 -10.7441 -10.7322 -10.7309 -10.7301 -10.7295 -10.7277 -10.7192
   -10.7164 -10.7152 -10.7138 -10.7109 -10.7075 -10.7053 -10.7006 -10.6989
   -10.6982 -10.6773 -10.6637 -10.6634 -10.6631 -10.6603 -10.4771 -10.4608
   -10.4529 -10.4507 -10.4294 -10.3929 -10.3509 -10.3186 -10.2871 -10.2269
   -10.1671 -10.1212 -10.0887 -10.0636 -10.0593 -10.0550 -10.0481 -10.0206
   -10.0127 -10.0083  -9.9993  -9.9728  -9.9694  -9.9514  -9.9449  -9.9404
    -9.9350  -9.9344  -9.9158  -9.9140  -9.8864  -9.8518  -9.8507  -9.8432
    -9.8385  -9.8229  -9.8161  -9.8138  -9.8103  -9.7836  -9.7632  -9.7585
    -9.7390  -9.7221  -9.7133  -9.7101  -9.6921  -9.6849  -9.6827  -9.6635
    -9.6408  -9.6326  -9.6155  -9.6075  -9.5947  -9.5893  -9.5677  -9.5600
    -9.5393  -9.5304  -9.5278  -9.5005  -9.4835  -9.4775  -9.4645  -9.4625
    -9.4574  -9.4563  -9.4370  -9.4275  -9.4083  -9.4069  -9.3959  -9.3909
    -9.3884  -9.3838  -9.3759  -9.3755  -9.3594  -9.3488  -9.3476  -9.3410
    -9.2820  -9.2765  -9.2132  -9.1756  -9.1726  -9.1639  -9.1350  -9.1277
    -9.1266  -9.1201  -9.1007  -9.0945  -9.0845  -9.0775  -9.0524  -9.0453
    -9.0298  -9.0193  -9.0074  -9.0016  -8.9854  -8.9706  -8.9640  -8.9604
    -8.9493  -8.9397  -8.9387  -8.9347  -8.8909  -8.8856  -8.8818  -8.8699
    -8.8687  -8.8603  -8.8559  -8.8482  -8.8304  -8.8140  -8.8097  -8.8091
    -8.8074  -8.8027  -8.7993  -8.7951  -8.7909  -8.7901  -8.7867  -8.7859
    -8.7750  -8.7744  -8.7663  -8.7609  -8.7601  -8.7577  -8.7539  -8.7464
    -8.7349  -8.7186  -8.7134  -8.7079  -8.7061  -8.7051  -8.7040  -8.6964
    -8.6829  -8.6749  -8.6537  -8.6516  -8.6465  -8.6429  -8.6208  -8.6173
    -8.5769  -8.5691  -8.5551  -8.5068  -8.4770  -8.4599  -8.4221  -8.4187
    -8.3608  -8.3534  -8.2825  -8.2733  -8.2687  -8.2209  -8.1916  -8.1546
    -8.1264  -8.0611  -8.0485  -8.0480  -8.0399  -8.0381  -8.0289  -8.0274
    -8.0190  -7.9925  -7.9805  -7.9278  -7.8963  -7.8882  -7.8650  -7.8168
    -7.8024  -7.7716  -7.7631  -7.7586  -7.7516  -7.7494  -7.7425  -7.7327
    -7.7296  -7.7258  -7.7244  -7.7209  -7.7168  -7.7141  -7.7108  -7.7075
    -7.7035  -7.7033  -7.7010  -7.6973  -7.6922  -7.6901  -7.6875  -7.6862
    -7.6845  -7.6836  -7.6829  -7.6789  -7.6784  -7.6703  -7.6576  -7.6529
    -7.6510  -7.6461  -7.6421  -7.6339  -7.6282  -7.6199  -7.6162  -7.6162
    -7.6159  -7.6055  -7.5877  -7.5870  -7.5848  -7.5841  -7.5758  -7.5685
    -7.5563  -7.5379  -7.5353  -7.5281  -7.5262  -7.5225  -7.5176  -7.5141
    -7.5115  -7.5048  -7.5034  -7.5011  -7.4847  -7.4838  -7.4804  -7.4700
    -7.4612  -7.4541  -7.4127  -7.3853  -7.3809  -7.3767  -7.3697  -7.3568
    -7.3133  -7.2140  -7.1975  -7.1431  -7.0925  -7.0907  -7.0881  -7.0866
    -7.0499  -7.0444  -7.0409  -7.0305  -7.0241  -7.0208  -7.0002  -6.9761
    -6.9657  -6.9494  -6.9440  -6.9414  -6.9388  -6.9098  -6.8978  -6.8932
    -6.8777  -6.8462  -6.8333  -6.8297  -6.8178  -6.8139  -6.7878  -6.7843
    -6.7814  -6.7797  -6.7700  -6.7453  -6.7222  -6.6982  -6.6701  -6.6668
    -6.6597  -6.6108  -6.5985  -6.5943  -6.5744  -6.5672  -6.5429  -6.5419
    -6.5325  -6.5272  -6.5258  -6.5247  -6.5192  -6.5103  -6.5083  -6.5077
    -6.5060  -6.5016  -6.4999  -6.4997  -6.4995  -6.4980  -6.4521  -6.4189
    -6.3949  -6.3868  -6.3467  -6.3271  -6.3065  -6.2656  -6.2467  -6.2411
    -6.2389  -6.2265  -6.2237  -6.2135  -6.2033  -6.1973  -6.1961  -6.1934
    -6.1926  -6.1814  -6.1729  -6.1660  -6.1614  -6.1552  -6.1306  -6.1262
    -6.1231  -6.1212  -6.1185  -6.0947  -6.0137  -5.9263  -5.9096  -5.8902
    -5.8737  -5.8480  -5.8290  -5.7835  -5.7772  -5.7673  -5.7414  -5.6947
    -5.6431  -5.6127  -5.5952  -5.5672  -5.5294  -5.5067  -5.4691  -5.3098
    -5.2563  -5.1014  -4.0755  -4.0146  -4.0065  -4.0038  -3.9584  -3.8740
    -3.8474  -3.8410  -3.8288  -3.8269  -3.7715  -3.7625  -3.7612  -3.7519
    -3.7460  -3.7340  -3.7308  -3.7200  -3.7188  -3.7152  -3.6671  -3.6146
    -3.6082  -3.5991  -3.5516  -3.5356  -3.5221  -3.5188  -3.5182  -3.5148
    -3.4787  -3.4714  -3.4696  -3.4538  -3.4471  -3.4430  -3.4358  -3.4343
    -3.4313  -3.4065  -3.4015  -3.4004  -3.3953  -3.3937  -3.3908  -3.3890
    -3.3736  -3.3693  -3.3659  -3.3637  -3.3486  -3.3409  -3.3363  -3.3291
    -3.3151  -3.2799  -3.2720  -3.2700  -3.2680  -3.2673  -3.2636  -3.2606
    -3.2547  -3.2372  -3.2254  -3.2155  -3.2113  -3.2028  -3.2010  -3.2006
    -3.1965  -3.1954  -3.1899  -3.1722  -3.1682  -3.1638  -3.1596  -3.1551
    -3.1481  -3.1445  -3.1335  -3.1318  -3.1282  -3.1207  -3.1121  -3.1032
    -3.0976  -3.0946  -3.0910  -3.0879  -3.0813  -3.0813  -3.0802  -3.0706
    -3.0354  -3.0138  -3.0005  -2.9935  -2.9864  -2.9849  -2.9819  -2.9793
    -2.9555  -2.9468  -2.9446  -2.9420  -2.9403  -2.9394  -2.9374  -2.9352
    -2.9286  -2.9233  -2.9206  -2.9195  -2.9135  -2.9126  -2.9027  -2.8953
    -2.8948  -2.8906  -2.8876  -2.8842  -2.8783  -2.8754  -2.8735  -2.8677
    -2.8658  -2.8574  -2.8522  -2.8502  -2.8461  -2.8402  -2.8229  -2.8142
    -2.8088  -2.8054  -2.7984  -2.7938  -2.7768  -2.7710  -2.7263  -2.7140
    -2.7105  -2.7087  -2.6945  -2.6436  -2.6339  -2.6276  -2.5844  -2.5297
    -2.5288  -2.5041  -2.4958  -2.4862  -2.4792  -2.4648  -2.4571  -2.4507
    -2.4476  -2.4461  -2.4421  -2.4395  -2.4210  -2.3349  -2.3194  -2.3164
    -2.3154  -2.3070  -2.2980  -2.2925

          k =-0.5000-0.8660 0.0000 (386352 PWs)   bands (ev):

   -88.4978 -87.1688 -66.5450 -66.5413 -66.5405 -66.5402 -66.5401 -66.5401
   -66.5390 -66.5389 -66.5338 -66.5304 -66.5297 -66.5296 -66.5295 -66.5295
   -66.5283 -66.5283 -66.5219 -66.5214 -66.5184 -66.5152 -66.5148 -66.5148
   -66.5144 -66.5144 -66.5144 -66.5144 -66.5143 -66.5143 -66.5132 -66.5132
   -66.5132 -66.5132 -66.5112 -66.5103 -66.5100 -66.5100 -66.5099 -66.5087
   -66.5087 -66.5071 -66.5045 -66.5038 -66.5038 -66.5038 -66.5037 -66.5037
   -66.5036 -66.5034 -66.5025 -66.5025 -66.5024 -66.5024 -66.4994 -66.4994
   -66.4993 -66.4993 -66.4980 -66.4980 -66.4899 -66.4889 -66.4833 -66.4799
   -66.4614 -66.4520 -54.3822 -54.2498 -54.2449 -53.1871 -52.9191 -52.8338
   -40.8426 -40.8422 -40.8422 -40.8422 -40.8421 -40.8421 -40.8419 -40.8419
   -40.8416 -40.8416 -40.8416 -40.8416 -40.8415 -40.8385 -40.8354 -40.8295
   -40.8155 -40.8154 -40.8153 -40.8152 -40.8147 -40.8147 -40.8124 -40.8109
   -40.8033 -40.8033 -40.8033 -40.8033 -40.8027 -40.8027 -40.7970 -40.7876
   -40.7526 -40.7526 -40.7526 -40.7526 -40.7526 -40.7526 -40.7526 -40.7526
   -40.7519 -40.7519 -40.7519 -40.7519 -40.7489 -40.7457 -40.7425 -40.7408
   -40.7153 -40.6950 -40.6941 -40.6939 -40.6938 -40.6938 -40.6932 -40.6932
   -40.6867 -40.6844 -40.6843 -40.6843 -40.6843 -40.6835 -40.6835 -40.6792
   -40.6761 -40.6753 -40.6731 -40.6731 -40.6730 -40.6730 -40.6724 -40.6724
   -40.6529 -40.6495 -40.6468 -40.6458 -40.6437 -40.6437 -40.6434 -40.6434
   -40.6434 -40.6434 -40.6433 -40.6433 -40.6427 -40.6427 -40.6427 -40.6427
   -40.6349 -40.6347 -40.6346 -40.6346 -40.6340 -40.6340 -40.6339 -40.6294
   -40.6267 -40.6261 -40.6230 -40.6229 -40.6229 -40.6228 -40.6228 -40.6224
   -40.6224 -40.6224 -40.6223 -40.6223 -40.6222 -40.6221 -40.6220 -40.6220
   -40.6217 -40.6216 -40.6216 -40.6216 -40.6212 -40.6183 -40.6150 -40.6138
   -40.6138 -40.6136 -40.6136 -40.6129 -40.6129 -40.6111 -40.6051 -40.5928
   -40.5923 -40.5920 -40.5919 -40.5919 -40.5919 -40.5918 -40.5918 -40.5917
   -40.5911 -40.5910 -40.5910 -40.5910 -40.5889 -40.5859 -40.5848 -40.5802
   -40.5596 -40.5572 -40.5572 -40.5572 -40.5572 -40.5572 -40.5572 -40.5571
   -40.5571 -40.5563 -40.5563 -40.5563 -40.5563 -40.5502 -40.5452 -40.5451
   -40.5450 -40.5448 -40.5445 -40.5441 -40.5441 -40.5395 -40.5360 -40.5269
   -40.5259 -40.5257 -40.5257 -40.5255 -40.5248 -40.5248 -40.5218 -40.5123
   -40.5087 -40.5087 -40.5087 -40.5087 -40.5078 -40.5078 -40.4966 -40.4878
   -40.4782 -40.4781 -40.4780 -40.4778 -40.4771 -40.4771 -40.4706 -40.4613
   -19.8329 -19.8027 -19.7737 -19.7386 -19.6740 -19.6515 -19.5733 -19.5669
   -19.3731 -19.3700 -19.3236 -19.3186 -19.2364 -19.2341 -19.1447 -19.1445
   -18.7625 -18.7298 -18.6730 -18.6724 -18.6570 -18.6495 -18.6389 -18.6314
   -18.6235 -18.6191 -18.6023 -18.5756 -18.5584 -18.5521 -18.5412 -18.5337
   -18.5030 -18.4898 -18.4762 -18.4720 -18.4693 -18.4617 -18.4541 -18.4305
   -18.4161 -18.3988 -18.3902 -18.3885 -18.3721 -18.3592 -18.3314 -18.3262
   -18.3231 -18.3002 -18.2741 -18.2649 -18.2488 -18.2405 -18.1934 -18.1850
   -18.1718 -18.1561 -18.1534 -18.1394 -18.1107 -18.1028 -18.0990 -18.0568
   -18.0466 -18.0381 -18.0296 -18.0261 -18.0225 -18.0202 -18.0160 -18.0128
   -18.0065 -17.9956 -17.9897 -17.9897 -17.9846 -17.9755 -17.9736 -17.9682
   -17.9663 -17.9604 -17.9552 -17.9466 -17.9273 -17.9264 -17.9243 -17.9214
   -17.9200 -17.9176 -17.9157 -17.9087 -17.9049 -17.8952 -17.8685 -17.8625
   -17.8544 -17.8504 -17.8476 -17.8371 -17.8172 -17.8133 -17.8015 -17.7894
   -17.7713 -17.7711 -17.7639 -17.7532 -17.7488 -17.7434 -17.7414 -17.7413
   -17.7397 -17.7365 -17.7363 -17.7323 -17.7230 -17.7194 -17.7057 -17.6992
   -17.6823 -17.6786 -17.6624 -17.6590 -17.6472 -17.6451 -17.6404 -17.6399
   -11.6566 -11.6354 -11.5634 -11.4818 -11.4566 -11.4433 -11.4345 -11.4292
   -11.4109 -11.4011 -11.3955 -11.3934 -11.3722 -11.3621 -11.3445 -11.3229
   -11.2986 -11.2920 -11.2683 -11.2673 -11.2432 -11.2368 -11.2335 -11.2164
   -11.2062 -11.1927 -11.1866 -11.1829 -11.1813 -11.1767 -11.1670 -11.1581
   -11.1463 -11.1247 -11.1188 -11.1127 -11.1064 -11.0904 -11.0882 -11.0869
   -11.0822 -11.0694 -11.0648 -11.0627 -11.0357 -11.0286 -10.9972 -10.9900
   -10.9765 -10.9759 -10.8957 -10.8839 -10.8674 -10.8570 -10.8530 -10.8416
   -10.8272 -10.8138 -10.8111 -10.7840 -10.7703 -10.7650 -10.7562 -10.7543
   -10.7473 -10.7392 -10.7330 -10.7320 -10.7303 -10.7302 -10.7288 -10.7213
   -10.7181 -10.7153 -10.7126 -10.7117 -10.7077 -10.7062 -10.7005 -10.6999
   -10.6978 -10.6792 -10.6635 -10.6634 -10.6634 -10.6601 -10.4740 -10.4568
   -10.4529 -10.4503 -10.4261 -10.3948 -10.3465 -10.2958 -10.2551 -10.1960
   -10.1826 -10.1632 -10.0959 -10.0644 -10.0640 -10.0535 -10.0482 -10.0186
   -10.0142 -10.0082 -10.0006  -9.9689  -9.9619  -9.9601  -9.9450  -9.9422
    -9.9396  -9.9364  -9.9149  -9.9100  -9.8932  -9.8553  -9.8448  -9.8403
    -9.8353  -9.8219  -9.8182  -9.8163  -9.7969  -9.7865  -9.7810  -9.7550
    -9.7549  -9.7190  -9.7104  -9.6926  -9.6899  -9.6842  -9.6813  -9.6639
    -9.6444  -9.6410  -9.6144  -9.6029  -9.5972  -9.5750  -9.5698  -9.5635
    -9.5334  -9.5263  -9.5232  -9.5004  -9.4796  -9.4734  -9.4698  -9.4629
    -9.4628  -9.4580  -9.4376  -9.4267  -9.4073  -9.4062  -9.4020  -9.3901
    -9.3854  -9.3843  -9.3789  -9.3719  -9.3589  -9.3518  -9.3436  -9.3368
    -9.3046  -9.2660  -9.1912  -9.1911  -9.1738  -9.1567  -9.1449  -9.1289
    -9.1193  -9.1094  -9.1059  -9.0969  -9.0939  -9.0756  -9.0572  -9.0461
    -9.0359  -9.0114  -9.0026  -8.9896  -8.9877  -8.9688  -8.9684  -8.9568
    -8.9545  -8.9458  -8.9389  -8.9339  -8.8921  -8.8827  -8.8774  -8.8729
    -8.8692  -8.8621  -8.8590  -8.8467  -8.8294  -8.8117  -8.8096  -8.8095
    -8.8044  -8.8037  -8.8020  -8.7959  -8.7942  -8.7903  -8.7881  -8.7864
    -8.7768  -8.7709  -8.7620  -8.7605  -8.7604  -8.7580  -8.7542  -8.7455
    -8.7454  -8.7183  -8.7134  -8.7087  -8.7085  -8.7042  -8.7036  -8.6949
    -8.6825  -8.6720  -8.6535  -8.6511  -8.6460  -8.6446  -8.6336  -8.6123
    -8.5742  -8.5713  -8.5523  -8.5231  -8.4956  -8.4429  -8.4238  -8.4117
    -8.3637  -8.3451  -8.2799  -8.2703  -8.2372  -8.2241  -8.2228  -8.1827
    -8.1255  -8.0490  -8.0485  -8.0431  -8.0396  -8.0346  -8.0284  -8.0259
    -7.9997  -7.9898  -7.9889  -7.9136  -7.8913  -7.8855  -7.8575  -7.8347
    -7.8075  -7.7718  -7.7598  -7.7522  -7.7515  -7.7472  -7.7445  -7.7357
    -7.7333  -7.7273  -7.7224  -7.7178  -7.7147  -7.7130  -7.7087  -7.7072
    -7.7066  -7.7038  -7.7025  -7.7012  -7.7003  -7.6924  -7.6893  -7.6886
    -7.6860  -7.6840  -7.6828  -7.6803  -7.6788  -7.6782  -7.6581  -7.6550
    -7.6518  -7.6500  -7.6339  -7.6308  -7.6241  -7.6224  -7.6169  -7.6147
    -7.6141  -7.6092  -7.5884  -7.5877  -7.5868  -7.5851  -7.5717  -7.5716
    -7.5629  -7.5525  -7.5320  -7.5286  -7.5227  -7.5220  -7.5163  -7.5140
    -7.5114  -7.5051  -7.5001  -7.4974  -7.4849  -7.4828  -7.4825  -7.4754
    -7.4632  -7.4554  -7.3941  -7.3895  -7.3778  -7.3713  -7.3657  -7.3497
    -7.3169  -7.2770  -7.1505  -7.1014  -7.0951  -7.0901  -7.0885  -7.0724
    -7.0570  -7.0481  -7.0429  -7.0270  -7.0228  -7.0123  -6.9972  -6.9922
    -6.9627  -6.9474  -6.9451  -6.9402  -6.9378  -6.9132  -6.9073  -6.8949
    -6.8825  -6.8461  -6.8364  -6.8340  -6.8214  -6.8041  -6.7914  -6.7869
    -6.7800  -6.7796  -6.7742  -6.7479  -6.7364  -6.6893  -6.6727  -6.6713
    -6.6688  -6.6262  -6.5992  -6.5839  -6.5623  -6.5515  -6.5474  -6.5422
    -6.5307  -6.5261  -6.5255  -6.5240  -6.5230  -6.5088  -6.5086  -6.5075
    -6.5060  -6.4999  -6.4999  -6.4996  -6.4993  -6.4751  -6.4737  -6.4185
    -6.4121  -6.3960  -6.3336  -6.3272  -6.3011  -6.2521  -6.2506  -6.2470
    -6.2402  -6.2255  -6.2236  -6.2073  -6.2055  -6.2023  -6.1974  -6.1972
    -6.1933  -6.1929  -6.1730  -6.1610  -6.1593  -6.1520  -6.1507  -6.1259
    -6.1220  -6.1218  -6.1183  -6.1157  -5.9776  -5.9157  -5.9075  -5.8747
    -5.8696  -5.8478  -5.8252  -5.7948  -5.7724  -5.7699  -5.7552  -5.6927
    -5.6234  -5.6178  -5.5976  -5.5864  -5.5306  -5.5111  -5.4573  -5.3120
    -5.2519  -5.1017  -4.0839  -4.0183  -4.0055  -3.9989  -3.9787  -3.8644
    -3.8584  -3.8411  -3.8284  -3.8125  -3.7903  -3.7640  -3.7630  -3.7517
    -3.7498  -3.7345  -3.7328  -3.7197  -3.7190  -3.7077  -3.6479  -3.6340
    -3.6030  -3.5864  -3.5788  -3.5261  -3.5248  -3.5221  -3.5189  -3.5153
    -3.4728  -3.4719  -3.4636  -3.4494  -3.4491  -3.4414  -3.4322  -3.4306
    -3.4296  -3.4152  -3.4024  -3.3988  -3.3970  -3.3961  -3.3915  -3.3856
    -3.3838  -3.3686  -3.3677  -3.3513  -3.3476  -3.3429  -3.3361  -3.3253
    -3.2954  -3.2838  -3.2766  -3.2681  -3.2675  -3.2654  -3.2637  -3.2582
    -3.2564  -3.2278  -3.2187  -3.2174  -3.2048  -3.2039  -3.2015  -3.2014
    -3.1975  -3.1926  -3.1888  -3.1739  -3.1625  -3.1600  -3.1562  -3.1552
    -3.1452  -3.1395  -3.1383  -3.1294  -3.1279  -3.1240  -3.1166  -3.1114
    -3.1002  -3.0956  -3.0925  -3.0849  -3.0825  -3.0813  -3.0813  -3.0563
    -3.0183  -3.0180  -3.0000  -2.9933  -2.9893  -2.9880  -2.9800  -2.9759
    -2.9528  -2.9443  -2.9423  -2.9423  -2.9412  -2.9412  -2.9405  -2.9359
    -2.9320  -2.9271  -2.9204  -2.9153  -2.9140  -2.9078  -2.9041  -2.8995
    -2.8931  -2.8900  -2.8882  -2.8858  -2.8809  -2.8794  -2.8698  -2.8673
    -2.8654  -2.8629  -2.8568  -2.8518  -2.8499  -2.8337  -2.8236  -2.8172
    -2.8074  -2.8064  -2.7961  -2.7874  -2.7814  -2.7800  -2.7373  -2.7136
    -2.7078  -2.7061  -2.6740  -2.6622  -2.6424  -2.6269  -2.5884  -2.5338
    -2.5293  -2.5081  -2.4961  -2.4916  -2.4848  -2.4656  -2.4624  -2.4577
    -2.4491  -2.4458  -2.4442  -2.4358  -2.4229  -2.3443  -2.3229  -2.3192
    -2.3114  -2.3046  -2.2949  -2.2655

     the Fermi energy is    -4.5814 ev

!    total energy              =  -32817.56050968 Ry
     total all-electron energy =   -640670.747385 Ry
     estimated scf accuracy    <       0.00000070 Ry
     smearing contrib. (-TS)   =      -0.00000001 Ry
     internal energy E=F+TS    =  -32817.56050967 Ry

     The total energy is F=E-TS. E is the sum of the following terms:
     one-electron contribution = 1139718.71508531 Ry
     hartree contribution      = -569993.37583518 Ry
     xc contribution           =   -1965.98187190 Ry
     ewald contribution        = -579604.29541882 Ry
     DFT-D3 Dispersion         =      -5.41439830 Ry
     one-center paw contrib.   =  -20967.20807078 Ry

     convergence has been achieved in  13 iterations

     negative rho (up, down):  9.476E-04 0.000E+00

     Forces acting on atoms (cartesian axes, Ry/au):

     atom    1 type  1   force =    -0.00000274    0.00000183    0.00068896
     atom    2 type  1   force =     0.00001551   -0.00000448    0.00002813
     atom    3 type  2   force =    -0.00000108    0.00000323    0.00000152
     atom    4 type  2   force =    -0.00000293    0.00000203    0.00161420
     atom    5 type  2   force =    -0.00000376    0.00000075   -0.00235851
     atom    6 type  2   force =    -0.00000905    0.00000212    0.00007698
     atom    7 type  1   force =     0.00009238   -0.00006838    0.00006559
     atom    8 type  1   force =    -0.00111875    0.00073354    0.00056234
     atom    9 type  2   force =    -0.00365477   -0.01311982   -0.00950230
     atom   10 type  2   force =    -0.00012632    0.00040930    0.00029175
     atom   11 type  2   force =    -0.00011623   -0.00017266    0.00004404
     atom   12 type  2   force =    -0.00941464   -0.00677077    0.00153885
     atom   13 type  1   force =     0.00000011    0.00000160    0.00068936
     atom   14 type  1   force =    -0.00002285    0.00001207    0.00002938
[...]
     atom  164 type  1   force =     0.00003382    0.00006311   -0.00237669
     atom  165 type  2   force =    -0.00001047    0.00000460   -0.00011556
     atom  166 type  2   force =    -0.00000739   -0.00000464    0.00002449
     atom  167 type  2   force =     0.00000042   -0.00000004   -0.00008885
     atom  168 type  2   force =    -0.00050904    0.00007409   -0.00412782
     atom  169 type  1   force =    -0.00000006   -0.00000006    0.00255955
     atom  170 type  1   force =     0.00000013   -0.00000009   -0.00000590
     atom  171 type  2   force =    -0.00000008    0.00000003   -0.00003545
     atom  172 type  2   force =     0.00000001   -0.00000002    0.00017132
     atom  173 type  2   force =    -0.00000001   -0.00000002    0.00441436
     atom  174 type  2   force =    -0.00000023    0.00000001    0.00008481
     atom  175 type  1   force =     0.00000401    0.00000164   -0.00001752
     atom  176 type  1   force =    -0.00024584   -0.00006983   -0.00220121
     atom  177 type  2   force =    -0.00005611   -0.00001564   -0.00002429
     atom  178 type  2   force =    -0.00000634    0.00000312    0.00002698
     atom  179 type  2   force =     0.00000017    0.00000011   -0.00008838
     atom  180 type  2   force =    -0.00063299   -0.00041706   -0.00396038
     atom  181 type  1   force =    -0.00000002   -0.00000002    0.00255958
     atom  182 type  1   force =     0.00000004   -0.00000010   -0.00000603
     atom  183 type  2   force =    -0.00000007   -0.00000001   -0.00003542
     atom  184 type  2   force =     0.00000001    0.00000001    0.00017131
     atom  185 type  2   force =     0.00000002    0.00000000    0.00441438
     atom  186 type  2   force =    -0.00000043    0.00000012    0.00008475
     atom  187 type  1   force =     0.00000723    0.00000525   -0.00001843
     atom  188 type  1   force =    -0.00014694   -0.00018150   -0.00227378
     atom  189 type  2   force =     0.00000782   -0.00001144   -0.00008842
     atom  190 type  2   force =     0.00000867    0.00001282    0.00001939
     atom  191 type  2   force =     0.00000114    0.00000014   -0.00008733
     atom  192 type  2   force =    -0.00020738   -0.00039480   -0.00422326
     atom  193 type  3   force =     0.00010520   -0.00006069   -0.00626032
     atom  194 type  3   force =     0.00014212   -0.00008242   -0.00643504

     Total force =     0.002854     Total SCF correction =     0.000308
     SCF correction compared to forces is large: reduce conv_thr to get better values
     Energy error            =      1.7E-05 Ry
     Gradient error          =      8.4E-04 Ry/Bohr

     bfgs converged in  47 scf cycles and  46 bfgs steps
     (criteria: energy <  1.0E-04 Ry, force <  1.0E-03 Ry/Bohr)

     End of BFGS Geometry Optimization

     Final energy             =  -32817.5912919662 Ry

     File ./outdir/pwscf.bfgs deleted, as requested
Begin final coordinates

ATOMIC_POSITIONS (angstrom)
Mo            0.0000119917        1.8193638619       -9.1672481230    0   0   0
Mo            1.5756136568        0.9097075315       -3.0554901653    0   0   0
S             0.0000188998        1.8193822938       -4.6232556019    0   0   0
S             1.5756321638        0.9096773839       -7.6014065489    0   0   0
S             1.5756326175        0.9096785128      -10.7330757790    0   0   0
S             0.0000189190        1.8193860094       -1.4877129945    0   0   0
Mo           -0.0037072706        1.8216155387        3.0660340716
Mo            1.5450489237        0.9235013697        9.1811542092
S            -0.0336506713        1.8378627308        7.6104947689
S             1.5716647267        0.9114805735        4.6335220945
S             1.5724602444        0.9119059664        1.4980351522
S            -0.0368552637        1.8189973255       10.7537670957
Mo           -1.5756053507        4.5484193819       -9.1672481230    0   0   0
Mo            0.0000378379        3.6387394919       -3.0554952701    0   0   0
S            -1.5755913433        4.5484363582       -4.6232494962    0   0   0
S             0.0000148214        3.6387329039       -7.6014065489    0   0   0
S             0.0000152751        3.6387340328      -10.7330757790    0   0   0
S            -1.5755906502        4.5484413613       -1.4877305502    0   0   0
Mo           -1.5789760905        4.5506956829        3.0663179583
Mo           -0.0489925610        3.6422611484        9.1918827141
S            -1.6160082320        4.5750597188        7.6314044840
S            -0.0033780336        3.6413651642        4.6342812249
S            -0.0034857708        3.6407438532        1.4979433889
S            -1.6094419514        4.5566911437       10.7730266645
Mo           -3.1512226931        7.2774749019       -9.1672481230    0   0   0
Mo           -1.5755910988        6.3678216792       -3.0555115988    0   0   0
S            -3.1512162438        7.2774954350       -4.6232578178    0   0   0
S            -1.5756025210        6.3677884239       -7.6014065489    0   0   0
S            -1.5756020673        6.3677895528      -10.7330757790    0   0   0
S            -3.1512127704        7.2774877076       -1.4877200710    0   0   0
Mo           -3.1542180223        7.2794071772        3.0661576983
Mo           -1.6120088715        6.3823382456        9.2185196993
S            -3.1684383412        7.2909947012        7.6323336863
S            -1.5781387922        6.3703792162        4.6345185060
S            -1.5788536263        6.3695083059        1.4978877709
S            -3.1957435899        7.2981776120       10.7740238712
Mo           -4.7268400355       10.0065304219       -9.1672481230    0   0   0
Mo           -3.1512405618        9.0968403586       -3.0554816746    0   0   0
S            -4.7268341792       10.0065523623       -4.6232463762    0   0   0
S            -3.1512198634        9.0968439439       -7.6014065489    0   0   0
S            -3.1512194097        9.0968450728      -10.7330757790    0   0   0
S            -4.7268370797       10.0065537885       -1.4877176751    0   0   0
Mo           -4.7301056912       10.0084554627        3.0655347509
Mo           -3.1788058540        9.1127784506        9.1968831020
S            -4.7473776706       10.0183976815        7.6172269188
S            -3.1546020952        9.0988347981        4.6339361602
S            -3.1540430300        9.0985139055        1.4978540431
S            -4.7602951713       10.0258495957       10.7551313610
Mo            3.1512517547        1.8193638619       -9.1672481230    0   0   0
Mo            4.7269020221        0.9097289540       -3.0554823951    0   0   0
S             3.1512612351        1.8193882564       -4.6232320683    0   0   0
S             4.7268719268        0.9096773839       -7.6014065489    0   0   0
S             4.7268723805        0.9096785128      -10.7330757790    0   0   0
S             3.1512592485        1.8193890201       -1.4877261251    0   0   0
Mo            3.1478978548        1.8213194306        3.0664924880
Mo            4.6932334975        0.9247540221        9.1935633781
S             3.1237795408        1.8218767645        7.6074992446
S             4.7237675071        0.9114021069        4.6341640282
S             4.7234648428        0.9113800516        1.4981854734
S             3.1183695981        1.8303197070       10.7535913558
Mo            1.5756344123        4.5484193819       -9.1672481230    0   0   0
Mo            3.1512756394        3.6387769522       -3.0554814834    0   0   0
S             1.5756504879        4.5484423799       -4.6232390542    0   0   0
S             3.1512545844        3.6387329039       -7.6014065489    0   0   0
S             3.1512550381        3.6387340328      -10.7330757790    0   0   0
S             1.5756466253        4.5484431864       -1.4877251801    0   0   0
Mo            1.5721672581        4.5505938002        3.0656579068
Mo            3.1213981090        3.6377963155        9.1729040671
S             1.5334784969        4.5915905947        7.6565832847
S             3.1471139466        3.6412285079        4.6346214456
S             3.1482357058        3.6403583212        1.4982229197
S             1.5435939729        4.4329000592       10.7977380211
Mo            0.0000170699        7.2774749019       -9.1672481230    0   0   0
Mo            1.5756764447        6.3678236689       -3.0554877708    0   0   0
S             0.0000381981        7.2774979204       -4.6232454413    0   0   0
S             1.5756372420        6.3677884239       -7.6014065489    0   0   0
S             1.5756376957        6.3677895528      -10.7330757790    0   0   0
S             0.0000328088        7.2774946042       -1.4877307940    0   0   0
Mo           -0.0030104325        7.2792569811        3.0653621411
Mo            1.5543754083        6.3800731531        9.2580259278
S            -0.0060473265        7.2809791727        7.6841474241
S             1.5720847389        6.3698714689        4.6336099002
S             1.5726944429        6.3695220628        1.4972020891
S            -0.0969900979        7.3334837939       10.8404613035
Mo           -1.5756002725       10.0065304219       -9.1672481230    0   0   0
Mo            0.0000873425        9.0968676911       -3.0554912329    0   0   0
S            -1.5755883952       10.0065504530       -4.6232240150    0   0   0
S             0.0000198996        9.0968439439       -7.6014065489    0   0   0
S             0.0000203533        9.0968450728      -10.7330757790    0   0   0
S            -1.5755859047       10.0065492576       -1.4877362381    0   0   0
Mo           -1.5787372864       10.0082097129        3.0661589693
Mo           -0.0307792430        9.1211040251        9.2185193040
S            -1.5959100233       10.0146924871        7.6323363541
S            -0.0034593335        9.0977938986        4.6345219134
S            -0.0030628937        9.0988511784        1.4978872031
S            -1.6157832024       10.0347426973       10.7740250486
Mo            6.3024915177        1.8193638619       -9.1672481230    0   0   0
Mo            7.8781001445        0.9096521684       -3.0554919963    0   0   0
S             6.3025008696        1.8193826232       -4.6232480596    0   0   0
S             7.8781116898        0.9096773839       -7.6014065489    0   0   0
S             7.8781121435        0.9096785128      -10.7330757790    0   0   0
S             6.3025042007        1.8193849068       -1.4877147524    0   0   0
Mo            6.2989665133        1.8213311458        3.0658841178
Mo            7.8415501154        0.9311750560        9.2004201433
S             6.2692939200        1.8417457237        7.6305320066
S             7.8741845753        0.9117841440        4.6340717763
S             7.8746449925        0.9114188445        1.4979700217
S             6.2626452617        1.8405833444       10.7684062301
Mo            4.7268741753        4.5484193819       -9.1672481230    0   0   0
Mo            6.3024679138        3.6387501714       -3.0554895197    0   0   0
S             4.7268748770        4.5484386753       -4.6232519432    0   0   0
S             6.3024943474        3.6387329039       -7.6014065489    0   0   0
S             6.3024948011        3.6387340328      -10.7330757790    0   0   0
S             4.7268770533        4.5484432419       -1.4877137856    0   0   0
Mo            4.7232561691        4.5505339750        3.0664163818
Mo            6.2642324321        3.6608274220        9.2047546138
S             4.6984191606        4.5648381543        7.6188916533
S             6.2988359049        3.6408749026        4.6337788902
S             6.2989877035        3.6407866797        1.4979985383
S             4.6562079581        4.5892330487       10.7625716559
Mo            3.1512568329        7.2774749019       -9.1672481230    0   0   0
Mo            4.7268384135        6.3678043337       -3.0554959052    0   0   0
S             3.1512606125        7.2774972547       -4.6232589675    0   0   0
S             4.7268770050        6.3677884239       -7.6014065489    0   0   0
S             4.7268774587        6.3677895528      -10.7330757790    0   0   0
S             3.1512629079        7.2774963749       -1.4877081835    0   0   0
Mo            3.1476689579        7.2794378651        3.0656603874
Mo            4.7127688091        6.3941201388        9.1728690167
S             3.0927889833        7.2924087807        7.6565732575
S             4.7226776769        6.3701683579        4.6346164351
S             4.7239866241        6.3696312324        1.4982274878
S             3.2353173076        7.3629818713       10.7977354275
Mo            1.5756394905       10.0065304219       -9.1672481230    0   0   0
Mo            3.1512330605        9.0968514907       -3.0554878870    0   0   0
S             1.5756499830       10.0065443759       -4.6232632674    0   0   0
S             3.1512596626        9.0968439439       -7.6014065489    0   0   0
S             3.1512601163        9.0968450728      -10.7330757790    0   0   0
S             1.5756503041       10.0065459699       -1.4877044377    0   0   0
Mo            1.5720124049       10.0083610553        3.0663189617
Mo            3.1237027096        9.1375299900        9.1918800011
S             1.5323680183       10.0282083859        7.6314058692
S             3.1473152410        9.0985181295        4.6342804352
S             3.1477974801        9.0989210693        1.4979467767
S             1.5515624862       10.0316992344       10.7730275974
Mo            9.4537312807        1.8193638619       -9.1672481230    0   0   0
Mo           11.0293863460        0.9096952246       -3.0554894007    0   0   0
S             9.4537395970        1.8193770750       -4.6232328036    0   0   0
S            11.0293514528        0.9096773839       -7.6014065489    0   0   0
S            11.0293519066        0.9096785128      -10.7330757790    0   0   0
S             9.4537393632        1.8193794783       -1.4877366147    0   0   0
Mo            9.4499023130        1.8216076785        3.0659024696
Mo           10.9962750811        0.9287817430        9.1793048960
S             9.4095515931        1.8448757899        7.6250378128
S            11.0250428378        0.9121965238        4.6339069387
S            11.0258238032        0.9117470492        1.4980075949
S             9.4237801016        1.8366621246       10.7604357469
Mo            7.8781139383        4.5484193819       -9.1672481230    0   0   0
Mo            9.4537539161        3.6387607911       -3.0554933032    0   0   0
S             7.8781175448        4.5484378232       -4.6232366318    0   0   0
S             9.4537341104        3.6387329039       -7.6014065489    0   0   0
S             9.4537345641        3.6387340328      -10.7330757790    0   0   0
S             7.8781194018        4.5484411585       -1.4877377057    0   0   0
Mo            7.8746757891        4.5505339175        3.0658815462
Mo            9.4168382943        3.6596562383        9.2004168468
S             7.8421325151        4.5659876259        7.6305298944
S             9.4499773729        3.6411301789        4.6340703223
S             9.4505232867        3.6409132495        1.4979686708
S             7.8398153350        4.5723284387       10.7684019757
Mo            6.3024965959        7.2774749019       -9.1672481230    0   0   0
Mo            7.8781361655        6.3678242352       -3.0555014130    0   0   0
S             6.3024973331        7.2774953556       -4.6232392528    0   0   0
S             7.8781167680        6.3677884239       -7.6014065489    0   0   0
S             7.8781172217        6.3677895528      -10.7330757790    0   0   0
S             6.3024989866        7.2774929744       -1.4877349119    0   0   0
Mo            6.2991563946        7.2794492640        3.0664875666
Mo            7.8482460596        6.3893947304        9.1935584270
S             6.2865980685        7.3000259772        7.6074846151
S             7.8750987569        6.3696630238        4.6341601767
S             7.8749686458        6.3699355084        1.4981838198
S             6.2765613652        7.3004747256       10.7535760309
Mo            4.7268792535       10.0065304219       -9.1672481230    0   0   0
Mo            6.3025111524        9.0968738021       -3.0554915260    0   0   0
S             4.7268840634       10.0065452125       -4.6232380477    0   0   0
S             6.3024994256        9.0968439439       -7.6014065489    0   0   0
S             6.3024998793        9.0968450728      -10.7330757790    0   0   0
S             4.7268847312       10.0065459141       -1.4877283294    0   0   0
Mo            4.7231024078       10.0086747886        3.0660326688
Mo            6.2752428005        9.1164278887        9.1811492758
S             4.6940316640       10.0264449753        7.6104919655
S             6.2989904228        9.0994294055        4.6335187671
S             6.2990210195        9.0985315366        1.4980328509
S             4.7087652935       10.0386492800       10.7537626736
Pd            1.6451871960        6.3276842152       12.1125256936
Pd            4.0164041841        4.9594740587       12.8459361462
End final coordinates



     Writing all to output data dir ./outdir/pwscf.save/
 
     init_run     :     24.53s CPU     26.58s WALL (       1 calls)
     electrons    : 183315.04s CPU 185223.60s WALL (      22 calls)
     update_pot   :    114.15s CPU    114.72s WALL (      21 calls)
     forces       :   2689.68s CPU   2754.77s WALL (      22 calls)
     force_dftd3  :     16.48s CPU     17.71s WALL (      22 calls)

     Called by init_run:
     wfcinit      :      0.26s CPU      0.26s WALL (       1 calls)
     potinit      :      1.41s CPU      1.96s WALL (       1 calls)
     hinit0       :     16.14s CPU     16.18s WALL (       1 calls)

     Called by electrons:
     c_bands      : 164837.77s CPU 165925.78s WALL (     265 calls)
     sum_band     :  17357.57s CPU  17831.69s WALL (     265 calls)
     v_of_rho     :    136.36s CPU    139.01s WALL (     275 calls)
     newd         :    726.59s CPU   1090.43s WALL (     275 calls)
     PAW_pot      :    198.37s CPU    198.39s WALL (     296 calls)
     mix_rho      :     32.97s CPU     33.04s WALL (     265 calls)
     energy_dftd3 :      7.96s CPU      7.96s WALL (      22 calls)

     Called by c_bands:
     init_us_2    :    683.10s CPU    683.54s WALL (    2291 calls)
     init_us_2:cp :    683.07s CPU    683.53s WALL (    2291 calls)
     cegterg      : 162604.83s CPU 163640.78s WALL (    1086 calls)

     Called by *egterg:
     cdiaghg      :  10412.00s CPU  10444.30s WALL (   14287 calls)
     h_psi        :  84862.84s CPU  85172.84s WALL (   14446 calls)
     s_psi        :  17940.03s CPU  18009.12s WALL (   14446 calls)
     g_psi        :    156.48s CPU    156.53s WALL (   13360 calls)

     Called by h_psi:
     h_psi:calbec :  18367.99s CPU  18370.91s WALL (   14446 calls)
     vloc_psi     :  48289.90s CPU  48387.55s WALL (   14446 calls)
     add_vuspsi   :  18027.02s CPU  18095.58s WALL (   14446 calls)

     General routines
     calbec       :  26198.65s CPU  26202.85s WALL (   15942 calls)
     fft          :    129.63s CPU    132.63s WALL (    3806 calls)
     ffts         :      6.73s CPU      6.94s WALL (     540 calls)
     fftw         :  39629.10s CPU  39702.59s WALL ( 7768448 calls)
     interpolate  :     14.20s CPU     14.31s WALL (     275 calls)
     davcio       :      0.00s CPU      4.82s WALL (       6 calls)
 
     Parallel routines
 
     PWSCF        :   2d 3h56m CPU   2d 4h30m WALL

 
   This run was terminated on:  15: 1:21  13Oct2023            

=------------------------------------------------------------------------------=
   JOB DONE.
=------------------------------------------------------------------------------=
Application 11285728 resources: utime ~6733091s, stime ~71427s, Rss ~3562564, inblocks ~0, outblocks ~58737512
