
     Program PWSCF v.7.2 starts on 15Dec2023 at 12:21:36 

     This program is part of the open-source Quantum ESPRESSO suite
     for quantum simulation of materials; please cite
         "P. Giannozzi et al., J. Phys.:Condens. Matter 21 395502 (2009);
         "P. Giannozzi et al., J. Phys.:Condens. Matter 29 465901 (2017);
         "P. Giannozzi et al., J. Chem. Phys. 152 154105 (2020);
          URL http://www.quantum-espresso.org", 
     in publications or presentations arising from this work. More details at
     http://www.quantum-espresso.org/quote

     Parallel version (MPI), running on    36 processors

     MPI processes distributed on     1 nodes
     769029 MiB available memory on the printing compute node when the environment starts
 
     Waiting for input...
     Reading input from standard input
Warning: card &CELL ignored
Warning: card / ignored

     Current dimensions of program PWSCF are:
     Max number of different atomic species (ntypx) = 10
     Max number of k-points (npk) =  40000
     Max angular momentum in pseudopotentials (lmaxx) =  4
     file Mo.pbe-spn-kjpaw_psl.1.0.0.UPF: wavefunction(s)  4S 4D renormalized
     file S.pbe-n-kjpaw_psl.1.0.0.UPF: wavefunction(s)  3S 3P renormalized
     file Pt.pbe-spfn-kjpaw_psl.1.0.0.UPF: wavefunction(s)  5P 4F renormalized
 
     R & G space division:  proc/nbgrp/npool/nimage =      36
     Subspace diagonalization in iterative solution of the eigenvalue problem:
     one sub-group per band group will be used
     custom distributed-memory algorithm (size of sub-group:  6*  6 procs)

 
     Parallelization info
     --------------------
     sticks:   dense  smooth     PW     G-vecs:    dense   smooth      PW
     Min         586     335     89               165416    71459    9765
     Max         587     337     90               165425    71461    9778
     Sum       21109   12085   3205              5955087  2572543  351657
 
     Using Slab Decomposition
 


     bravais-lattice index     =            0
     lattice parameter (alat)  =      23.8395  a.u.
     unit-cell volume          =   28182.8498 (a.u.)^3
     number of atoms/cell      =          145
     number of atomic types    =            3
     number of electrons       =      1280.00
     number of Kohn-Sham states=          768
     kinetic-energy cutoff     =      77.0000  Ry
     charge density cutoff     =     539.0000  Ry
     scf convergence threshold =      1.0E-06
     mixing beta               =       0.2000
     number of iterations used =            8  plain     mixing
     energy convergence thresh.=      1.0E-04
     force convergence thresh. =      1.0E-03
     Exchange-correlation= SLA  PW   PBX  PBC
                           (   1   4   3   4   0   0   0)
     nstep                     =         1000


     Effective Screening Medium Method
     =================================
     Boundary Conditions: Vacuum-Slab-Vacuum
     total charge in unit cell        =   0.0000
     grid points for fit at edges     =        4 
 

     celldm(1)=  23.839504  celldm(2)=   0.000000  celldm(3)=   0.000000
     celldm(4)=   0.000000  celldm(5)=   0.000000  celldm(6)=   0.000000

     crystal axes: (cart. coord. in units of alat)
               a(1) = (   1.000000   0.000000   0.000000 )  
               a(2) = (  -0.500001   0.866026   0.000000 )  
               a(3) = (   0.000000   0.000000   2.401941 )  

     reciprocal axes: (cart. coord. in units 2 pi/alat)
               b(1) = (  1.000000  0.577351  0.000000 )  
               b(2) = (  0.000000  1.154700  0.000000 )  
               b(3) = (  0.000000  0.000000  0.416330 )  


     PseudoPot. # 1 for Mo read from file:
     ./pseudo/Mo.pbe-spn-kjpaw_psl.1.0.0.UPF
     MD5 check sum: 317bf72632116215fd98f72de1686f13
     Pseudo is Projector augmented-wave + core cor, Zval = 14.0
     Generated using 'atomic' code by A. Dal Corso  v.7.2
     Shape of augmentation charge: PSQ
     Using radial grid of 1229 points,  6 beta functions with: 
                l(1) =   0
                l(2) =   0
                l(3) =   1
                l(4) =   1
                l(5) =   2
                l(6) =   2
     Q(r) pseudized with 0 coefficients 


     PseudoPot. # 2 for S  read from file:
     ./pseudo/S.pbe-n-kjpaw_psl.1.0.0.UPF
     MD5 check sum: 8b7b5302570d38d5e87fed6a1065abda
     Pseudo is Projector augmented-wave + core cor, Zval =  6.0
     Generated using 'atomic' code by A. Dal Corso  v.7.2
     Shape of augmentation charge: PSQ
     Using radial grid of 1151 points,  6 beta functions with: 
                l(1) =   0
                l(2) =   0
                l(3) =   1
                l(4) =   1
                l(5) =   2
                l(6) =   2
     Q(r) pseudized with 0 coefficients 


     PseudoPot. # 3 for Pt read from file:
     ./pseudo/Pt.pbe-spfn-kjpaw_psl.1.0.0.UPF
     MD5 check sum: 620096ebf4e6ebacc94de60fd67efcb5
     Pseudo is Projector augmented-wave + core cor, Zval = 32.0
     Generated using 'atomic' code by A. Dal Corso  v.7.2
     Shape of augmentation charge: PSQ
     Using radial grid of 1277 points,  8 beta functions with: 
                l(1) =   0
                l(2) =   0
                l(3) =   1
                l(4) =   1
                l(5) =   2
                l(6) =   2
                l(7) =   3
                l(8) =   3
     Q(r) pseudized with 0 coefficients 


     atomic species   valence    mass     pseudopotential
        Mo            14.00    95.95000     Mo( 1.00)
        S              6.00    32.06000     S ( 1.00)
        Pt            32.00   195.08400     Pt( 1.00)

     No symmetry found



   Cartesian axes

     site n.     atom                  positions (alat units)
         1           Mo  tau(   1) = (   0.1249983   0.2165050   0.4823527  )
         2           Mo  tau(   2) = (   0.1250004   0.0721694  -0.4825273  )
         3           Mo  tau(   3) = (  -0.0000019   0.1443377  -0.0000751  )
         4           S   tau(   4) = (   0.0000004   0.0000006  -0.6064556  )
         5           S   tau(   5) = (   0.1249982   0.0721692  -0.1241671  )
         6           S   tau(   6) = (  -0.0000016   0.1443364   0.3582431  )
         7           S   tau(   7) = (   0.0000004   0.0000005  -0.3584711  )
         8           S   tau(   8) = (   0.1249982   0.0721691   0.1241550  )
         9           S   tau(   9) = (  -0.0000015   0.1443364   0.6067201  )
        10           Mo  tau(  10) = (  -0.0000021   0.4330115   0.4823527  )
        11           Mo  tau(  11) = (   0.0000001   0.2886759  -0.4825273  )
        12           Mo  tau(  12) = (  -0.1250009   0.3608432  -0.0000744  )
        13           S   tau(  13) = (  -0.1249999   0.2165071  -0.6064556  )
        14           S   tau(  14) = (  -0.0000017   0.2886753  -0.1241667  )
        15           S   tau(  15) = (  -0.1250020   0.3608427   0.3582430  )
        16           S   tau(  16) = (  -0.1249998   0.2165070  -0.3584711  )
        17           S   tau(  17) = (  -0.0000017   0.2886752   0.1241551  )
        18           S   tau(  18) = (  -0.1250020   0.3608428   0.6067200  )
        19           Mo  tau(  19) = (  -0.1250025   0.6495181   0.4823527  )
        20           Mo  tau(  20) = (  -0.1250002   0.5051824  -0.4825273  )
        21           Mo  tau(  21) = (  -0.2500019   0.5773502  -0.0000747  )
        22           S   tau(  22) = (  -0.2500002   0.4330136  -0.6064556  )
        23           S   tau(  23) = (  -0.1250019   0.5051815  -0.1241659  )
        24           S   tau(  24) = (  -0.2500023   0.5773492   0.3582430  )
        25           S   tau(  25) = (  -0.2500001   0.4330135  -0.3584711  )
        26           S   tau(  26) = (  -0.1250021   0.5051816   0.1241548  )
        27           S   tau(  27) = (  -0.2500023   0.5773492   0.6067201  )
        28           Mo  tau(  28) = (   0.2499985  -0.0000014   0.4823528  )
        29           Mo  tau(  29) = (  -0.2500004   0.7216889  -0.4825273  )
        30           Mo  tau(  30) = (  -0.3750035   0.7938587  -0.0000751  )
        31           S   tau(  31) = (  -0.3750004   0.6495201  -0.6064556  )
        32           S   tau(  32) = (  -0.2500024   0.7216883  -0.1241659  )
        33           S   tau(  33) = (  -0.3750023   0.7938557   0.3582430  )
        34           S   tau(  34) = (  -0.3750004   0.6495200  -0.3584711  )
        35           S   tau(  35) = (  -0.2500028   0.7216884   0.1241544  )
        36           S   tau(  36) = (  -0.3750023   0.7938556   0.6067199  )
        37           Mo  tau(  37) = (   0.3749981   0.2165050   0.4823525  )
        38           Mo  tau(  38) = (   0.3750004   0.0721694  -0.4825273  )
        39           Mo  tau(  39) = (   0.2499973   0.1443382  -0.0000750  )
        40           S   tau(  40) = (   0.2500004   0.0000006  -0.6064556  )
        41           S   tau(  41) = (   0.3749982   0.0721689  -0.1241664  )
        42           S   tau(  42) = (   0.2499983   0.1443364   0.3582430  )
        43           S   tau(  43) = (   0.2500004   0.0000005  -0.3584711  )
        44           S   tau(  44) = (   0.3749982   0.0721692   0.1241548  )
        45           S   tau(  45) = (   0.2499984   0.1443363   0.6067201  )
        46           Mo  tau(  46) = (   0.2499981   0.4330115   0.4823527  )
        47           Mo  tau(  47) = (   0.2500001   0.2886759  -0.4825273  )
        48           Mo  tau(  48) = (   0.1249978   0.3608446  -0.0000747  )
        49           S   tau(  49) = (   0.1250001   0.2165071  -0.6064556  )
        50           S   tau(  50) = (   0.2499977   0.2886754  -0.1241668  )
        51           S   tau(  51) = (   0.1249981   0.3608427   0.3582430  )
        52           S   tau(  52) = (   0.1250002   0.2165070  -0.3584711  )
        53           S   tau(  53) = (   0.2499978   0.2886754   0.1241550  )
        54           S   tau(  54) = (   0.1249981   0.3608427   0.6067200  )
        55           Mo  tau(  55) = (   0.1249976   0.6495181   0.4823528  )
        56           Mo  tau(  56) = (   0.1249998   0.5051824  -0.4825273  )
        57           Mo  tau(  57) = (  -0.0000011   0.5773502  -0.0000746  )
        58           S   tau(  58) = (  -0.0000002   0.4330136  -0.6064556  )
        59           S   tau(  59) = (   0.1249978   0.5051816  -0.1241667  )
        60           S   tau(  60) = (  -0.0000023   0.5773491   0.3582431  )
        61           S   tau(  61) = (  -0.0000001   0.4330135  -0.3584711  )
        62           S   tau(  62) = (   0.1249980   0.5051816   0.1241553  )
        63           S   tau(  63) = (  -0.0000022   0.5773492   0.6067201  )
        64           Mo  tau(  64) = (   0.4999983  -0.0000014   0.4823527  )
        65           Mo  tau(  65) = (  -0.0000004   0.7216889  -0.4825273  )
        66           Mo  tau(  66) = (  -0.1250019   0.7938576  -0.0000744  )
        67           S   tau(  67) = (  -0.1250004   0.6495201  -0.6064556  )
        68           S   tau(  68) = (  -0.0000024   0.7216881  -0.1241664  )
        69           S   tau(  69) = (  -0.1250026   0.7938558   0.3582428  )
        70           S   tau(  70) = (  -0.1250004   0.6495200  -0.3584711  )
        71           S   tau(  71) = (  -0.0000022   0.7216883   0.1241549  )
        72           S   tau(  72) = (  -0.1250025   0.7938557   0.6067204  )
        73           Mo  tau(  73) = (   0.6249983   0.2165053   0.4823528  )
        74           Mo  tau(  74) = (   0.6250004   0.0721694  -0.4825273  )
        75           Mo  tau(  75) = (   0.4999985   0.1443375  -0.0000751  )
        76           S   tau(  76) = (   0.5000004   0.0000006  -0.6064556  )
        77           S   tau(  77) = (   0.6249985   0.0721690  -0.1241669  )
        78           S   tau(  78) = (   0.4999982   0.1443364   0.3582430  )
        79           S   tau(  79) = (   0.5000004   0.0000005  -0.3584711  )
        80           S   tau(  80) = (   0.6249984   0.0721690   0.1241550  )
        81           S   tau(  81) = (   0.4999983   0.1443363   0.6067200  )
        82           Mo  tau(  82) = (   0.4999981   0.4330116   0.4823529  )
        83           Mo  tau(  83) = (   0.5000001   0.2886759  -0.4825273  )
        84           Mo  tau(  84) = (   0.3749964   0.3608441  -0.0000749  )
        85           S   tau(  85) = (   0.3750001   0.2165071  -0.6064556  )
        86           S   tau(  86) = (   0.4999978   0.2886755  -0.1241662  )
        87           S   tau(  87) = (   0.3749982   0.3608427   0.3582430  )
        88           S   tau(  88) = (   0.3750002   0.2165070  -0.3584711  )
        89           S   tau(  89) = (   0.4999977   0.2886754   0.1241546  )
        90           S   tau(  90) = (   0.3749981   0.3608426   0.6067200  )
        91           Mo  tau(  91) = (   0.3749980   0.6495180   0.4823527  )
        92           Mo  tau(  92) = (   0.3749998   0.5051824  -0.4825273  )
        93           Mo  tau(  93) = (   0.2499971   0.5773505  -0.0000748  )
        94           S   tau(  94) = (   0.2499998   0.4330136  -0.6064556  )
        95           S   tau(  95) = (   0.3749976   0.5051816  -0.1241666  )
        96           S   tau(  96) = (   0.2499978   0.5773492   0.3582431  )
        97           S   tau(  97) = (   0.2499999   0.4330135  -0.3584711  )
        98           S   tau(  98) = (   0.3749977   0.5051817   0.1241548  )
        99           S   tau(  99) = (   0.2499978   0.5773491   0.6067200  )
       100           Mo  tau( 100) = (   0.7499985  -0.0000012   0.4823529  )
       101           Mo  tau( 101) = (   0.2499996   0.7216889  -0.4825273  )
       102           Mo  tau( 102) = (   0.1249980   0.7938575  -0.0000752  )
       103           S   tau( 103) = (   0.1249996   0.6495201  -0.6064556  )
       104           S   tau( 104) = (   0.2499977   0.7216881  -0.1241669  )
       105           S   tau( 105) = (   0.1249975   0.7938558   0.3582429  )
       106           S   tau( 106) = (   0.1249996   0.6495200  -0.3584711  )
       107           S   tau( 107) = (   0.2499976   0.7216882   0.1241550  )
       108           S   tau( 108) = (   0.1249974   0.7938558   0.6067204  )
       109           Mo  tau( 109) = (  -0.1250017   0.2165052   0.4823527  )
       110           Mo  tau( 110) = (   0.8750004   0.0721694  -0.4825273  )
       111           Mo  tau( 111) = (   0.7499989   0.1443369  -0.0000749  )
       112           S   tau( 112) = (   0.7500004   0.0000006  -0.6064556  )
       113           S   tau( 113) = (   0.8749984   0.0721690  -0.1241671  )
       114           S   tau( 114) = (   0.7499983   0.1443364   0.3582431  )
       115           S   tau( 115) = (   0.7500004   0.0000005  -0.3584711  )
       116           S   tau( 116) = (   0.8749985   0.0721690   0.1241551  )
       117           S   tau( 117) = (   0.7499983   0.1443365   0.6067200  )
       118           Mo  tau( 118) = (  -0.2500019   0.4330117   0.4823526  )
       119           Mo  tau( 119) = (   0.7500001   0.2886759  -0.4825273  )
       120           Mo  tau( 120) = (   0.6249978   0.3608437  -0.0000747  )
       121           S   tau( 121) = (   0.6250001   0.2165071  -0.6064556  )
       122           S   tau( 122) = (   0.7499983   0.2886752  -0.1241661  )
       123           S   tau( 123) = (   0.6249980   0.3608429   0.3582430  )
       124           S   tau( 124) = (   0.6250002   0.2165070  -0.3584711  )
       125           S   tau( 125) = (   0.7499981   0.2886752   0.1241547  )
       126           S   tau( 126) = (   0.6249982   0.3608428   0.6067202  )
       127           Mo  tau( 127) = (  -0.3750021   0.6495181   0.4823527  )
       128           Mo  tau( 128) = (   0.6249998   0.5051824  -0.4825273  )
       129           Mo  tau( 129) = (   0.4999969   0.5773509  -0.0000752  )
       130           S   tau( 130) = (   0.4999998   0.4330136  -0.6064556  )
       131           S   tau( 131) = (   0.6249978   0.5051817  -0.1241660  )
       132           S   tau( 132) = (   0.4999980   0.5773491   0.3582431  )
       133           S   tau( 133) = (   0.4999999   0.4330135  -0.3584711  )
       134           S   tau( 134) = (   0.6249975   0.5051818   0.1241544  )
       135           S   tau( 135) = (   0.4999981   0.5773491   0.6067201  )
       136           Mo  tau( 136) = (  -0.0000012  -0.0000013   0.4823527  )
       137           Mo  tau( 137) = (   0.4999996   0.7216889  -0.4825273  )
       138           Mo  tau( 138) = (   0.3749969   0.7938580  -0.0000749  )
       139           S   tau( 139) = (   0.3749996   0.6495201  -0.6064556  )
       140           S   tau( 140) = (   0.4999973   0.7216884  -0.1241666  )
       141           S   tau( 141) = (   0.3749976   0.7938558   0.3582430  )
       142           S   tau( 142) = (   0.3749996   0.6495200  -0.3584711  )
       143           S   tau( 143) = (   0.4999974   0.7216884   0.1241546  )
       144           S   tau( 144) = (   0.3749976   0.7938557   0.6067202  )
       145           Pt  tau( 145) = (   0.2500134   0.4330448   0.7256255  )

     --------------------------------------------
     DFT-D3 Dispersion Correction (3-body terms):
     --------------------------------------------
       Reference C6 values for interpolation: 

         atom   Coordination number   C6
         S          0.000           268.01
         S          0.995           261.99
         S          1.990           251.62
         Mo         0.000          1691.79
         Mo         1.942          1004.01
         Mo        11.056           674.22
         Pt         0.000           782.29
         Pt         1.919           692.72
         Pt         6.667           673.75

       Values used:

         atom   Coordination number  R0_AB[au]  C6      C8
         Mo        10.197            3.547    674.22  77634.20
         Mo        10.189            3.547    674.22  77634.20
         Mo        10.201            3.547    674.22  77634.20
         S          3.753            3.128    251.62  12327.25
         S          3.858            3.128    251.62  12327.25
         S          3.857            3.128    251.62  12327.25
         S          3.859            3.128    251.62  12327.25
         S          3.858            3.128    251.62  12327.25
         S          3.749            3.128    251.62  12327.25
         Mo        10.197            3.547    674.22  77634.20
         Mo        10.189            3.547    674.22  77634.20
         Mo        10.201            3.547    674.22  77634.20
         S          3.753            3.128    251.62  12327.25
         S          3.858            3.128    251.62  12327.25
         S          3.857            3.128    251.62  12327.25
         S          3.859            3.128    251.62  12327.25
         S          3.858            3.128    251.62  12327.25
         S          3.749            3.128    251.62  12327.25
         Mo        10.187            3.547    674.22  77634.20
         Mo        10.189            3.547    674.22  77634.20
         Mo        10.201            3.547    674.22  77634.20
         S          3.753            3.128    251.62  12327.25
         S          3.858            3.128    251.62  12327.25
         S          3.857            3.128    251.62  12327.25
         S          3.859            3.128    251.62  12327.25
         S          3.858            3.128    251.62  12327.25
         S          3.749            3.128    251.62  12327.25
         Mo        10.187            3.547    674.22  77634.20
         Mo        10.189            3.547    674.22  77634.20
         Mo        10.201            3.547    674.22  77634.20
         S          3.753            3.128    251.62  12327.25
         S          3.858            3.128    251.62  12327.25
         S          3.857            3.128    251.62  12327.25
         S          3.859            3.128    251.62  12327.25
         S          3.858            3.128    251.62  12327.25
         S          3.749            3.128    251.62  12327.25
         Mo        10.197            3.547    674.22  77634.20
         Mo        10.189            3.547    674.22  77634.20
         Mo        10.201            3.547    674.22  77634.20
         S          3.753            3.128    251.62  12327.25
         S          3.858            3.128    251.62  12327.25
         S          3.857            3.128    251.62  12327.25
         S          3.859            3.128    251.62  12327.25
         S          3.858            3.128    251.62  12327.25
         S          3.760            3.128    251.62  12327.25
         Mo        10.786            3.547    674.22  77634.20
         Mo        10.189            3.547    674.22  77634.20
         Mo        10.201            3.547    674.22  77634.20
         S          3.753            3.128    251.62  12327.25
         S          3.858            3.128    251.62  12327.25
         S          3.858            3.128    251.62  12327.25
         S          3.859            3.128    251.62  12327.25
         S          3.858            3.128    251.62  12327.25
         S          4.715            3.128    251.62  12327.25
         Mo        10.197            3.547    674.22  77634.20
         Mo        10.189            3.547    674.22  77634.20
         Mo        10.201            3.547    674.22  77634.20
         S          3.753            3.128    251.62  12327.25
         S          3.858            3.128    251.62  12327.25
         S          3.857            3.128    251.62  12327.25
         S          3.859            3.128    251.62  12327.25
         S          3.858            3.128    251.62  12327.25
         S          3.760            3.128    251.62  12327.25
         Mo        10.187            3.547    674.22  77634.20
         Mo        10.189            3.547    674.22  77634.20
         Mo        10.201            3.547    674.22  77634.20
         S          3.753            3.128    251.62  12327.25
         S          3.858            3.128    251.62  12327.25
         S          3.857            3.128    251.62  12327.25
         S          3.859            3.128    251.62  12327.25
         S          3.858            3.128    251.62  12327.25
         S          3.749            3.128    251.62  12327.25
         Mo        10.187            3.547    674.22  77634.20
         Mo        10.189            3.547    674.22  77634.20
         Mo        10.201            3.547    674.22  77634.20
         S          3.753            3.128    251.62  12327.25
         S          3.858            3.128    251.62  12327.25
         S          3.857            3.128    251.62  12327.25
         S          3.859            3.128    251.62  12327.25
         S          3.858            3.128    251.62  12327.25
         S          3.749            3.128    251.62  12327.25
         Mo        10.197            3.547    674.22  77634.20
         Mo        10.189            3.547    674.22  77634.20
         Mo        10.201            3.547    674.22  77634.20
         S          3.753            3.128    251.62  12327.25
         S          3.858            3.128    251.62  12327.25
         S          3.858            3.128    251.62  12327.25
         S          3.859            3.128    251.62  12327.25
         S          3.858            3.128    251.62  12327.25
         S          4.715            3.128    251.62  12327.25
         Mo        10.197            3.547    674.22  77634.20
         Mo        10.189            3.547    674.22  77634.20
         Mo        10.201            3.547    674.22  77634.20
         S          3.753            3.128    251.62  12327.25
         S          3.858            3.128    251.62  12327.25
         S          3.858            3.128    251.62  12327.25
         S          3.859            3.128    251.62  12327.25
         S          3.858            3.128    251.62  12327.25
         S          4.715            3.128    251.62  12327.25
         Mo        10.187            3.547    674.22  77634.20
         Mo        10.189            3.547    674.22  77634.20
         Mo        10.201            3.547    674.22  77634.20
         S          3.753            3.128    251.62  12327.25
         S          3.858            3.128    251.62  12327.25
         S          3.857            3.128    251.62  12327.25
         S          3.859            3.128    251.62  12327.25
         S          3.858            3.128    251.62  12327.25
         S          3.749            3.128    251.62  12327.25
         Mo        10.187            3.547    674.22  77634.20
         Mo        10.189            3.547    674.22  77634.20
         Mo        10.201            3.547    674.22  77634.20
         S          3.753            3.128    251.62  12327.25
         S          3.858            3.128    251.62  12327.25
         S          3.857            3.128    251.62  12327.25
         S          3.859            3.128    251.62  12327.25
         S          3.858            3.128    251.62  12327.25
         S          3.749            3.128    251.62  12327.25
         Mo        10.187            3.547    674.22  77634.20
         Mo        10.189            3.547    674.22  77634.20
         Mo        10.201            3.547    674.22  77634.20
         S          3.753            3.128    251.62  12327.25
         S          3.858            3.128    251.62  12327.25
         S          3.857            3.128    251.62  12327.25
         S          3.859            3.128    251.62  12327.25
         S          3.858            3.128    251.62  12327.25
         S          3.749            3.128    251.62  12327.25
         Mo        10.187            3.547    674.22  77634.20
         Mo        10.189            3.547    674.22  77634.20
         Mo        10.201            3.547    674.22  77634.20
         S          3.753            3.128    251.62  12327.25
         S          3.858            3.128    251.62  12327.25
         S          3.857            3.128    251.62  12327.25
         S          3.859            3.128    251.62  12327.25
         S          3.858            3.128    251.62  12327.25
         S          3.760            3.128    251.62  12327.25
         Mo        10.187            3.547    674.22  77634.20
         Mo        10.189            3.547    674.22  77634.20
         Mo        10.201            3.547    674.22  77634.20
         S          3.753            3.128    251.62  12327.25
         S          3.858            3.128    251.62  12327.25
         S          3.857            3.128    251.62  12327.25
         S          3.859            3.128    251.62  12327.25
         S          3.858            3.128    251.62  12327.25
         S          3.749            3.128    251.62  12327.25
         Pt         3.615            3.168    692.72  72035.25

         Molecular C6 ( Ry / a.u.^6 ) =   7803822.77


     number of k points=     4  Gaussian smearing, width (Ry)=  0.0100
                       cart. coord. in units 2pi/alat
        k(    1) = (   0.0000000   0.0000000   0.0000000), wk =   0.5000000
        k(    2) = (   0.0000000  -0.5773499   0.0000000), wk =   0.5000000
        k(    3) = (  -0.5000000  -0.2886755   0.0000000), wk =   0.5000000
        k(    4) = (  -0.5000000  -0.8660254   0.0000000), wk =   0.5000000

     Dense  grid:  5955087 G-vectors     FFT dimensions: ( 180, 180, 432)

     Smooth grid:  2572543 G-vectors     FFT dimensions: ( 135, 135, 320)

     Estimated max dynamical RAM per process >       3.05 GB

     Estimated total dynamical RAM >     109.84 GB

     Initial potential from superposition of free atoms

     starting charge    1279.9545, renormalised to    1280.0000

     negative rho (up, down):  7.042E-04 0.000E+00
     Starting wfcs are  881 randomized atomic wfcs
     Checking if some PAW data can be deallocated... 

     total cpu time spent up to now is      106.4 secs

     Self-consistent Calculation

     iteration #  1     ecut=    77.00 Ry     beta= 0.20
     Davidson diagonalization with overlap
     ethr =  1.00E-02,  avg # of iterations =  2.0

     Threshold (ethr) on eigenvalues was too large:
     Diagonalizing with lowered threshold

     Davidson diagonalization with overlap
     c_bands:  1 eigenvalues not converged
     ethr =  1.29E-04,  avg # of iterations = 18.5

     negative rho (up, down):  1.908E-04 0.000E+00

     total cpu time spent up to now is     1361.5 secs

     total energy              =  -25519.81267563 Ry
     estimated scf accuracy    <       5.09782228 Ry

     iteration #  2     ecut=    77.00 Ry     beta= 0.20
     Davidson diagonalization with overlap
     ethr =  3.98E-04,  avg # of iterations =  1.0

     negative rho (up, down):  2.200E-05 0.000E+00

     total cpu time spent up to now is     1568.6 secs

     total energy              =  -25518.65547249 Ry
     estimated scf accuracy    <       2.70575951 Ry

     iteration #  3     ecut=    77.00 Ry     beta= 0.20
     Davidson diagonalization with overlap
     ethr =  2.11E-04,  avg # of iterations = 11.0

     negative rho (up, down):  2.248E-05 0.000E+00

     total cpu time spent up to now is     1905.5 secs

     total energy              =  -25519.26708184 Ry
     estimated scf accuracy    <       0.39770352 Ry

     iteration #  4     ecut=    77.00 Ry     beta= 0.20
     Davidson diagonalization with overlap
     c_bands:  2 eigenvalues not converged
     c_bands:  5 eigenvalues not converged
     ethr =  3.11E-05,  avg # of iterations = 24.5

     negative rho (up, down):  3.777E-05 0.000E+00

     total cpu time spent up to now is     2738.3 secs

     total energy              =  -25519.75561944 Ry
     estimated scf accuracy    <       0.22022957 Ry

     iteration #  5     ecut=    77.00 Ry     beta= 0.20
     Davidson diagonalization with overlap
     c_bands:  3 eigenvalues not converged
     c_bands:  2 eigenvalues not converged
     ethr =  1.72E-05,  avg # of iterations = 15.5

     negative rho (up, down):  1.353E-04 0.000E+00

     total cpu time spent up to now is     3020.7 secs

     total energy              =  -25519.73756461 Ry
     estimated scf accuracy    <       0.13447823 Ry

     iteration #  6     ecut=    77.00 Ry     beta= 0.20
     Davidson diagonalization with overlap
     c_bands:  2 eigenvalues not converged
     c_bands:  2 eigenvalues not converged
     ethr =  1.05E-05,  avg # of iterations = 42.2

     negative rho (up, down):  4.216E-04 0.000E+00

     total cpu time spent up to now is     3681.3 secs

     total energy              =  -25519.78857376 Ry
     estimated scf accuracy    <       0.04843727 Ry

     iteration #  7     ecut=    77.00 Ry     beta= 0.20
     Davidson diagonalization with overlap
     c_bands:  1 eigenvalues not converged
     c_bands:  3 eigenvalues not converged
     ethr =  3.78E-06,  avg # of iterations = 19.0

     negative rho (up, down):  3.815E-04 0.000E+00

     total cpu time spent up to now is     4269.3 secs

     total energy              =  -25519.80225298 Ry
     estimated scf accuracy    <       0.08978769 Ry

     iteration #  8     ecut=    77.00 Ry     beta= 0.20
     Davidson diagonalization with overlap
     c_bands:  1 eigenvalues not converged
     ethr =  3.78E-06,  avg # of iterations =  9.0

     negative rho (up, down):  3.512E-04 0.000E+00

     total cpu time spent up to now is     4514.0 secs

     total energy              =  -25519.79351091 Ry
     estimated scf accuracy    <       0.02846026 Ry

     iteration #  9     ecut=    77.00 Ry     beta= 0.20
     Davidson diagonalization with overlap
     c_bands:  1 eigenvalues not converged
     c_bands:  1 eigenvalues not converged
     c_bands:  5 eigenvalues not converged
     c_bands:  3 eigenvalues not converged
     ethr =  2.22E-06,  avg # of iterations = 35.0

     negative rho (up, down):  3.911E-04 0.000E+00

     total cpu time spent up to now is     5108.5 secs

     total energy              =  -25519.80779031 Ry
     estimated scf accuracy    <       0.00188299 Ry

     iteration # 10     ecut=    77.00 Ry     beta= 0.20
     Davidson diagonalization with overlap
     c_bands:  1 eigenvalues not converged
     c_bands:  2 eigenvalues not converged
     c_bands:  4 eigenvalues not converged
     ethr =  1.47E-07,  avg # of iterations = 20.2

     negative rho (up, down):  4.519E-04 0.000E+00

     total cpu time spent up to now is     6422.8 secs

     total energy              =  -25519.81554747 Ry
     estimated scf accuracy    <       0.01248856 Ry

     iteration # 11     ecut=    77.00 Ry     beta= 0.20
     Davidson diagonalization with overlap
     ethr =  1.47E-07,  avg # of iterations =  7.2

     negative rho (up, down):  7.289E-04 0.000E+00

     total cpu time spent up to now is     6796.9 secs

     total energy              =  -25519.81500870 Ry
     estimated scf accuracy    <       0.00263164 Ry

     iteration # 12     ecut=    77.00 Ry     beta= 0.20
     Davidson diagonalization with overlap
     c_bands:  3 eigenvalues not converged
     c_bands:  4 eigenvalues not converged
     ethr =  1.47E-07,  avg # of iterations = 17.0

     negative rho (up, down):  8.381E-04 0.000E+00

     total cpu time spent up to now is     7522.4 secs

     total energy              =  -25519.81937637 Ry
     estimated scf accuracy    <       0.01533524 Ry

     iteration # 13     ecut=    77.00 Ry     beta= 0.20
     Davidson diagonalization with overlap
     ethr =  1.47E-07,  avg # of iterations =  4.0

     negative rho (up, down):  8.050E-04 0.000E+00

     total cpu time spent up to now is     7747.1 secs

     total energy              =  -25519.81470132 Ry
     estimated scf accuracy    <       0.01067504 Ry

     iteration # 14     ecut=    77.00 Ry     beta= 0.20
     Davidson diagonalization with overlap
     ethr =  1.47E-07,  avg # of iterations = 10.2

     negative rho (up, down):  7.804E-04 0.000E+00

     total cpu time spent up to now is     8184.4 secs

     total energy              =  -25519.81575389 Ry
     estimated scf accuracy    <       0.00121454 Ry

     iteration # 15     ecut=    77.00 Ry     beta= 0.20
     Davidson diagonalization with overlap
     ethr =  9.49E-08,  avg # of iterations =  6.5

     negative rho (up, down):  7.923E-04 0.000E+00

     total cpu time spent up to now is     8548.6 secs

     total energy              =  -25519.81639743 Ry
     estimated scf accuracy    <       0.00002237 Ry

     iteration # 16     ecut=    77.00 Ry     beta= 0.20
     Davidson diagonalization with overlap
     c_bands:  5 eigenvalues not converged
     c_bands:  5 eigenvalues not converged
     ethr =  1.75E-09,  avg # of iterations = 35.8

     negative rho (up, down):  8.188E-04 0.000E+00

     total cpu time spent up to now is    10324.8 secs

     total energy              =  -25519.81664366 Ry
     estimated scf accuracy    <       0.00014432 Ry

     iteration # 17     ecut=    77.00 Ry     beta= 0.20
     Davidson diagonalization with overlap
     ethr =  1.75E-09,  avg # of iterations =  7.2

     negative rho (up, down):  8.303E-04 0.000E+00

     total cpu time spent up to now is    10698.5 secs

     total energy              =  -25519.81665231 Ry
     estimated scf accuracy    <       0.00002552 Ry

     iteration # 18     ecut=    77.00 Ry     beta= 0.20
     Davidson diagonalization with overlap
     ethr =  1.75E-09,  avg # of iterations =  1.0

     negative rho (up, down):  8.416E-04 0.000E+00

     total cpu time spent up to now is    10905.6 secs

     total energy              =  -25519.81663659 Ry
     estimated scf accuracy    <       0.00002265 Ry

     iteration # 19     ecut=    77.00 Ry     beta= 0.20
     Davidson diagonalization with overlap
     ethr =  1.75E-09,  avg # of iterations =  8.5

     negative rho (up, down):  8.471E-04 0.000E+00

     total cpu time spent up to now is    11305.3 secs

     total energy              =  -25519.81665049 Ry
     estimated scf accuracy    <       0.00000242 Ry

     iteration # 20     ecut=    77.00 Ry     beta= 0.20
     Davidson diagonalization with overlap
     c_bands:  1 eigenvalues not converged
     ethr =  1.89E-10,  avg # of iterations = 18.0

     negative rho (up, down):  8.487E-04 0.000E+00

     total cpu time spent up to now is    12019.5 secs

     total energy              =  -25519.81665033 Ry
     estimated scf accuracy    <       0.00001314 Ry

     iteration # 21     ecut=    77.00 Ry     beta= 0.20
     Davidson diagonalization with overlap
     ethr =  1.89E-10,  avg # of iterations =  7.2

     negative rho (up, down):  8.516E-04 0.000E+00

     total cpu time spent up to now is    12355.6 secs

     total energy              =  -25519.81664913 Ry
     estimated scf accuracy    <       0.00000296 Ry

     iteration # 22     ecut=    77.00 Ry     beta= 0.20
     Davidson diagonalization with overlap
     ethr =  1.89E-10,  avg # of iterations =  7.2

     negative rho (up, down):  8.577E-04 0.000E+00

     total cpu time spent up to now is    12630.0 secs

     End of self-consistent calculation

          k = 0.0000 0.0000 0.0000 (321495 PWs)   bands (ev):

  -102.2438 -70.5580 -70.5559 -70.5559 -70.5549 -70.5280 -70.5280 -70.5122
   -66.7688 -66.7477 -66.7477 -66.7477 -66.7477 -66.7477 -66.7477 -66.7265
   -66.7265 -66.7265 -66.7265 -66.7265 -66.7265 -66.7265 -66.7265 -66.7265
   -66.7027 -66.6818 -66.6818 -66.6818 -66.6815 -66.6815 -66.6813 -66.6609
   -66.6608 -66.6605 -66.6605 -66.6605 -66.6604 -66.6602 -66.6601 -66.6601
   -66.6286 -66.6118 -66.6118 -66.6112 -66.6009 -66.6009 -66.5932 -66.5915
   -66.5902 -66.5902 -66.5754 -66.5753 -66.5671 -66.5671 -66.5671 -66.5638
   -56.5037 -56.4736 -56.4733 -41.0952 -41.0952 -41.0952 -41.0280 -41.0279
   -41.0279 -41.0204 -41.0204 -41.0204 -41.0204 -41.0204 -41.0204 -40.9533
   -40.9533 -40.9532 -40.9532 -40.9531 -40.9531 -40.9496 -40.9496 -40.9425
   -40.9289 -40.8948 -40.8948 -40.8948 -40.8948 -40.8948 -40.8948 -40.8875
   -40.8875 -40.8875 -40.8874 -40.8874 -40.8874 -40.8784 -40.8747 -40.8719
   -40.8719 -40.8654 -40.8654 -40.8633 -40.8599 -40.8599 -40.8599 -40.8599
   -40.8599 -40.8599 -40.8458 -40.8458 -40.8458 -40.8458 -40.8458 -40.8458
   -40.8457 -40.8457 -40.8457 -40.8280 -40.8278 -40.8278 -40.8277 -40.8277
   -40.8276 -40.8221 -40.8221 -40.8221 -40.8218 -40.8218 -40.8216 -40.7934
   -40.7931 -40.7931 -40.7930 -40.7930 -40.7928 -40.7928 -40.7822 -40.7822
   -40.7822 -40.7807 -40.7807 -40.7804 -40.7803 -40.7803 -40.7802 -40.7800
   -40.7800 -40.7799 -40.7708 -40.7535 -40.7514 -40.7514 -40.7514 -40.7482
   -40.7482 -40.7456 -40.7456 -40.7401 -40.7401 -40.7379 -40.7353 -40.7353
   -40.7353 -40.7353 -40.7353 -40.7353 -40.7172 -40.7156 -40.7153 -40.7153
   -40.7152 -40.7133 -40.7133 -40.7118 -40.7114 -40.7114 -40.7089 -40.7049
   -40.7049 -40.7023 -40.7023 -40.6961 -40.6961 -40.6932 -40.6880 -40.6880
   -40.6686 -40.6685 -40.6685 -40.6684 -40.6684 -40.6684 -40.6341 -40.6328
   -40.6328 -40.6212 -40.6212 -40.5918 -40.5869 -40.5869 -40.5853 -40.5853
   -40.5745 -40.5363 -40.5363 -20.2027 -20.1010 -19.9798 -19.4137 -19.3356
   -19.3356 -19.3324 -19.3324 -19.3324 -19.3205 -19.2441 -19.2441 -19.2141
   -19.2136 -19.2136 -19.1730 -19.1360 -19.1359 -19.0801 -19.0798 -19.0798
   -18.9434 -18.7702 -18.6230 -18.5833 -18.5832 -18.5432 -18.5319 -18.5319
   -18.5316 -18.4685 -18.4684 -18.4453 -18.3732 -18.3732 -18.3731 -18.3179
   -18.3179 -18.2896 -18.2345 -18.2341 -18.2341 -18.2283 -18.2283 -18.2281
   -18.2281 -18.2281 -18.2280 -18.1905 -18.1904 -18.1879 -18.1875 -18.1875
   -18.1491 -18.1475 -18.1475 -18.1465 -18.1388 -18.1388 -18.1158 -18.1149
   -18.1149 -18.0732 -18.0557 -18.0557 -18.0526 -18.0428 -18.0428 -18.0405
   -18.0290 -18.0290 -18.0145 -17.9994 -17.9994 -17.9964 -17.9950 -17.9950
   -17.9923 -17.9654 -17.9654 -17.9532 -17.9361 -17.9361 -17.9261 -17.9211
   -17.9211 -17.9180 -17.8924 -17.8924 -17.8699 -17.8455 -17.8455 -17.8391
   -17.8308 -17.8308 -17.8257 -12.0814 -11.9547 -11.8463 -11.8463 -11.8421
   -11.7897 -11.7897 -11.7602 -11.7320 -11.7320 -11.6577 -11.4563 -11.3044
   -11.3044 -11.2882 -11.2874 -11.2874 -11.2722 -11.2196 -11.2195 -11.2157
   -11.2157 -11.2153 -11.2153 -11.1849 -11.1548 -11.1548 -11.0893 -11.0893
   -11.0880 -11.0708 -11.0666 -11.0666 -11.0153 -11.0008 -11.0008 -10.9896
   -10.9896 -10.9889 -10.9772 -10.9749 -10.9749 -10.9341 -10.9341 -10.9231
   -10.9196 -10.9196 -10.9196 -10.9151 -10.9151 -10.8972 -10.8919 -10.8919
   -10.8892 -10.8695 -10.8686 -10.8686 -10.8676 -10.8676 -10.8394 -10.8394
   -10.8382 -10.8056 -10.8048 -10.8048 -10.7931 -10.7554 -10.7179 -10.7179
   -10.6923 -10.6863 -10.6863 -10.6727 -10.6727 -10.6707 -10.3090 -10.3085
   -10.1394 -10.1337 -10.1337 -10.0309  -9.9707  -9.9707  -9.9316  -9.8630
    -9.8630  -9.8615  -9.8604  -9.8604  -9.8557  -9.7901  -9.7870  -9.7870
    -9.7808  -9.7715  -9.7715  -9.7602  -9.7531  -9.7531  -9.7142  -9.7107
    -9.7107  -9.7035  -9.7000  -9.7000  -9.6630  -9.6630  -9.6617  -9.6613
    -9.6585  -9.6585  -9.6521  -9.6148  -9.6056  -9.6056  -9.5994  -9.5993
    -9.5749  -9.5749  -9.5743  -9.5319  -9.5319  -9.5198  -9.5115  -9.5096
    -9.5096  -9.4352  -9.4126  -9.4126  -9.3990  -9.3989  -9.3858  -9.3769
    -9.3769  -9.3130  -9.2773  -9.2773  -9.2715  -9.2715  -9.2683  -9.2672
    -9.2641  -9.2641  -9.2494  -9.1410  -9.1075  -9.1075  -9.1069  -9.1051
    -9.1051  -9.0977  -9.0875  -9.0875  -9.0642  -9.0641  -9.0341  -9.0218
    -9.0218  -9.0107  -8.9801  -8.9315  -8.9297  -8.9297  -8.9266  -8.9266
    -8.8861  -8.8861  -8.8855  -8.8855  -8.8833  -8.8818  -8.8399  -8.8399
    -8.8182  -8.8142  -8.8142  -8.8027  -8.7941  -8.7941  -8.7868  -8.7526
    -8.7420  -8.7420  -8.5294  -8.5179  -8.5178  -8.4512  -8.4511  -8.4443
    -8.4443  -8.4057  -8.4057  -8.4057  -8.4057  -8.4055  -8.4055  -8.3523
    -8.3523  -8.3340  -8.3337  -8.3337  -8.3329  -8.3257  -8.3257  -8.2625
    -8.2625  -8.2616  -8.2420  -8.1686  -8.1324  -8.1323  -8.0387  -8.0068
    -8.0068  -7.8033  -7.7616  -7.7616  -7.7181  -7.6703  -7.6703  -7.6702
    -7.6702  -7.6702  -7.6702  -7.6242  -7.6240  -7.6240  -7.6236  -7.6235
    -7.6234  -7.6027  -7.6027  -7.5998  -7.5998  -7.5976  -7.5958  -7.5765
    -7.5765  -7.5653  -7.5570  -7.5570  -7.5512  -7.5512  -7.5511  -7.5484
    -7.5456  -7.5455  -7.5288  -7.5188  -7.5188  -7.5057  -7.5027  -7.5027
    -7.5026  -7.5006  -7.4957  -7.4957  -7.4522  -7.4424  -7.4424  -7.3890
    -7.3890  -7.3771  -7.3208  -7.3208  -7.2881  -7.2881  -7.2645  -7.2644
    -7.2434  -7.2434  -7.2355  -7.1205  -7.0133  -7.0133  -6.9749  -6.9749
    -6.9274  -6.9050  -6.8980  -6.8980  -6.8922  -6.8644  -6.8644  -6.7936
    -6.7641  -6.7566  -6.7566  -6.7143  -6.7143  -6.6954  -6.6946  -6.6946
    -6.6942  -6.6609  -6.6409  -6.6408  -6.6068  -6.6068  -6.6068  -6.5904
    -6.5904  -6.5835  -6.5762  -6.5762  -6.5622  -6.5335  -6.5335  -6.5130
    -6.5080  -6.5080  -6.4954  -6.4916  -6.4916  -6.4370  -6.4370  -6.4370
    -6.4369  -6.4369  -6.4369  -6.4332  -6.4332  -6.4327  -6.3605  -6.3601
    -6.3601  -6.3601  -6.3584  -6.3584  -6.2987  -6.2987  -6.2961  -6.2816
    -6.2444  -6.1532  -6.1531  -5.7548  -5.5044  -5.4303  -5.4302  -5.2200
    -4.3976  -3.9211  -3.9211  -3.9165  -3.9147  -3.9147  -3.8944  -3.8871
    -3.8871  -3.8843  -3.8827  -3.8827  -3.8649  -3.6877  -3.6876  -3.6625
    -3.6609  -3.6567  -3.6567  -3.6495  -3.6451  -3.6451  -3.6397  -3.6396
    -3.5776  -3.5776  -3.5775  -3.5597  -3.5592  -3.5592  -3.5591  -3.5581
    -3.5579  -3.5199  -3.5102  -3.5101  -3.5101  -3.4619  -3.4564  -3.4564
    -3.4545  -3.4523  -3.4522  -3.4471  -3.4470  -3.4385  -3.4322  -3.4322
    -3.4289  -3.4235  -3.4234  -3.4203  -3.3557  -3.3424  -3.3423  -3.3420
    -3.3369  -3.3369  -3.3190  -3.3051  -3.3051  -3.2809  -3.2808  -3.1115
    -3.1113  -3.1112  -3.1060  -3.1057  -3.0941  -3.0391  -3.0388  -3.0386
    -3.0385  -3.0383  -3.0382  -3.0382  -3.0380  -3.0155  -3.0151  -3.0151
    -2.9868  -2.9868  -2.9800  -2.9766  -2.9764  -2.9666  -2.9647  -2.9644
    -2.9638  -2.9631  -2.9630  -2.9580  -2.9579  -2.9308  -2.9139  -2.9139
    -2.8834  -2.8661  -2.8634  -2.8515  -2.8511  -2.8409  -2.8366  -2.8333
    -2.8290  -2.8216  -2.8149  -2.8087  -2.8058  -2.8048  -2.7790  -2.7790
    -2.7758  -2.7247  -2.7245  -2.7156  -2.7122  -2.7121  -2.6847  -2.6840
    -2.6155  -2.6047  -2.5746  -2.5481  -2.5469  -2.5391  -2.5356  -2.5353

          k = 0.0000-0.5773 0.0000 (321564 PWs)   bands (ev):

  -102.2438 -70.5580 -70.5559 -70.5559 -70.5549 -70.5280 -70.5280 -70.5122
   -66.7626 -66.7626 -66.7521 -66.7521 -66.7371 -66.7371 -66.7371 -66.7371
   -66.7327 -66.7327 -66.7265 -66.7265 -66.7265 -66.7265 -66.7221 -66.7221
   -66.6967 -66.6964 -66.6860 -66.6860 -66.6711 -66.6711 -66.6711 -66.6710
   -66.6668 -66.6665 -66.6607 -66.6605 -66.6603 -66.6602 -66.6561 -66.6560
   -66.6258 -66.6199 -66.6125 -66.6056 -66.6002 -66.5989 -66.5958 -66.5922
   -66.5915 -66.5865 -66.5765 -66.5754 -66.5681 -66.5676 -66.5667 -66.5629
   -56.5037 -56.4736 -56.4733 -41.0638 -41.0638 -41.0638 -41.0638 -41.0371
   -41.0371 -41.0252 -41.0252 -40.9968 -40.9966 -40.9964 -40.9964 -40.9748
   -40.9748 -40.9748 -40.9748 -40.9701 -40.9698 -40.9580 -40.9580 -40.9253
   -40.9168 -40.9168 -40.9164 -40.9109 -40.9100 -40.9077 -40.9077 -40.9076
   -40.9076 -40.9068 -40.9068 -40.8961 -40.8961 -40.8943 -40.8889 -40.8762
   -40.8701 -40.8666 -40.8666 -40.8666 -40.8666 -40.8580 -40.8580 -40.8513
   -40.8511 -40.8458 -40.8458 -40.8457 -40.8457 -40.8457 -40.8457 -40.8399
   -40.8398 -40.8371 -40.8371 -40.8305 -40.8305 -40.8270 -40.8261 -40.8244
   -40.8228 -40.8151 -40.8151 -40.8151 -40.8151 -40.8012 -40.8011 -40.8011
   -40.8011 -40.7926 -40.7923 -40.7855 -40.7806 -40.7806 -40.7806 -40.7806
   -40.7805 -40.7804 -40.7801 -40.7800 -40.7796 -40.7789 -40.7788 -40.7717
   -40.7716 -40.7685 -40.7685 -40.7659 -40.7596 -40.7557 -40.7553 -40.7493
   -40.7493 -40.7483 -40.7482 -40.7480 -40.7479 -40.7397 -40.7324 -40.7324
   -40.7281 -40.7275 -40.7232 -40.7206 -40.7140 -40.7137 -40.7137 -40.7136
   -40.7136 -40.7116 -40.7040 -40.7029 -40.7020 -40.7019 -40.7017 -40.7014
   -40.7002 -40.6965 -40.6960 -40.6958 -40.6897 -40.6825 -40.6823 -40.6741
   -40.6690 -40.6656 -40.6655 -40.6651 -40.6609 -40.6353 -40.6350 -40.6348
   -40.6316 -40.6303 -40.6284 -40.6220 -40.6117 -40.6039 -40.5994 -40.5794
   -40.5768 -40.5560 -40.5458 -19.9758 -19.9624 -19.9078 -19.8378 -19.7710
   -19.7041 -19.5305 -19.5288 -19.4380 -19.4173 -19.3289 -19.2996 -18.9084
   -18.8450 -18.8237 -18.8213 -18.8206 -18.8199 -18.7844 -18.7788 -18.7678
   -18.7137 -18.7020 -18.6867 -18.6784 -18.6275 -18.6236 -18.6178 -18.6118
   -18.5906 -18.5729 -18.5727 -18.5157 -18.5036 -18.4794 -18.4778 -18.4703
   -18.4577 -18.4307 -18.3744 -18.3710 -18.3340 -18.3040 -18.2959 -18.2935
   -18.2913 -18.2388 -18.2377 -18.2085 -18.2084 -18.2084 -18.2084 -18.1942
   -18.1816 -18.1762 -18.1646 -18.1438 -18.1364 -18.1318 -18.1315 -18.1251
   -18.1234 -18.0951 -18.0768 -18.0652 -18.0506 -18.0506 -18.0475 -18.0466
   -18.0441 -18.0182 -18.0156 -17.9997 -17.9993 -17.9982 -17.9802 -17.9586
   -17.9451 -17.9450 -17.9450 -17.9333 -17.9326 -17.8913 -17.8853 -17.8851
   -17.8742 -17.8689 -17.8686 -17.8453 -17.8433 -17.8283 -17.8263 -17.8090
   -17.7866 -17.7567 -17.7386 -11.9769 -11.7520 -11.7262 -11.5807 -11.5741
   -11.5555 -11.5552 -11.5501 -11.5452 -11.5305 -11.5165 -11.4700 -11.4696
   -11.4599 -11.4523 -11.4221 -11.4134 -11.3845 -11.3661 -11.3602 -11.3581
   -11.3568 -11.3508 -11.3379 -11.3379 -11.2960 -11.2919 -11.2919 -11.2554
   -11.2385 -11.2335 -11.2312 -11.2284 -11.2281 -11.1573 -11.0665 -11.0613
   -11.0516 -11.0391 -11.0266 -11.0006 -10.9945 -10.9854 -10.9704 -10.9499
   -10.9404 -10.9271 -10.9151 -10.9127 -10.9112 -10.9103 -10.9032 -10.9008
   -10.8775 -10.8769 -10.8537 -10.8512 -10.8464 -10.8458 -10.8373 -10.8146
   -10.8014 -10.7786 -10.7382 -10.6521 -10.6439 -10.5754 -10.5707 -10.4989
   -10.4495 -10.4205 -10.3892 -10.3070 -10.2795 -10.2078 -10.2046 -10.2004
   -10.1946 -10.1312 -10.1196 -10.1031 -10.0933 -10.0479 -10.0191 -10.0148
   -10.0130 -10.0122 -10.0091  -9.9818  -9.9783  -9.9735  -9.9715  -9.9681
    -9.9569  -9.8838  -9.8681  -9.8630  -9.8335  -9.8326  -9.8232  -9.8198
    -9.8097  -9.7963  -9.7884  -9.7868  -9.7781  -9.7542  -9.7331  -9.7115
    -9.7025  -9.6993  -9.6899  -9.6850  -9.6831  -9.6827  -9.6681  -9.6145
    -9.6099  -9.6045  -9.5841  -9.5778  -9.5487  -9.5484  -9.5459  -9.4986
    -9.4973  -9.4010  -9.3827  -9.3331  -9.3249  -9.2763  -9.2475  -9.2459
    -9.2303  -9.2158  -9.2101  -9.2083  -9.2044  -9.1964  -9.1960  -9.1527
    -9.1473  -9.1160  -9.1001  -9.0907  -9.0785  -9.0736  -9.0581  -9.0565
    -9.0370  -9.0316  -9.0238  -9.0181  -9.0147  -9.0115  -9.0100  -8.9992
    -8.9885  -8.9858  -8.9729  -8.9609  -8.9536  -8.9397  -8.9354  -8.9278
    -8.9207  -8.9204  -8.9084  -8.9032  -8.8920  -8.8823  -8.8768  -8.8692
    -8.8627  -8.8592  -8.8464  -8.8381  -8.8235  -8.8087  -8.8064  -8.7781
    -8.7597  -8.6049  -8.5937  -8.5905  -8.5326  -8.5234  -8.5040  -8.4707
    -8.4684  -8.3325  -8.3236  -8.2742  -8.2742  -8.2155  -8.2024  -8.2019
    -8.1574  -8.1277  -8.1143  -8.1041  -8.0137  -8.0135  -7.9600  -7.9511
    -7.9448  -7.9409  -7.9303  -7.9283  -7.9275  -7.9275  -7.9206  -7.9159
    -7.8873  -7.8858  -7.8814  -7.8812  -7.8800  -7.8703  -7.8581  -7.8569
    -7.8403  -7.8364  -7.8347  -7.8333  -7.8118  -7.8100  -7.8069  -7.8054
    -7.7957  -7.7865  -7.7697  -7.7693  -7.7661  -7.7636  -7.7446  -7.7424
    -7.7422  -7.7351  -7.7230  -7.7186  -7.7164  -7.7007  -7.6990  -7.6798
    -7.6739  -7.6717  -7.6632  -7.6457  -7.6444  -7.6332  -7.5966  -7.5954
    -7.5823  -7.5283  -7.5244  -7.5145  -7.4344  -7.3602  -7.3278  -7.3232
    -7.3194  -7.3071  -7.2562  -7.2401  -7.1973  -7.1936  -7.1913  -7.1383
    -7.1250  -7.0942  -7.0932  -7.0906  -7.0502  -7.0297  -7.0272  -7.0193
    -7.0172  -7.0039  -7.0005  -6.9706  -6.9243  -6.9222  -6.9122  -6.9028
    -6.8713  -6.8314  -6.8017  -6.7918  -6.7655  -6.7393  -6.7392  -6.7392
    -6.7391  -6.7115  -6.6990  -6.6834  -6.6761  -6.6719  -6.6702  -6.6680
    -6.6613  -6.6211  -6.5963  -6.5846  -6.5831  -6.5502  -6.5238  -6.4868
    -6.4795  -6.4079  -6.4079  -6.4074  -6.4073  -6.3645  -6.3423  -6.3370
    -6.3311  -6.3265  -6.3242  -6.3212  -6.2829  -6.2801  -6.2613  -6.2556
    -6.2436  -6.2128  -6.1991  -6.0591  -6.0591  -5.9839  -5.9828  -5.9216
    -5.8892  -5.8793  -5.8181  -5.6951  -5.6433  -5.4866  -5.4190  -5.4051
    -4.3907  -4.0979  -4.0962  -4.0899  -4.0692  -3.9745  -3.9743  -3.9531
    -3.9382  -3.9096  -3.9095  -3.8503  -3.8447  -3.8346  -3.8321  -3.8245
    -3.7923  -3.7486  -3.7041  -3.6772  -3.6749  -3.6743  -3.6723  -3.6599
    -3.6598  -3.6177  -3.6144  -3.5986  -3.5815  -3.5796  -3.5733  -3.5628
    -3.5550  -3.5509  -3.5463  -3.5442  -3.5419  -3.5385  -3.4898  -3.4867
    -3.4783  -3.4394  -3.4307  -3.4287  -3.4274  -3.4261  -3.4141  -3.3983
    -3.3950  -3.3880  -3.3853  -3.3509  -3.3507  -3.3502  -3.3500  -3.3480
    -3.3336  -3.3188  -3.3184  -3.3102  -3.3060  -3.2796  -3.2792  -3.2764
    -3.2754  -3.2688  -3.2602  -3.2340  -3.2185  -3.1897  -3.1853  -3.1783
    -3.1687  -3.1497  -3.1471  -3.1461  -3.1083  -3.1082  -3.0962  -3.0940
    -3.0876  -3.0875  -3.0874  -3.0873  -3.0498  -3.0442  -3.0383  -3.0381
    -3.0223  -3.0193  -2.9942  -2.9940  -2.9911  -2.9905  -2.9661  -2.9644
    -2.9634  -2.9410  -2.9362  -2.9352  -2.9239  -2.9169  -2.8852  -2.8849
    -2.8773  -2.8741  -2.8729  -2.8690  -2.8009  -2.7559  -2.7542  -2.7336
    -2.7248  -2.7235  -2.7046  -2.7043  -2.6994  -2.6419  -2.6392  -2.6037
    -2.5668  -2.5644  -2.5642  -2.5544  -2.5453  -2.4855  -2.4144  -2.3644

          k =-0.5000-0.2887 0.0000 (321564 PWs)   bands (ev):

  -102.2438 -70.5580 -70.5559 -70.5559 -70.5549 -70.5280 -70.5280 -70.5122
   -66.7626 -66.7626 -66.7521 -66.7521 -66.7371 -66.7371 -66.7371 -66.7371
   -66.7327 -66.7327 -66.7265 -66.7265 -66.7265 -66.7265 -66.7221 -66.7221
   -66.6967 -66.6964 -66.6860 -66.6860 -66.6711 -66.6711 -66.6711 -66.6710
   -66.6668 -66.6665 -66.6607 -66.6605 -66.6603 -66.6602 -66.6561 -66.6560
   -66.6258 -66.6199 -66.6125 -66.6056 -66.6002 -66.5989 -66.5958 -66.5923
   -66.5915 -66.5865 -66.5765 -66.5754 -66.5681 -66.5676 -66.5667 -66.5629
   -56.5037 -56.4736 -56.4733 -41.0638 -41.0638 -41.0638 -41.0638 -41.0371
   -41.0371 -41.0252 -41.0252 -40.9968 -40.9966 -40.9964 -40.9964 -40.9748
   -40.9748 -40.9748 -40.9748 -40.9701 -40.9698 -40.9580 -40.9580 -40.9254
   -40.9168 -40.9168 -40.9164 -40.9109 -40.9100 -40.9077 -40.9077 -40.9076
   -40.9076 -40.9068 -40.9068 -40.8961 -40.8961 -40.8943 -40.8889 -40.8762
   -40.8701 -40.8666 -40.8666 -40.8666 -40.8666 -40.8580 -40.8580 -40.8513
   -40.8511 -40.8458 -40.8458 -40.8457 -40.8457 -40.8457 -40.8457 -40.8399
   -40.8398 -40.8371 -40.8371 -40.8305 -40.8305 -40.8270 -40.8261 -40.8244
   -40.8228 -40.8151 -40.8151 -40.8151 -40.8150 -40.8012 -40.8011 -40.8011
   -40.8011 -40.7926 -40.7923 -40.7854 -40.7806 -40.7806 -40.7806 -40.7805
   -40.7805 -40.7804 -40.7801 -40.7800 -40.7796 -40.7789 -40.7788 -40.7717
   -40.7716 -40.7685 -40.7685 -40.7659 -40.7596 -40.7557 -40.7553 -40.7493
   -40.7493 -40.7483 -40.7482 -40.7481 -40.7479 -40.7397 -40.7324 -40.7324
   -40.7281 -40.7275 -40.7232 -40.7206 -40.7140 -40.7137 -40.7137 -40.7136
   -40.7136 -40.7116 -40.7040 -40.7029 -40.7020 -40.7019 -40.7017 -40.7015
   -40.7002 -40.6965 -40.6960 -40.6958 -40.6897 -40.6825 -40.6823 -40.6741
   -40.6690 -40.6656 -40.6655 -40.6651 -40.6609 -40.6353 -40.6350 -40.6348
   -40.6316 -40.6303 -40.6284 -40.6220 -40.6117 -40.6039 -40.5994 -40.5794
   -40.5768 -40.5560 -40.5458 -19.9758 -19.9624 -19.9078 -19.8378 -19.7710
   -19.7041 -19.5305 -19.5288 -19.4380 -19.4173 -19.3289 -19.2996 -18.9085
   -18.8449 -18.8237 -18.8213 -18.8206 -18.8199 -18.7844 -18.7787 -18.7679
   -18.7137 -18.7020 -18.6867 -18.6784 -18.6275 -18.6236 -18.6178 -18.6118
   -18.5906 -18.5728 -18.5727 -18.5157 -18.5035 -18.4794 -18.4778 -18.4703
   -18.4577 -18.4306 -18.3744 -18.3711 -18.3340 -18.3040 -18.2959 -18.2935
   -18.2913 -18.2388 -18.2378 -18.2085 -18.2085 -18.2084 -18.2084 -18.1942
   -18.1816 -18.1762 -18.1646 -18.1438 -18.1364 -18.1318 -18.1315 -18.1251
   -18.1234 -18.0951 -18.0768 -18.0652 -18.0506 -18.0506 -18.0475 -18.0466
   -18.0441 -18.0182 -18.0156 -17.9997 -17.9993 -17.9982 -17.9802 -17.9586
   -17.9451 -17.9450 -17.9450 -17.9333 -17.9326 -17.8913 -17.8853 -17.8851
   -17.8742 -17.8689 -17.8686 -17.8453 -17.8433 -17.8283 -17.8263 -17.8090
   -17.7866 -17.7567 -17.7386 -11.9769 -11.7520 -11.7262 -11.5807 -11.5740
   -11.5554 -11.5552 -11.5501 -11.5453 -11.5305 -11.5165 -11.4700 -11.4696
   -11.4599 -11.4523 -11.4221 -11.4134 -11.3844 -11.3660 -11.3602 -11.3581
   -11.3568 -11.3508 -11.3379 -11.3379 -11.2960 -11.2919 -11.2919 -11.2555
   -11.2385 -11.2335 -11.2312 -11.2284 -11.2281 -11.1573 -11.0665 -11.0613
   -11.0516 -11.0391 -11.0266 -11.0006 -10.9945 -10.9854 -10.9703 -10.9498
   -10.9404 -10.9271 -10.9151 -10.9127 -10.9112 -10.9103 -10.9032 -10.9008
   -10.8775 -10.8769 -10.8537 -10.8512 -10.8464 -10.8458 -10.8373 -10.8147
   -10.8014 -10.7785 -10.7383 -10.6521 -10.6440 -10.5754 -10.5707 -10.4988
   -10.4495 -10.4204 -10.3896 -10.3068 -10.2794 -10.2079 -10.2046 -10.2004
   -10.1946 -10.1312 -10.1196 -10.1031 -10.0933 -10.0479 -10.0191 -10.0148
   -10.0130 -10.0122 -10.0091  -9.9818  -9.9783  -9.9735  -9.9714  -9.9682
    -9.9568  -9.8838  -9.8681  -9.8630  -9.8335  -9.8326  -9.8232  -9.8198
    -9.8097  -9.7963  -9.7884  -9.7868  -9.7781  -9.7542  -9.7331  -9.7115
    -9.7025  -9.6993  -9.6899  -9.6850  -9.6831  -9.6827  -9.6681  -9.6145
    -9.6099  -9.6045  -9.5842  -9.5778  -9.5487  -9.5484  -9.5458  -9.4986
    -9.4973  -9.4010  -9.3828  -9.3331  -9.3249  -9.2763  -9.2475  -9.2459
    -9.2303  -9.2158  -9.2101  -9.2083  -9.2044  -9.1964  -9.1960  -9.1527
    -9.1473  -9.1160  -9.1001  -9.0907  -9.0785  -9.0736  -9.0581  -9.0565
    -9.0370  -9.0316  -9.0238  -9.0181  -9.0146  -9.0115  -9.0100  -8.9992
    -8.9885  -8.9858  -8.9729  -8.9609  -8.9536  -8.9397  -8.9353  -8.9278
    -8.9207  -8.9204  -8.9084  -8.9032  -8.8920  -8.8823  -8.8768  -8.8692
    -8.8627  -8.8592  -8.8464  -8.8381  -8.8235  -8.8086  -8.8064  -8.7781
    -8.7597  -8.6048  -8.5937  -8.5904  -8.5326  -8.5234  -8.5040  -8.4706
    -8.4684  -8.3326  -8.3236  -8.2743  -8.2742  -8.2155  -8.2024  -8.2019
    -8.1574  -8.1276  -8.1143  -8.1041  -8.0136  -8.0135  -7.9600  -7.9511
    -7.9448  -7.9409  -7.9303  -7.9283  -7.9275  -7.9275  -7.9206  -7.9159
    -7.8874  -7.8858  -7.8814  -7.8812  -7.8800  -7.8703  -7.8581  -7.8569
    -7.8403  -7.8364  -7.8347  -7.8334  -7.8118  -7.8100  -7.8069  -7.8054
    -7.7958  -7.7865  -7.7697  -7.7693  -7.7661  -7.7636  -7.7446  -7.7424
    -7.7422  -7.7351  -7.7230  -7.7186  -7.7164  -7.7008  -7.6990  -7.6797
    -7.6739  -7.6718  -7.6632  -7.6457  -7.6444  -7.6332  -7.5966  -7.5955
    -7.5823  -7.5283  -7.5244  -7.5145  -7.4344  -7.3602  -7.3278  -7.3232
    -7.3194  -7.3071  -7.2562  -7.2402  -7.1973  -7.1936  -7.1913  -7.1383
    -7.1250  -7.0942  -7.0932  -7.0906  -7.0502  -7.0297  -7.0272  -7.0193
    -7.0172  -7.0039  -7.0005  -6.9706  -6.9243  -6.9221  -6.9122  -6.9028
    -6.8713  -6.8314  -6.8017  -6.7918  -6.7655  -6.7393  -6.7392  -6.7392
    -6.7391  -6.7115  -6.6989  -6.6835  -6.6761  -6.6719  -6.6702  -6.6680
    -6.6613  -6.6211  -6.5962  -6.5846  -6.5831  -6.5502  -6.5238  -6.4868
    -6.4795  -6.4079  -6.4079  -6.4074  -6.4073  -6.3645  -6.3423  -6.3370
    -6.3311  -6.3265  -6.3242  -6.3212  -6.2829  -6.2801  -6.2613  -6.2556
    -6.2436  -6.2128  -6.1991  -6.0591  -6.0591  -5.9839  -5.9828  -5.9216
    -5.8892  -5.8793  -5.8181  -5.6951  -5.6433  -5.4867  -5.4189  -5.4052
    -4.3907  -4.0980  -4.0963  -4.0899  -4.0692  -3.9747  -3.9746  -3.9531
    -3.9384  -3.9095  -3.9094  -3.8502  -3.8449  -3.8347  -3.8323  -3.8242
    -3.7922  -3.7490  -3.7043  -3.6772  -3.6746  -3.6744  -3.6723  -3.6600
    -3.6597  -3.6176  -3.6144  -3.5985  -3.5817  -3.5797  -3.5731  -3.5627
    -3.5548  -3.5509  -3.5460  -3.5440  -3.5418  -3.5387  -3.4896  -3.4868
    -3.4784  -3.4394  -3.4308  -3.4288  -3.4273  -3.4261  -3.4142  -3.3984
    -3.3949  -3.3881  -3.3857  -3.3507  -3.3507  -3.3503  -3.3499  -3.3479
    -3.3331  -3.3187  -3.3181  -3.3101  -3.3058  -3.2795  -3.2792  -3.2766
    -3.2753  -3.2685  -3.2601  -3.2340  -3.2184  -3.1894  -3.1852  -3.1781
    -3.1684  -3.1498  -3.1469  -3.1458  -3.1084  -3.1082  -3.0960  -3.0938
    -3.0875  -3.0874  -3.0874  -3.0873  -3.0495  -3.0441  -3.0380  -3.0377
    -3.0221  -3.0191  -2.9943  -2.9938  -2.9912  -2.9903  -2.9661  -2.9646
    -2.9634  -2.9412  -2.9363  -2.9354  -2.9241  -2.9166  -2.8849  -2.8848
    -2.8773  -2.8738  -2.8729  -2.8668  -2.8008  -2.7589  -2.7533  -2.7327
    -2.7247  -2.7234  -2.7042  -2.7041  -2.6993  -2.6414  -2.6387  -2.6025
    -2.5666  -2.5641  -2.5635  -2.5541  -2.5451  -2.4796  -2.4113  -2.3687

          k =-0.5000-0.8660 0.0000 (321564 PWs)   bands (ev):

  -102.2438 -70.5580 -70.5559 -70.5559 -70.5549 -70.5280 -70.5280 -70.5122
   -66.7626 -66.7626 -66.7521 -66.7521 -66.7371 -66.7371 -66.7371 -66.7371
   -66.7327 -66.7327 -66.7265 -66.7265 -66.7265 -66.7265 -66.7221 -66.7221
   -66.6967 -66.6964 -66.6860 -66.6860 -66.6711 -66.6711 -66.6711 -66.6710
   -66.6668 -66.6665 -66.6607 -66.6606 -66.6603 -66.6602 -66.6561 -66.6560
   -66.6258 -66.6199 -66.6125 -66.6056 -66.6002 -66.5989 -66.5958 -66.5923
   -66.5914 -66.5865 -66.5765 -66.5754 -66.5681 -66.5676 -66.5667 -66.5629
   -56.5037 -56.4736 -56.4733 -41.0638 -41.0638 -41.0638 -41.0638 -41.0371
   -41.0371 -41.0252 -41.0252 -40.9968 -40.9967 -40.9964 -40.9964 -40.9748
   -40.9748 -40.9748 -40.9748 -40.9701 -40.9698 -40.9580 -40.9580 -40.9254
   -40.9168 -40.9168 -40.9164 -40.9109 -40.9100 -40.9077 -40.9077 -40.9076
   -40.9076 -40.9068 -40.9068 -40.8961 -40.8961 -40.8943 -40.8889 -40.8762
   -40.8701 -40.8666 -40.8666 -40.8666 -40.8666 -40.8580 -40.8580 -40.8513
   -40.8511 -40.8458 -40.8458 -40.8457 -40.8457 -40.8457 -40.8457 -40.8399
   -40.8398 -40.8371 -40.8371 -40.8305 -40.8305 -40.8270 -40.8261 -40.8244
   -40.8228 -40.8151 -40.8151 -40.8151 -40.8151 -40.8012 -40.8011 -40.8011
   -40.8011 -40.7926 -40.7923 -40.7855 -40.7806 -40.7806 -40.7806 -40.7806
   -40.7805 -40.7804 -40.7801 -40.7800 -40.7796 -40.7789 -40.7788 -40.7717
   -40.7716 -40.7685 -40.7685 -40.7659 -40.7596 -40.7557 -40.7553 -40.7493
   -40.7493 -40.7483 -40.7482 -40.7480 -40.7480 -40.7397 -40.7324 -40.7324
   -40.7281 -40.7275 -40.7232 -40.7206 -40.7140 -40.7137 -40.7137 -40.7136
   -40.7136 -40.7116 -40.7040 -40.7029 -40.7020 -40.7019 -40.7017 -40.7015
   -40.7002 -40.6965 -40.6960 -40.6958 -40.6897 -40.6825 -40.6823 -40.6741
   -40.6690 -40.6656 -40.6655 -40.6651 -40.6609 -40.6353 -40.6350 -40.6348
   -40.6316 -40.6303 -40.6284 -40.6220 -40.6117 -40.6039 -40.5994 -40.5794
   -40.5768 -40.5560 -40.5458 -19.9758 -19.9624 -19.9078 -19.8378 -19.7710
   -19.7041 -19.5305 -19.5288 -19.4380 -19.4173 -19.3289 -19.2996 -18.9084
   -18.8450 -18.8237 -18.8213 -18.8206 -18.8199 -18.7844 -18.7787 -18.7678
   -18.7137 -18.7020 -18.6867 -18.6784 -18.6275 -18.6236 -18.6178 -18.6118
   -18.5906 -18.5728 -18.5727 -18.5157 -18.5035 -18.4794 -18.4778 -18.4703
   -18.4577 -18.4306 -18.3744 -18.3710 -18.3340 -18.3040 -18.2959 -18.2935
   -18.2913 -18.2388 -18.2378 -18.2085 -18.2085 -18.2084 -18.2084 -18.1942
   -18.1816 -18.1762 -18.1646 -18.1438 -18.1364 -18.1318 -18.1315 -18.1251
   -18.1234 -18.0951 -18.0768 -18.0652 -18.0506 -18.0506 -18.0475 -18.0466
   -18.0441 -18.0182 -18.0156 -17.9997 -17.9993 -17.9982 -17.9802 -17.9586
   -17.9451 -17.9450 -17.9450 -17.9333 -17.9326 -17.8913 -17.8853 -17.8851
   -17.8742 -17.8689 -17.8686 -17.8453 -17.8433 -17.8283 -17.8263 -17.8090
   -17.7866 -17.7567 -17.7386 -11.9769 -11.7520 -11.7262 -11.5807 -11.5741
   -11.5554 -11.5552 -11.5501 -11.5453 -11.5305 -11.5165 -11.4700 -11.4696
   -11.4599 -11.4523 -11.4221 -11.4134 -11.3844 -11.3661 -11.3602 -11.3581
   -11.3567 -11.3508 -11.3379 -11.3379 -11.2960 -11.2919 -11.2919 -11.2555
   -11.2385 -11.2335 -11.2312 -11.2284 -11.2281 -11.1573 -11.0665 -11.0613
   -11.0516 -11.0391 -11.0266 -11.0006 -10.9945 -10.9854 -10.9703 -10.9499
   -10.9404 -10.9271 -10.9151 -10.9127 -10.9112 -10.9103 -10.9032 -10.9008
   -10.8775 -10.8769 -10.8537 -10.8512 -10.8464 -10.8458 -10.8373 -10.8146
   -10.8014 -10.7785 -10.7382 -10.6521 -10.6439 -10.5754 -10.5707 -10.4988
   -10.4495 -10.4204 -10.3894 -10.3069 -10.2794 -10.2078 -10.2046 -10.2004
   -10.1946 -10.1312 -10.1196 -10.1031 -10.0933 -10.0479 -10.0191 -10.0148
   -10.0130 -10.0122 -10.0090  -9.9818  -9.9783  -9.9735  -9.9715  -9.9681
    -9.9569  -9.8838  -9.8681  -9.8630  -9.8335  -9.8326  -9.8232  -9.8198
    -9.8097  -9.7963  -9.7884  -9.7868  -9.7781  -9.7542  -9.7331  -9.7115
    -9.7025  -9.6993  -9.6899  -9.6850  -9.6831  -9.6827  -9.6681  -9.6145
    -9.6099  -9.6045  -9.5842  -9.5778  -9.5487  -9.5484  -9.5459  -9.4986
    -9.4973  -9.4010  -9.3828  -9.3331  -9.3249  -9.2763  -9.2475  -9.2459
    -9.2303  -9.2158  -9.2101  -9.2083  -9.2044  -9.1964  -9.1960  -9.1527
    -9.1473  -9.1160  -9.1001  -9.0907  -9.0785  -9.0736  -9.0581  -9.0565
    -9.0370  -9.0316  -9.0238  -9.0181  -9.0147  -9.0115  -9.0100  -8.9992
    -8.9885  -8.9858  -8.9729  -8.9609  -8.9536  -8.9397  -8.9353  -8.9278
    -8.9207  -8.9204  -8.9084  -8.9032  -8.8920  -8.8823  -8.8768  -8.8692
    -8.8627  -8.8592  -8.8464  -8.8381  -8.8235  -8.8087  -8.8064  -8.7781
    -8.7597  -8.6049  -8.5937  -8.5904  -8.5326  -8.5234  -8.5040  -8.4707
    -8.4684  -8.3325  -8.3236  -8.2742  -8.2742  -8.2155  -8.2024  -8.2019
    -8.1574  -8.1277  -8.1143  -8.1041  -8.0137  -8.0135  -7.9600  -7.9511
    -7.9448  -7.9409  -7.9303  -7.9283  -7.9275  -7.9275  -7.9206  -7.9159
    -7.8873  -7.8858  -7.8814  -7.8812  -7.8800  -7.8703  -7.8581  -7.8569
    -7.8403  -7.8364  -7.8347  -7.8334  -7.8118  -7.8100  -7.8069  -7.8054
    -7.7958  -7.7865  -7.7697  -7.7693  -7.7661  -7.7636  -7.7446  -7.7424
    -7.7422  -7.7351  -7.7230  -7.7186  -7.7164  -7.7008  -7.6990  -7.6797
    -7.6739  -7.6718  -7.6632  -7.6457  -7.6444  -7.6332  -7.5966  -7.5954
    -7.5823  -7.5283  -7.5244  -7.5145  -7.4344  -7.3602  -7.3278  -7.3232
    -7.3194  -7.3071  -7.2562  -7.2402  -7.1974  -7.1936  -7.1913  -7.1383
    -7.1250  -7.0942  -7.0932  -7.0906  -7.0502  -7.0297  -7.0272  -7.0193
    -7.0172  -7.0039  -7.0005  -6.9706  -6.9243  -6.9221  -6.9122  -6.9028
    -6.8713  -6.8314  -6.8017  -6.7918  -6.7655  -6.7393  -6.7392  -6.7392
    -6.7391  -6.7115  -6.6990  -6.6835  -6.6761  -6.6719  -6.6702  -6.6680
    -6.6613  -6.6211  -6.5962  -6.5846  -6.5831  -6.5502  -6.5238  -6.4868
    -6.4795  -6.4079  -6.4079  -6.4074  -6.4073  -6.3645  -6.3423  -6.3370
    -6.3311  -6.3265  -6.3242  -6.3213  -6.2829  -6.2801  -6.2613  -6.2556
    -6.2436  -6.2128  -6.1991  -6.0591  -6.0591  -5.9839  -5.9828  -5.9216
    -5.8892  -5.8793  -5.8181  -5.6951  -5.6433  -5.4867  -5.4189  -5.4051
    -4.3907  -4.0980  -4.0963  -4.0900  -4.0693  -3.9747  -3.9746  -3.9531
    -3.9384  -3.9096  -3.9095  -3.8504  -3.8449  -3.8347  -3.8323  -3.8245
    -3.7923  -3.7490  -3.7044  -3.6772  -3.6749  -3.6744  -3.6723  -3.6600
    -3.6600  -3.6177  -3.6147  -3.5987  -3.5816  -3.5796  -3.5732  -3.5628
    -3.5551  -3.5510  -3.5462  -3.5441  -3.5417  -3.5387  -3.4899  -3.4868
    -3.4784  -3.4395  -3.4307  -3.4289  -3.4276  -3.4263  -3.4143  -3.3982
    -3.3951  -3.3883  -3.3858  -3.3508  -3.3508  -3.3504  -3.3500  -3.3481
    -3.3335  -3.3189  -3.3185  -3.3104  -3.3060  -3.2796  -3.2794  -3.2767
    -3.2754  -3.2689  -3.2602  -3.2341  -3.2186  -3.1895  -3.1852  -3.1783
    -3.1685  -3.1497  -3.1469  -3.1459  -3.1084  -3.1082  -3.0963  -3.0939
    -3.0876  -3.0875  -3.0874  -3.0873  -3.0494  -3.0440  -3.0378  -3.0376
    -3.0220  -3.0192  -2.9942  -2.9940  -2.9911  -2.9904  -2.9661  -2.9644
    -2.9632  -2.9412  -2.9361  -2.9350  -2.9240  -2.9170  -2.8851  -2.8848
    -2.8775  -2.8745  -2.8742  -2.8708  -2.8012  -2.7590  -2.7556  -2.7336
    -2.7246  -2.7233  -2.7047  -2.7043  -2.6994  -2.6416  -2.6389  -2.6030
    -2.5666  -2.5641  -2.5640  -2.5541  -2.5449  -2.4802  -2.4254  -2.3662

     the Fermi energy is    -4.8211 ev

!    total energy              =  -25519.81664736 Ry
     total all-electron energy =   -502192.359595 Ry
     estimated scf accuracy    <       0.00000068 Ry
     smearing contrib. (-TS)   =      -0.00000054 Ry
     internal energy E=F+TS    =  -25519.81664682 Ry

     The total energy is F=E-TS. E is the sum of the following terms:
     one-electron contribution =  472779.66089491 Ry
     hartree contribution      = -236531.90914984 Ry
     xc contribution           =   -1503.59090282 Ry
     ewald contribution        = -244326.43545317 Ry
     DFT-D3 Dispersion         =      -3.98241852 Ry
     one-center paw contrib.   =  -15933.55961737 Ry

     convergence has been achieved in  22 iterations

     negative rho (up, down):  8.577E-04 0.000E+00

     Forces acting on atoms (cartesian axes, Ry/au):

     atom    1 type  1   force =    -0.00170562   -0.00386071   -0.00196076
     atom    2 type  1   force =     0.00000115   -0.00000068    0.00189902
     atom    3 type  1   force =     0.00002307   -0.00005498    0.00000680
     atom    4 type  2   force =     0.00000159   -0.00000115   -0.00307880
     atom    5 type  2   force =    -0.00000120    0.00000364    0.00019301
     atom    6 type  2   force =     0.00028812   -0.00010856    0.00004490
     atom    7 type  2   force =     0.00000017   -0.00000208    0.00130271
     atom    8 type  2   force =    -0.00000362   -0.00001455   -0.00023158
     atom    9 type  2   force =    -0.00032737   -0.00029406    0.00052436
     atom   10 type  1   force =    -0.00418505    0.00044526   -0.00195407
     atom   11 type  1   force =     0.00000084    0.00000259    0.00189456
     atom   12 type  1   force =    -0.00005111    0.00004561    0.00000174
     atom   13 type  2   force =     0.00000183    0.00000165   -0.00307918
     atom   14 type  2   force =     0.00000302    0.00000016    0.00021032
     atom   15 type  2   force =     0.00005013    0.00030280    0.00004392
     atom   16 type  2   force =    -0.00000021    0.00000000    0.00130484
     atom   17 type  2   force =     0.00000251   -0.00000325   -0.00016417
     atom   18 type  2   force =    -0.00041842   -0.00013707    0.00052227
     atom   19 type  1   force =    -0.00036874    0.00021696    0.00082104
     atom   20 type  1   force =     0.00000424   -0.00000341    0.00189447
     atom   21 type  1   force =    -0.00000390   -0.00005008   -0.00004258
     atom   22 type  2   force =     0.00000038   -0.00000105   -0.00307986
     atom   23 type  2   force =     0.00000406   -0.00000228    0.00019052
     atom   24 type  2   force =     0.00000034   -0.00003557   -0.00004325
     atom   25 type  2   force =     0.00000090   -0.00000016    0.00130375
     atom   26 type  2   force =    -0.00001171    0.00000613   -0.00022974
     atom   27 type  2   force =     0.00000115   -0.00048715   -0.00048525
     atom   28 type  1   force =    -0.00000122   -0.00042409    0.00081519
     atom   29 type  1   force =    -0.00000230    0.00000735    0.00189972
     atom   30 type  1   force =    -0.00003705    0.00001937   -0.00004245
     atom   31 type  2   force =    -0.00000111    0.00000106   -0.00308042
     atom   32 type  2   force =     0.00000068    0.00000382    0.00019914
     atom   33 type  2   force =    -0.00003332    0.00001933   -0.00004263
     atom   34 type  2   force =    -0.00000125    0.00000283    0.00130620
     atom   35 type  2   force =     0.00000057    0.00000338   -0.00021491
     atom   36 type  2   force =    -0.00042211    0.00024454   -0.00048378
     atom   37 type  1   force =     0.00171174   -0.00386174   -0.00196376
     atom   38 type  1   force =    -0.00001172    0.00000641    0.00190057
     atom   39 type  1   force =     0.00000767   -0.00006423    0.00003393
     atom   40 type  2   force =     0.00000015    0.00000087   -0.00307607
     atom   41 type  2   force =    -0.00000124    0.00000226    0.00019224
     atom   42 type  2   force =     0.00000035   -0.00125488   -0.00121601
     atom   43 type  2   force =     0.00000029    0.00000073    0.00130321
     atom   44 type  2   force =     0.00000233   -0.00001591   -0.00023088
     atom   45 type  2   force =     0.00000022    0.00105592   -0.00223082
     atom   46 type  1   force =    -0.00000060   -0.00001134   -0.03401402
     atom   47 type  1   force =    -0.00000110   -0.00000493    0.00189444
     atom   48 type  1   force =     0.00002119   -0.00000503   -0.00000853
     atom   49 type  2   force =     0.00000124    0.00000119   -0.00307926
     atom   50 type  2   force =    -0.00000271   -0.00000200    0.00021317
     atom   51 type  2   force =     0.00091328    0.00052683    0.00404202
     atom   52 type  2   force =     0.00000252    0.00000089    0.00130323
     atom   53 type  2   force =    -0.00000293   -0.00000866   -0.00015212
     atom   54 type  2   force =    -0.02112153   -0.01219345    0.02485985
     atom   55 type  1   force =    -0.00248771    0.00340954   -0.00196067
     atom   56 type  1   force =    -0.00000798   -0.00000096    0.00189212
     atom   57 type  1   force =    -0.00006526    0.00003572    0.00003367
     atom   58 type  2   force =     0.00000162   -0.00000152   -0.00307754
     atom   59 type  2   force =    -0.00000007    0.00000140    0.00020738
     atom   60 type  2   force =    -0.00108473    0.00062887   -0.00121736
     atom   61 type  2   force =     0.00000116   -0.00000051    0.00130124
     atom   62 type  2   force =    -0.00000544    0.00000473   -0.00014892
     atom   63 type  2   force =     0.00091545   -0.00052769   -0.00222962
     atom   64 type  1   force =     0.00044542    0.00026046    0.00070854
     atom   65 type  1   force =    -0.00000065   -0.00000931    0.00189976
     atom   66 type  1   force =     0.00003719    0.00003014   -0.00004256
     atom   67 type  2   force =     0.00000163   -0.00000036   -0.00308053
     atom   68 type  2   force =     0.00000324    0.00000027    0.00018968
     atom   69 type  2   force =     0.00003441    0.00001952   -0.00004279
     atom   70 type  2   force =    -0.00000040    0.00000244    0.00130549
     atom   71 type  2   force =    -0.00001066    0.00001027   -0.00022841
     atom   72 type  2   force =     0.00042305    0.00024418   -0.00048302
     atom   73 type  1   force =    -0.00064699    0.00037122    0.00025399
     atom   74 type  1   force =    -0.00000120   -0.00000219    0.00190002
     atom   75 type  1   force =    -0.00002201   -0.00004389    0.00001059
     atom   76 type  2   force =    -0.00000022    0.00000017   -0.00307923
     atom   77 type  2   force =    -0.00000221   -0.00000141    0.00019439
     atom   78 type  2   force =    -0.00028546   -0.00010814    0.00004613
     atom   79 type  2   force =    -0.00000085    0.00000015    0.00130490
     atom   80 type  2   force =     0.00000384   -0.00000043   -0.00021305
     atom   81 type  2   force =     0.00032836   -0.00029361    0.00052171
     atom   82 type  1   force =     0.00418969    0.00045120   -0.00195593
     atom   83 type  1   force =    -0.00001095    0.00000020    0.00189274
     atom   84 type  1   force =     0.00000455   -0.00000059   -0.00000757
     atom   85 type  2   force =    -0.00000057    0.00000093   -0.00307805
     atom   86 type  2   force =    -0.00000373   -0.00000129    0.00020999
     atom   87 type  2   force =    -0.00091160    0.00052597    0.00404230
     atom   88 type  2   force =    -0.00000143   -0.00000069    0.00130294
     atom   89 type  2   force =    -0.00000132   -0.00000388   -0.00016669
     atom   90 type  2   force =     0.02114036   -0.01220529    0.02485198
     atom   91 type  1   force =     0.00249269    0.00340404   -0.00195724
     atom   92 type  1   force =    -0.00000102   -0.00000481    0.00189186
     atom   93 type  1   force =     0.00000980   -0.00000773   -0.00000690
     atom   94 type  2   force =     0.00000085   -0.00000102   -0.00307681
     atom   95 type  2   force =    -0.00000101    0.00000225    0.00020898
     atom   96 type  2   force =     0.00000090   -0.00104992    0.00403875
     atom   97 type  2   force =     0.00000106    0.00000003    0.00130474
     atom   98 type  2   force =     0.00000357    0.00000584   -0.00014855
     atom   99 type  2   force =    -0.00000139    0.02444374    0.02484271
     atom  100 type  1   force =    -0.00000058   -0.00074543    0.00025196
     atom  101 type  1   force =    -0.00000475    0.00000086    0.00189705
     atom  102 type  1   force =    -0.00005072    0.00001071    0.00001371
     atom  103 type  2   force =     0.00000131   -0.00000124   -0.00307871
     atom  104 type  2   force =    -0.00000092    0.00000054    0.00021387
     atom  105 type  2   force =    -0.00023456   -0.00019344    0.00004705
     atom  106 type  2   force =     0.00000030    0.00000079    0.00130094
     atom  107 type  2   force =    -0.00000136    0.00000240   -0.00016922
     atom  108 type  2   force =    -0.00009024    0.00043240    0.00051723
     atom  109 type  1   force =     0.00064258    0.00036771    0.00025400
     atom  110 type  1   force =     0.00000233   -0.00000559    0.00189713
     atom  111 type  1   force =    -0.00000445    0.00000828   -0.00002899
     atom  112 type  2   force =     0.00000198   -0.00000160   -0.00307939
     atom  113 type  2   force =     0.00000222   -0.00000213    0.00019714
     atom  114 type  2   force =     0.00000044   -0.00000140    0.00013239
     atom  115 type  2   force =    -0.00000006   -0.00000131    0.00130652
     atom  116 type  2   force =    -0.00000300    0.00000048   -0.00021473
     atom  117 type  2   force =    -0.00000019   -0.00000062   -0.00015031
     atom  118 type  1   force =    -0.00000788   -0.00051386    0.00071386
     atom  119 type  1   force =     0.00000032    0.00000567    0.00189553
     atom  120 type  1   force =     0.00003759    0.00003885    0.00000493
     atom  121 type  2   force =    -0.00000093    0.00000108   -0.00308223
     atom  122 type  2   force =     0.00000138    0.00000067    0.00019849
     atom  123 type  2   force =    -0.00004858    0.00030192    0.00004404
     atom  124 type  2   force =    -0.00000040   -0.00000131    0.00130911
     atom  125 type  2   force =     0.00000147   -0.00000625   -0.00021232
     atom  126 type  2   force =     0.00041992   -0.00013670    0.00052040
     atom  127 type  1   force =     0.00036482    0.00021454    0.00081981
     atom  128 type  1   force =    -0.00000625   -0.00000123    0.00189502
     atom  129 type  1   force =     0.00006252    0.00003147    0.00003321
     atom  130 type  2   force =    -0.00000135   -0.00000058   -0.00308232
     atom  131 type  2   force =    -0.00000336   -0.00000071    0.00018813
     atom  132 type  2   force =     0.00108430    0.00062843   -0.00121822
     atom  133 type  2   force =    -0.00000339    0.00000105    0.00130714
     atom  134 type  2   force =     0.00001497    0.00000686   -0.00022708
     atom  135 type  2   force =    -0.00091586   -0.00052729   -0.00223367
     atom  136 type  1   force =    -0.00044373    0.00024964    0.00070961
     atom  137 type  1   force =    -0.00000104    0.00000390    0.00190086
     atom  138 type  1   force =     0.00005766    0.00000673    0.00000612
     atom  139 type  2   force =     0.00000036   -0.00000106   -0.00308472
     atom  140 type  2   force =    -0.00000399    0.00000095    0.00019024
     atom  141 type  2   force =     0.00023677   -0.00019310    0.00004522
     atom  142 type  2   force =     0.00000040   -0.00000022    0.00130667
     atom  143 type  2   force =     0.00001029    0.00001275   -0.00022901
     atom  144 type  2   force =     0.00009212    0.00043194    0.00051954
     atom  145 type  3   force =    -0.00002105   -0.00003216   -0.03810566
     The non-local contrib.  to forces
     atom    1 type  1   force =     0.00130149    0.00641654   -0.00004569
     atom    2 type  1   force =    -0.00000131   -0.00000631   -0.00196176
     atom    3 type  1   force =    -0.00003638   -0.00012495   -0.00069798
     atom    4 type  2   force =     0.00000136    0.00000005    0.26310486
     atom    5 type  2   force =    -0.00000037   -0.00000261    0.26630776
     atom    6 type  2   force =    -0.00019147   -0.00066289    0.26612949
     atom    7 type  2   force =     0.00000160    0.00000090   -0.26449832
     atom    8 type  2   force =    -0.00001212   -0.00000621   -0.26510097
     atom    9 type  2   force =    -0.00300662   -0.00205694   -0.26159320
     atom   10 type  1   force =     0.00620183   -0.00208156   -0.00004665
     atom   11 type  1   force =    -0.00000346    0.00000024   -0.00196374
     atom   12 type  1   force =    -0.00012281    0.00002521   -0.00069931
     atom   13 type  2   force =    -0.00000058   -0.00000106    0.26310372
     atom   14 type  2   force =     0.00000986    0.00000363    0.26630337
     atom   15 type  2   force =    -0.00067097    0.00016421    0.26612875
     atom   16 type  2   force =     0.00000102    0.00000151   -0.26449468
     atom   17 type  2   force =     0.00003267    0.00001668   -0.26452593
     atom   18 type  2   force =    -0.00328477   -0.00157565   -0.26159153
     atom   19 type  1   force =     0.00054043   -0.00031390   -0.00268730
     atom   20 type  1   force =    -0.00000405    0.00000154   -0.00196219
     atom   21 type  1   force =    -0.00000058    0.00000133   -0.00064217
     atom   22 type  2   force =     0.00000023   -0.00000023    0.26310474
     atom   23 type  2   force =    -0.00000526    0.00000111    0.26630896
     atom   24 type  2   force =    -0.00000156    0.00063764    0.26669988
[...]
     atom   63 type  2   force =     0.00046822   -0.00027035   -0.00420287
     atom   64 type  1   force =     0.00001519    0.00000879   -0.00252958
     atom   65 type  1   force =    -0.00000023   -0.00000004    0.00260432
     atom   66 type  1   force =    -0.00000065   -0.00000037   -0.00001932
     atom   67 type  2   force =    -0.00000006    0.00000004    0.00441176
     atom   68 type  2   force =    -0.00000189    0.00000002   -0.00004760
     atom   69 type  2   force =    -0.00000073   -0.00000042   -0.00019016
     atom   70 type  2   force =    -0.00000005    0.00000003    0.00023559
     atom   71 type  2   force =    -0.00001928    0.00001463    0.00008678
     atom   72 type  2   force =     0.00002377    0.00001373   -0.00439223
     atom   73 type  1   force =    -0.00008761    0.00005059   -0.00251718
     atom   74 type  1   force =    -0.00000020   -0.00000012    0.00260377
     atom   75 type  1   force =     0.00000884   -0.00000880   -0.00002840
     atom   76 type  2   force =     0.00000000    0.00000000    0.00441165
     atom   77 type  2   force =    -0.00000033   -0.00000019   -0.00004614
     atom   78 type  2   force =     0.00000826    0.00000585   -0.00013152
     atom   79 type  2   force =    -0.00000055   -0.00000031    0.00023538
     atom   80 type  2   force =     0.00000283    0.00000164    0.00009683
     atom   81 type  2   force =    -0.00020298    0.00023831   -0.00430423
     atom   82 type  1   force =    -0.00030816    0.00001076   -0.00227111
     atom   83 type  1   force =    -0.00000014    0.00000008    0.00260402
     atom   84 type  1   force =     0.00001173   -0.00000677   -0.00006553
     atom   85 type  2   force =     0.00000002   -0.00000001    0.00441158
     atom   86 type  2   force =     0.00000036   -0.00000020   -0.00005004
     atom   87 type  2   force =    -0.00003944    0.00002277    0.00020634
     atom   88 type  2   force =    -0.00000023   -0.00000001    0.00023549
     atom   89 type  2   force =     0.00001324   -0.00000764    0.00009253
     atom   90 type  2   force =    -0.00021054    0.00012154   -0.00442487
     atom   91 type  1   force =    -0.00014475   -0.00027227   -0.00227111
     atom   92 type  1   force =     0.00000004    0.00000003    0.00260421
     atom   93 type  1   force =     0.00000000    0.00001354   -0.00006553
     atom   94 type  2   force =     0.00000000    0.00000000    0.00441147
     atom   95 type  2   force =     0.00000102    0.00000059   -0.00005379
     atom   96 type  2   force =     0.00000000   -0.00004554    0.00020632
     atom   97 type  2   force =    -0.00000000   -0.00000000    0.00023575
     atom   98 type  2   force =     0.00001935    0.00001117    0.00007729
     atom   99 type  2   force =    -0.00000001   -0.00024309   -0.00442487
     atom  100 type  1   force =     0.00000000   -0.00010116   -0.00251718
     atom  101 type  1   force =    -0.00000000   -0.00000016    0.00260402
     atom  102 type  1   force =    -0.00000320    0.00001206   -0.00002840
     atom  103 type  2   force =     0.00000000    0.00000003    0.00441158
     atom  104 type  2   force =     0.00000000    0.00000041   -0.00005004
     atom  105 type  2   force =     0.00000919    0.00000424   -0.00013153
     atom  106 type  2   force =    -0.00000012   -0.00000020    0.00023549
     atom  107 type  2   force =     0.00000000    0.00001529    0.00009253
     atom  108 type  2   force =     0.00010489   -0.00029493   -0.00430423
     atom  109 type  1   force =     0.00008761    0.00005059   -0.00251718
     atom  110 type  1   force =     0.00000020   -0.00000012    0.00260377
     atom  111 type  1   force =    -0.00000000   -0.00000000   -0.00001463
     atom  112 type  2   force =     0.00000000   -0.00000001    0.00441159
     atom  113 type  2   force =     0.00000034   -0.00000020   -0.00004614
     atom  114 type  2   force =     0.00000000    0.00000001   -0.00017318
     atom  115 type  2   force =    -0.00000000   -0.00000044    0.00023549
     atom  116 type  2   force =    -0.00000283    0.00000163    0.00009684
     atom  117 type  2   force =     0.00000001    0.00000002   -0.00439973
     atom  118 type  1   force =     0.00000001   -0.00001757   -0.00252958
     atom  119 type  1   force =    -0.00000000    0.00000023    0.00260377
     atom  120 type  1   force =     0.00001204   -0.00000326   -0.00002840
     atom  121 type  2   force =    -0.00000001    0.00000001    0.00441159
     atom  122 type  2   force =     0.00000000    0.00000039   -0.00004614
     atom  123 type  2   force =    -0.00000093   -0.00001008   -0.00013151
     atom  124 type  2   force =    -0.00000038    0.00000022    0.00023550
     atom  125 type  2   force =    -0.00000000   -0.00000327    0.00009684
     atom  126 type  2   force =    -0.00030785    0.00005663   -0.00430423
     atom  127 type  1   force =    -0.00011015   -0.00006360   -0.00252545
     atom  128 type  1   force =     0.00000008    0.00000022    0.00260432
     atom  129 type  1   force =     0.00001397    0.00000807   -0.00004242
     atom  130 type  2   force =     0.00000002   -0.00000001    0.00441158
     atom  131 type  2   force =     0.00000096    0.00000163   -0.00004760
     atom  132 type  2   force =    -0.00002837   -0.00001638   -0.00008455
     atom  133 type  2   force =    -0.00000011    0.00000020    0.00023549
     atom  134 type  2   force =     0.00002231    0.00000938    0.00008678
     atom  135 type  2   force =    -0.00046822   -0.00027034   -0.00420287
     atom  136 type  1   force =    -0.00001520    0.00000880   -0.00252958
     atom  137 type  1   force =     0.00000023   -0.00000004    0.00260432
     atom  138 type  1   force =     0.00000320    0.00001205   -0.00002840
     atom  139 type  2   force =     0.00000000    0.00000003    0.00441158
     atom  140 type  2   force =     0.00000190    0.00000002   -0.00004760
     atom  141 type  2   force =    -0.00000918    0.00000424   -0.00013153
     atom  142 type  2   force =     0.00000012   -0.00000020    0.00023549
     atom  143 type  2   force =     0.00001928    0.00001463    0.00008678
     atom  144 type  2   force =    -0.00010488   -0.00029492   -0.00430423
     atom  145 type  3   force =    -0.00000000   -0.00000001   -0.00675054

     Total force =     0.001787     Total SCF correction =     0.000425
     SCF correction compared to forces is large: reduce conv_thr to get better values
     Energy error            =      8.6E-06 Ry
     Gradient error          =      6.1E-04 Ry/Bohr

     bfgs converged in  19 scf cycles and  18 bfgs steps
     (criteria: energy <  1.0E-04 Ry, force <  1.0E-03 Ry/Bohr)

     End of BFGS Geometry Optimization

     Final energy             =  -25519.8466619249 Ry

     File ./outdir/pwscf.bfgs deleted, as requested
Begin final coordinates

ATOMIC_POSITIONS (angstrom)
Mo            1.5706913990        2.7140638004        6.0922801209
Mo            1.5769197498        0.9104407117       -6.0872367793    0   0   0
Mo            0.0001802565        1.8211304415       -0.0005097878
S             0.0000044503        0.0000077495       -7.6506323570    0   0   0
S             1.5767379971        0.9109662914       -1.5666016266
S             0.0037724889        1.8238142099        4.5068513944
S             0.0000053241        0.0000068460       -4.5222282367    0   0   0
S             1.5772212792        0.9100404295        1.5658168660
S            -0.0145734204        1.8042368575        7.6470673511
Mo           -0.0180434439        5.4658278611        6.0922778846
Mo            0.0000011799        3.6417399547       -6.0872367793    0   0   0
Mo           -1.5766106120        4.5522062455       -0.0005094666
S            -1.5769141197        2.7313069925       -7.6506323570    0   0   0
S             0.0003152037        3.6419277548       -1.5659061160
S            -1.5724785797        4.5539589985        4.5068515317
S            -1.5769132459        2.7313060890       -4.5222282367    0   0   0
S             0.0011643856        3.6424186355        1.5671303509
S            -1.5986055406        4.5478571202        7.6470675921
Mo           -1.5789548537        8.1950512185        6.0809883216
Mo           -1.5769173901        6.3730391977       -6.0872367793    0   0   0
Mo           -3.1538578396        7.2833243496       -0.0018961233
S            -3.1538326896        5.4626062355       -7.6506323570    0   0   0
S            -1.5765598357        6.3726299948       -1.5666001288
S            -3.1538532709        7.2870559984        4.5096577244
S            -3.1538318159        5.4626053320       -4.5222282367    0   0   0
S            -1.5771191514        6.3735103839        1.5658174085
S            -3.1538533764        7.2807006474        7.6450993295
Mo            3.1538157553       -0.0023360134        6.0809911010
Mo           -3.1538359601        9.1043384407       -6.0872367793    0   0   0
Mo           -4.7308984554       10.0148354422       -0.0018976748
S            -4.7307512596        8.1939054785       -7.6506323570    0   0   0
S            -3.1538585474        9.1043314538       -1.5673215963
S            -4.7276515718       10.0129534801        4.5096572615
S            -4.7307503859        8.1939045750       -4.5222282367    0   0   0
S            -3.1538595144        9.1043307676        1.5646083912
S            -4.7331578733       10.0161306515        7.6450990332
Mo            4.7369365898        2.7140663214        6.0922805349
Mo            4.7307503218        0.9104407117       -6.0872367793    0   0   0
Mo            3.1538108953        1.8211144367       -0.0009227304
S             3.1538350223        0.0000077495       -7.6506323570    0   0   0
S             4.7308872343        0.9109676590       -1.5666014095
S             3.1538145782        1.8225182347        4.5204377853
S             3.1538358961        0.0000068460       -4.5222282367    0   0   0
S             4.7304016847        0.9100420436        1.5658165252
S             3.1538171555        1.8118904827        7.6548692301
Mo            3.1538081895        5.4625854551        6.1477145747
Mo            3.1538317519        3.6417399547       -6.0872367793    0   0   0
Mo            1.5773095110        4.5524058041       -0.0004653355
S             1.5769164523        2.7313069925       -7.6506323570    0   0   0
S             3.1538106772        3.6419203746       -1.5662032768
S             1.6012327533        4.5662076223        4.5701868147
S             1.5769173261        2.7313060890       -4.5222282367    0   0   0
S             3.1538086708        3.6418123827        1.5673617298
S             1.4427765982        4.4747233064        7.7327310616
Mo            1.5650824117        8.2078753758        6.0922797763
Mo            1.5769131819        6.3730391977       -6.0872367793    0   0   0
Mo            0.0001895334        7.2833411768       -0.0009227934
S            -0.0000021176        5.4626062355       -7.6506323570    0   0   0
S             1.5770514975        6.3729407006       -1.5662031760
S             0.0014142232        7.2826240029        4.5204356656
S            -0.0000012439        5.4626053320       -4.5222282367    0   0   0
S             1.5769583775        6.3729930378        1.5673632163
S            -0.0077862428        7.2879419109        7.6548649415
Mo            6.3085856907        0.0005333385        6.0695546223
Mo           -0.0000053881        9.1043384407       -6.0872367793    0   0   0
Mo           -1.5768234738       10.0148353863       -0.0018962881
S            -1.5769206876        8.1939054785       -7.6506323570    0   0   0
S             0.0005119801        9.1042044753       -1.5666011551
S            -1.5800641573       10.0129518482        4.5096570440
S            -1.5769198139        8.1939045750       -4.5222282367    0   0   0
S            -0.0005317751        9.1042468251        1.5658182441
S            -1.5745553364       10.0161304696        7.6450996768
Mo            7.8858805942        2.7305282348        6.0726587162
Mo            7.8845808939        0.9104407117       -6.0872367793    0   0   0
Mo            6.3074413237        1.8211313563       -0.0005083998
S             6.3076655943        0.0000077495       -7.6506323570    0   0   0
S             7.8842795205        0.9102752489       -1.5661113044
S             6.3038574321        1.8238124277        4.5068445970
S             6.3076664681        0.0000068460       -4.5222282367    0   0   0
S             7.8846424063        0.9104843877        1.5661194877
S             6.3222058796        1.8042360432        7.6470666274
Mo            6.3256655165        5.4658269529        6.0922786809
Mo            6.3076623239        3.6417399547       -6.0872367793    0   0   0
Mo            4.7303063056        4.5524069955       -0.0004663067
S             4.7307470244        2.7313069925       -7.6506323570    0   0   0
S             6.3073020373        3.6419277023       -1.5659047763
S             4.7063960430        4.5662053962        4.5701828726
S             4.7307478981        2.7313060890       -4.5222282367    0   0   0
S             6.3064538974        3.6424189247        1.5671299976
S             4.8648262008        4.4747383510        7.7327361462
Mo            4.7425347535        8.2078777694        6.0922797704
Mo            4.7307437539        6.3730391977       -6.0872367793    0   0   0
Mo            3.1538052973        7.2829860231       -0.0004663606
S             3.1538284544        5.4626062355       -7.6506323570    0   0   0
S             4.7305588953        6.3729388748       -1.5662029418
S             3.1538096363        7.2553622695        4.5701806542
S             3.1538293281        5.4626053320       -4.5222282367    0   0   0
S             4.7306516979        6.3729931047        1.5673648434
S             3.1538113321        7.4382595759        7.7327406155
Mo            9.4614784828        0.0015179475        6.0726572539
Mo            3.1538251839        9.1043384407       -6.0872367793    0   0   0
Mo            1.5770164255       10.0144623023       -0.0005081700
S             1.5769098844        8.1939054785       -7.6506323570    0   0   0
S             3.1538021418        9.1039429323       -1.5659058814
S             1.5775554286       10.0100003780        4.5068411354
S             1.5769107581        8.1939045750       -4.5222282367    0   0   0
S             3.1538032919        9.1029616164        1.5671297950
S             1.5697760261       10.0356765665        7.6470642092
Mo           -1.5782504647        2.7305293439        6.0726623743
Mo           11.0384114659        0.9104407117       -6.0872367793    0   0   0
Mo            9.4614719667        1.8208670195       -0.0012002662
S             9.4614961663        0.0000077495       -7.6506323570    0   0   0
S            11.0386642441        0.9102745397       -1.5661115884
S             9.4614781974        1.8208603573        4.5060626359
S             9.4614970401        0.0000068460       -4.5222282367    0   0   0
S            11.0383018373        0.9104834256        1.5661184991
S             9.4614740945        1.8208584682        7.6408040265
Mo           -3.1538491871        5.4615027486        6.0695603807
Mo            9.4614928959        3.6417399547       -6.0872367793    0   0   0
Mo            7.8842261606        4.5522084067       -0.0005084301
S             7.8845775964        2.7313069925       -7.6506323570    0   0   0
S             9.4614679514        3.6420541235       -1.5661108524
S             7.8801053577        4.5539588132        4.5068472202
S             7.8845784701        2.7313060890       -4.5222282367    0   0   0
S             9.4614686629        3.6416360376        1.5661178566
S             7.9062297037        4.5478531751        7.6470687253
Mo           -4.7287521304        8.1950527996        6.0809876503
Mo            7.8845743259        6.3730391977       -6.0872367793    0   0   0
Mo            6.3074193180        7.2833413802       -0.0009244397
S             6.3076590264        5.4626062355       -7.6506323570    0   0   0
S             7.8841673446        6.3726282313       -1.5665996372
S             6.3062042345        7.2826250942        4.5204340530
S             6.3076599001        5.4626053320       -4.5222282367    0   0   0
S             7.8847260355        6.3735095091        1.5658163350
S             6.3154048746        7.2879400616        7.6548655243
Mo           -0.0009531597        0.0005355627        6.0695569332
Mo            6.3076557559        9.1043384407       -6.0872367793    0   0   0
Mo            4.7305886574       10.0144626593       -0.0005094367
S             4.7307404564        8.1939054785       -7.6506323570    0   0   0
S             6.3070917202        9.1042014135       -1.5666019461
S             4.7300559222       10.0100020817        4.5068440304
S             4.7307413301        8.1939045750       -4.5222282367    0   0   0
S             6.3081345651        9.1042453706        1.5658177737
S             4.7378325847       10.0356764368        7.6470661730
Pt            3.1537949167        5.4625541713        8.8883906286
End final coordinates



     Writing all to output data dir ./outdir/pwscf.save/
 
     init_run     :    103.00s CPU    106.00s WALL (       1 calls)
     electrons    :  88852.13s CPU  90214.72s WALL (      19 calls)
     update_pot   :     78.12s CPU     78.38s WALL (      18 calls)
     forces       :   1342.54s CPU   1390.93s WALL (      19 calls)
     force_dftd3  :      8.56s CPU      8.57s WALL (      19 calls)

     Called by init_run:
     wfcinit      :     82.51s CPU     83.75s WALL (       1 calls)
     potinit      :      2.00s CPU      2.08s WALL (       1 calls)
     hinit0       :     11.66s CPU     11.69s WALL (       1 calls)

     Called by electrons:
     c_bands      :  78158.34s CPU  78667.68s WALL (     253 calls)
     sum_band     :   9440.16s CPU   9904.41s WALL (     253 calls)
     v_of_rho     :    103.90s CPU    105.39s WALL (     259 calls)
     newd         :    964.72s CPU   1373.68s WALL (     259 calls)
     PAW_pot      :    184.19s CPU    184.24s WALL (     277 calls)
     mix_rho      :     28.11s CPU     28.16s WALL (     253 calls)
     energy_dftd3 :      3.90s CPU      3.90s WALL (      19 calls)

     Called by c_bands:
     init_us_2    :    398.03s CPU    398.20s WALL (    2176 calls)
     init_us_2:cp :    398.01s CPU    398.19s WALL (    2176 calls)
     cegterg      :  76840.43s CPU  77345.56s WALL (    1037 calls)

     Called by *egterg:
     cdiaghg      :   4814.81s CPU   4829.72s WALL (   12249 calls)
     h_psi        :  41344.28s CPU  41489.35s WALL (   12384 calls)
     s_psi        :   8147.54s CPU   8147.76s WALL (   12384 calls)
     g_psi        :     94.54s CPU     94.34s WALL (   11343 calls)

     Called by h_psi:
     h_psi:calbec :   8109.93s CPU   8111.71s WALL (   12384 calls)
     vloc_psi     :  24905.39s CPU  24961.12s WALL (   12384 calls)
     add_vuspsi   :   8217.48s CPU   8219.13s WALL (   12384 calls)

     General routines
     calbec       :  11414.79s CPU  11417.31s WALL (   13772 calls)
     fft          :     94.50s CPU     96.49s WALL (    3569 calls)
     ffts         :      4.56s CPU      4.56s WALL (     512 calls)
     fftw         :  19843.43s CPU  19889.12s WALL ( 5592262 calls)
     interpolate  :     10.38s CPU     10.40s WALL (     259 calls)
 
     Parallel routines
 
     PWSCF        :   1d 1h13m CPU   1d 1h38m WALL

 
   This run was terminated on:  13:59:38  16Dec2023            

=------------------------------------------------------------------------------=
   JOB DONE.
=------------------------------------------------------------------------------=
Application 11497454 resources: utime ~3269914s, stime ~52049s, Rss ~2621852, inblocks ~0, outblocks ~37693280
