
     Program PWSCF v.7.2 starts on  9Dec2023 at 12:37:45 

     This program is part of the open-source Quantum ESPRESSO suite
     for quantum simulation of materials; please cite
         "P. Giannozzi et al., J. Phys.:Condens. Matter 21 395502 (2009);
         "P. Giannozzi et al., J. Phys.:Condens. Matter 29 465901 (2017);
         "P. Giannozzi et al., J. Chem. Phys. 152 154105 (2020);
          URL http://www.quantum-espresso.org", 
     in publications or presentations arising from this work. More details at
     http://www.quantum-espresso.org/quote

     Parallel version (MPI), running on    36 processors

     MPI processes distributed on     1 nodes
     768903 MiB available memory on the printing compute node when the environment starts
 
     Waiting for input...
     Reading input from standard input
Warning: card &CELL ignored
Warning: card / ignored

     Current dimensions of program PWSCF are:
     Max number of different atomic species (ntypx) = 10
     Max number of k-points (npk) =  40000
     Max angular momentum in pseudopotentials (lmaxx) =  4
     file Mo.pbe-spn-kjpaw_psl.1.0.0.UPF: wavefunction(s)  4S 4D renormalized
     file S.pbe-n-kjpaw_psl.1.0.0.UPF: wavefunction(s)  3S 3P renormalized
     file Pd.pbe-spn-kjpaw_psl.1.0.0.UPF: wavefunction(s)  4S 5S 4D renormalized
 
     R & G space division:  proc/nbgrp/npool/nimage =      36
     Subspace diagonalization in iterative solution of the eigenvalue problem:
     one sub-group per band group will be used
     custom distributed-memory algorithm (size of sub-group:  6*  6 procs)

 
     Parallelization info
     --------------------
     sticks:   dense  smooth     PW     G-vecs:    dense   smooth      PW
     Min         585     334     89               198743    85850   11735
     Max         586     335     90               198750    85861   11748
     Sum       21073   12049   3205              7154885  3090769  422587
 
     Using Slab Decomposition
 


     bravais-lattice index     =            0
     lattice parameter (alat)  =      23.8199  a.u.
     unit-cell volume          =   33861.0370 (a.u.)^3
     number of atoms/cell      =          196
     number of atomic types    =            3
     number of electrons       =      1736.00
     number of Kohn-Sham states=         1042
     kinetic-energy cutoff     =      77.0000  Ry
     charge density cutoff     =     539.0000  Ry
     scf convergence threshold =      1.0E-06
     mixing beta               =       0.2000
     number of iterations used =            8  plain     mixing
     energy convergence thresh.=      1.0E-04
     force convergence thresh. =      1.0E-03
     Exchange-correlation= SLA  PW   PBX  PBC
                           (   1   4   3   4   0   0   0)
     nstep                     =         1000


     Effective Screening Medium Method
     =================================
     Boundary Conditions: Vacuum-Slab-Vacuum
     total charge in unit cell        =   0.0000
     grid points for fit at edges     =        4 
 

     celldm(1)=  23.819920  celldm(2)=   0.000000  celldm(3)=   0.000000
     celldm(4)=   0.000000  celldm(5)=   0.000000  celldm(6)=   0.000000

     crystal axes: (cart. coord. in units of alat)
               a(1) = (   1.000000   0.000000   0.000000 )  
               a(2) = (  -0.499999   0.866026   0.000000 )  
               a(3) = (   0.000000   0.000000   2.893000 )  

     reciprocal axes: (cart. coord. in units 2 pi/alat)
               b(1) = (  1.000000  0.577349  0.000000 )  
               b(2) = (  0.000000  1.154700  0.000000 )  
               b(3) = (  0.000000  0.000000  0.345662 )  


     PseudoPot. # 1 for Mo read from file:
     ./pseudo/Mo.pbe-spn-kjpaw_psl.1.0.0.UPF
     MD5 check sum: 317bf72632116215fd98f72de1686f13
     Pseudo is Projector augmented-wave + core cor, Zval = 14.0
     Generated using 'atomic' code by A. Dal Corso  v.7.2
     Shape of augmentation charge: PSQ
     Using radial grid of 1229 points,  6 beta functions with: 
                l(1) =   0
                l(2) =   0
                l(3) =   1
                l(4) =   1
                l(5) =   2
                l(6) =   2
     Q(r) pseudized with 0 coefficients 


     PseudoPot. # 2 for S  read from file:
     ./pseudo/S.pbe-n-kjpaw_psl.1.0.0.UPF
     MD5 check sum: 8b7b5302570d38d5e87fed6a1065abda
     Pseudo is Projector augmented-wave + core cor, Zval =  6.0
     Generated using 'atomic' code by A. Dal Corso  v.7.2
     Shape of augmentation charge: PSQ
     Using radial grid of 1151 points,  6 beta functions with: 
                l(1) =   0
                l(2) =   0
                l(3) =   1
                l(4) =   1
                l(5) =   2
                l(6) =   2
     Q(r) pseudized with 0 coefficients 


     PseudoPot. # 3 for Pd read from file:
     ./pseudo/Pd.pbe-spn-kjpaw_psl.1.0.0.UPF
     MD5 check sum: a60571a671f2502b8a6a4569d20a6edb
     Pseudo is Projector augmented-wave + core cor, Zval = 18.0
     Generated using 'atomic' code by A. Dal Corso  v.7.2
     Shape of augmentation charge: PSQ
     Using radial grid of 1235 points,  6 beta functions with: 
                l(1) =   0
                l(2) =   0
                l(3) =   1
                l(4) =   1
                l(5) =   2
                l(6) =   2
     Q(r) pseudized with 0 coefficients 


     atomic species   valence    mass     pseudopotential
        Mo            14.00    95.95000     Mo( 1.00)
        S              6.00    32.06000     S ( 1.00)
        Pd            18.00   106.42000     Pd( 1.00)

     No symmetry found



   Cartesian axes

     site n.     atom                  positions (alat units)
         1           Mo  tau(   1) = (   0.0000010   0.1443372  -0.7272732  )
         2           Mo  tau(   2) = (   0.1249995   0.0721706  -0.2424038  )
         3           S   tau(   3) = (   0.0000015   0.1443386  -0.3667807  )
         4           S   tau(   4) = (   0.1250010   0.0721682  -0.6030489  )
         5           S   tau(   5) = (   0.1250010   0.0721683  -0.8514963  )
         6           S   tau(   6) = (   0.0000015   0.1443389  -0.1180260  )
         7           Mo  tau(   7) = (  -0.0000583   0.1447254   0.2427684  )
         8           Mo  tau(   8) = (   0.1248950   0.0719039   0.7279756  )
         9           S   tau(   9) = (  -0.0004167   0.1444522   0.6036897  )
        10           S   tau(  10) = (   0.1249187   0.0725551   0.3671606  )
        11           S   tau(  11) = (   0.1249617   0.0725668   0.1183937  )
        12           S   tau(  12) = (  -0.0007198   0.1403872   0.8545041  )
        13           Mo  tau(  13) = (  -0.1249989   0.3608437  -0.7272732  )
        14           Mo  tau(  14) = (   0.0000030   0.2886752  -0.2424042  )
        15           S   tau(  15) = (  -0.1249977   0.3608450  -0.3667802  )
        16           S   tau(  16) = (   0.0000012   0.2886747  -0.6030489  )
        17           S   tau(  17) = (   0.0000012   0.2886748  -0.8514963  )
        18           S   tau(  18) = (  -0.1249977   0.3608454  -0.1180274  )
        19           Mo  tau(  19) = (  -0.1250491   0.3612206   0.2427667  )
        20           Mo  tau(  20) = (  -0.0025394   0.2881170   0.7277177  )
        21           S   tau(  21) = (  -0.1258866   0.3618011   0.6036877  )
        22           S   tau(  22) = (  -0.0000871   0.2890423   0.3672091  )
        23           S   tau(  23) = (   0.0000040   0.2890806   0.1184173  )
        24           S   tau(  24) = (  -0.1295652   0.3635864   0.8544887  )
        25           Mo  tau(  25) = (  -0.2499987   0.5773502  -0.7272732  )
        26           Mo  tau(  26) = (  -0.1249977   0.5051839  -0.2424055  )
        27           S   tau(  27) = (  -0.2499981   0.5773518  -0.3667809  )
        28           S   tau(  28) = (  -0.1249986   0.5051812  -0.6030489  )
        29           S   tau(  29) = (  -0.1249986   0.5051813  -0.8514963  )
        30           S   tau(  30) = (  -0.2499979   0.5773512  -0.1180266  )
        31           Mo  tau(  31) = (  -0.2500517   0.5777232   0.2427593  )
        32           Mo  tau(  32) = (  -0.1260830   0.5066058   0.7279656  )
        33           S   tau(  33) = (  -0.2501944   0.5782650   0.6026630  )
        34           S   tau(  34) = (  -0.1250653   0.5055450   0.3671594  )
        35           S   tau(  35) = (  -0.1250235   0.5055594   0.1183942  )
        36           S   tau(  36) = (  -0.2508999   0.5787460   0.8521187  )
        37           Mo  tau(  37) = (  -0.3749985   0.7938567  -0.7272732  )
        38           Mo  tau(  38) = (  -0.2500001   0.7216874  -0.2424031  )
        39           S   tau(  39) = (  -0.3749980   0.7938584  -0.3667800  )
        40           S   tau(  40) = (  -0.2499984   0.7216877  -0.6030489  )
        41           S   tau(  41) = (  -0.2499984   0.7216878  -0.8514963  )
        42           S   tau(  42) = (  -0.3749982   0.7938585  -0.1180264  )
        43           Mo  tau(  43) = (  -0.3750588   0.7942449   0.2427588  )
        44           Mo  tau(  44) = (  -0.2501482   0.7225066   0.7272755  )
        45           S   tau(  45) = (  -0.3750604   0.7946192   0.6026681  )
        46           S   tau(  46) = (  -0.2500610   0.7220690   0.3671248  )
        47           S   tau(  47) = (  -0.2500778   0.7220461   0.1183649  )
        48           S   tau(  48) = (  -0.3749968   0.7937615   0.8521248  )
        49           Mo  tau(  49) = (   0.2500010   0.1443372  -0.7272732  )
        50           Mo  tau(  50) = (   0.3750034   0.0721723  -0.2424032  )
        51           S   tau(  51) = (   0.2500017   0.1443391  -0.3667788  )
        52           S   tau(  52) = (   0.3750010   0.0721682  -0.6030489  )
        53           S   tau(  53) = (   0.3750010   0.0721683  -0.8514963  )
        54           S   tau(  54) = (   0.2500016   0.1443391  -0.1180271  )
        55           Mo  tau(  55) = (   0.2499409   0.1447203   0.2428165  )
        56           Mo  tau(  56) = (   0.3751872   0.0721705   0.7277089  )
        57           S   tau(  57) = (   0.2502846   0.1444556   0.6038833  )
        58           S   tau(  58) = (   0.3749787   0.0725319   0.3671375  )
        59           S   tau(  59) = (   0.3748928   0.0725411   0.1183826  )
        60           S   tau(  60) = (   0.2504099   0.1406212   0.8546000  )
        61           Mo  tau(  61) = (   0.1250012   0.3608437  -0.7272732  )
        62           Mo  tau(  62) = (   0.2500029   0.2886782  -0.2424031  )
        63           S   tau(  63) = (   0.1250024   0.3608455  -0.3667794  )
        64           S   tau(  64) = (   0.2500012   0.2886747  -0.6030489  )
        65           S   tau(  65) = (   0.2500012   0.2886748  -0.8514963  )
        66           S   tau(  66) = (   0.1250021   0.3608455  -0.1180270  )
        67           Mo  tau(  67) = (   0.1249576   0.3612317   0.2428726  )
        68           Mo  tau(  68) = (   0.2525357   0.2881885   0.7275823  )
        69           S   tau(  69) = (   0.1248964   0.3616954   0.6061277  )
        70           S   tau(  70) = (   0.2499850   0.2890508   0.3672592  )
        71           S   tau(  71) = (   0.2499246   0.2890579   0.1184579  )
        72           S   tau(  72) = (   0.1251395   0.3618048   0.8471984  )
        73           Mo  tau(  73) = (   0.0000014   0.5773502  -0.7272732  )
        74           Mo  tau(  74) = (   0.1250045   0.5051840  -0.2424036  )
        75           S   tau(  75) = (   0.0000030   0.5773520  -0.3667799  )
        76           S   tau(  76) = (   0.1250014   0.5051812  -0.6030489  )
        77           S   tau(  77) = (   0.1250014   0.5051813  -0.8514963  )
        78           S   tau(  78) = (   0.0000026   0.5773517  -0.1180274  )
        79           Mo  tau(  79) = (  -0.0000525   0.5777292   0.2428162  )
        80           Mo  tau(  80) = (   0.1250340   0.5089799   0.7275957  )
        81           S   tau(  81) = (  -0.0005395   0.5789304   0.6038953  )
        82           S   tau(  82) = (   0.1249589   0.5056077   0.3672577  )
        83           S   tau(  83) = (   0.1249415   0.5055305   0.1184554  )
        84           S   tau(  84) = (  -0.0038295   0.5809615   0.8545957  )
        85           Mo  tau(  85) = (  -0.1249984   0.7938567  -0.7272732  )
        86           Mo  tau(  86) = (   0.0000069   0.7216896  -0.2424039  )
        87           S   tau(  87) = (  -0.1249975   0.7938582  -0.3667782  )
        88           S   tau(  88) = (   0.0000016   0.7216877  -0.6030489  )
        89           S   tau(  89) = (   0.0000016   0.7216878  -0.8514963  )
        90           S   tau(  90) = (  -0.1249973   0.7938582  -0.1180279  )
        91           Mo  tau(  91) = (  -0.1250694   0.7942282   0.2427482  )
        92           Mo  tau(  92) = (  -0.0006746   0.7232489   0.7277129  )
        93           S   tau(  93) = (  -0.1250997   0.7947086   0.6028634  )
        94           S   tau(  94) = (  -0.0000525   0.7221175   0.3671375  )
        95           S   tau(  95) = (  -0.0000779   0.7220190   0.1183813  )
        96           S   tau(  96) = (  -0.1254709   0.7945013   0.8524851  )
        97           Mo  tau(  97) = (   0.5000010   0.1443372  -0.7272732  )
        98           Mo  tau(  98) = (   0.6250001   0.0721662  -0.2424040  )
        99           S   tau(  99) = (   0.5000017   0.1443386  -0.3667801  )
       100           S   tau( 100) = (   0.6250010   0.0721682  -0.6030489  )
       101           S   tau( 101) = (   0.6250010   0.0721683  -0.8514963  )
       102           S   tau( 102) = (   0.5000020   0.1443388  -0.1180261  )
       103           Mo  tau( 103) = (   0.4999367   0.1447093   0.2427179  )
       104           Mo  tau( 104) = (   0.6249127   0.0730439   0.7274039  )
       105           S   tau( 105) = (   0.4999745   0.1449368   0.6028928  )
       106           S   tau( 106) = (   0.6249228   0.0725421   0.3670836  )
       107           S   tau( 107) = (   0.6249484   0.0725452   0.1183322  )
       108           S   tau( 108) = (   0.5001020   0.1451649   0.8517735  )
       109           Mo  tau( 109) = (   0.3750012   0.3608437  -0.7272732  )
       110           Mo  tau( 110) = (   0.4999991   0.2886761  -0.2424038  )
       111           S   tau( 111) = (   0.3750012   0.3608452  -0.3667804  )
       112           S   tau( 112) = (   0.5000012   0.2886747  -0.6030489  )
       113           S   tau( 113) = (   0.5000012   0.2886748  -0.8514963  )
       114           S   tau( 114) = (   0.3750014   0.3608455  -0.1180261  )
       115           Mo  tau( 115) = (   0.3749497   0.3612158   0.2428001  )
       116           Mo  tau( 116) = (   0.5008673   0.2896575   0.7274545  )
       117           S   tau( 117) = (   0.3758228   0.3619477   0.6038549  )
       118           S   tau( 118) = (   0.4999583   0.2890110   0.3671417  )
       119           S   tau( 119) = (   0.4999339   0.2890691   0.1183718  )
       120           S   tau( 120) = (   0.3795760   0.3636698   0.8546084  )
       121           Mo  tau( 121) = (   0.2500014   0.5773502  -0.7272732  )
       122           Mo  tau( 122) = (   0.3749983   0.5051825  -0.2424043  )
       123           S   tau( 123) = (   0.2500017   0.5773519  -0.3667810  )
       124           S   tau( 124) = (   0.3750014   0.5051812  -0.6030489  )
       125           S   tau( 125) = (   0.3750014   0.5051813  -0.8514963  )
       126           S   tau( 126) = (   0.2500018   0.5773519  -0.1180256  )
       127           Mo  tau( 127) = (   0.2499405   0.5777385   0.2427951  )
       128           Mo  tau( 128) = (   0.3760943   0.5067363   0.7281545  )
       129           S   tau( 129) = (   0.2505433   0.5788740   0.6038714  )
       130           S   tau( 130) = (   0.3749622   0.5055785   0.3671482  )
       131           S   tau( 131) = (   0.3749071   0.5055298   0.1183901  )
       132           S   tau( 132) = (   0.2539134   0.5812753   0.8546147  )
       133           Mo  tau( 133) = (   0.1250016   0.7938567  -0.7272732  )
       134           Mo  tau( 134) = (   0.2499995   0.7216883  -0.2424036  )
       135           S   tau( 135) = (   0.1250024   0.7938578  -0.3667813  )
       136           S   tau( 136) = (   0.2500016   0.7216877  -0.6030489  )
       137           S   tau( 137) = (   0.2500016   0.7216878  -0.8514963  )
       138           S   tau( 138) = (   0.1250024   0.7938579  -0.1180253  )
       139           Mo  tau( 139) = (   0.1249370   0.7942364   0.2427174  )
       140           Mo  tau( 140) = (   0.2505128   0.7233226   0.7274569  )
       141           S   tau( 141) = (   0.1247484   0.7949335   0.6028930  )
       142           S   tau( 142) = (   0.2499114   0.7221059   0.3671396  )
       143           S   tau( 143) = (   0.2499587   0.7220420   0.1183681  )
       144           S   tau( 144) = (   0.1250090   0.7949402   0.8517727  )
       145           Mo  tau( 145) = (   0.7500010   0.1443372  -0.7272732  )
       146           Mo  tau( 146) = (   0.8750038   0.0721696  -0.2424038  )
       147           S   tau( 147) = (   0.7500016   0.1443382  -0.3667789  )
       148           S   tau( 148) = (   0.8750010   0.0721682  -0.6030489  )
       149           S   tau( 149) = (   0.8750010   0.0721683  -0.8514963  )
       150           S   tau( 150) = (   0.7500016   0.1443384  -0.1180279  )
       151           Mo  tau( 151) = (   0.7499378   0.1447185   0.2427395  )
       152           Mo  tau( 152) = (   0.8746132   0.0721874   0.7273701  )
       153           S   tau( 153) = (   0.7496986   0.1450682   0.6027996  )
       154           S   tau( 154) = (   0.8749245   0.0725637   0.3671344  )
       155           S   tau( 155) = (   0.8749484   0.0725469   0.1183738  )
       156           S   tau( 156) = (   0.7499060   0.1451976   0.8515910  )
       157           Mo  tau( 157) = (   0.6250012   0.3608437  -0.7272732  )
       158           Mo  tau( 158) = (   0.7500028   0.2886769  -0.2424041  )
       159           S   tau( 159) = (   0.6250015   0.3608451  -0.3667792  )
       160           S   tau( 160) = (   0.7500012   0.2886747  -0.6030489  )
       161           S   tau( 161) = (   0.7500012   0.2886748  -0.8514963  )
       162           S   tau( 162) = (   0.6250016   0.3608454  -0.1180280  )
       163           Mo  tau( 163) = (   0.6249431   0.3612111   0.2427624  )
       164           Mo  tau( 164) = (   0.7490446   0.2896895   0.7273651  )
       165           S   tau( 165) = (   0.6249403   0.3617345   0.6025421  )
       166           S   tau( 166) = (   0.7499440   0.2890445   0.3671355  )
       167           S   tau( 167) = (   0.7499485   0.2890555   0.1183722  )
       168           S   tau( 168) = (   0.6249659   0.3618594   0.8522505  )
       169           Mo  tau( 169) = (   0.5000014   0.5773502  -0.7272732  )
       170           Mo  tau( 170) = (   0.6250029   0.5051841  -0.2424047  )
       171           S   tau( 171) = (   0.5000014   0.5773518  -0.3667794  )
       172           S   tau( 172) = (   0.6250014   0.5051812  -0.6030489  )
       173           S   tau( 173) = (   0.6250014   0.5051813  -0.8514963  )
       174           S   tau( 174) = (   0.5000016   0.5773516  -0.1180277  )
       175           Mo  tau( 175) = (   0.4999344   0.5777261   0.2427288  )
       176           Mo  tau( 176) = (   0.6251049   0.5060228   0.7272904  )
       177           S   tau( 177) = (   0.5002611   0.5784037   0.6029568  )
       178           S   tau( 178) = (   0.6249225   0.5055684   0.3671057  )
       179           S   tau( 179) = (   0.6249572   0.5055378   0.1183737  )
       180           S   tau( 180) = (   0.5011614   0.5789312   0.8520435  )
       181           Mo  tau( 181) = (   0.3750016   0.7938567  -0.7272732  )
       182           Mo  tau( 182) = (   0.5000025   0.7216901  -0.2424039  )
       183           S   tau( 183) = (   0.3750019   0.7938578  -0.3667793  )
       184           S   tau( 184) = (   0.5000016   0.7216877  -0.6030489  )
       185           S   tau( 185) = (   0.5000016   0.7216878  -0.8514963  )
       186           S   tau( 186) = (   0.3750020   0.7938579  -0.1180272  )
       187           Mo  tau( 187) = (   0.3749305   0.7942455   0.2427605  )
       188           Mo  tau( 188) = (   0.5000327   0.7227205   0.7272893  )
       189           S   tau( 189) = (   0.3749936   0.7947084   0.6025429  )
       190           S   tau( 190) = (   0.4999352   0.7220570   0.3671028  )
       191           S   tau( 191) = (   0.4999361   0.7220829   0.1183737  )
       192           S   tau( 192) = (   0.3751146   0.7946671   0.8522496  )
       193           Pd  tau( 193) = (   0.1256362   0.4950616   0.9689781  )
       194           Pd  tau( 194) = (   0.2408400   0.2956709   0.9690247  )
       195           Pd  tau( 195) = (   0.0101056   0.2954608   0.9693304  )
       196           Pd  tau( 196) = (   0.3761218   0.5067053   0.9727389  )

     --------------------------------------------
     DFT-D3 Dispersion Correction (3-body terms):
     --------------------------------------------
       Reference C6 values for interpolation: 

         atom   Coordination number   C6
         S          0.000           268.01
         S          0.995           261.99
         S          1.990           251.62
         Mo         0.000          1691.79
         Mo         1.942          1004.01
         Mo        11.056           674.22
         Pd         0.000          1217.01
         Pd         1.863           573.90
         Pd         5.710           531.75

       Values used:

         atom   Coordination number  R0_AB[au]  C6      C8
         Mo        10.208            3.547    674.22  77634.20
         Mo        10.221            3.547    674.22  77634.20
         S          3.858            3.128    251.62  12327.25
         S          3.859            3.128    251.62  12327.25
         S          3.758            3.128    251.62  12327.25
         S          3.858            3.128    251.62  12327.25
         Mo        10.220            3.547    674.22  77634.20
         Mo        10.216            3.547    674.22  77634.20
         S          3.841            3.128    251.62  12327.25
         S          3.858            3.128    251.62  12327.25
         S          3.858            3.128    251.62  12327.25
         S          4.645            3.128    251.62  12327.25
         Mo        10.208            3.547    674.22  77634.20
         Mo        10.221            3.547    674.22  77634.20
         S          3.858            3.128    251.62  12327.25
         S          3.859            3.128    251.62  12327.25
         S          3.758            3.128    251.62  12327.25
         S          3.858            3.128    251.62  12327.25
         Mo        10.220            3.547    674.22  77634.20
         Mo        10.627            3.547    674.22  77634.20
         S          3.841            3.128    251.62  12327.25
         S          3.853            3.128    251.62  12327.25
         S          3.858            3.128    251.62  12327.25
         S          4.646            3.128    251.62  12327.25
         Mo        10.208            3.547    674.22  77634.20
         Mo        10.220            3.547    674.22  77634.20
         S          3.858            3.128    251.62  12327.25
         S          3.859            3.128    251.62  12327.25
         S          3.758            3.128    251.62  12327.25
         S          3.858            3.128    251.62  12327.25
         Mo        10.220            3.547    674.22  77634.20
         Mo        10.216            3.547    674.22  77634.20
         S          3.863            3.128    251.62  12327.25
         S          3.858            3.128    251.62  12327.25
         S          3.858            3.128    251.62  12327.25
         S          3.810            3.128    251.62  12327.25
         Mo        10.208            3.547    674.22  77634.20
         Mo        10.220            3.547    674.22  77634.20
         S          3.858            3.128    251.62  12327.25
         S          3.859            3.128    251.62  12327.25
         S          3.758            3.128    251.62  12327.25
         S          3.858            3.128    251.62  12327.25
         Mo        10.220            3.547    674.22  77634.20
         Mo        10.264            3.547    674.21  77634.20
         S          3.863            3.128    251.62  12327.25
         S          3.860            3.128    251.62  12327.25
         S          3.858            3.128    251.62  12327.25
         S          3.810            3.128    251.62  12327.25
         Mo        10.208            3.547    674.22  77634.20
         Mo        10.220            3.547    674.22  77634.20
         S          3.858            3.128    251.62  12327.25
         S          3.859            3.128    251.62  12327.25
         S          3.758            3.128    251.62  12327.25
         S          3.858            3.128    251.62  12327.25
         Mo        10.221            3.547    674.22  77634.20
         Mo        10.251            3.547    674.22  77634.20
         S          3.842            3.128    251.62  12327.25
         S          3.860            3.128    251.62  12327.25
         S          3.858            3.128    251.62  12327.25
         S          4.647            3.128    251.62  12327.25
         Mo        10.208            3.547    674.22  77634.20
         Mo        10.221            3.547    674.22  77634.20
         S          3.858            3.128    251.62  12327.25
         S          3.859            3.128    251.62  12327.25
         S          3.758            3.128    251.62  12327.25
         S          3.858            3.128    251.62  12327.25
         Mo        10.220            3.547    674.22  77634.20
         Mo        10.639            3.547    674.22  77634.20
         S          3.873            3.128    251.62  12327.25
         S          3.852            3.128    251.62  12327.25
         S          3.858            3.128    251.62  12327.25
         S          6.627            3.128    251.62  12327.25
         Mo        10.208            3.547    674.22  77634.20
         Mo        10.221            3.547    674.22  77634.20
         S          3.858            3.128    251.62  12327.25
         S          3.859            3.128    251.62  12327.25
         S          3.758            3.128    251.62  12327.25
         S          3.858            3.128    251.62  12327.25
         Mo        10.221            3.547    674.22  77634.20
         Mo        10.639            3.547    674.22  77634.20
         S          3.841            3.128    251.62  12327.25
         S          3.852            3.128    251.62  12327.25
         S          3.858            3.128    251.62  12327.25
         S          4.646            3.128    251.62  12327.25
         Mo        10.208            3.547    674.22  77634.20
         Mo        10.221            3.547    674.22  77634.20
         S          3.858            3.128    251.62  12327.25
         S          3.859            3.128    251.62  12327.25
         S          3.758            3.128    251.62  12327.25
         S          3.858            3.128    251.62  12327.25
         Mo        10.221            3.547    674.22  77634.20
         Mo        10.250            3.547    674.22  77634.20
         S          3.866            3.128    251.62  12327.25
         S          3.860            3.128    251.62  12327.25
         S          3.858            3.128    251.62  12327.25
         S          3.801            3.128    251.62  12327.25
         Mo        10.208            3.547    674.22  77634.20
         Mo        10.221            3.547    674.22  77634.20
         S          3.858            3.128    251.62  12327.25
         S          3.859            3.128    251.62  12327.25
         S          3.758            3.128    251.62  12327.25
         S          3.858            3.128    251.62  12327.25
         Mo        10.221            3.547    674.22  77634.20
         Mo        10.236            3.547    674.22  77634.20
         S          3.865            3.128    251.62  12327.25
         S          3.861            3.128    251.62  12327.25
         S          3.857            3.128    251.62  12327.25
         S          3.770            3.128    251.62  12327.25
         Mo        10.208            3.547    674.22  77634.20
         Mo        10.221            3.547    674.22  77634.20
         S          3.858            3.128    251.62  12327.25
         S          3.859            3.128    251.62  12327.25
         S          3.758            3.128    251.62  12327.25
         S          3.858            3.128    251.62  12327.25
         Mo        10.221            3.547    674.22  77634.20
         Mo        10.260            3.547    674.22  77634.20
         S          3.841            3.128    251.62  12327.25
         S          3.860            3.128    251.62  12327.25
         S          3.858            3.128    251.62  12327.25
         S          5.610            3.128    251.62  12327.25
         Mo        10.208            3.547    674.22  77634.20
         Mo        10.221            3.547    674.22  77634.20
         S          3.858            3.128    251.62  12327.25
         S          3.859            3.128    251.62  12327.25
         S          3.758            3.128    251.62  12327.25
         S          3.858            3.128    251.62  12327.25
         Mo        10.221            3.547    674.22  77634.20
         Mo        10.724            3.547    674.22  77634.20
         S          3.841            3.128    251.62  12327.25
         S          3.857            3.128    251.62  12327.25
         S          3.858            3.128    251.62  12327.25
         S          5.610            3.128    251.62  12327.25
         Mo        10.208            3.547    674.22  77634.20
         Mo        10.221            3.547    674.22  77634.20
         S          3.858            3.128    251.62  12327.25
         S          3.859            3.128    251.62  12327.25
         S          3.758            3.128    251.62  12327.25
         S          3.858            3.128    251.62  12327.25
         Mo        10.221            3.547    674.22  77634.20
         Mo        10.260            3.547    674.22  77634.20
         S          3.865            3.128    251.62  12327.25
         S          3.860            3.128    251.62  12327.25
         S          3.858            3.128    251.62  12327.25
         S          3.770            3.128    251.62  12327.25
         Mo        10.208            3.547    674.22  77634.20
         Mo        10.221            3.547    674.22  77634.20
         S          3.858            3.128    251.62  12327.25
         S          3.859            3.128    251.62  12327.25
         S          3.758            3.128    251.62  12327.25
         S          3.858            3.128    251.62  12327.25
         Mo        10.221            3.547    674.22  77634.20
         Mo        10.255            3.547    674.22  77634.20
         S          3.864            3.128    251.62  12327.25
         S          3.860            3.128    251.62  12327.25
         S          3.858            3.128    251.62  12327.25
         S          3.774            3.128    251.62  12327.25
         Mo        10.208            3.547    674.22  77634.20
         Mo        10.220            3.547    674.22  77634.20
         S          3.858            3.128    251.62  12327.25
         S          3.859            3.128    251.62  12327.25
         S          3.758            3.128    251.62  12327.25
         S          3.858            3.128    251.62  12327.25
         Mo        10.221            3.547    674.22  77634.20
         Mo        10.255            3.547    674.22  77634.20
         S          3.864            3.128    251.62  12327.25
         S          3.860            3.128    251.62  12327.25
         S          3.858            3.128    251.62  12327.25
         S          3.815            3.128    251.62  12327.25
         Mo        10.208            3.547    674.22  77634.20
         Mo        10.220            3.547    674.22  77634.20
         S          3.858            3.128    251.62  12327.25
         S          3.859            3.128    251.62  12327.25
         S          3.758            3.128    251.62  12327.25
         S          3.858            3.128    251.62  12327.25
         Mo        10.220            3.547    674.22  77634.20
         Mo        10.272            3.547    674.22  77634.20
         S          3.866            3.128    251.62  12327.25
         S          3.861            3.128    251.62  12327.25
         S          3.858            3.128    251.62  12327.25
         S          4.757            3.128    251.62  12327.25
         Mo        10.208            3.547    674.22  77634.20
         Mo        10.221            3.547    674.22  77634.20
         S          3.858            3.128    251.62  12327.25
         S          3.859            3.128    251.62  12327.25
         S          3.758            3.128    251.62  12327.25
         S          3.858            3.128    251.62  12327.25
         Mo        10.221            3.547    674.22  77634.20
         Mo        10.271            3.547    674.22  77634.20
         S          3.864            3.128    251.62  12327.25
         S          3.861            3.128    251.62  12327.25
         S          3.858            3.128    251.62  12327.25
         S          3.815            3.128    251.62  12327.25
         Pd         4.602            3.168    531.75  48720.73
         Pd         4.600            3.168    531.75  48720.73
         Pd         4.387            3.168    531.75  48720.73
         Pd         3.862            3.168    535.31  49046.85

         Molecular C6 ( Ry / a.u.^6 ) =  14301987.04


     number of k points=     4  Gaussian smearing, width (Ry)=  0.0100
                       cart. coord. in units 2pi/alat
        k(    1) = (   0.0000000   0.0000000   0.0000000), wk =   0.5000000
        k(    2) = (   0.0000000  -0.5773499   0.0000000), wk =   0.5000000
        k(    3) = (  -0.5000000  -0.2886744   0.0000000), wk =   0.5000000
        k(    4) = (  -0.5000000  -0.8660242   0.0000000), wk =   0.5000000

     Dense  grid:  7154885 G-vectors     FFT dimensions: ( 180, 180, 512)

     Smooth grid:  3090769 G-vectors     FFT dimensions: ( 135, 135, 400)

     Estimated max dynamical RAM per process >       3.21 GB

     Estimated total dynamical RAM >     115.61 GB

     Initial potential from superposition of free atoms

     starting charge    1735.9379, renormalised to    1736.0000

     negative rho (up, down):  1.236E-03 0.000E+00
     Starting wfcs are 1192 randomized atomic wfcs
     Checking if some PAW data can be deallocated... 

     total cpu time spent up to now is      220.8 secs

     Self-consistent Calculation

     iteration #  1     ecut=    77.00 Ry     beta= 0.20
     Davidson diagonalization with overlap
     ethr =  1.00E-02,  avg # of iterations =  2.0

     Threshold (ethr) on eigenvalues was too large:
     Diagonalizing with lowered threshold

     Davidson diagonalization with overlap
     ethr =  2.68E-04,  avg # of iterations = 15.8

     negative rho (up, down):  3.620E-04 0.000E+00

     total cpu time spent up to now is     2406.9 secs

     total energy              =  -33841.07445575 Ry
     estimated scf accuracy    <       6.56548539 Ry

     iteration #  2     ecut=    77.00 Ry     beta= 0.20
     Davidson diagonalization with overlap
     ethr =  3.78E-04,  avg # of iterations =  8.8

     negative rho (up, down):  1.200E-04 0.000E+00

     total cpu time spent up to now is     2939.3 secs

     total energy              =  -33840.73355973 Ry
     estimated scf accuracy    <       3.15377978 Ry

     iteration #  3     ecut=    77.00 Ry     beta= 0.20
     Davidson diagonalization with overlap
     ethr =  1.82E-04,  avg # of iterations =  2.0

     negative rho (up, down):  2.386E-05 0.000E+00

     total cpu time spent up to now is     3438.9 secs

     total energy              =  -33840.19838783 Ry
     estimated scf accuracy    <       1.97331143 Ry

     iteration #  4     ecut=    77.00 Ry     beta= 0.20
     Davidson diagonalization with overlap
     c_bands:  1 eigenvalues not converged
     ethr =  1.14E-04,  avg # of iterations = 19.2

     negative rho (up, down):  2.177E-05 0.000E+00

     total cpu time spent up to now is     4336.7 secs

     total energy              =  -33840.90775582 Ry
     estimated scf accuracy    <       0.65087471 Ry

     iteration #  5     ecut=    77.00 Ry     beta= 0.20
     Davidson diagonalization with overlap
     c_bands:  1 eigenvalues not converged
     ethr =  3.75E-05,  avg # of iterations = 14.0

     negative rho (up, down):  3.237E-05 0.000E+00

     total cpu time spent up to now is     5365.8 secs

     total energy              =  -33841.34695401 Ry
     estimated scf accuracy    <       0.21613630 Ry

     iteration #  6     ecut=    77.00 Ry     beta= 0.20
     Davidson diagonalization with overlap
     c_bands:  2 eigenvalues not converged
     c_bands:  1 eigenvalues not converged
     ethr =  1.25E-05,  avg # of iterations = 18.2

     negative rho (up, down):  6.220E-05 0.000E+00

     total cpu time spent up to now is     6641.0 secs

     total energy              =  -33841.49618417 Ry
     estimated scf accuracy    <       0.12654761 Ry

     iteration #  7     ecut=    77.00 Ry     beta= 0.20
     Davidson diagonalization with overlap
     c_bands:  2 eigenvalues not converged
     c_bands:  1 eigenvalues not converged
     c_bands:  5 eigenvalues not converged
     ethr =  7.29E-06,  avg # of iterations = 28.0

     negative rho (up, down):  4.982E-04 0.000E+00

     total cpu time spent up to now is     7605.2 secs

     total energy              =  -33841.50019313 Ry
     estimated scf accuracy    <       0.07816617 Ry

     iteration #  8     ecut=    77.00 Ry     beta= 0.20
     Davidson diagonalization with overlap
     c_bands:  4 eigenvalues not converged
     c_bands:  3 eigenvalues not converged
     c_bands:  4 eigenvalues not converged
     ethr =  4.50E-06,  avg # of iterations = 23.8

     negative rho (up, down):  6.864E-04 0.000E+00

     total cpu time spent up to now is     8607.9 secs

     total energy              =  -33841.53478092 Ry
     estimated scf accuracy    <       0.02167967 Ry

     iteration #  9     ecut=    77.00 Ry     beta= 0.20
     Davidson diagonalization with overlap
     c_bands:  2 eigenvalues not converged
     c_bands:  2 eigenvalues not converged
     c_bands:  5 eigenvalues not converged
     c_bands:  5 eigenvalues not converged
     ethr =  1.25E-06,  avg # of iterations = 40.0

     negative rho (up, down):  6.044E-04 0.000E+00

     total cpu time spent up to now is    10437.5 secs

     total energy              =  -33841.54883143 Ry
     estimated scf accuracy    <       0.01014144 Ry

     iteration # 10     ecut=    77.00 Ry     beta= 0.20
     Davidson diagonalization with overlap
     c_bands:  3 eigenvalues not converged
     ethr =  5.84E-07,  avg # of iterations = 27.0

     negative rho (up, down):  6.351E-04 0.000E+00

     total cpu time spent up to now is    11776.5 secs

     total energy              =  -33841.55576805 Ry
     estimated scf accuracy    <       0.00191950 Ry

     iteration # 11     ecut=    77.00 Ry     beta= 0.20
     Davidson diagonalization with overlap
     c_bands:  1 eigenvalues not converged
     c_bands:  5 eigenvalues not converged
     ethr =  1.11E-07,  avg # of iterations = 18.5

     negative rho (up, down):  7.163E-04 0.000E+00

     total cpu time spent up to now is    13182.1 secs

     total energy              =  -33841.55782842 Ry
     estimated scf accuracy    <       0.00159418 Ry

     iteration # 12     ecut=    77.00 Ry     beta= 0.20
     Davidson diagonalization with overlap
     c_bands:  3 eigenvalues not converged
     ethr =  9.18E-08,  avg # of iterations = 17.0

     negative rho (up, down):  9.244E-04 0.000E+00

     total cpu time spent up to now is    13850.9 secs

     total energy              =  -33841.55747425 Ry
     estimated scf accuracy    <       0.00068095 Ry

     iteration # 13     ecut=    77.00 Ry     beta= 0.20
     Davidson diagonalization with overlap
     c_bands:  1 eigenvalues not converged
     ethr =  3.92E-08,  avg # of iterations = 16.8

     negative rho (up, down):  9.122E-04 0.000E+00

     total cpu time spent up to now is    15129.9 secs

     total energy              =  -33841.55827337 Ry
     estimated scf accuracy    <       0.00058698 Ry

     iteration # 14     ecut=    77.00 Ry     beta= 0.20
     Davidson diagonalization with overlap
     ethr =  3.38E-08,  avg # of iterations =  1.0

     negative rho (up, down):  8.911E-04 0.000E+00

     total cpu time spent up to now is    15584.5 secs

     total energy              =  -33841.55816212 Ry
     estimated scf accuracy    <       0.00031382 Ry

     iteration # 15     ecut=    77.00 Ry     beta= 0.20
     Davidson diagonalization with overlap
     c_bands:  1 eigenvalues not converged
     ethr =  1.81E-08,  avg # of iterations = 13.8

     negative rho (up, down):  9.809E-04 0.000E+00

     total cpu time spent up to now is    16350.4 secs

     total energy              =  -33841.55822798 Ry
     estimated scf accuracy    <       0.00006736 Ry

     iteration # 16     ecut=    77.00 Ry     beta= 0.20
     Davidson diagonalization with overlap
     c_bands:  1 eigenvalues not converged
     c_bands:  4 eigenvalues not converged
     c_bands:  2 eigenvalues not converged
     ethr =  3.88E-09,  avg # of iterations = 19.5

     negative rho (up, down):  1.022E-03 0.000E+00

     total cpu time spent up to now is    17842.3 secs

     total energy              =  -33841.55829656 Ry
     estimated scf accuracy    <       0.00004518 Ry

     iteration # 17     ecut=    77.00 Ry     beta= 0.20
     Davidson diagonalization with overlap
     c_bands:  3 eigenvalues not converged
     c_bands:  2 eigenvalues not converged
     ethr =  2.60E-09,  avg # of iterations = 21.5

     negative rho (up, down):  1.019E-03 0.000E+00

     total cpu time spent up to now is    18934.1 secs

     total energy              =  -33841.55832296 Ry
     estimated scf accuracy    <       0.00000849 Ry

     iteration # 18     ecut=    77.00 Ry     beta= 0.20
     Davidson diagonalization with overlap
     c_bands:  1 eigenvalues not converged
     ethr =  4.89E-10,  avg # of iterations = 16.2

     negative rho (up, down):  1.018E-03 0.000E+00

     total cpu time spent up to now is    20321.8 secs

     total energy              =  -33841.55832839 Ry
     estimated scf accuracy    <       0.00001393 Ry

     iteration # 19     ecut=    77.00 Ry     beta= 0.20
     Davidson diagonalization with overlap
     ethr =  4.89E-10,  avg # of iterations =  7.8

     negative rho (up, down):  1.024E-03 0.000E+00

     total cpu time spent up to now is    20879.9 secs

     total energy              =  -33841.55832396 Ry
     estimated scf accuracy    <       0.00000343 Ry

     iteration # 20     ecut=    77.00 Ry     beta= 0.20
     Davidson diagonalization with overlap
     ethr =  1.97E-10,  avg # of iterations = 15.5

     negative rho (up, down):  1.028E-03 0.000E+00

     total cpu time spent up to now is    22212.0 secs

     total energy              =  -33841.55832562 Ry
     estimated scf accuracy    <       0.00000314 Ry

     iteration # 21     ecut=    77.00 Ry     beta= 0.20
     Davidson diagonalization with overlap
     ethr =  1.81E-10,  avg # of iterations =  1.2

     negative rho (up, down):  1.031E-03 0.000E+00

     total cpu time spent up to now is    22677.5 secs

     End of self-consistent calculation

          k = 0.0000 0.0000 0.0000 (386245 PWs)   bands (ev):

   -88.6365 -88.6315 -88.5864 -88.5329 -66.5985 -66.5983 -66.5973 -66.5799
   -66.5774 -66.5772 -66.5772 -66.5772 -66.5772 -66.5772 -66.5772 -66.5772
   -66.5771 -66.5769 -66.5768 -66.5766 -66.5760 -66.5760 -66.5760 -66.5760
   -66.5760 -66.5760 -66.5693 -66.5608 -66.5568 -66.5561 -66.5559 -66.5559
   -66.5559 -66.5559 -66.5558 -66.5558 -66.5558 -66.5558 -66.5558 -66.5558
   -66.5558 -66.5558 -66.5557 -66.5556 -66.5556 -66.5554 -66.5550 -66.5549
   -66.5546 -66.5546 -66.5546 -66.5546 -66.5546 -66.5546 -66.5546 -66.5546
   -66.5545 -66.5454 -66.5450 -66.5377 -66.5354 -66.5349 -66.5313 -66.5300
   -66.5200 -66.5166 -66.5136 -66.5130 -54.5608 -54.5078 -54.4966 -54.3971
   -54.3724 -54.3716 -54.3560 -54.3427 -54.3398 -54.3203 -54.3046 -54.2913
   -40.9259 -40.9259 -40.9258 -40.9256 -40.9256 -40.9255 -40.9253 -40.9253
   -40.9253 -40.9005 -40.8988 -40.8979 -40.8506 -40.8505 -40.8505 -40.8505
   -40.8505 -40.8505 -40.8505 -40.8504 -40.8502 -40.8502 -40.8502 -40.8501
   -40.8499 -40.8499 -40.8499 -40.8499 -40.8499 -40.8499 -40.8299 -40.8292
   -40.8194 -40.8179 -40.8165 -40.8151 -40.7581 -40.7579 -40.7576 -40.7575
   -40.7292 -40.7242 -40.7242 -40.7242 -40.7242 -40.7242 -40.7242 -40.7241
   -40.7240 -40.7240 -40.7238 -40.7238 -40.7238 -40.7235 -40.7235 -40.7235
   -40.7235 -40.7235 -40.7235 -40.7207 -40.7166 -40.7165 -40.7164 -40.7164
   -40.7164 -40.7164 -40.7164 -40.7164 -40.7163 -40.7161 -40.7160 -40.7158
   -40.7158 -40.7158 -40.7158 -40.7158 -40.7158 -40.7158 -40.7148 -40.7124
   -40.7118 -40.7054 -40.7025 -40.7017 -40.6968 -40.6945 -40.6896 -40.6892
   -40.6892 -40.6892 -40.6892 -40.6892 -40.6891 -40.6891 -40.6891 -40.6889
   -40.6888 -40.6888 -40.6888 -40.6884 -40.6884 -40.6884 -40.6884 -40.6884
   -40.6884 -40.6854 -40.6819 -40.6756 -40.6748 -40.6746 -40.6745 -40.6745
   -40.6745 -40.6745 -40.6745 -40.6745 -40.6744 -40.6744 -40.6744 -40.6744
   -40.6744 -40.6744 -40.6743 -40.6743 -40.6741 -40.6738 -40.6738 -40.6738
   -40.6738 -40.6738 -40.6738 -40.6738 -40.6737 -40.6737 -40.6737 -40.6735
   -40.6715 -40.6699 -40.6683 -40.6667 -40.6663 -40.6640 -40.6622 -40.6568
   -40.6554 -40.6506 -40.6498 -40.6481 -40.6108 -40.6108 -40.6108 -40.6106
   -40.6106 -40.6105 -40.6100 -40.6100 -40.6100 -40.5827 -40.5813 -40.5802
   -40.5637 -40.5637 -40.5637 -40.5637 -40.5637 -40.5637 -40.5636 -40.5636
   -40.5636 -40.5633 -40.5633 -40.5633 -40.5628 -40.5628 -40.5628 -40.5628
   -40.5628 -40.5628 -40.5372 -40.5357 -40.5341 -40.5321 -40.5295 -40.5201
   -40.5161 -40.5161 -40.5158 -40.5158 -40.5152 -40.5152 -40.4834 -40.4810
   -20.3332 -20.0805 -19.9838 -19.8733 -19.7783 -19.4657 -19.3251 -19.2409
   -19.2353 -19.2242 -19.2119 -19.2099 -19.2067 -19.1911 -19.1868 -19.1693
   -19.1271 -19.1224 -19.1172 -19.1037 -19.1008 -19.0869 -19.0219 -19.0185
   -19.0157 -19.0106 -19.0097 -19.0048 -18.8953 -18.8276 -18.7758 -18.6387
   -18.6200 -18.5632 -18.5120 -18.4980 -18.4771 -18.4701 -18.4368 -18.4268
   -18.4019 -18.3906 -18.3830 -18.3756 -18.3482 -18.3362 -18.2775 -18.2581
   -18.2561 -18.2530 -18.2520 -18.2327 -18.2016 -18.1720 -18.1609 -18.1578
   -18.1575 -18.1546 -18.1463 -18.1332 -18.1092 -18.0954 -18.0940 -18.0935
   -18.0934 -18.0926 -18.0878 -18.0669 -18.0608 -18.0579 -18.0575 -18.0550
   -18.0510 -18.0499 -18.0493 -18.0465 -18.0284 -18.0250 -18.0224 -18.0207
   -18.0131 -18.0072 -18.0052 -17.9986 -17.9917 -17.9827 -17.9803 -17.9795
   -17.9781 -17.9674 -17.9625 -17.9596 -17.9350 -17.9315 -17.9228 -17.9197
   -17.9118 -17.8974 -17.8958 -17.8916 -17.8904 -17.8696 -17.8686 -17.8682
   -17.8604 -17.8536 -17.8488 -17.8444 -17.8428 -17.8408 -17.8326 -17.8310
   -17.8308 -17.8151 -17.8149 -17.8147 -17.8064 -17.8032 -17.8011 -17.7982
   -17.7955 -17.7932 -17.7718 -17.7711 -17.7706 -17.7697 -17.7688 -17.7678
   -12.2038 -12.1538 -12.1418 -11.9573 -11.8887 -11.7752 -11.7745 -11.7707
   -11.6954 -11.6607 -11.6605 -11.6473 -11.5415 -11.5390 -11.5340 -11.4782
   -11.4705 -11.3872 -11.3157 -11.2920 -11.2486 -11.2268 -11.2223 -11.2132
   -11.2095 -11.1853 -11.1621 -11.1295 -11.1199 -11.1046 -11.1027 -11.1022
   -11.1000 -11.0974 -11.0876 -11.0694 -11.0622 -11.0486 -11.0486 -11.0365
   -11.0268 -11.0240 -11.0229 -11.0213 -11.0047 -11.0038 -10.9796 -10.9431
   -10.9359 -10.9350 -10.9234 -10.9171 -10.9159 -10.8934 -10.8911 -10.8719
   -10.8696 -10.8631 -10.8622 -10.8557 -10.8551 -10.8440 -10.8283 -10.8268
   -10.8173 -10.8130 -10.8115 -10.8057 -10.8041 -10.8022 -10.8018 -10.7998
   -10.7951 -10.7888 -10.7866 -10.7851 -10.7573 -10.7544 -10.7541 -10.7521
   -10.7513 -10.7498 -10.7466 -10.7436 -10.7393 -10.7120 -10.7119 -10.7113
   -10.7112 -10.7105 -10.7101 -10.6763 -10.6411 -10.6407 -10.6198 -10.5882
   -10.5833 -10.5777 -10.5658 -10.5633 -10.5391 -10.4604 -10.4412 -10.2893
   -10.1806 -10.1533 -10.1119 -10.0942 -10.0605 -10.0120  -9.9480  -9.8965
    -9.8683  -9.8659  -9.8165  -9.7932  -9.7853  -9.7798  -9.7727  -9.7628
    -9.7551  -9.7503  -9.7490  -9.7457  -9.7412  -9.7369  -9.7362  -9.7262
    -9.7244  -9.7224  -9.7171  -9.7117  -9.7071  -9.6837  -9.6695  -9.6624
    -9.6605  -9.6108  -9.6080  -9.6040  -9.5997  -9.5964  -9.5935  -9.5926
    -9.5920  -9.5903  -9.5890  -9.5852  -9.5653  -9.5523  -9.5349  -9.5227
    -9.5161  -9.5159  -9.5157  -9.5156  -9.5156  -9.5152  -9.5037  -9.5023
    -9.4889  -9.4838  -9.4782  -9.4758  -9.4631  -9.4564  -9.4429  -9.3711
    -9.3504  -9.3500  -9.3409  -9.3382  -9.3279  -9.3249  -9.3233  -9.3225
    -9.3183  -9.3077  -9.3019  -9.2845  -9.2371  -9.2333  -9.2239  -9.2192
    -9.2151  -9.1974  -9.1845  -9.1741  -9.1598  -9.1596  -9.1583  -9.1554
    -9.1546  -9.1470  -9.1263  -9.1084  -9.0902  -9.0891  -9.0675  -9.0573
    -9.0240  -8.9904  -8.9770  -8.9560  -8.9549  -8.9536  -8.9491  -8.9300
    -8.9221  -8.9219  -8.9100  -8.8916  -8.8914  -8.8912  -8.8907  -8.8809
    -8.8761  -8.8747  -8.8703  -8.8639  -8.7972  -8.7960  -8.7954  -8.7953
    -8.7952  -8.7950  -8.7618  -8.7456  -8.7383  -8.7291  -8.7264  -8.7233
    -8.7211  -8.6717  -8.6523  -8.6478  -8.6416  -8.6381  -8.6359  -8.6144
    -8.6023  -8.5700  -8.5675  -8.5662  -8.5659  -8.5649  -8.5578  -8.4994
    -8.4810  -8.4299  -8.3718  -8.3695  -8.3405  -8.3405  -8.3359  -8.3352
    -8.3321  -8.3290  -8.3280  -8.3213  -8.3030  -8.2772  -8.2519  -8.2495
    -8.2494  -8.2492  -8.2491  -8.2476  -8.2327  -8.2229  -8.2227  -8.2224
    -8.2221  -8.2203  -8.2115  -8.1949  -8.1948  -8.1946  -8.1945  -8.1938
    -8.1918  -8.0367  -8.0258  -7.9879  -7.9121  -7.8961  -7.8318  -7.8301
    -7.8282  -7.7694  -7.7576  -7.7409  -7.7342  -7.7201  -7.7150  -7.6904
    -7.6470  -7.6449  -7.6371  -7.6202  -7.6136  -7.6086  -7.5822  -7.5815
    -7.5775  -7.5751  -7.5737  -7.5638  -7.5284  -7.5229  -7.5094  -7.5086
    -7.5085  -7.5081  -7.5063  -7.5035  -7.4968  -7.4844  -7.4836  -7.4813
    -7.4804  -7.4799  -7.4773  -7.4713  -7.4712  -7.4585  -7.4564  -7.4563
    -7.4562  -7.4556  -7.4548  -7.4527  -7.4438  -7.4334  -7.4262  -7.4195
    -7.4135  -7.3906  -7.3849  -7.3786  -7.3599  -7.3523  -7.3435  -7.3405
    -7.3299  -7.3173  -7.3164  -7.2929  -7.2831  -7.2808  -7.2759  -7.2730
    -7.2656  -7.2618  -7.2569  -7.2561  -7.2243  -7.2240  -7.2057  -7.2055
    -7.1877  -7.1875  -7.1843  -7.1719  -7.1407  -7.1191  -7.1189  -7.1123
    -7.0811  -7.0717  -7.0525  -7.0328  -6.9175  -6.9112  -6.8717  -6.8695
    -6.8639  -6.8592  -6.8464  -6.7834  -6.7542  -6.7530  -6.7519  -6.7110
    -6.7076  -6.6920  -6.6796  -6.6715  -6.6705  -6.6699  -6.6602  -6.6220
    -6.5972  -6.5963  -6.5954  -6.5813  -6.5661  -6.5605  -6.5526  -6.5428
    -6.5416  -6.5343  -6.5155  -6.5084  -6.4993  -6.4889  -6.4875  -6.4874
    -6.4866  -6.4843  -6.4824  -6.4784  -6.4755  -6.4724  -6.4717  -6.4714
    -6.4712  -6.4711  -6.4708  -6.4653  -6.4585  -6.4473  -6.4272  -6.4193
    -6.4192  -6.3883  -6.3856  -6.3837  -6.3676  -6.3621  -6.3561  -6.3245
    -6.3238  -6.3074  -6.3052  -6.3041  -6.3035  -6.2999  -6.2975  -6.2776
    -6.2664  -6.2643  -6.2629  -6.2611  -6.2589  -6.2523  -6.2306  -6.2277
    -6.2265  -6.2261  -6.2254  -6.2247  -6.2122  -6.2026  -6.1688  -6.0963
    -5.9705  -5.8262  -5.7996  -5.7167  -5.6141  -5.5680  -5.4952  -5.4656
    -5.3033  -5.2379  -5.1326  -5.1252  -4.0131  -3.9595  -3.8853  -3.8617
    -3.8294  -3.8222  -3.8134  -3.8053  -3.8039  -3.8015  -3.7981  -3.7966
    -3.7679  -3.7566  -3.7316  -3.7228  -3.6853  -3.6676  -3.6670  -3.6616
    -3.6580  -3.6533  -3.6458  -3.6427  -3.5453  -3.5265  -3.5173  -3.5142
    -3.4998  -3.4781  -3.4685  -3.4630  -3.4584  -3.4488  -3.4470  -3.4459
    -3.4409  -3.4403  -3.4370  -3.4354  -3.4338  -3.4177  -3.4156  -3.4153
    -3.4151  -3.4068  -3.4008  -3.4004  -3.3986  -3.3894  -3.3838  -3.3812
    -3.3801  -3.3759  -3.3745  -3.3715  -3.3690  -3.3596  -3.3561  -3.3558
    -3.3301  -3.3274  -3.3241  -3.3240  -3.3223  -3.3164  -3.3146  -3.3084
    -3.2894  -3.2847  -3.2845  -3.2833  -3.2723  -3.2607  -3.2553  -3.2513
    -3.2446  -3.2374  -3.2324  -3.2222  -3.1944  -3.1804  -3.1764  -3.1707
    -3.0704  -3.0498  -3.0472  -3.0372  -3.0343  -3.0290  -3.0285  -3.0230
    -3.0188  -3.0177  -2.9964  -2.9780  -2.9709  -2.9585  -2.9551  -2.9492
    -2.9475  -2.9429  -2.9414  -2.9401  -2.9397  -2.9370  -2.9365  -2.9354
    -2.9330  -2.9278  -2.9263  -2.9175  -2.9128  -2.9103  -2.9064  -2.9053
    -2.9044  -2.9029  -2.9005  -2.8994  -2.8991  -2.8981  -2.8878  -2.8765
    -2.8693  -2.8597  -2.8553  -2.8490  -2.8390  -2.8337  -2.8020  -2.7839
    -2.7795  -2.7791  -2.7776  -2.7769  -2.7760  -2.7753  -2.7747  -2.7743
    -2.7728  -2.7607  -2.7585  -2.7441  -2.7315  -2.7170  -2.7117  -2.7043
    -2.6935  -2.6904  -2.6417  -2.6399  -2.6378  -2.6111  -2.6096  -2.5979
    -2.5972  -2.5946  -2.5926  -2.5907  -2.5887  -2.5446  -2.5356  -2.5177
    -2.5141  -2.5128  -2.4666  -2.4244  -2.4163  -2.3923  -2.3889  -2.3832
    -2.3813  -2.3777

          k = 0.0000-0.5773 0.0000 (386352 PWs)   bands (ev):

   -88.6365 -88.6315 -88.5864 -88.5329 -66.5923 -66.5923 -66.5923 -66.5919
   -66.5911 -66.5911 -66.5816 -66.5816 -66.5814 -66.5814 -66.5804 -66.5804
   -66.5776 -66.5723 -66.5665 -66.5665 -66.5665 -66.5665 -66.5664 -66.5664
   -66.5662 -66.5662 -66.5653 -66.5653 -66.5653 -66.5653 -66.5631 -66.5621
   -66.5621 -66.5621 -66.5617 -66.5609 -66.5608 -66.5585 -66.5559 -66.5559
   -66.5558 -66.5558 -66.5558 -66.5558 -66.5554 -66.5552 -66.5546 -66.5546
   -66.5546 -66.5546 -66.5514 -66.5514 -66.5511 -66.5511 -66.5501 -66.5501
   -66.5501 -66.5458 -66.5437 -66.5391 -66.5357 -66.5353 -66.5316 -66.5282
   -66.5218 -66.5170 -66.5132 -66.5125 -54.5608 -54.5078 -54.4966 -54.3971
   -54.3725 -54.3716 -54.3560 -54.3427 -54.3398 -54.3203 -54.3046 -54.2913
   -40.8942 -40.8942 -40.8942 -40.8942 -40.8942 -40.8941 -40.8938 -40.8937
   -40.8937 -40.8937 -40.8937 -40.8936 -40.8751 -40.8748 -40.8674 -40.8674
   -40.8673 -40.8670 -40.8668 -40.8668 -40.8608 -40.8558 -40.8554 -40.8553
   -40.8551 -40.8551 -40.8548 -40.8548 -40.8496 -40.8411 -40.8273 -40.8149
   -40.8047 -40.8047 -40.8047 -40.8047 -40.8044 -40.8044 -40.8044 -40.8044
   -40.8040 -40.8040 -40.8040 -40.8040 -40.7770 -40.7753 -40.7721 -40.7715
   -40.7490 -40.7460 -40.7459 -40.7459 -40.7455 -40.7454 -40.7454 -40.7424
   -40.7364 -40.7364 -40.7361 -40.7361 -40.7356 -40.7356 -40.7273 -40.7251
   -40.7251 -40.7249 -40.7248 -40.7245 -40.7245 -40.7221 -40.7094 -40.7023
   -40.7016 -40.6958 -40.6956 -40.6955 -40.6955 -40.6955 -40.6955 -40.6953
   -40.6953 -40.6952 -40.6951 -40.6949 -40.6948 -40.6948 -40.6948 -40.6911
   -40.6867 -40.6867 -40.6867 -40.6863 -40.6861 -40.6861 -40.6805 -40.6775
   -40.6753 -40.6749 -40.6749 -40.6747 -40.6746 -40.6745 -40.6745 -40.6744
   -40.6744 -40.6744 -40.6744 -40.6741 -40.6741 -40.6740 -40.6738 -40.6738
   -40.6738 -40.6738 -40.6738 -40.6700 -40.6674 -40.6658 -40.6658 -40.6655
   -40.6655 -40.6651 -40.6651 -40.6649 -40.6557 -40.6534 -40.6495 -40.6440
   -40.6440 -40.6440 -40.6440 -40.6440 -40.6439 -40.6436 -40.6434 -40.6432
   -40.6431 -40.6431 -40.6431 -40.6412 -40.6194 -40.6158 -40.6133 -40.6112
   -40.6092 -40.6092 -40.6092 -40.6092 -40.6090 -40.6090 -40.6090 -40.6089
   -40.6084 -40.6084 -40.6084 -40.6084 -40.5971 -40.5971 -40.5970 -40.5966
   -40.5962 -40.5962 -40.5826 -40.5802 -40.5779 -40.5778 -40.5777 -40.5777
   -40.5773 -40.5769 -40.5769 -40.5749 -40.5696 -40.5608 -40.5608 -40.5605
   -40.5605 -40.5599 -40.5599 -40.5556 -40.5492 -40.5436 -40.5313 -40.5301
   -40.5301 -40.5300 -40.5296 -40.5292 -40.5292 -40.5233 -40.5006 -40.4910
   -20.2767 -19.8789 -19.8449 -19.8229 -19.7537 -19.7275 -19.6542 -19.6284
   -19.6052 -19.4875 -19.4083 -19.4004 -19.3233 -19.3071 -19.2230 -19.2041
   -19.1628 -18.9313 -18.9083 -18.8014 -18.7585 -18.7475 -18.6973 -18.6957
   -18.6955 -18.6914 -18.6700 -18.6492 -18.6336 -18.6302 -18.6213 -18.6173
   -18.5966 -18.5719 -18.5534 -18.5333 -18.5291 -18.5263 -18.5192 -18.5108
   -18.4955 -18.4696 -18.4632 -18.4512 -18.4435 -18.4210 -18.4074 -18.3868
   -18.3838 -18.3778 -18.3559 -18.3550 -18.3272 -18.3085 -18.3016 -18.2933
   -18.2628 -18.2465 -18.2252 -18.2176 -18.1922 -18.1871 -18.1642 -18.1543
   -18.1401 -18.1323 -18.1060 -18.0972 -18.0837 -18.0733 -18.0720 -18.0717
   -18.0689 -18.0505 -18.0467 -18.0438 -18.0434 -18.0428 -18.0384 -18.0354
   -18.0280 -18.0256 -18.0155 -18.0013 -17.9858 -17.9849 -17.9805 -17.9768
   -17.9746 -17.9731 -17.9722 -17.9635 -17.9611 -17.9528 -17.9271 -17.9247
   -17.9145 -17.9107 -17.9068 -17.8927 -17.8753 -17.8671 -17.8633 -17.8484
   -17.8479 -17.8346 -17.8200 -17.8186 -17.8136 -17.8108 -17.7929 -17.7927
   -17.7922 -17.7914 -17.7907 -17.7897 -17.7777 -17.7767 -17.7582 -17.7559
   -17.7337 -17.7319 -17.7147 -17.7122 -17.7000 -17.6986 -17.6924 -17.6922
   -12.1324 -12.0920 -12.0197 -11.8098 -11.6969 -11.6716 -11.5550 -11.5415
   -11.4997 -11.4952 -11.4737 -11.4701 -11.4684 -11.4541 -11.4432 -11.4343
   -11.3991 -11.3817 -11.3696 -11.3634 -11.3563 -11.3275 -11.3191 -11.3165
   -11.2899 -11.2783 -11.2718 -11.2532 -11.2500 -11.2402 -11.2352 -11.2322
   -11.2279 -11.2262 -11.2049 -11.1798 -11.1757 -11.1727 -11.1669 -11.1558
   -11.1481 -11.1424 -11.1349 -11.1232 -11.1207 -11.1138 -11.1045 -11.0943
   -11.0618 -11.0603 -11.0500 -11.0098 -11.0004 -10.9791 -10.9380 -10.9287
   -10.9223 -10.9137 -10.8926 -10.8886 -10.8756 -10.8606 -10.8379 -10.8289
   -10.8153 -10.8114 -10.8086 -10.8018 -10.7969 -10.7848 -10.7841 -10.7834
   -10.7827 -10.7795 -10.7738 -10.7718 -10.7659 -10.7653 -10.7617 -10.7574
   -10.7549 -10.7522 -10.7475 -10.7171 -10.7165 -10.7160 -10.7156 -10.6327
   -10.5827 -10.5304 -10.5140 -10.5037 -10.4983 -10.4700 -10.4541 -10.3966
   -10.3724 -10.3364 -10.2869 -10.2547 -10.2006 -10.1824 -10.1546 -10.1360
   -10.1181 -10.0983 -10.0908 -10.0879 -10.0836 -10.0503 -10.0358 -10.0270
   -10.0081 -10.0059 -10.0002  -9.9971  -9.9965  -9.9806  -9.9707  -9.9452
    -9.9298  -9.9073  -9.9030  -9.8883  -9.8854  -9.8729  -9.8669  -9.8656
    -9.8565  -9.8393  -9.8141  -9.8049  -9.7856  -9.7617  -9.7567  -9.7493
    -9.7478  -9.7313  -9.7215  -9.7133  -9.6830  -9.6821  -9.6481  -9.6368
    -9.6333  -9.6174  -9.6031  -9.5895  -9.5866  -9.5770  -9.5561  -9.5457
    -9.5356  -9.5266  -9.5181  -9.5168  -9.4772  -9.4683  -9.4645  -9.4621
    -9.4559  -9.4493  -9.4444  -9.4356  -9.4335  -9.4328  -9.4120  -9.4094
    -9.3766  -9.3720  -9.3598  -9.3352  -9.3154  -9.3031  -9.2606  -9.2297
    -9.2079  -9.1972  -9.1948  -9.1864  -9.1822  -9.1639  -9.1536  -9.1415
    -9.1277  -9.1219  -9.1118  -9.0991  -9.0877  -9.0731  -9.0569  -9.0419
    -9.0286  -9.0263  -9.0174  -9.0124  -9.0018  -8.9901  -8.9743  -8.9610
    -8.9424  -8.9348  -8.9279  -8.9237  -8.9183  -8.9017  -8.8932  -8.8879
    -8.8666  -8.8641  -8.8622  -8.8609  -8.8563  -8.8532  -8.8529  -8.8447
    -8.8419  -8.8411  -8.8372  -8.8320  -8.8258  -8.8158  -8.8133  -8.8128
    -8.8115  -8.7973  -8.7678  -8.7667  -8.7651  -8.7638  -8.7618  -8.7610
    -8.7366  -8.7354  -8.7263  -8.7148  -8.7123  -8.7063  -8.7046  -8.7039
    -8.6943  -8.6625  -8.6326  -8.6289  -8.6268  -8.6020  -8.5641  -8.4982
    -8.4773  -8.4747  -8.4290  -8.4216  -8.4133  -8.3768  -8.3502  -8.3332
    -8.3293  -8.3152  -8.2712  -8.2587  -8.2157  -8.1599  -8.1444  -8.1004
    -8.1004  -8.0912  -8.0911  -8.0800  -8.0799  -8.0650  -8.0502  -8.0455
    -8.0016  -7.9586  -7.9465  -7.9403  -7.9291  -7.9016  -7.8779  -7.8378
    -7.8286  -7.8165  -7.8103  -7.8047  -7.8013  -7.7912  -7.7866  -7.7841
    -7.7815  -7.7735  -7.7712  -7.7682  -7.7637  -7.7620  -7.7554  -7.7543
    -7.7510  -7.7424  -7.7415  -7.7388  -7.7380  -7.7377  -7.7367  -7.7313
    -7.7309  -7.7288  -7.7204  -7.7151  -7.7062  -7.7034  -7.7017  -7.6980
    -7.6708  -7.6699  -7.6694  -7.6689  -7.6558  -7.6440  -7.6397  -7.6390
    -7.6378  -7.6363  -7.6252  -7.6188  -7.6029  -7.5957  -7.5849  -7.5813
    -7.5805  -7.5764  -7.5722  -7.5596  -7.5582  -7.5500  -7.5443  -7.5373
    -7.5368  -7.5356  -7.5313  -7.5239  -7.4910  -7.4556  -7.4472  -7.4366
    -7.4339  -7.4292  -7.4230  -7.4058  -7.3842  -7.3408  -7.2796  -7.2459
    -7.1737  -7.1609  -7.1477  -7.1416  -7.1407  -7.1369  -7.1124  -7.0964
    -7.0853  -7.0811  -7.0778  -7.0585  -7.0470  -7.0335  -7.0150  -7.0004
    -6.9979  -6.9960  -6.9871  -6.9603  -6.9490  -6.9425  -6.9379  -6.9065
    -6.8885  -6.8838  -6.8696  -6.8558  -6.8536  -6.8329  -6.8313  -6.8261
    -6.8233  -6.7866  -6.7755  -6.7535  -6.7472  -6.7370  -6.7238  -6.6972
    -6.6794  -6.6511  -6.6320  -6.6073  -6.5980  -6.5937  -6.5897  -6.5806
    -6.5784  -6.5780  -6.5759  -6.5716  -6.5618  -6.5605  -6.5597  -6.5591
    -6.5524  -6.5519  -6.5518  -6.5517  -6.5445  -6.5118  -6.4873  -6.4486
    -6.4304  -6.3939  -6.3883  -6.3792  -6.3642  -6.3178  -6.3012  -6.2915
    -6.2907  -6.2898  -6.2831  -6.2725  -6.2577  -6.2508  -6.2489  -6.2455
    -6.2450  -6.2443  -6.2339  -6.2291  -6.2264  -6.2214  -6.2146  -6.1903
    -6.1789  -6.1776  -6.1775  -6.1658  -6.1270  -6.0712  -6.0239  -5.9623
    -5.9603  -5.9356  -5.8966  -5.8935  -5.8732  -5.8287  -5.8266  -5.7672
    -5.7380  -5.7138  -5.6784  -5.6542  -5.6122  -5.5767  -5.5629  -5.4993
    -5.4482  -5.4029  -5.2749  -5.1563  -4.1046  -4.0815  -4.0753  -4.0732
    -3.9905  -3.9732  -3.9198  -3.9162  -3.8993  -3.8904  -3.8240  -3.8178
    -3.8119  -3.8074  -3.8041  -3.7972  -3.7872  -3.7842  -3.7715  -3.7709
    -3.7107  -3.6965  -3.6848  -3.6780  -3.6174  -3.5953  -3.5861  -3.5743
    -3.5733  -3.5697  -3.5293  -3.5256  -3.5226  -3.5201  -3.5090  -3.4938
    -3.4925  -3.4889  -3.4860  -3.4788  -3.4645  -3.4578  -3.4522  -3.4478
    -3.4448  -3.4321  -3.4278  -3.4196  -3.4171  -3.4129  -3.3999  -3.3918
    -3.3903  -3.3801  -3.3752  -3.3573  -3.3266  -3.3251  -3.3234  -3.3189
    -3.3158  -3.3104  -3.3082  -3.2955  -3.2798  -3.2703  -3.2552  -3.2550
    -3.2512  -3.2497  -3.2493  -3.2486  -3.2427  -3.2271  -3.2152  -3.2142
    -3.2112  -3.2027  -3.1982  -3.1959  -3.1908  -3.1830  -3.1823  -3.1742
    -3.1676  -3.1585  -3.1524  -3.1493  -3.1487  -3.1387  -3.1345  -3.1333
    -3.1330  -3.1178  -3.0796  -3.0695  -3.0682  -3.0580  -3.0523  -3.0473
    -3.0357  -3.0315  -3.0035  -2.9992  -2.9946  -2.9944  -2.9930  -2.9912
    -2.9854  -2.9834  -2.9812  -2.9786  -2.9759  -2.9747  -2.9626  -2.9615
    -2.9602  -2.9575  -2.9493  -2.9472  -2.9444  -2.9407  -2.9380  -2.9285
    -2.9199  -2.9193  -2.9150  -2.9125  -2.9050  -2.9000  -2.8990  -2.8938
    -2.8781  -2.8691  -2.8580  -2.8533  -2.8482  -2.8459  -2.8368  -2.8095
    -2.7795  -2.7708  -2.7626  -2.7551  -2.7495  -2.7070  -2.7020  -2.6928
    -2.6484  -2.5925  -2.5838  -2.5572  -2.5492  -2.5309  -2.5231  -2.5205
    -2.5177  -2.5097  -2.5021  -2.4980  -2.4973  -2.4950  -2.4844  -2.3972
    -2.3763  -2.3691  -2.3680  -2.3626  -2.3598  -2.3556  -2.3507  -2.3366
    -2.3120  -2.3114

          k =-0.5000-0.2887 0.0000 (386352 PWs)   bands (ev):

   -88.6365 -88.6315 -88.5864 -88.5329 -66.5923 -66.5923 -66.5922 -66.5920
   -66.5911 -66.5911 -66.5816 -66.5816 -66.5814 -66.5814 -66.5804 -66.5804
   -66.5774 -66.5731 -66.5665 -66.5665 -66.5665 -66.5665 -66.5663 -66.5663
   -66.5663 -66.5663 -66.5653 -66.5653 -66.5653 -66.5653 -66.5621 -66.5621
   -66.5620 -66.5617 -66.5609 -66.5608 -66.5603 -66.5572 -66.5568 -66.5559
   -66.5558 -66.5558 -66.5558 -66.5558 -66.5557 -66.5554 -66.5554 -66.5546
   -66.5546 -66.5546 -66.5546 -66.5514 -66.5514 -66.5511 -66.5511 -66.5501
   -66.5501 -66.5431 -66.5429 -66.5380 -66.5355 -66.5342 -66.5327 -66.5313
   -66.5201 -66.5171 -66.5136 -66.5124 -54.5608 -54.5078 -54.4966 -54.3971
   -54.3724 -54.3716 -54.3560 -54.3427 -54.3398 -54.3203 -54.3046 -54.2913
   -40.8942 -40.8942 -40.8942 -40.8942 -40.8941 -40.8940 -40.8939 -40.8939
   -40.8937 -40.8937 -40.8937 -40.8937 -40.8774 -40.8718 -40.8674 -40.8674
   -40.8673 -40.8670 -40.8668 -40.8668 -40.8631 -40.8575 -40.8554 -40.8553
   -40.8551 -40.8550 -40.8548 -40.8548 -40.8484 -40.8411 -40.8239 -40.8151
   -40.8047 -40.8047 -40.8047 -40.8046 -40.8044 -40.8044 -40.8044 -40.8044
   -40.8040 -40.8040 -40.8040 -40.8040 -40.7767 -40.7754 -40.7741 -40.7691
   -40.7488 -40.7460 -40.7459 -40.7458 -40.7456 -40.7454 -40.7454 -40.7425
   -40.7364 -40.7364 -40.7361 -40.7361 -40.7356 -40.7356 -40.7286 -40.7251
   -40.7251 -40.7249 -40.7248 -40.7245 -40.7245 -40.7176 -40.7121 -40.7097
   -40.6999 -40.6955 -40.6955 -40.6955 -40.6955 -40.6953 -40.6953 -40.6952
   -40.6952 -40.6948 -40.6948 -40.6948 -40.6948 -40.6944 -40.6930 -40.6868
   -40.6867 -40.6866 -40.6864 -40.6864 -40.6861 -40.6861 -40.6841 -40.6814
   -40.6749 -40.6749 -40.6747 -40.6746 -40.6745 -40.6744 -40.6744 -40.6744
   -40.6744 -40.6743 -40.6741 -40.6741 -40.6741 -40.6740 -40.6738 -40.6738
   -40.6738 -40.6738 -40.6738 -40.6684 -40.6670 -40.6658 -40.6658 -40.6655
   -40.6655 -40.6651 -40.6651 -40.6649 -40.6577 -40.6525 -40.6517 -40.6440
   -40.6440 -40.6439 -40.6439 -40.6439 -40.6438 -40.6436 -40.6435 -40.6432
   -40.6431 -40.6431 -40.6431 -40.6399 -40.6250 -40.6166 -40.6092 -40.6092
   -40.6092 -40.6092 -40.6091 -40.6090 -40.6090 -40.6090 -40.6089 -40.6087
   -40.6084 -40.6084 -40.6084 -40.6084 -40.5971 -40.5971 -40.5969 -40.5967
   -40.5962 -40.5962 -40.5808 -40.5784 -40.5778 -40.5777 -40.5776 -40.5774
   -40.5771 -40.5769 -40.5769 -40.5740 -40.5734 -40.5608 -40.5608 -40.5605
   -40.5605 -40.5599 -40.5599 -40.5598 -40.5528 -40.5397 -40.5301 -40.5301
   -40.5299 -40.5298 -40.5292 -40.5292 -40.5256 -40.5215 -40.5034 -40.4926
   -20.2714 -19.9093 -19.8448 -19.8322 -19.7520 -19.7323 -19.6418 -19.6282
   -19.5472 -19.4687 -19.4084 -19.3970 -19.3315 -19.3031 -19.2676 -19.2023
   -19.1986 -18.9459 -18.8943 -18.7762 -18.7493 -18.7309 -18.6987 -18.6958
   -18.6948 -18.6849 -18.6773 -18.6571 -18.6379 -18.6281 -18.6202 -18.6133
   -18.5884 -18.5836 -18.5748 -18.5326 -18.5308 -18.5233 -18.5218 -18.5052
   -18.4943 -18.4771 -18.4759 -18.4517 -18.4444 -18.4253 -18.3891 -18.3834
   -18.3811 -18.3727 -18.3635 -18.3583 -18.3167 -18.3116 -18.3051 -18.2896
   -18.2447 -18.2270 -18.2268 -18.2246 -18.2003 -18.1783 -18.1618 -18.1536
   -18.1449 -18.1320 -18.1232 -18.0897 -18.0809 -18.0760 -18.0717 -18.0715
   -18.0673 -18.0614 -18.0492 -18.0450 -18.0430 -18.0418 -18.0378 -18.0352
   -18.0323 -18.0181 -18.0169 -18.0132 -17.9844 -17.9838 -17.9805 -17.9782
   -17.9750 -17.9744 -17.9711 -17.9683 -17.9640 -17.9523 -17.9253 -17.9244
   -17.9119 -17.9086 -17.9084 -17.9033 -17.8682 -17.8680 -17.8588 -17.8580
   -17.8416 -17.8296 -17.8195 -17.8175 -17.8136 -17.8097 -17.7926 -17.7923
   -17.7920 -17.7917 -17.7905 -17.7903 -17.7775 -17.7770 -17.7574 -17.7567
   -17.7331 -17.7326 -17.7135 -17.7128 -17.6993 -17.6988 -17.6925 -17.6924
   -12.1154 -12.0686 -12.0462 -11.7924 -11.6978 -11.6641 -11.5975 -11.5953
   -11.5229 -11.4797 -11.4749 -11.4713 -11.4667 -11.4656 -11.4411 -11.4219
   -11.3892 -11.3842 -11.3678 -11.3614 -11.3550 -11.3342 -11.3232 -11.2997
   -11.2979 -11.2793 -11.2641 -11.2516 -11.2490 -11.2432 -11.2365 -11.2286
   -11.2277 -11.2043 -11.1869 -11.1855 -11.1724 -11.1694 -11.1673 -11.1486
   -11.1481 -11.1361 -11.1347 -11.1216 -11.1198 -11.1175 -11.0930 -11.0774
   -11.0767 -11.0468 -11.0433 -11.0306 -11.0098 -10.9675 -10.9548 -10.9199
   -10.9133 -10.9054 -10.9037 -10.8983 -10.8881 -10.8662 -10.8658 -10.8294
   -10.8205 -10.8122 -10.8042 -10.8015 -10.7942 -10.7841 -10.7838 -10.7834
   -10.7827 -10.7791 -10.7769 -10.7701 -10.7663 -10.7657 -10.7619 -10.7565
   -10.7559 -10.7549 -10.7382 -10.7168 -10.7165 -10.7164 -10.7151 -10.6432
   -10.5626 -10.5311 -10.5198 -10.4986 -10.4946 -10.4789 -10.4419 -10.3903
   -10.3559 -10.3543 -10.2766 -10.2474 -10.2374 -10.1871 -10.1427 -10.1184
   -10.1111 -10.0976 -10.0919 -10.0817 -10.0815 -10.0555 -10.0210 -10.0165
   -10.0108 -10.0081  -9.9991  -9.9963  -9.9812  -9.9763  -9.9663  -9.9546
    -9.9301  -9.9118  -9.9023  -9.8955  -9.8791  -9.8706  -9.8665  -9.8586
    -9.8578  -9.8262  -9.8085  -9.7908  -9.7870  -9.7808  -9.7690  -9.7552
    -9.7470  -9.7341  -9.7264  -9.6919  -9.6788  -9.6620  -9.6424  -9.6364
    -9.6140  -9.6102  -9.5985  -9.5917  -9.5878  -9.5796  -9.5714  -9.5522
    -9.5289  -9.5260  -9.5211  -9.5197  -9.5050  -9.4656  -9.4634  -9.4575
    -9.4509  -9.4495  -9.4486  -9.4367  -9.4315  -9.4312  -9.4299  -9.4209
    -9.3934  -9.3802  -9.3791  -9.3449  -9.3090  -9.2932  -9.2530  -9.2469
    -9.2252  -9.2036  -9.1913  -9.1872  -9.1808  -9.1666  -9.1543  -9.1499
    -9.1396  -9.1120  -9.1034  -9.1000  -9.0804  -9.0743  -9.0733  -9.0455
    -9.0284  -9.0216  -9.0175  -9.0168  -8.9936  -8.9779  -8.9760  -8.9635
    -8.9478  -8.9330  -8.9321  -8.9232  -8.9161  -8.9023  -8.8951  -8.8667
    -8.8665  -8.8646  -8.8627  -8.8597  -8.8559  -8.8526  -8.8476  -8.8422
    -8.8409  -8.8405  -8.8357  -8.8297  -8.8272  -8.8240  -8.8207  -8.8129
    -8.8125  -8.7987  -8.7666  -8.7664  -8.7660  -8.7631  -8.7615  -8.7580
    -8.7507  -8.7362  -8.7352  -8.7231  -8.7067  -8.7063  -8.7055  -8.7001
    -8.6843  -8.6388  -8.6335  -8.6322  -8.6111  -8.5987  -8.5473  -8.4946
    -8.4815  -8.4760  -8.4744  -8.4232  -8.4159  -8.4152  -8.3490  -8.3374
    -8.3331  -8.3295  -8.2724  -8.2613  -8.2079  -8.1551  -8.1057  -8.1004
    -8.1004  -8.0913  -8.0912  -8.0820  -8.0800  -8.0796  -8.0535  -8.0286
    -8.0229  -7.9446  -7.9434  -7.9416  -7.9338  -7.8655  -7.8576  -7.8447
    -7.8249  -7.8241  -7.8115  -7.8069  -7.8047  -7.7957  -7.7918  -7.7835
    -7.7790  -7.7727  -7.7701  -7.7662  -7.7641  -7.7633  -7.7586  -7.7544
    -7.7539  -7.7430  -7.7421  -7.7395  -7.7369  -7.7365  -7.7361  -7.7326
    -7.7311  -7.7274  -7.7272  -7.7229  -7.7044  -7.7042  -7.7025  -7.7009
    -7.6702  -7.6699  -7.6698  -7.6692  -7.6418  -7.6403  -7.6395  -7.6392
    -7.6282  -7.6262  -7.6234  -7.6160  -7.5967  -7.5929  -7.5875  -7.5828
    -7.5811  -7.5793  -7.5732  -7.5616  -7.5588  -7.5573  -7.5415  -7.5379
    -7.5361  -7.5359  -7.5323  -7.5116  -7.4551  -7.4513  -7.4393  -7.4364
    -7.4306  -7.4208  -7.4208  -7.3934  -7.3715  -7.3548  -7.2906  -7.2450
    -7.2255  -7.1791  -7.1458  -7.1433  -7.1405  -7.1375  -7.1233  -7.0949
    -7.0888  -7.0856  -7.0810  -7.0765  -7.0522  -7.0252  -7.0133  -7.0068
    -6.9996  -6.9983  -6.9795  -6.9490  -6.9429  -6.9349  -6.9139  -6.9091
    -6.8884  -6.8828  -6.8745  -6.8618  -6.8518  -6.8369  -6.8329  -6.8313
    -6.8308  -6.7916  -6.7695  -6.7501  -6.7438  -6.7414  -6.7281  -6.7026
    -6.6704  -6.6542  -6.6517  -6.6292  -6.6012  -6.5971  -6.5919  -6.5788
    -6.5780  -6.5775  -6.5762  -6.5611  -6.5604  -6.5602  -6.5595  -6.5522
    -6.5520  -6.5517  -6.5515  -6.5409  -6.5292  -6.5102  -6.4718  -6.4406
    -6.4345  -6.4240  -6.3946  -6.3855  -6.3555  -6.3455  -6.2916  -6.2911
    -6.2902  -6.2898  -6.2864  -6.2739  -6.2643  -6.2494  -6.2490  -6.2476
    -6.2451  -6.2442  -6.2300  -6.2297  -6.2281  -6.2266  -6.2031  -6.1790
    -6.1785  -6.1780  -6.1776  -6.1007  -6.0953  -6.0448  -6.0062  -5.9834
    -5.9584  -5.9547  -5.8932  -5.8925  -5.8717  -5.8287  -5.8263  -5.7997
    -5.7505  -5.6971  -5.6906  -5.6642  -5.6337  -5.5791  -5.5739  -5.4679
    -5.4596  -5.4039  -5.2902  -5.1629  -4.0994  -4.0813  -4.0706  -4.0677
    -4.0001  -3.9374  -3.9347  -3.9123  -3.9058  -3.8885  -3.8462  -3.8277
    -3.8147  -3.8082  -3.8007  -3.7875  -3.7853  -3.7791  -3.7715  -3.7701
    -3.7163  -3.7083  -3.6728  -3.6715  -3.6544  -3.6059  -3.5758  -3.5726
    -3.5715  -3.5700  -3.5260  -3.5213  -3.5162  -3.5158  -3.5119  -3.4966
    -3.4955  -3.4913  -3.4791  -3.4764  -3.4630  -3.4575  -3.4536  -3.4495
    -3.4478  -3.4396  -3.4310  -3.4220  -3.4195  -3.3996  -3.3951  -3.3930
    -3.3832  -3.3743  -3.3629  -3.3424  -3.3352  -3.3251  -3.3204  -3.3179
    -3.3148  -3.3110  -3.3058  -3.2877  -3.2858  -3.2645  -3.2591  -3.2538
    -3.2514  -3.2510  -3.2485  -3.2465  -3.2424  -3.2213  -3.2139  -3.2130
    -3.2058  -3.2009  -3.1991  -3.1973  -3.1936  -3.1826  -3.1820  -3.1768
    -3.1719  -3.1584  -3.1487  -3.1471  -3.1459  -3.1391  -3.1387  -3.1333
    -3.1328  -3.1265  -3.0751  -3.0722  -3.0664  -3.0645  -3.0575  -3.0478
    -3.0368  -3.0303  -3.0002  -2.9960  -2.9944  -2.9942  -2.9936  -2.9924
    -2.9877  -2.9832  -2.9818  -2.9802  -2.9774  -2.9744  -2.9655  -2.9616
    -2.9578  -2.9555  -2.9523  -2.9486  -2.9411  -2.9392  -2.9337  -2.9294
    -2.9202  -2.9193  -2.9151  -2.9144  -2.9068  -2.9006  -2.9004  -2.8876
    -2.8726  -2.8715  -2.8569  -2.8565  -2.8474  -2.8453  -2.8409  -2.8175
    -2.7795  -2.7687  -2.7606  -2.7579  -2.7345  -2.7182  -2.6992  -2.6892
    -2.6603  -2.5957  -2.5824  -2.5698  -2.5584  -2.5477  -2.5315  -2.5200
    -2.5163  -2.5139  -2.5025  -2.5021  -2.4988  -2.4971  -2.4936  -2.3960
    -2.3783  -2.3727  -2.3680  -2.3646  -2.3595  -2.3586  -2.3526  -2.3414
    -2.3125  -2.3114

          k =-0.5000-0.8660 0.0000 (386352 PWs)   bands (ev):

   -88.6365 -88.6315 -88.5864 -88.5329 -66.5923 -66.5923 -66.5923 -66.5919
   -66.5911 -66.5911 -66.5816 -66.5816 -66.5814 -66.5814 -66.5804 -66.5804
   -66.5776 -66.5723 -66.5665 -66.5665 -66.5665 -66.5665 -66.5664 -66.5664
   -66.5662 -66.5662 -66.5653 -66.5653 -66.5653 -66.5653 -66.5631 -66.5621
   -66.5621 -66.5621 -66.5617 -66.5609 -66.5608 -66.5585 -66.5559 -66.5558
   -66.5558 -66.5558 -66.5558 -66.5558 -66.5554 -66.5552 -66.5546 -66.5546
   -66.5546 -66.5546 -66.5514 -66.5514 -66.5511 -66.5511 -66.5501 -66.5501
   -66.5501 -66.5458 -66.5437 -66.5391 -66.5357 -66.5353 -66.5316 -66.5282
   -66.5218 -66.5169 -66.5132 -66.5125 -54.5608 -54.5078 -54.4966 -54.3971
   -54.3724 -54.3716 -54.3560 -54.3427 -54.3398 -54.3203 -54.3046 -54.2913
   -40.8942 -40.8942 -40.8942 -40.8942 -40.8942 -40.8941 -40.8938 -40.8937
   -40.8937 -40.8937 -40.8937 -40.8937 -40.8751 -40.8748 -40.8674 -40.8674
   -40.8673 -40.8670 -40.8668 -40.8668 -40.8608 -40.8558 -40.8554 -40.8553
   -40.8551 -40.8551 -40.8548 -40.8548 -40.8496 -40.8411 -40.8273 -40.8149
   -40.8047 -40.8047 -40.8047 -40.8047 -40.8044 -40.8044 -40.8044 -40.8044
   -40.8040 -40.8040 -40.8040 -40.8040 -40.7769 -40.7753 -40.7721 -40.7716
   -40.7490 -40.7460 -40.7459 -40.7459 -40.7455 -40.7454 -40.7454 -40.7424
   -40.7364 -40.7364 -40.7361 -40.7361 -40.7356 -40.7356 -40.7273 -40.7251
   -40.7251 -40.7249 -40.7248 -40.7245 -40.7245 -40.7221 -40.7094 -40.7023
   -40.7015 -40.6958 -40.6956 -40.6955 -40.6955 -40.6955 -40.6955 -40.6953
   -40.6953 -40.6952 -40.6951 -40.6948 -40.6948 -40.6948 -40.6948 -40.6911
   -40.6868 -40.6867 -40.6867 -40.6863 -40.6861 -40.6861 -40.6805 -40.6776
   -40.6752 -40.6749 -40.6749 -40.6747 -40.6746 -40.6745 -40.6745 -40.6745
   -40.6744 -40.6744 -40.6744 -40.6741 -40.6741 -40.6740 -40.6738 -40.6738
   -40.6738 -40.6738 -40.6738 -40.6700 -40.6674 -40.6658 -40.6657 -40.6655
   -40.6655 -40.6651 -40.6651 -40.6649 -40.6557 -40.6534 -40.6495 -40.6440
   -40.6440 -40.6440 -40.6439 -40.6439 -40.6439 -40.6436 -40.6434 -40.6432
   -40.6431 -40.6431 -40.6431 -40.6412 -40.6194 -40.6158 -40.6132 -40.6113
   -40.6092 -40.6092 -40.6092 -40.6092 -40.6090 -40.6090 -40.6090 -40.6089
   -40.6084 -40.6084 -40.6084 -40.6084 -40.5971 -40.5971 -40.5970 -40.5966
   -40.5962 -40.5962 -40.5826 -40.5802 -40.5780 -40.5778 -40.5777 -40.5777
   -40.5773 -40.5769 -40.5769 -40.5749 -40.5696 -40.5608 -40.5608 -40.5605
   -40.5605 -40.5599 -40.5599 -40.5556 -40.5492 -40.5436 -40.5313 -40.5301
   -40.5301 -40.5300 -40.5297 -40.5292 -40.5292 -40.5233 -40.5007 -40.4910
   -20.2767 -19.8789 -19.8449 -19.8230 -19.7537 -19.7275 -19.6542 -19.6284
   -19.6051 -19.4874 -19.4083 -19.4005 -19.3232 -19.3071 -19.2230 -19.2041
   -19.1629 -18.9317 -18.9079 -18.8015 -18.7584 -18.7475 -18.6973 -18.6958
   -18.6954 -18.6914 -18.6700 -18.6492 -18.6336 -18.6301 -18.6213 -18.6173
   -18.5966 -18.5719 -18.5533 -18.5333 -18.5291 -18.5263 -18.5192 -18.5108
   -18.4955 -18.4697 -18.4632 -18.4511 -18.4433 -18.4210 -18.4075 -18.3869
   -18.3839 -18.3778 -18.3557 -18.3551 -18.3272 -18.3086 -18.3017 -18.2934
   -18.2628 -18.2465 -18.2252 -18.2176 -18.1922 -18.1871 -18.1642 -18.1543
   -18.1401 -18.1323 -18.1060 -18.0973 -18.0836 -18.0734 -18.0721 -18.0719
   -18.0691 -18.0504 -18.0466 -18.0438 -18.0432 -18.0425 -18.0382 -18.0353
   -18.0281 -18.0256 -18.0155 -18.0014 -17.9857 -17.9847 -17.9804 -17.9768
   -17.9746 -17.9731 -17.9722 -17.9634 -17.9611 -17.9526 -17.9271 -17.9247
   -17.9145 -17.9109 -17.9069 -17.8927 -17.8753 -17.8672 -17.8636 -17.8482
   -17.8477 -17.8346 -17.8203 -17.8187 -17.8139 -17.8110 -17.7928 -17.7926
   -17.7921 -17.7911 -17.7905 -17.7896 -17.7781 -17.7770 -17.7584 -17.7562
   -17.7339 -17.7321 -17.7144 -17.7121 -17.6998 -17.6982 -17.6926 -17.6923
   -12.1324 -12.0920 -12.0198 -11.8098 -11.6969 -11.6716 -11.5549 -11.5415
   -11.4997 -11.4952 -11.4737 -11.4701 -11.4684 -11.4541 -11.4433 -11.4343
   -11.3991 -11.3817 -11.3696 -11.3634 -11.3563 -11.3276 -11.3191 -11.3165
   -11.2899 -11.2784 -11.2718 -11.2532 -11.2499 -11.2402 -11.2352 -11.2322
   -11.2278 -11.2260 -11.2050 -11.1799 -11.1757 -11.1727 -11.1669 -11.1558
   -11.1481 -11.1423 -11.1349 -11.1233 -11.1208 -11.1139 -11.1045 -11.0943
   -11.0619 -11.0603 -11.0500 -11.0098 -11.0006 -10.9792 -10.9382 -10.9287
   -10.9224 -10.9138 -10.8925 -10.8885 -10.8755 -10.8606 -10.8380 -10.8291
   -10.8153 -10.8114 -10.8085 -10.8017 -10.7969 -10.7846 -10.7838 -10.7830
   -10.7824 -10.7794 -10.7738 -10.7718 -10.7662 -10.7655 -10.7618 -10.7576
   -10.7550 -10.7522 -10.7475 -10.7172 -10.7165 -10.7161 -10.7157 -10.6324
   -10.5829 -10.5303 -10.5139 -10.5036 -10.4984 -10.4699 -10.4538 -10.3963
   -10.3725 -10.3364 -10.2868 -10.2547 -10.2006 -10.1824 -10.1548 -10.1359
   -10.1183 -10.0983 -10.0909 -10.0878 -10.0836 -10.0503 -10.0358 -10.0270
   -10.0082 -10.0060 -10.0005  -9.9973  -9.9968  -9.9808  -9.9709  -9.9454
    -9.9298  -9.9073  -9.9030  -9.8879  -9.8854  -9.8729  -9.8660  -9.8646
    -9.8563  -9.8391  -9.8145  -9.8051  -9.7858  -9.7613  -9.7569  -9.7494
    -9.7478  -9.7317  -9.7218  -9.7134  -9.6832  -9.6824  -9.6481  -9.6371
    -9.6338  -9.6170  -9.6029  -9.5892  -9.5864  -9.5769  -9.5560  -9.5457
    -9.5355  -9.5268  -9.5181  -9.5168  -9.4773  -9.4684  -9.4645  -9.4619
    -9.4558  -9.4498  -9.4447  -9.4356  -9.4337  -9.4330  -9.4118  -9.4093
    -9.3764  -9.3719  -9.3598  -9.3352  -9.3153  -9.3032  -9.2606  -9.2296
    -9.2079  -9.1971  -9.1948  -9.1864  -9.1821  -9.1639  -9.1536  -9.1415
    -9.1278  -9.1219  -9.1120  -9.0991  -9.0878  -9.0731  -9.0569  -9.0418
    -9.0285  -9.0263  -9.0174  -9.0123  -9.0017  -8.9900  -8.9743  -8.9610
    -8.9423  -8.9348  -8.9279  -8.9236  -8.9183  -8.9017  -8.8932  -8.8879
    -8.8667  -8.8641  -8.8622  -8.8609  -8.8564  -8.8532  -8.8530  -8.8447
    -8.8420  -8.8411  -8.8377  -8.8321  -8.8259  -8.8161  -8.8134  -8.8128
    -8.8117  -8.7973  -8.7677  -8.7667  -8.7651  -8.7638  -8.7617  -8.7609
    -8.7366  -8.7354  -8.7263  -8.7146  -8.7123  -8.7063  -8.7046  -8.7039
    -8.6940  -8.6623  -8.6325  -8.6287  -8.6267  -8.6022  -8.5642  -8.4977
    -8.4775  -8.4749  -8.4288  -8.4216  -8.4133  -8.3768  -8.3499  -8.3331
    -8.3291  -8.3151  -8.2709  -8.2588  -8.2158  -8.1599  -8.1444  -8.1004
    -8.1004  -8.0911  -8.0911  -8.0800  -8.0800  -8.0649  -8.0500  -8.0450
[...]
     atom  167 type  2   force =    -0.00000015   -0.00000033   -0.00009123
     atom  168 type  2   force =    -0.00047197    0.00020180   -0.00399921
     atom  169 type  1   force =    -0.00000005   -0.00000004    0.00255973
     atom  170 type  1   force =     0.00000005   -0.00000002    0.00000677
     atom  171 type  2   force =    -0.00000005   -0.00000003   -0.00003438
     atom  172 type  2   force =    -0.00000000    0.00000001    0.00017186
     atom  173 type  2   force =     0.00000000   -0.00000000    0.00441347
     atom  174 type  2   force =     0.00000012    0.00000035    0.00009438
     atom  175 type  1   force =     0.00000588    0.00000329   -0.00000941
     atom  176 type  1   force =    -0.00034970   -0.00009276   -0.00195254
     atom  177 type  2   force =    -0.00006505   -0.00003797    0.00022617
     atom  178 type  2   force =     0.00000825    0.00000426    0.00005585
     atom  179 type  2   force =     0.00000028    0.00000049   -0.00009411
     atom  180 type  2   force =    -0.00058831   -0.00033954   -0.00422095
     atom  181 type  1   force =    -0.00000005   -0.00000001    0.00255961
     atom  182 type  1   force =     0.00000001    0.00000006    0.00000677
     atom  183 type  2   force =    -0.00000001   -0.00000001   -0.00003438
     atom  184 type  2   force =     0.00000000   -0.00000001    0.00017187
     atom  185 type  2   force =     0.00000000    0.00000003    0.00441348
     atom  186 type  2   force =    -0.00000014    0.00000034    0.00009412
     atom  187 type  1   force =    -0.00000609    0.00001120    0.00000753
     atom  188 type  1   force =    -0.00025544   -0.00025635   -0.00195258
     atom  189 type  2   force =    -0.00003000   -0.00003591   -0.00001186
     atom  190 type  2   force =     0.00000748    0.00000554    0.00005601
     atom  191 type  2   force =     0.00000085   -0.00000046   -0.00009416
     atom  192 type  2   force =    -0.00006136   -0.00050975   -0.00399928
     atom  193 type  3   force =     0.00016936   -0.00027189   -0.00629904
     atom  194 type  3   force =    -0.00015077    0.00028268   -0.00629905
     atom  195 type  3   force =     0.00056152    0.00032429   -0.00629710
     atom  196 type  3   force =    -0.00057396   -0.00033130   -0.00629546

     Total force =     0.003564     Total SCF correction =     0.000388
     SCF correction compared to forces is large: reduce conv_thr to get better values
     Energy error            =      2.6E-05 Ry
     Gradient error          =      7.9E-04 Ry/Bohr

     bfgs converged in  16 scf cycles and  15 bfgs steps
     (criteria: energy <  1.0E-04 Ry, force <  1.0E-03 Ry/Bohr)

     End of BFGS Geometry Optimization

     Final energy             =  -33841.5696972514 Ry

     File ./outdir/pwscf.bfgs deleted, as requested
Begin final coordinates

ATOMIC_POSITIONS (angstrom)
Mo            0.0000119917        1.8193638619       -9.1672481230    0   0   0
Mo            1.5756136568        0.9097075315       -3.0554901653    0   0   0
S             0.0000188998        1.8193822938       -4.6232556019    0   0   0
S             1.5756321638        0.9096773839       -7.6014065489    0   0   0
S             1.5756326175        0.9096785128      -10.7330757790    0   0   0
S             0.0000189190        1.8193860094       -1.4877129945    0   0   0
Mo           -0.0007116349        1.8244028368        3.0597649941
Mo            1.5762940128        0.9053859905        9.1756302225
S            -0.0003626357        1.8286516416        7.6107382778
S             1.5746161053        0.9146631285        4.6275306510
S             1.5749327059        0.9146842222        1.4919924438
S            -0.0065356347        1.7733420735       10.7710422369
Mo           -1.5756053507        4.5484193819       -9.1672481230    0   0   0
Mo            0.0000378379        3.6387394919       -3.0554952701    0   0   0
S            -1.5755913433        4.5484363582       -4.6232494962    0   0   0
S             0.0000148214        3.6387329039       -7.6014065489    0   0   0
S             0.0000152751        3.6387340328      -10.7330757790    0   0   0
S            -1.5755906502        4.5484413613       -1.4877305502    0   0   0
Mo           -1.5761900054        4.5532132332        3.0597761403
Mo           -0.0239409382        3.6360616338        9.1770280606
S            -1.5773993240        4.5601119821        7.6107495428
S            -0.0009360692        3.6435477798        4.6284578647
S            -0.0000907796        3.6439023132        1.4924576500
S            -1.6284736779        4.5824965241       10.7710776092
Mo           -3.1512226931        7.2774749019       -9.1672481230    0   0   0
Mo           -1.5755910988        6.3678216792       -3.0555115988    0   0   0
S            -3.1512162438        7.2774954350       -4.6232578178    0   0   0
S            -1.5756025210        6.3677884239       -7.6014065489    0   0   0
S            -1.5756020673        6.3677895528      -10.7330757790    0   0   0
S            -3.1512127704        7.2774877076       -1.4877200710    0   0   0
Mo           -3.1520093549        7.2823127545        3.0596966341
Mo           -1.5886532529        6.3872023261        9.1756673078
S            -3.1583173176        7.2880269266        7.5993085194
S            -1.5764474690        6.3724699289        4.6275417134
S            -1.5761316950        6.3725161455        1.4920059789
S            -3.1548512823        7.2976759906       10.7452688738
Mo           -4.7268400355       10.0065304219       -9.1672481230    0   0   0
Mo           -3.1512405618        9.0968403586       -3.0554816746    0   0   0
S            -4.7268341792       10.0065523623       -4.6232463762    0   0   0
S            -3.1512198634        9.0968439439       -7.6014065489    0   0   0
S            -3.1512194097        9.0968450728      -10.7330757790    0   0   0
S            -4.7268370797       10.0065537885       -1.4877176751    0   0   0
Mo           -4.7276388851       10.0113717655        3.0596979007
Mo           -3.1521776262        9.1074568051        9.1679687516
S            -4.7309436910       10.0117295772        7.5993120146
S            -3.1518862995        9.1018354852        4.6271430688
S            -3.1520378721        9.1016014660        1.4916905322
S            -4.7208846083       10.0100839134       10.7452599781
Mo            3.1512517547        1.8193638619       -9.1672481230    0   0   0
Mo            4.7269020221        0.9097289540       -3.0554823951    0   0   0
S             3.1512612351        1.8193882564       -4.6232320683    0   0   0
S             4.7268719268        0.9096773839       -7.6014065489    0   0   0
S             4.7268723805        0.9096785128      -10.7330757790    0   0   0
S             3.1512592485        1.8193890201       -1.4877261251    0   0   0
Mo            3.1504369749        1.8244513439        3.0600436289
Mo            4.7285647831        0.9096876866        9.1679358672
S             3.1522201243        1.8153798098        7.6030471829
S             4.7262438385        0.9145827091        4.6269189582
S             4.7259299186        0.9147371500        1.4917776638
S             3.1538172510        1.7719907149       10.7733059138
Mo            1.5756344123        4.5484193819       -9.1672481230    0   0   0
Mo            3.1512756394        3.6387769522       -3.0554814834    0   0   0
S             1.5756504879        4.5484423799       -4.6232390542    0   0   0
S             3.1512545844        3.6387329039       -7.6014065489    0   0   0
S             3.1512550381        3.6387340328      -10.7330757790    0   0   0
S             1.5756466253        4.5484431864       -1.4877251801    0   0   0
Mo            1.5750953265        4.5533969286        3.0612534863
Mo            3.1787336386        3.6167105757        9.1647741465
S             1.5745054303        4.5589079070        7.6363651587
S             3.1510171819        3.6436148370        4.6292238397
S             3.1502419478        3.6438998596        1.4927847706
S             1.5945389248        4.5705940868       10.6794944591
Mo            0.0000170699        7.2774749019       -9.1672481230    0   0   0
Mo            1.5756764447        6.3678236689       -3.0554877708    0   0   0
S             0.0000381981        7.2774979204       -4.6232454413    0   0   0
S             1.5756372420        6.3677884239       -7.6014065489    0   0   0
S             1.5756376957        6.3677895528      -10.7330757790    0   0   0
S             0.0000328088        7.2774946042       -1.4877307940    0   0   0
Mo           -0.0005614403        7.2821586517        3.0600606333
Mo            1.5606461056        6.4193562913        9.1647835975
S            -0.0126004784        7.2969442298        7.6030745353
S             1.5751077194        6.3731763915        4.6292449585
S             1.5750881467        6.3721659004        1.4927951301
S            -0.0495045577        7.3201865685       10.7733647501
Mo           -1.5756002725       10.0065304219       -9.1672481230    0   0   0
Mo            0.0000873425        9.0968676911       -3.0554912329    0   0   0
S            -1.5755883952       10.0065504530       -4.6232240150    0   0   0
S             0.0000198996        9.0968439439       -7.6014065489    0   0   0
S             0.0000203533        9.0968450728      -10.7330757790    0   0   0
S            -1.5755859047       10.0065492576       -1.4877362381    0   0   0
Mo           -1.5763416592       10.0113968434        3.0593092273
Mo           -0.0088324986        9.1150000041        9.1679718654
S            -1.5788444382       10.0157680720        7.5944424439
S            -0.0006975190        9.1019017231        4.6269269731
S            -0.0005914344        9.1013236530        1.4917871506
S            -1.5779042920       10.0164335767       10.7427595766
Mo            6.3024915177        1.8193638619       -9.1672481230    0   0   0
Mo            7.8781001445        0.9096521684       -3.0554919963    0   0   0
S             6.3025008696        1.8193826232       -4.6232480596    0   0   0
S             7.8781116898        0.9096773839       -7.6014065489    0   0   0
S             7.8781121435        0.9096785128      -10.7330757790    0   0   0
S             6.3025042007        1.8193849068       -1.4877147524    0   0   0
Mo            6.3018523315        1.8243598959        3.0594876761
Mo            7.8764136331        0.9198250902        9.1537991779
S             6.3004860850        1.8212851154        7.5830200493
S             7.8779101407        0.9149367853        4.6266293985
S             7.8772697562        0.9144143267        1.4913311319
S             6.3120455751        1.8191883175       10.7274680781
Mo            4.7268741753        4.5484193819       -9.1672481230    0   0   0
Mo            6.3024679138        3.6387501714       -3.0554895197    0   0   0
S             4.7268748770        4.5484386753       -4.6232519432    0   0   0
S             6.3024943474        3.6387329039       -7.6014065489    0   0   0
S             6.3024948011        3.6387340328      -10.7330757790    0   0   0
S             4.7268770533        4.5484432419       -1.4877137856    0   0   0
Mo            4.7261012887        4.5533688947        3.0602979755
Mo            6.3322956958        3.6347265869        9.1539685464
S             4.7389812090        4.5764503226        7.6310462315
S             6.3017106673        3.6435785625        4.6280221673
S             6.3016611065        3.6438845819        1.4921810145
S             4.8003971096        4.4685979843       10.7708848118
Mo            3.1512568329        7.2774749019       -9.1672481230    0   0   0
Mo            4.7268384135        6.3678043337       -3.0554959052    0   0   0
S             3.1512606125        7.2774972547       -4.6232589675    0   0   0
S             4.7268770050        6.3677884239       -7.6014065489    0   0   0
S             4.7268774587        6.3677895528      -10.7330757790    0   0   0
S             3.1512629079        7.2774963749       -1.4877081835    0   0   0
Mo            3.1505736440        7.2822699111        3.0603136924
Mo            4.7358269523        6.3840934087        9.2162236818
S             3.1719954711        7.2906420699        7.6310522047
S             4.7263560768        6.3728449846        4.6277802227
S             4.7257544516        6.3723700380        1.4920303536
S             3.1092237568        7.3979300194       10.7708359703
Mo            1.5756394905       10.0065304219       -9.1672481230    0   0   0
Mo            3.1512330605        9.0968514907       -3.0554878870    0   0   0
S             1.5756499830       10.0065443759       -4.6232632674    0   0   0
S             3.1512596626        9.0968439439       -7.6014065489    0   0   0
S             3.1512601163        9.0968450728      -10.7330757790    0   0   0
S             1.5756503041       10.0065459699       -1.4877044377    0   0   0
Mo            1.5750592715       10.0114206409        3.0594974377
Mo            3.1530170963        9.1414120517        9.1539817461
S             1.5666189595       10.0204216947        7.5830423802
S             3.1504019515        9.1017892056        4.6280492890
S             3.1507727033        9.1013840717        1.4921942968
S             1.5705191254       10.0316467905       10.7274963785
Mo            9.4537312807        1.8193638619       -9.1672481230    0   0   0
Mo           11.0293863460        0.9096952246       -3.0554894007    0   0   0
S             9.4537395970        1.8193770750       -4.6232328036    0   0   0
S            11.0293514528        0.9096773839       -7.6014065489    0   0   0
S            11.0293519066        0.9096785128      -10.7330757790    0   0   0
S             9.4537393632        1.8193794783       -1.4877366147    0   0   0
Mo            9.4531433214        1.8243232205        3.0588292971
Mo           11.0273954078        0.9144264429        9.1650530548
S             9.4553681999        1.8314159825        7.5894621327
S            11.0283926782        0.9150239448        4.6271391255
S            11.0290157254        0.9142352514        1.4916557954
S             9.4499804987        1.8283927345       10.7263458891
Mo            7.8781139383        4.5484193819       -9.1672481230    0   0   0
Mo            9.4537539161        3.6387607911       -3.0554933032    0   0   0
S             7.8781175448        4.5484378232       -4.6232366318    0   0   0
S             9.4537341104        3.6387329039       -7.6014065489    0   0   0
S             9.4537345641        3.6387340328      -10.7330757790    0   0   0
S             7.8781194018        4.5484411585       -1.4877377057    0   0   0
Mo            7.8773406646        4.5534142480        3.0600851420
Mo            9.4471831984        3.6513942219        9.1650498180
S             7.8881665880        4.5677117542        7.5882437457
S             9.4532197540        3.6432961270        4.6271456919
S             9.4529918458        3.6440100175        1.4916556740
S             7.8818921116        4.5545962908       10.7386375750
Mo            6.3024965959        7.2774749019       -9.1672481230    0   0   0
Mo            7.8781361655        6.3678242352       -3.0555014130    0   0   0
S             6.3024973331        7.2774953556       -4.6232392528    0   0   0
S             7.8781167680        6.3677884239       -7.6014065489    0   0   0
S             7.8781172217        6.3677895528      -10.7330757790    0   0   0
S             6.3024989866        7.2774929744       -1.4877349119    0   0   0
Mo            6.3015832145        7.2822433617        3.0593304630
Mo            7.8832543036        6.3787729572        9.1786016500
S             6.2877413653        7.2801012516        7.6346153497
S             7.8768963374        6.3732141043        4.6275313901
S             7.8774108373        6.3724468671        1.4918798313
S             6.3642289621        7.3243113721       10.8012208099
Mo            4.7268792535       10.0065304219       -9.1672481230    0   0   0
Mo            6.3025111524        9.0968738021       -3.0554915260    0   0   0
S             4.7268840634       10.0065452125       -4.6232380477    0   0   0
S             6.3024994256        9.0968439439       -7.6014065489    0   0   0
S             6.3024998793        9.0968450728      -10.7330757790    0   0   0
S             4.7268847312       10.0065459141       -1.4877283294    0   0   0
Mo            4.7262228059       10.0113066909        3.0601010711
Mo            6.3048541578        9.1125429833        9.1786352883
S             4.7389479818       10.0222929147        7.5882510994
S             6.3019231596        9.1011227151        4.6275526926
S             6.3016380097        9.1017470930        1.4918903177
S             4.7243786534       10.0235623434       10.7386820479
Pd            1.6156589323        6.2530539290       12.2605365840
Pd            3.0617231252        3.7480035391       12.2607014183
Pd            0.1551431559        3.7395426139       12.2130766796
Pd            4.6157870581        6.3150433872       12.1499298210
End final coordinates



     Writing all to output data dir ./outdir/pwscf.save/
 
     init_run     :    216.82s CPU    220.49s WALL (       1 calls)
     electrons    : 149397.88s CPU 150870.82s WALL (      16 calls)
     update_pot   :     81.65s CPU     82.82s WALL (      15 calls)
     forces       :   2343.91s CPU   2392.02s WALL (      16 calls)
     force_dftd3  :     12.71s CPU     13.57s WALL (      16 calls)

     Called by init_run:
     wfcinit      :    191.60s CPU    193.83s WALL (       1 calls)
     potinit      :      2.30s CPU      2.36s WALL (       1 calls)
     hinit0       :     15.99s CPU     16.02s WALL (       1 calls)

     Called by electrons:
     c_bands      : 134186.52s CPU 135057.86s WALL (     197 calls)
     sum_band     :  14379.08s CPU  14731.46s WALL (     197 calls)
     v_of_rho     :     99.78s CPU    102.43s WALL (     197 calls)
     newd         :    543.10s CPU    805.47s WALL (     197 calls)
     PAW_pot      :    146.85s CPU    146.88s WALL (     212 calls)
     mix_rho      :     24.11s CPU     24.14s WALL (     197 calls)
     energy_dftd3 :      5.97s CPU      5.97s WALL (      16 calls)

     Called by c_bands:
     init_us_2    :    503.72s CPU    504.02s WALL (    1704 calls)
     init_us_2:cp :    503.70s CPU    504.01s WALL (    1704 calls)
     cegterg      : 132493.94s CPU 133336.42s WALL (     800 calls)

     Called by *egterg:
     cdiaghg      :   7739.46s CPU   7763.94s WALL (    9831 calls)
     h_psi        :  67450.21s CPU  67685.57s WALL (    9959 calls)
     s_psi        :  14668.80s CPU  14730.33s WALL (    9959 calls)
     g_psi        :    117.88s CPU    117.81s WALL (    9155 calls)

     Called by h_psi:
     h_psi:calbec :  16515.47s CPU  16517.84s WALL (    9959 calls)
     vloc_psi     :  35963.45s CPU  36036.83s WALL (    9959 calls)
     add_vuspsi   :  14837.96s CPU  14889.72s WALL (    9959 calls)

     General routines
     calbec       :  23908.55s CPU  23912.17s WALL (   11063 calls)
     fft          :     92.97s CPU     95.29s WALL (    2736 calls)
     ffts         :      5.06s CPU      5.14s WALL (     394 calls)
     fftw         :  29599.80s CPU  29651.54s WALL ( 5711412 calls)
     interpolate  :     10.40s CPU     10.51s WALL (     197 calls)
 
     Parallel routines
 
     PWSCF        :   1d18h25m CPU   1d18h52m WALL

 
   This run was terminated on:   7:29:55  11Dec2023            

=------------------------------------------------------------------------------=
   JOB DONE.
=------------------------------------------------------------------------------=
Application 11448912 resources: utime ~5499949s, stime ~55584s, Rss ~3535832, inblocks ~0, outblocks ~57334392
