
     Program PWSCF v.7.2 starts on 17Dec2023 at 20:41:35 

     This program is part of the open-source Quantum ESPRESSO suite
     for quantum simulation of materials; please cite
         "P. Giannozzi et al., J. Phys.:Condens. Matter 21 395502 (2009);
         "P. Giannozzi et al., J. Phys.:Condens. Matter 29 465901 (2017);
         "P. Giannozzi et al., J. Chem. Phys. 152 154105 (2020);
          URL http://www.quantum-espresso.org", 
     in publications or presentations arising from this work. More details at
     http://www.quantum-espresso.org/quote

     Parallel version (MPI), running on    36 processors

     MPI processes distributed on     1 nodes
     768733 MiB available memory on the printing compute node when the environment starts
 
     Waiting for input...
     Reading input from standard input
Warning: card &CELL ignored
Warning: card / ignored

     Current dimensions of program PWSCF are:
     Max number of different atomic species (ntypx) = 10
     Max number of k-points (npk) =  40000
     Max angular momentum in pseudopotentials (lmaxx) =  4
     file Mo.pbe-spn-kjpaw_psl.1.0.0.UPF: wavefunction(s)  4S 4D renormalized
     file C.pbe-n-kjpaw_psl.1.0.0.UPF: wavefunction(s)  2S 2P renormalized
     Found identity + ( -0.0000 -0.5000  0.0000) symmetry
     This is a supercell, fractional translations are disabled
 
     R & G space division:  proc/nbgrp/npool/nimage =      36
     Subspace diagonalization in iterative solution of the eigenvalue problem:
     one sub-group per band group will be used
     custom distributed-memory algorithm (size of sub-group:  6*  6 procs)

 
     Parallelization info
     --------------------
     sticks:   dense  smooth     PW     G-vecs:    dense   smooth      PW
     Min         482     276     72               133834    57821    7790
     Max         483     277     73               133853    57828    7807
     Sum       17383    9941   2619              4818457  2081651  280775
 
     Using Slab Decomposition
 


     bravais-lattice index     =            0
     lattice parameter (alat)  =      17.8328  a.u.
     unit-cell volume          =   22804.1666 (a.u.)^3
     number of atoms/cell      =          144
     number of atomic types    =            2
     number of electrons       =      1536.00
     number of Kohn-Sham states=          922
     kinetic-energy cutoff     =      77.0000  Ry
     charge density cutoff     =     539.0000  Ry
     scf convergence threshold =      1.0E-06
     mixing beta               =       0.1000
     number of iterations used =            8  plain     mixing
     energy convergence thresh.=      1.0E-04
     force convergence thresh. =      1.0E-03
     Exchange-correlation= SLA  PW   PBX  PBC
                           (   1   4   3   4   0   0   0)
     nstep                     =         1000


     Effective Screening Medium Method
     =================================
     Boundary Conditions: Vacuum-Slab-Vacuum
     total charge in unit cell        =   0.0000
     grid points for fit at edges     =        4 
 

     celldm(1)=  17.832780  celldm(2)=   0.000000  celldm(3)=   0.000000
     celldm(4)=   0.000000  celldm(5)=   0.000000  celldm(6)=   0.000000

     crystal axes: (cart. coord. in units of alat)
               a(1) = (   1.000000   0.000000   0.000000 )  
               a(2) = (  -0.000002   1.275560   0.000000 )  
               a(3) = (   0.000000   0.000000   3.152508 )  

     reciprocal axes: (cart. coord. in units 2 pi/alat)
               b(1) = (  1.000000  0.000001  0.000000 )  
               b(2) = (  0.000000  0.783969  0.000000 )  
               b(3) = (  0.000000  0.000000  0.317208 )  


     PseudoPot. # 1 for Mo read from file:
     ./pseudo/Mo.pbe-spn-kjpaw_psl.1.0.0.UPF
     MD5 check sum: 317bf72632116215fd98f72de1686f13
     Pseudo is Projector augmented-wave + core cor, Zval = 14.0
     Generated using 'atomic' code by A. Dal Corso  v.7.2
     Shape of augmentation charge: PSQ
     Using radial grid of 1229 points,  6 beta functions with: 
                l(1) =   0
                l(2) =   0
                l(3) =   1
                l(4) =   1
                l(5) =   2
                l(6) =   2
     Q(r) pseudized with 0 coefficients 


     PseudoPot. # 2 for C  read from file:
     ./pseudo/C.pbe-n-kjpaw_psl.1.0.0.UPF
     MD5 check sum: 6b0792899573946bb42fe395835041da
     Pseudo is Projector augmented-wave + core cor, Zval =  4.0
     Generated using 'atomic' code by A. Dal Corso  v.7.2
     Shape of augmentation charge: PSQ
     Using radial grid of 1073 points,  4 beta functions with: 
                l(1) =   0
                l(2) =   0
                l(3) =   1
                l(4) =   1
     Q(r) pseudized with 0 coefficients 


     atomic species   valence    mass     pseudopotential
        Mo            14.00    95.95000     Mo( 1.00)
        C              4.00    12.01100     C ( 1.00)

     No symmetry found



   Cartesian axes

     site n.     atom                  positions (alat units)
         1           Mo  tau(   1) = (   0.1229393   0.0783352  -0.5064472  )
         2           Mo  tau(   2) = (   0.3770607   0.5594410  -0.5936927  )
         3           Mo  tau(   3) = (   0.1270604   0.2405529  -0.7814839  )
         4           Mo  tau(   4) = (   0.3729373   0.3972295  -0.3186575  )
         5           Mo  tau(   5) = (   0.3729387   0.2405530  -0.5936933  )
         6           Mo  tau(   6) = (   0.1270617   0.3972294  -0.5064479  )
         7           Mo  tau(   7) = (   0.3770603   0.0783356  -0.3186576  )
         8           Mo  tau(   8) = (   0.1229382   0.5594410  -0.7814847  )
         9           C   tau(   9) = (   0.4999993   0.2407358  -0.4125537  )
        10           C   tau(  10) = (   0.0000000   0.3970464  -0.6875869  )
        11           C   tau(  11) = (   0.2499996   0.0781529  -0.6875878  )
        12           C   tau(  12) = (   0.2499994   0.5596245  -0.4125539  )
        13           Mo  tau(  13) = (   0.1229393   0.0783347   0.0436239  )
        14           Mo  tau(  14) = (   0.3770607   0.5594406  -0.0436216  )
        15           Mo  tau(  15) = (   0.1270604   0.2405525  -0.2314128  )
        16           Mo  tau(  16) = (   0.3729373   0.3972290   0.2314136  )
        17           Mo  tau(  17) = (   0.3729387   0.2405526  -0.0436222  )
        18           Mo  tau(  18) = (   0.1270617   0.3972289   0.0436232  )
        19           Mo  tau(  19) = (   0.3770603   0.0783352   0.2314135  )
        20           Mo  tau(  20) = (   0.1229382   0.5594405  -0.2314136  )
        21           C   tau(  21) = (   0.4999993   0.2407353   0.1375174  )
        22           C   tau(  22) = (   0.0000000   0.3970459  -0.1375159  )
        23           C   tau(  23) = (   0.2499996   0.0781524  -0.1375167  )
        24           C   tau(  24) = (   0.2499994   0.5596241   0.1375172  )
        25           Mo  tau(  25) = (   0.1229393   0.0783343   0.5936950  )
        26           Mo  tau(  26) = (   0.3770607   0.5594401   0.5064495  )
        27           Mo  tau(  27) = (   0.1270604   0.2405520   0.3186583  )
        28           Mo  tau(  28) = (   0.3729372   0.3972286   0.7814847  )
        29           Mo  tau(  29) = (   0.3729387   0.2405521   0.5064489  )
        30           Mo  tau(  30) = (   0.1270617   0.3972285   0.5936943  )
        31           Mo  tau(  31) = (   0.3770603   0.0783347   0.7814846  )
        32           Mo  tau(  32) = (   0.1229382   0.5594401   0.3186575  )
        33           C   tau(  33) = (   0.4999992   0.2407349   0.6875885  )
        34           C   tau(  34) = (   0.0000000   0.3970455   0.4125552  )
        35           C   tau(  35) = (   0.2499996   0.0781520   0.4125544  )
        36           C   tau(  36) = (   0.2499994   0.5596236   0.6875882  )
        37           Mo  tau(  37) = (   0.1229385   0.7161152  -0.5064472  )
        38           Mo  tau(  38) = (   0.3770599   1.1972210  -0.5936927  )
        39           Mo  tau(  39) = (   0.1270596   0.8783329  -0.7814839  )
        40           Mo  tau(  40) = (   0.3729364   1.0350095  -0.3186575  )
        41           Mo  tau(  41) = (   0.3729379   0.8783330  -0.5936933  )
        42           Mo  tau(  42) = (   0.1270609   1.0350093  -0.5064479  )
        43           Mo  tau(  43) = (   0.3770595   0.7161156  -0.3186576  )
        44           Mo  tau(  44) = (   0.1229374   1.1972209  -0.7814847  )
        45           C   tau(  45) = (   0.4999984   0.8785157  -0.4125537  )
        46           C   tau(  46) = (  -0.0000008   1.0348263  -0.6875869  )
        47           C   tau(  47) = (   0.2499988   0.7159328  -0.6875878  )
        48           C   tau(  48) = (   0.2499986   1.1974045  -0.4125539  )
        49           Mo  tau(  49) = (   0.1229384   0.7161147   0.0436239  )
        50           Mo  tau(  50) = (   0.3770598   1.1972206  -0.0436216  )
        51           Mo  tau(  51) = (   0.1270596   0.8783324  -0.2314128  )
        52           Mo  tau(  52) = (   0.3729364   1.0350090   0.2314136  )
        53           Mo  tau(  53) = (   0.3729378   0.8783325  -0.0436222  )
        54           Mo  tau(  54) = (   0.1270608   1.0350089   0.0436232  )
        55           Mo  tau(  55) = (   0.3770594   0.7161152   0.2314135  )
        56           Mo  tau(  56) = (   0.1229374   1.1972205  -0.2314136  )
        57           C   tau(  57) = (   0.4999984   0.8785153   0.1375174  )
        58           C   tau(  58) = (  -0.0000008   1.0348259  -0.1375159  )
        59           C   tau(  59) = (   0.2499987   0.7159324  -0.1375167  )
        60           C   tau(  60) = (   0.2499986   1.1974040   0.1375172  )
        61           Mo  tau(  61) = (   0.1229384   0.7161143   0.5936950  )
        62           Mo  tau(  62) = (   0.3770598   1.1972201   0.5064495  )
        63           Mo  tau(  63) = (   0.1270595   0.8783320   0.3186583  )
        64           Mo  tau(  64) = (   0.3729364   1.0350086   0.7814847  )
        65           Mo  tau(  65) = (   0.3729378   0.8783321   0.5064489  )
        66           Mo  tau(  66) = (   0.1270608   1.0350084   0.5936943  )
        67           Mo  tau(  67) = (   0.3770594   0.7161147   0.7814846  )
        68           Mo  tau(  68) = (   0.1229373   1.1972200   0.3186575  )
        69           C   tau(  69) = (   0.4999984   0.8785148   0.6875885  )
        70           C   tau(  70) = (  -0.0000008   1.0348254   0.4125552  )
        71           C   tau(  71) = (   0.2499987   0.7159319   0.4125544  )
        72           C   tau(  72) = (   0.2499985   1.1974036   0.6875882  )
        73           Mo  tau(  73) = (   0.6229393   0.0783352  -0.5064472  )
        74           Mo  tau(  74) = (   0.8770607   0.5594410  -0.5936927  )
        75           Mo  tau(  75) = (   0.6270604   0.2405529  -0.7814839  )
        76           Mo  tau(  76) = (   0.8729373   0.3972295  -0.3186575  )
        77           Mo  tau(  77) = (   0.8729387   0.2405530  -0.5936933  )
        78           Mo  tau(  78) = (   0.6270617   0.3972294  -0.5064479  )
        79           Mo  tau(  79) = (   0.8770603   0.0783356  -0.3186576  )
        80           Mo  tau(  80) = (   0.6229382   0.5594410  -0.7814847  )
        81           C   tau(  81) = (  -0.0000007   0.2407358  -0.4125537  )
        82           C   tau(  82) = (   0.5000000   0.3970464  -0.6875869  )
        83           C   tau(  83) = (   0.7499996   0.0781529  -0.6875878  )
        84           C   tau(  84) = (   0.7499994   0.5596245  -0.4125539  )
        85           Mo  tau(  85) = (   0.6229393   0.0783347   0.0436239  )
        86           Mo  tau(  86) = (   0.8770607   0.5594406  -0.0436216  )
        87           Mo  tau(  87) = (   0.6270604   0.2405525  -0.2314128  )
        88           Mo  tau(  88) = (   0.8729373   0.3972290   0.2314136  )
        89           Mo  tau(  89) = (   0.8729387   0.2405526  -0.0436222  )
        90           Mo  tau(  90) = (   0.6270617   0.3972289   0.0436232  )
        91           Mo  tau(  91) = (   0.8770603   0.0783352   0.2314135  )
        92           Mo  tau(  92) = (   0.6229382   0.5594405  -0.2314136  )
        93           C   tau(  93) = (  -0.0000007   0.2407353   0.1375174  )
        94           C   tau(  94) = (   0.5000000   0.3970459  -0.1375159  )
        95           C   tau(  95) = (   0.7499996   0.0781524  -0.1375167  )
        96           C   tau(  96) = (   0.7499994   0.5596241   0.1375172  )
        97           Mo  tau(  97) = (   0.6229393   0.0783343   0.5936950  )
        98           Mo  tau(  98) = (   0.8770607   0.5594401   0.5064495  )
        99           Mo  tau(  99) = (   0.6270604   0.2405520   0.3186583  )
       100           Mo  tau( 100) = (   0.8729372   0.3972286   0.7814847  )
       101           Mo  tau( 101) = (   0.8729387   0.2405521   0.5064489  )
       102           Mo  tau( 102) = (   0.6270617   0.3972285   0.5936943  )
       103           Mo  tau( 103) = (   0.8770603   0.0783347   0.7814846  )
       104           Mo  tau( 104) = (   0.6229382   0.5594401   0.3186575  )
       105           C   tau( 105) = (  -0.0000008   0.2407349   0.6875885  )
       106           C   tau( 106) = (   0.5000000   0.3970455   0.4125552  )
       107           C   tau( 107) = (   0.7499996   0.0781520   0.4125544  )
       108           C   tau( 108) = (   0.7499994   0.5596236   0.6875882  )
       109           Mo  tau( 109) = (   0.6229385   0.7161152  -0.5064472  )
       110           Mo  tau( 110) = (   0.8770599   1.1972210  -0.5936927  )
       111           Mo  tau( 111) = (   0.6270596   0.8783329  -0.7814839  )
       112           Mo  tau( 112) = (   0.8729364   1.0350095  -0.3186575  )
       113           Mo  tau( 113) = (   0.8729379   0.8783330  -0.5936933  )
       114           Mo  tau( 114) = (   0.6270609   1.0350093  -0.5064479  )
       115           Mo  tau( 115) = (   0.8770595   0.7161156  -0.3186576  )
       116           Mo  tau( 116) = (   0.6229374   1.1972209  -0.7814847  )
       117           C   tau( 117) = (  -0.0000016   0.8785157  -0.4125537  )
       118           C   tau( 118) = (   0.4999992   1.0348263  -0.6875869  )
       119           C   tau( 119) = (   0.7499988   0.7159328  -0.6875878  )
       120           C   tau( 120) = (   0.7499986   1.1974045  -0.4125539  )
       121           Mo  tau( 121) = (   0.6229384   0.7161147   0.0436239  )
       122           Mo  tau( 122) = (   0.8770598   1.1972206  -0.0436216  )
       123           Mo  tau( 123) = (   0.6270596   0.8783324  -0.2314128  )
       124           Mo  tau( 124) = (   0.8729364   1.0350090   0.2314136  )
       125           Mo  tau( 125) = (   0.8729378   0.8783325  -0.0436222  )
       126           Mo  tau( 126) = (   0.6270608   1.0350089   0.0436232  )
       127           Mo  tau( 127) = (   0.8770594   0.7161152   0.2314135  )
       128           Mo  tau( 128) = (   0.6229374   1.1972205  -0.2314136  )
       129           C   tau( 129) = (  -0.0000016   0.8785153   0.1375174  )
       130           C   tau( 130) = (   0.4999992   1.0348259  -0.1375159  )
       131           C   tau( 131) = (   0.7499987   0.7159324  -0.1375167  )
       132           C   tau( 132) = (   0.7499986   1.1974040   0.1375172  )
       133           Mo  tau( 133) = (   0.6229384   0.7161143   0.5936950  )
       134           Mo  tau( 134) = (   0.8770598   1.1972201   0.5064495  )
       135           Mo  tau( 135) = (   0.6270595   0.8783320   0.3186583  )
       136           Mo  tau( 136) = (   0.8729364   1.0350086   0.7814847  )
       137           Mo  tau( 137) = (   0.8729378   0.8783321   0.5064489  )
       138           Mo  tau( 138) = (   0.6270608   1.0350084   0.5936943  )
       139           Mo  tau( 139) = (   0.8770594   0.7161147   0.7814846  )
       140           Mo  tau( 140) = (   0.6229373   1.1972200   0.3186575  )
       141           C   tau( 141) = (  -0.0000016   0.8785148   0.6875885  )
       142           C   tau( 142) = (   0.4999992   1.0348254   0.4125552  )
       143           C   tau( 143) = (   0.7499987   0.7159319   0.4125544  )
       144           C   tau( 144) = (   0.7499985   1.1974036   0.6875882  )

     --------------------------------------------
     DFT-D3 Dispersion Correction (3-body terms):
     --------------------------------------------
       Reference C6 values for interpolation: 

         atom   Coordination number   C6
         C          0.000            98.23
         C          0.987            86.49
         C          1.998            58.72
         C          2.999            51.56
         C          3.984            36.41
         Mo         0.000          1691.79
         Mo         1.942          1004.01
         Mo        11.056           674.22

       Values used:

         atom   Coordination number  R0_AB[au]  C6      C8
         Mo        13.555            3.547    674.22  77634.20
         Mo        11.933            3.547    674.22  77634.20
         Mo         7.260            3.547    674.22  77634.20
         Mo        13.647            3.547    674.22  77634.20
         Mo        11.933            3.547    674.22  77634.20
         Mo        13.555            3.547    674.22  77634.20
         Mo        13.647            3.547    674.22  77634.20
         Mo         7.260            3.547    674.22  77634.20
         C          6.052            2.750     36.41   1053.14
         C          5.012            2.750     36.41   1053.14
         C          5.012            2.750     36.41   1053.14
         C          6.052            2.750     36.41   1053.14
         Mo        13.654            3.547    674.22  77634.20
         Mo        13.654            3.547    674.22  77634.20
         Mo        13.652            3.547    674.22  77634.20
         Mo        13.652            3.547    674.22  77634.20
         Mo        13.654            3.547    674.22  77634.20
         Mo        13.654            3.547    674.22  77634.20
         Mo        13.652            3.547    674.22  77634.20
         Mo        13.652            3.547    674.22  77634.20
         C          6.055            2.750     36.41   1053.14
         C          6.055            2.750     36.41   1053.14
         C          6.055            2.750     36.41   1053.14
         C          6.055            2.750     36.41   1053.14
         Mo        11.933            3.547    674.22  77634.20
         Mo        13.555            3.547    674.22  77634.20
         Mo        13.647            3.547    674.22  77634.20
         Mo         7.260            3.547    674.22  77634.20
         Mo        13.555            3.547    674.22  77634.20
         Mo        11.933            3.547    674.22  77634.20
         Mo         7.260            3.547    674.22  77634.20
         Mo        13.647            3.547    674.22  77634.20
         C          5.012            2.750     36.41   1053.14
         C          6.052            2.750     36.41   1053.14
         C          6.052            2.750     36.41   1053.14
         C          5.012            2.750     36.41   1053.14
         Mo        13.555            3.547    674.22  77634.20
         Mo        11.933            3.547    674.22  77634.20
         Mo         7.260            3.547    674.22  77634.20
         Mo        13.647            3.547    674.22  77634.20
         Mo        11.933            3.547    674.22  77634.20
         Mo        13.555            3.547    674.22  77634.20
         Mo        13.647            3.547    674.22  77634.20
         Mo         7.260            3.547    674.22  77634.20
         C          6.052            2.750     36.41   1053.14
         C          5.012            2.750     36.41   1053.14
         C          5.012            2.750     36.41   1053.14
         C          6.052            2.750     36.41   1053.14
         Mo        13.654            3.547    674.22  77634.20
         Mo        13.654            3.547    674.22  77634.20
         Mo        13.652            3.547    674.22  77634.20
         Mo        13.652            3.547    674.22  77634.20
         Mo        13.654            3.547    674.22  77634.20
         Mo        13.654            3.547    674.22  77634.20
         Mo        13.652            3.547    674.22  77634.20
         Mo        13.652            3.547    674.22  77634.20
         C          6.055            2.750     36.41   1053.14
         C          6.055            2.750     36.41   1053.14
         C          6.055            2.750     36.41   1053.14
         C          6.055            2.750     36.41   1053.14
         Mo        11.933            3.547    674.22  77634.20
         Mo        13.555            3.547    674.22  77634.20
         Mo        13.647            3.547    674.22  77634.20
         Mo         7.260            3.547    674.22  77634.20
         Mo        13.555            3.547    674.22  77634.20
         Mo        11.933            3.547    674.22  77634.20
         Mo         7.260            3.547    674.22  77634.20
         Mo        13.647            3.547    674.22  77634.20
         C          5.012            2.750     36.41   1053.14
         C          6.052            2.750     36.41   1053.14
         C          6.052            2.750     36.41   1053.14
         C          5.012            2.750     36.41   1053.14
         Mo        13.555            3.547    674.22  77634.20
         Mo        11.933            3.547    674.22  77634.20
         Mo         7.260            3.547    674.22  77634.20
         Mo        13.647            3.547    674.22  77634.20
         Mo        11.933            3.547    674.22  77634.20
         Mo        13.555            3.547    674.22  77634.20
         Mo        13.647            3.547    674.22  77634.20
         Mo         7.260            3.547    674.22  77634.20
         C          6.052            2.750     36.41   1053.14
         C          5.012            2.750     36.41   1053.14
         C          5.012            2.750     36.41   1053.14
         C          6.052            2.750     36.41   1053.14
         Mo        13.654            3.547    674.22  77634.20
         Mo        13.654            3.547    674.22  77634.20
         Mo        13.652            3.547    674.22  77634.20
         Mo        13.652            3.547    674.22  77634.20
         Mo        13.654            3.547    674.22  77634.20
         Mo        13.654            3.547    674.22  77634.20
         Mo        13.652            3.547    674.22  77634.20
         Mo        13.652            3.547    674.22  77634.20
         C          6.055            2.750     36.41   1053.14
         C          6.055            2.750     36.41   1053.14
         C          6.055            2.750     36.41   1053.14
         C          6.055            2.750     36.41   1053.14
         Mo        11.933            3.547    674.22  77634.20
         Mo        13.555            3.547    674.22  77634.20
         Mo        13.647            3.547    674.22  77634.20
         Mo         7.260            3.547    674.21  77634.20
         Mo        13.555            3.547    674.22  77634.20
         Mo        11.933            3.547    674.22  77634.20
         Mo         7.260            3.547    674.22  77634.20
         Mo        13.647            3.547    674.22  77634.20
         C          5.012            2.750     36.41   1053.14
         C          6.052            2.750     36.41   1053.14
         C          6.052            2.750     36.41   1053.14
         C          5.012            2.750     36.41   1053.14
         Mo        13.555            3.547    674.22  77634.20
         Mo        11.933            3.547    674.22  77634.20
         Mo         7.260            3.547    674.22  77634.20
         Mo        13.647            3.547    674.22  77634.20
         Mo        11.933            3.547    674.22  77634.20
         Mo        13.555            3.547    674.22  77634.20
         Mo        13.647            3.547    674.22  77634.20
         Mo         7.260            3.547    674.22  77634.20
         C          6.052            2.750     36.41   1053.14
         C          5.012            2.750     36.41   1053.14
         C          5.012            2.750     36.41   1053.14
         C          6.052            2.750     36.41   1053.14
         Mo        13.654            3.547    674.22  77634.20
         Mo        13.654            3.547    674.22  77634.20
         Mo        13.652            3.547    674.22  77634.20
         Mo        13.652            3.547    674.22  77634.20
         Mo        13.654            3.547    674.22  77634.20
         Mo        13.654            3.547    674.22  77634.20
         Mo        13.652            3.547    674.22  77634.20
         Mo        13.652            3.547    674.22  77634.20
         C          6.055            2.750     36.41   1053.14
         C          6.055            2.750     36.41   1053.14
         C          6.055            2.750     36.41   1053.14
         C          6.055            2.750     36.41   1053.14
         Mo        11.933            3.547    674.22  77634.20
         Mo        13.555            3.547    674.22  77634.20
         Mo        13.647            3.547    674.22  77634.20
         Mo         7.260            3.547    674.22  77634.20
         Mo        13.555            3.547    674.22  77634.20
         Mo        11.933            3.547    674.22  77634.20
         Mo         7.260            3.547    674.22  77634.20
         Mo        13.647            3.547    674.22  77634.20
         C          5.012            2.750     36.41   1053.14
         C          6.052            2.750     36.41   1053.14
         C          6.052            2.750     36.41   1053.14
         C          5.012            2.750     36.41   1053.14

         Molecular C6 ( Ry / a.u.^6 ) =   7705425.94


     number of k points=     4  Gaussian smearing, width (Ry)=  0.0100
                       cart. coord. in units 2pi/alat
        k(    1) = (   0.0000000   0.0000000   0.0000000), wk =   0.5000000
        k(    2) = (   0.0000000  -0.3919847   0.0000000), wk =   0.5000000
        k(    3) = (  -0.5000000  -0.0000007   0.0000000), wk =   0.5000000
        k(    4) = (  -0.5000000  -0.3919854   0.0000000), wk =   0.5000000

     Dense  grid:  4818457 G-vectors     FFT dimensions: ( 135, 180, 432)

     Smooth grid:  2081651 G-vectors     FFT dimensions: ( 100, 128, 320)

     Estimated max dynamical RAM per process >       1.75 GB

     Estimated total dynamical RAM >      62.91 GB

     Check: negative core charge=   -0.000001

     Initial potential from superposition of free atoms

     starting charge    1535.9135, renormalised to    1536.0000

     negative rho (up, down):  8.570E-04 0.000E+00
     Starting wfcs are 1152 randomized atomic wfcs
     Checking if some PAW data can be deallocated... 

     total cpu time spent up to now is       87.1 secs

     Self-consistent Calculation

     iteration #  1     ecut=    77.00 Ry     beta= 0.10
     Davidson diagonalization with overlap
     ethr =  1.00E-02,  avg # of iterations =  2.0

     negative rho (up, down):  1.286E-06 0.000E+00

     total cpu time spent up to now is      282.1 secs

     total energy              =  -35802.20275255 Ry
     estimated scf accuracy    <     116.95986115 Ry

     iteration #  2     ecut=    77.00 Ry     beta= 0.10
     Davidson diagonalization with overlap
     ethr =  7.61E-03,  avg # of iterations =  1.0

     negative rho (up, down):  4.768E-07 0.000E+00

     total cpu time spent up to now is      446.4 secs

     total energy              =  -35800.81485724 Ry
     estimated scf accuracy    <    1163.02547733 Ry

     iteration #  3     ecut=    77.00 Ry     beta= 0.10
     Davidson diagonalization with overlap
     ethr =  7.61E-03,  avg # of iterations =  1.0

     negative rho (up, down):  7.307E-08 0.000E+00

     total cpu time spent up to now is      610.8 secs

     total energy              =  -35817.14715957 Ry
     estimated scf accuracy    <      47.35975470 Ry

     iteration #  4     ecut=    77.00 Ry     beta= 0.10
     Davidson diagonalization with overlap
     ethr =  3.08E-03,  avg # of iterations =  1.0

     negative rho (up, down):  9.726E-08 0.000E+00

     total cpu time spent up to now is      775.0 secs

     total energy              =  -35816.80037699 Ry
     estimated scf accuracy    <      78.38371517 Ry

     iteration #  5     ecut=    77.00 Ry     beta= 0.10
     Davidson diagonalization with overlap
     ethr =  3.08E-03,  avg # of iterations =  1.0

     total cpu time spent up to now is      939.3 secs

     total energy              =  -35809.78500518 Ry
     estimated scf accuracy    <     162.12955474 Ry

     iteration #  6     ecut=    77.00 Ry     beta= 0.10
     Davidson diagonalization with overlap
     ethr =  3.08E-03,  avg # of iterations =  1.8

     total cpu time spent up to now is     1120.7 secs

     total energy              =  -35812.97072417 Ry
     estimated scf accuracy    <      85.05048385 Ry

     iteration #  7     ecut=    77.00 Ry     beta= 0.10
     Davidson diagonalization with overlap
     ethr =  3.08E-03,  avg # of iterations =  1.0

     total cpu time spent up to now is     1285.0 secs

     total energy              =  -35815.21045697 Ry
     estimated scf accuracy    <      13.54144345 Ry

     iteration #  8     ecut=    77.00 Ry     beta= 0.10
     Davidson diagonalization with overlap
     ethr =  8.82E-04,  avg # of iterations = 10.8

     total cpu time spent up to now is     1665.4 secs

     total energy              =  -35822.85442218 Ry
     estimated scf accuracy    <      13.18418710 Ry

     iteration #  9     ecut=    77.00 Ry     beta= 0.10
     Davidson diagonalization with overlap
     ethr =  8.58E-04,  avg # of iterations =  1.0

     total cpu time spent up to now is     1829.5 secs

     total energy              =  -35823.73039708 Ry
     estimated scf accuracy    <       6.96624227 Ry

     iteration # 10     ecut=    77.00 Ry     beta= 0.10
     Davidson diagonalization with overlap
     ethr =  4.54E-04,  avg # of iterations =  1.5

     total cpu time spent up to now is     2005.1 secs

     total energy              =  -35822.64072383 Ry
     estimated scf accuracy    <       7.37456801 Ry

     iteration # 11     ecut=    77.00 Ry     beta= 0.10
     Davidson diagonalization with overlap
     ethr =  4.54E-04,  avg # of iterations =  1.2

     negative rho (up, down):  1.982E-07 0.000E+00

     total cpu time spent up to now is     2174.6 secs

     total energy              =  -35821.85198676 Ry
     estimated scf accuracy    <       5.09062890 Ry

     iteration # 12     ecut=    77.00 Ry     beta= 0.10
     Davidson diagonalization with overlap
     ethr =  3.31E-04,  avg # of iterations =  7.2

     negative rho (up, down):  4.643E-08 0.000E+00

     total cpu time spent up to now is     2386.1 secs

     total energy              =  -35822.38888833 Ry
     estimated scf accuracy    <       0.74776998 Ry

     iteration # 13     ecut=    77.00 Ry     beta= 0.10
     Davidson diagonalization with overlap
     ethr =  4.87E-05,  avg # of iterations = 43.5

     negative rho (up, down):  8.144E-08 0.000E+00

     total cpu time spent up to now is     3408.8 secs

     total energy              =  -35823.54993353 Ry
     estimated scf accuracy    <       5.80199725 Ry

     iteration # 14     ecut=    77.00 Ry     beta= 0.10
     Davidson diagonalization with overlap
     ethr =  4.87E-05,  avg # of iterations =  4.8

     negative rho (up, down):  7.954E-07 0.000E+00

     total cpu time spent up to now is     3588.2 secs

     total energy              =  -35823.62746134 Ry
     estimated scf accuracy    <       6.38802994 Ry

     iteration # 15     ecut=    77.00 Ry     beta= 0.10
     Davidson diagonalization with overlap
     ethr =  4.87E-05,  avg # of iterations =  2.0

     negative rho (up, down):  1.158E-05 0.000E+00

     total cpu time spent up to now is     3760.0 secs

     total energy              =  -35823.77339505 Ry
     estimated scf accuracy    <       7.23275491 Ry

     iteration # 16     ecut=    77.00 Ry     beta= 0.10
     Davidson diagonalization with overlap
     ethr =  4.87E-05,  avg # of iterations =  7.2

     negative rho (up, down):  9.883E-06 0.000E+00

     total cpu time spent up to now is     3997.1 secs

     total energy              =  -35823.89495978 Ry
     estimated scf accuracy    <       7.83237261 Ry

     iteration # 17     ecut=    77.00 Ry     beta= 0.10
     Davidson diagonalization with overlap
     ethr =  4.87E-05,  avg # of iterations =  1.0

     negative rho (up, down):  1.043E-05 0.000E+00

     total cpu time spent up to now is     4161.3 secs

     total energy              =  -35823.87567267 Ry
     estimated scf accuracy    <       7.47047537 Ry

     iteration # 18     ecut=    77.00 Ry     beta= 0.10
     Davidson diagonalization with overlap
     ethr =  4.87E-05,  avg # of iterations =  1.0

     negative rho (up, down):  8.034E-06 0.000E+00

     total cpu time spent up to now is     4325.4 secs

     total energy              =  -35823.81053637 Ry
     estimated scf accuracy    <       8.49504976 Ry

     iteration # 19     ecut=    77.00 Ry     beta= 0.10
     Davidson diagonalization with overlap
     ethr =  4.87E-05,  avg # of iterations =  6.2

     negative rho (up, down):  7.724E-07 0.000E+00

     total cpu time spent up to now is     4549.4 secs

     total energy              =  -35823.45046486 Ry
     estimated scf accuracy    <       3.93272607 Ry

     iteration # 20     ecut=    77.00 Ry     beta= 0.10
     Davidson diagonalization with overlap
     ethr =  4.87E-05,  avg # of iterations =  4.2

     negative rho (up, down):  7.665E-07 0.000E+00

     total cpu time spent up to now is     4748.8 secs

     total energy              =  -35823.60197034 Ry
     estimated scf accuracy    <       6.04297571 Ry

     iteration # 21     ecut=    77.00 Ry     beta= 0.10
     Davidson diagonalization with overlap
     ethr =  4.87E-05,  avg # of iterations =  1.0

     negative rho (up, down):  1.058E-07 0.000E+00

     total cpu time spent up to now is     4912.9 secs

     total energy              =  -35822.84912858 Ry
     estimated scf accuracy    <       6.17064823 Ry

     iteration # 22     ecut=    77.00 Ry     beta= 0.10
     Davidson diagonalization with overlap
     ethr =  4.87E-05,  avg # of iterations = 10.0

     negative rho (up, down):  5.434E-08 0.000E+00

     total cpu time spent up to now is     5141.3 secs

     total energy              =  -35822.98331730 Ry
     estimated scf accuracy    <       2.43244886 Ry

     iteration # 23     ecut=    77.00 Ry     beta= 0.10
     Davidson diagonalization with overlap
     ethr =  4.87E-05,  avg # of iterations =  6.5

     negative rho (up, down):  8.583E-07 0.000E+00

     total cpu time spent up to now is     5449.9 secs

     total energy              =  -35823.20575111 Ry
     estimated scf accuracy    <       0.66786165 Ry

     iteration # 24     ecut=    77.00 Ry     beta= 0.10
     Davidson diagonalization with overlap
     ethr =  4.35E-05,  avg # of iterations =  2.8

     negative rho (up, down):  7.270E-06 0.000E+00

     total cpu time spent up to now is     5642.5 secs

     total energy              =  -35823.28496080 Ry
     estimated scf accuracy    <       0.26264421 Ry

     iteration # 25     ecut=    77.00 Ry     beta= 0.10
     Davidson diagonalization with overlap
     c_bands:  3 eigenvalues not converged
     ethr =  1.71E-05,  avg # of iterations = 12.5

     negative rho (up, down):  1.424E-05 0.000E+00

     total cpu time spent up to now is     5998.9 secs

     total energy              =  -35823.34775051 Ry
     estimated scf accuracy    <       0.56129234 Ry

     iteration # 26     ecut=    77.00 Ry     beta= 0.10
     Davidson diagonalization with overlap
     c_bands:  1 eigenvalues not converged
     ethr =  1.71E-05,  avg # of iterations =  5.8

     negative rho (up, down):  3.531E-05 0.000E+00

     total cpu time spent up to now is     6179.3 secs

     total energy              =  -35823.34104948 Ry
     estimated scf accuracy    <       0.42167125 Ry

     iteration # 27     ecut=    77.00 Ry     beta= 0.10
     Davidson diagonalization with overlap
     ethr =  1.71E-05,  avg # of iterations =  1.2

     negative rho (up, down):  1.736E-05 0.000E+00

     total cpu time spent up to now is     6349.0 secs

     total energy              =  -35823.21409698 Ry
     estimated scf accuracy    <       0.29351804 Ry

     iteration # 28     ecut=    77.00 Ry     beta= 0.10
     Davidson diagonalization with overlap
     ethr =  1.71E-05,  avg # of iterations =  8.0

     negative rho (up, down):  5.105E-05 0.000E+00

     total cpu time spent up to now is     6586.0 secs

     total energy              =  -35823.29590673 Ry
     estimated scf accuracy    <       0.57784780 Ry

     iteration # 29     ecut=    77.00 Ry     beta= 0.10
     Davidson diagonalization with overlap
     ethr =  1.71E-05,  avg # of iterations =  1.2

     negative rho (up, down):  4.180E-05 0.000E+00

     total cpu time spent up to now is     6755.5 secs

     total energy              =  -35823.30054004 Ry
     estimated scf accuracy    <       0.39339687 Ry

     iteration # 30     ecut=    77.00 Ry     beta= 0.10
     Davidson diagonalization with overlap
     ethr =  1.71E-05,  avg # of iterations =  1.0

     negative rho (up, down):  4.598E-05 0.000E+00

     total cpu time spent up to now is     6919.9 secs

     total energy              =  -35823.31607232 Ry
     estimated scf accuracy    <       0.05807309 Ry

     iteration # 31     ecut=    77.00 Ry     beta= 0.10
     Davidson diagonalization with overlap
     ethr =  3.78E-06,  avg # of iterations = 41.2

     negative rho (up, down):  4.611E-05 0.000E+00

     total cpu time spent up to now is     7677.5 secs

     total energy              =  -35823.29398725 Ry
     estimated scf accuracy    <       0.09813830 Ry

     iteration # 32     ecut=    77.00 Ry     beta= 0.10
     Davidson diagonalization with overlap
     ethr =  3.78E-06,  avg # of iterations =  9.5

     negative rho (up, down):  5.415E-05 0.000E+00

     total cpu time spent up to now is     7951.2 secs

     total energy              =  -35823.31526717 Ry
     estimated scf accuracy    <       0.02237792 Ry

     iteration # 33     ecut=    77.00 Ry     beta= 0.10
     Davidson diagonalization with overlap
     c_bands:  1 eigenvalues not converged
     c_bands:  1 eigenvalues not converged
     c_bands:  2 eigenvalues not converged
     ethr =  1.46E-06,  avg # of iterations = 37.0

     negative rho (up, down):  7.507E-05 0.000E+00

     total cpu time spent up to now is     8461.0 secs

     total energy              =  -35823.31960732 Ry
     estimated scf accuracy    <       0.01717951 Ry

     iteration # 34     ecut=    77.00 Ry     beta= 0.10
     Davidson diagonalization with overlap
     c_bands:  2 eigenvalues not converged
     ethr =  1.12E-06,  avg # of iterations =  6.5

     negative rho (up, down):  9.277E-05 0.000E+00

     total cpu time spent up to now is     8659.9 secs

     total energy              =  -35823.31917979 Ry
     estimated scf accuracy    <       0.00804303 Ry

     iteration # 35     ecut=    77.00 Ry     beta= 0.10
     Davidson diagonalization with overlap
     c_bands:  2 eigenvalues not converged
     ethr =  5.24E-07,  avg # of iterations = 16.8

     negative rho (up, down):  2.478E-04 0.000E+00

     total cpu time spent up to now is     8934.6 secs

     total energy              =  -35823.31924674 Ry
     estimated scf accuracy    <       0.01030996 Ry

     iteration # 36     ecut=    77.00 Ry     beta= 0.10
     Davidson diagonalization with overlap
     ethr =  5.24E-07,  avg # of iterations =  9.0

     negative rho (up, down):  3.408E-04 0.000E+00

     total cpu time spent up to now is     9205.2 secs

     total energy              =  -35823.32150469 Ry
     estimated scf accuracy    <       0.01119466 Ry

     iteration # 37     ecut=    77.00 Ry     beta= 0.10
     Davidson diagonalization with overlap
     ethr =  5.24E-07,  avg # of iterations =  4.8

     negative rho (up, down):  3.759E-04 0.000E+00

     total cpu time spent up to now is     9387.3 secs

     total energy              =  -35823.31972362 Ry
     estimated scf accuracy    <       0.00784026 Ry

     iteration # 38     ecut=    77.00 Ry     beta= 0.10
     Davidson diagonalization with overlap
     ethr =  5.10E-07,  avg # of iterations =  3.2

     negative rho (up, down):  4.043E-04 0.000E+00

     total cpu time spent up to now is     9560.9 secs

     total energy              =  -35823.31983983 Ry
     estimated scf accuracy    <       0.00230782 Ry

     iteration # 39     ecut=    77.00 Ry     beta= 0.10
     Davidson diagonalization with overlap
     c_bands:  3 eigenvalues not converged
     ethr =  1.50E-07,  avg # of iterations = 15.0

     negative rho (up, down):  3.863E-04 0.000E+00

     total cpu time spent up to now is     9930.5 secs

     total energy              =  -35823.32133149 Ry
     estimated scf accuracy    <       0.00930234 Ry

     iteration # 40     ecut=    77.00 Ry     beta= 0.10
     Davidson diagonalization with overlap
     ethr =  1.50E-07,  avg # of iterations =  4.2

     negative rho (up, down):  3.898E-04 0.000E+00

     total cpu time spent up to now is    10124.5 secs

     total energy              =  -35823.32143113 Ry
     estimated scf accuracy    <       0.00176973 Ry

     iteration # 41     ecut=    77.00 Ry     beta= 0.10
     Davidson diagonalization with overlap
     ethr =  1.15E-07,  avg # of iterations =  1.2

     negative rho (up, down):  4.074E-04 0.000E+00

     total cpu time spent up to now is    10294.3 secs

     total energy              =  -35823.32121780 Ry
     estimated scf accuracy    <       0.00092349 Ry

     iteration # 42     ecut=    77.00 Ry     beta= 0.10
     Davidson diagonalization with overlap
     c_bands:  1 eigenvalues not converged
     ethr =  6.01E-08,  avg # of iterations = 11.8

     negative rho (up, down):  4.531E-04 0.000E+00

     total cpu time spent up to now is    10508.6 secs

     total energy              =  -35823.32112317 Ry
     estimated scf accuracy    <       0.00154180 Ry

     iteration # 43     ecut=    77.00 Ry     beta= 0.10
     Davidson diagonalization with overlap
     c_bands:  1 eigenvalues not converged
     ethr =  6.01E-08,  avg # of iterations = 11.0

     negative rho (up, down):  5.044E-04 0.000E+00

     total cpu time spent up to now is    10725.0 secs

     total energy              =  -35823.32115598 Ry
     estimated scf accuracy    <       0.00094575 Ry

     iteration # 44     ecut=    77.00 Ry     beta= 0.10
     Davidson diagonalization with overlap
     ethr =  6.01E-08,  avg # of iterations =  1.8

     negative rho (up, down):  5.470E-04 0.000E+00

     total cpu time spent up to now is    10906.0 secs

     total energy              =  -35823.32115487 Ry
     estimated scf accuracy    <       0.00030945 Ry

     iteration # 45     ecut=    77.00 Ry     beta= 0.10
     Davidson diagonalization with overlap
     c_bands:  1 eigenvalues not converged
     c_bands:  3 eigenvalues not converged
     ethr =  2.01E-08,  avg # of iterations = 18.8

     negative rho (up, down):  5.308E-04 0.000E+00

     total cpu time spent up to now is    11335.8 secs

     total energy              =  -35823.32141930 Ry
     estimated scf accuracy    <       0.00133433 Ry

     iteration # 46     ecut=    77.00 Ry     beta= 0.10
     Davidson diagonalization with overlap
     ethr =  2.01E-08,  avg # of iterations =  1.5

     negative rho (up, down):  5.437E-04 0.000E+00

     total cpu time spent up to now is    11510.8 secs

     total energy              =  -35823.32143508 Ry
     estimated scf accuracy    <       0.00026030 Ry

     iteration # 47     ecut=    77.00 Ry     beta= 0.10
     Davidson diagonalization with overlap
     ethr =  1.69E-08,  avg # of iterations =  1.2

     negative rho (up, down):  5.349E-04 0.000E+00

     total cpu time spent up to now is    11680.5 secs

     total energy              =  -35823.32140762 Ry
     estimated scf accuracy    <       0.00014844 Ry

     iteration # 48     ecut=    77.00 Ry     beta= 0.10
     Davidson diagonalization with overlap
     ethr =  9.66E-09,  avg # of iterations =  5.8

     negative rho (up, down):  5.398E-04 0.000E+00

     total cpu time spent up to now is    11878.6 secs

     total energy              =  -35823.32140157 Ry
     estimated scf accuracy    <       0.00027940 Ry

     iteration # 49     ecut=    77.00 Ry     beta= 0.10
     Davidson diagonalization with overlap
     ethr =  9.66E-09,  avg # of iterations =  2.0

     negative rho (up, down):  5.552E-04 0.000E+00

     total cpu time spent up to now is    12067.2 secs

     total energy              =  -35823.32138227 Ry
     estimated scf accuracy    <       0.00013493 Ry

     iteration # 50     ecut=    77.00 Ry     beta= 0.10
     Davidson diagonalization with overlap
     ethr =  8.78E-09,  avg # of iterations =  7.5

     negative rho (up, down):  5.993E-04 0.000E+00

     total cpu time spent up to now is    12276.6 secs

     total energy              =  -35823.32136276 Ry
     estimated scf accuracy    <       0.00015952 Ry

     iteration # 51     ecut=    77.00 Ry     beta= 0.10
     Davidson diagonalization with overlap
     ethr =  8.78E-09,  avg # of iterations =  1.0

     negative rho (up, down):  5.939E-04 0.000E+00

     total cpu time spent up to now is    12440.6 secs

     total energy              =  -35823.32137185 Ry
     estimated scf accuracy    <       0.00013668 Ry

     iteration # 52     ecut=    77.00 Ry     beta= 0.10
     Davidson diagonalization with overlap
     ethr =  8.78E-09,  avg # of iterations =  1.0

     negative rho (up, down):  6.058E-04 0.000E+00

     total cpu time spent up to now is    12605.0 secs

     total energy              =  -35823.32136815 Ry
     estimated scf accuracy    <       0.00002995 Ry

     iteration # 53     ecut=    77.00 Ry     beta= 0.10
     Davidson diagonalization with overlap
     c_bands:  4 eigenvalues not converged
     ethr =  1.95E-09,  avg # of iterations = 18.0

     negative rho (up, down):  6.087E-04 0.000E+00

     total cpu time spent up to now is    13030.1 secs

     total energy              =  -35823.32139980 Ry
     estimated scf accuracy    <       0.00013722 Ry

     iteration # 54     ecut=    77.00 Ry     beta= 0.10
     Davidson diagonalization with overlap
     ethr =  1.95E-09,  avg # of iterations =  1.8

     negative rho (up, down):  6.039E-04 0.000E+00

     total cpu time spent up to now is    13211.2 secs

     total energy              =  -35823.32140294 Ry
     estimated scf accuracy    <       0.00001465 Ry

     iteration # 55     ecut=    77.00 Ry     beta= 0.10
     Davidson diagonalization with overlap
     ethr =  9.54E-10,  avg # of iterations =  4.0

     negative rho (up, down):  6.063E-04 0.000E+00

     total cpu time spent up to now is    13405.9 secs

     total energy              =  -35823.32140241 Ry
     estimated scf accuracy    <       0.00000850 Ry

     iteration # 56     ecut=    77.00 Ry     beta= 0.10
     Davidson diagonalization with overlap
     ethr =  5.54E-10,  avg # of iterations = 15.0

     negative rho (up, down):  6.079E-04 0.000E+00

     total cpu time spent up to now is    13691.3 secs

     total energy              =  -35823.32140349 Ry
     estimated scf accuracy    <       0.00001215 Ry

     iteration # 57     ecut=    77.00 Ry     beta= 0.10
     Davidson diagonalization with overlap
     ethr =  5.54E-10,  avg # of iterations =  5.0

     negative rho (up, down):  6.125E-04 0.000E+00

     total cpu time spent up to now is    13887.3 secs

     total energy              =  -35823.32140067 Ry
     estimated scf accuracy    <       0.00001179 Ry

     iteration # 58     ecut=    77.00 Ry     beta= 0.10
     Davidson diagonalization with overlap
     ethr =  5.54E-10,  avg # of iterations =  3.0

     negative rho (up, down):  6.132E-04 0.000E+00

     total cpu time spent up to now is    14076.4 secs

     total energy              =  -35823.32139986 Ry
     estimated scf accuracy    <       0.00000529 Ry

     iteration # 59     ecut=    77.00 Ry     beta= 0.10
     Davidson diagonalization with overlap
     ethr =  3.44E-10,  avg # of iterations = 15.8

     negative rho (up, down):  6.151E-04 0.000E+00

     total cpu time spent up to now is    14431.1 secs

     total energy              =  -35823.32140084 Ry
     estimated scf accuracy    <       0.00000948 Ry

     iteration # 60     ecut=    77.00 Ry     beta= 0.10
     Davidson diagonalization with overlap
     ethr =  3.44E-10,  avg # of iterations =  1.5

     negative rho (up, down):  6.156E-04 0.000E+00

     total cpu time spent up to now is    14606.4 secs

     total energy              =  -35823.32140005 Ry
     estimated scf accuracy    <       0.00000483 Ry

     iteration # 61     ecut=    77.00 Ry     beta= 0.10
     Davidson diagonalization with overlap
     ethr =  3.15E-10,  avg # of iterations =  5.2

     negative rho (up, down):  6.232E-04 0.000E+00

     total cpu time spent up to now is    14813.2 secs

     total energy              =  -35823.32139559 Ry
     estimated scf accuracy    <       0.00000339 Ry

     iteration # 62     ecut=    77.00 Ry     beta= 0.10
     Davidson diagonalization with overlap
     ethr =  2.21E-10,  avg # of iterations = 12.2

     negative rho (up, down):  6.242E-04 0.000E+00

     total cpu time spent up to now is    15162.7 secs

     total energy              =  -35823.32139553 Ry
     estimated scf accuracy    <       0.00000684 Ry

     iteration # 63     ecut=    77.00 Ry     beta= 0.10
     Davidson diagonalization with overlap
     ethr =  2.21E-10,  avg # of iterations =  1.0

     negative rho (up, down):  6.254E-04 0.000E+00

     total cpu time spent up to now is    15326.7 secs

     total energy              =  -35823.32139339 Ry
     estimated scf accuracy    <       0.00000900 Ry

     iteration # 64     ecut=    77.00 Ry     beta= 0.10
     Davidson diagonalization with overlap
     ethr =  2.21E-10,  avg # of iterations =  7.8

     negative rho (up, down):  6.267E-04 0.000E+00

     total cpu time spent up to now is    15611.7 secs

     total energy              =  -35823.32139391 Ry
     estimated scf accuracy    <       0.00000242 Ry

     iteration # 65     ecut=    77.00 Ry     beta= 0.10
     Davidson diagonalization with overlap
     ethr =  1.58E-10,  avg # of iterations =  2.8

     negative rho (up, down):  6.276E-04 0.000E+00

     total cpu time spent up to now is    15795.2 secs

     total energy              =  -35823.32139315 Ry
     estimated scf accuracy    <       0.00000111 Ry

     iteration # 66     ecut=    77.00 Ry     beta= 0.10
     Davidson diagonalization with overlap
     ethr =  7.20E-11,  avg # of iterations = 15.5

     negative rho (up, down):  6.269E-04 0.000E+00

     total cpu time spent up to now is    16036.3 secs

     End of self-consistent calculation

          k = 0.0000 0.0000 0.0000 (260147 PWs)   bands (ev):

   -65.1707 -65.1302 -65.1273 -65.1273 -65.0986 -65.0986 -65.0963 -65.0928
   -65.0928 -65.0736 -65.0736 -65.0692 -65.0692 -65.0661 -65.0661 -65.0650
   -65.0650 -65.0555 -65.0491 -65.0483 -65.0446 -65.0446 -65.0440 -65.0440
   -65.0415 -65.0415 -65.0411 -65.0375 -65.0375 -65.0349 -65.0349 -65.0279
   -65.0279 -65.0253 -65.0253 -65.0239 -65.0239 -65.0229 -65.0229 -65.0221
   -65.0140 -65.0140 -65.0112 -65.0112 -65.0097 -65.0097 -65.0054 -65.0054
   -64.9973 -64.9962 -64.9959 -64.9953 -64.9939 -64.9939 -64.9911 -64.9911
   -64.9904 -64.9904 -64.9903 -64.9903 -64.9847 -64.9847 -64.9772 -64.9771
   -64.9752 -64.9751 -64.9683 -64.9683 -64.9682 -64.9682 -64.9520 -64.9520
   -64.9450 -64.9450 -64.9430 -64.9427 -64.9400 -64.9400 -64.9399 -64.9399
   -64.6796 -64.6795 -64.6784 -64.6783 -64.6621 -64.6621 -64.6620 -64.6620
   -64.6607 -64.6607 -64.6606 -64.6606 -64.6446 -64.6445 -64.6430 -64.6429
   -39.8751 -39.8095 -39.7648 -39.7648 -39.7377 -39.7377 -39.7360 -39.7360
   -39.7323 -39.7022 -39.7022 -39.6910 -39.6910 -39.6607 -39.6607 -39.6584
   -39.6584 -39.6406 -39.6380 -39.6380 -39.6375 -39.6118 -39.6118 -39.6093
   -39.6093 -39.5724 -39.5724 -39.5620 -39.5620 -39.5561 -39.5226 -39.5226
   -39.5137 -39.4939 -39.4939 -39.4937 -39.4937 -39.4888 -39.4856 -39.4856
   -39.4712 -39.4705 -39.4602 -39.4602 -39.4453 -39.4453 -39.4312 -39.4312
   -39.4297 -39.4297 -39.4291 -39.4216 -39.4138 -39.4116 -39.4112 -39.4041
   -39.3992 -39.3992 -39.3882 -39.3875 -39.3875 -39.3681 -39.3681 -39.3499
   -39.3499 -39.3495 -39.3495 -39.3488 -39.3488 -39.3396 -39.3388 -39.3328
   -39.3328 -39.3320 -39.3320 -39.3266 -39.3079 -39.3079 -39.3025 -39.3013
   -39.2960 -39.2960 -39.2745 -39.2745 -39.2733 -39.2733 -39.2673 -39.2673
   -39.2673 -39.2482 -39.2387 -39.2324 -39.2324 -39.2272 -39.2272 -39.2268
   -39.2268 -39.2068 -39.2053 -39.2053 -39.2050 -39.2050 -39.1986 -39.1975
   -39.1975 -39.1855 -39.1798 -39.1798 -39.1697 -39.1697 -39.1607 -39.1570
   -39.1500 -39.1500 -39.1471 -39.1410 -39.1218 -39.1218 -39.1174 -39.1173
   -39.1160 -39.1160 -39.1160 -39.1160 -39.1137 -39.1132 -39.1132 -39.1029
   -39.1029 -39.1012 -39.1012 -39.0978 -39.0954 -39.0938 -39.0938 -39.0919
   -39.0919 -39.0914 -39.0855 -39.0855 -39.0798 -39.0798 -39.0786 -39.0700
   -39.0700 -39.0679 -39.0574 -39.0574 -39.0541 -39.0514 -39.0514 -39.0505
   -39.0505 -39.0486 -39.0486 -39.0458 -39.0458 -39.0445 -39.0404 -39.0323
   -39.0307 -39.0307 -39.0236 -39.0236 -39.0132 -39.0132 -39.0044 -39.0044
   -38.9947 -38.9947 -38.9905 -38.9878 -38.9878 -38.9875 -38.9850 -38.9850
   -38.9720 -38.9720 -38.9690 -38.9633 -38.9633 -38.9589 -38.9580 -38.9580
   -38.9547 -38.9547 -38.9522 -38.9521 -38.9511 -38.9456 -38.9456 -38.9353
   -38.9350 -38.9350 -38.9200 -38.9200 -38.9165 -38.9165 -38.9073 -38.9027
   -38.8941 -38.8941 -38.8830 -38.8741 -38.8740 -38.8656 -38.8634 -38.8563
   -38.8563 -38.8525 -38.8524 -38.8475 -38.8466 -38.8466 -38.8360 -38.8360
   -38.8344 -38.8321 -38.8320 -38.8299 -38.8299 -38.8287 -38.8287 -38.8234
   -38.8219 -38.8186 -38.8186 -38.8163 -38.8163 -38.8144 -38.8144 -38.8040
   -38.8040 -38.8002 -38.8002 -38.7982 -38.7982 -38.7864 -38.7864 -38.7854
   -38.7832 -38.7832 -38.7797 -38.7797 -38.7779 -38.7779 -38.7746 -38.7597
   -38.7584 -38.7583 -38.7565 -38.7565 -38.7483 -38.7460 -38.7459 -38.7441
   -38.7440 -38.7440 -38.7438 -38.7438 -38.7371 -38.7368 -38.7128 -38.7070
   -38.7069 -38.7069 -38.7069 -38.7049 -38.7049 -38.7040 -38.6811 -38.6810
   -38.6515 -38.6514 -38.6328 -38.6327 -38.5682 -38.5682 -38.5681 -38.5681
   -38.5649 -38.5649 -38.5648 -38.5648 -38.4125 -38.4124 -38.4111 -38.4110
   -16.9839 -16.6191 -16.2388 -16.2387 -16.1483 -15.9459 -15.9458 -15.9152
   -15.9151 -15.8362 -15.8361 -15.8339 -15.8338 -15.7535 -15.7534 -15.7377
   -15.7377 -15.7095 -15.6553 -15.6553 -15.6399 -15.6398 -15.5755 -15.5754
   -15.5369 -15.5368 -15.4683 -15.2718 -15.2549 -15.2549 -15.1607 -15.1468
   -15.0284 -14.9672 -14.9669 -14.8230 -14.7352 -14.7351 -14.7347 -14.7347
   -14.6974 -14.6971 -14.6562 -14.6561 -14.6546 -14.6546 -14.1313 -14.1307
   -11.0209 -10.8100 -10.7841 -10.7171 -10.7171 -10.6407 -10.6306 -10.5518
   -10.3610 -10.3610 -10.3259 -10.3049 -10.3049 -10.2981 -10.2981 -10.1740
   -10.1740 -10.1232 -10.0947 -10.0721 -10.0721 -10.0315 -10.0314  -9.9507
    -9.9507  -9.9482  -9.9369  -9.9369  -9.9101  -9.9101  -9.8966  -9.8966
    -9.7746  -9.7745  -9.7193  -9.7193  -9.6420  -9.6178  -9.6178  -9.5711
    -9.5597  -9.5597  -9.5330  -9.5329  -9.4730  -9.4730  -9.4607  -9.4607
    -9.4557  -9.3197  -9.3174  -9.3174  -9.2860  -9.2846  -9.2846  -9.2566
    -9.2565  -9.1518  -9.1518  -9.1352  -9.1352  -9.1020  -9.0841  -9.0669
    -9.0668  -9.0292  -9.0291  -9.0099  -9.0098  -8.9570  -8.9569  -8.9448
    -8.9448  -8.9320  -8.9319  -8.7800  -8.7800  -8.7418  -8.7417  -8.6815
    -8.6815  -8.6687  -8.6079  -8.6079  -8.5757  -8.4728  -8.4727  -8.4710
    -8.4710  -8.4617  -8.4106  -8.4105  -8.4084  -8.4083  -8.4075  -8.3602
    -8.3602  -8.3230  -8.3045  -8.3045  -8.3019  -8.2846  -8.2744  -8.2744
    -8.2571  -8.2570  -8.2180  -8.2180  -8.1984  -8.1984  -8.1960  -8.1958
    -8.1615  -8.1615  -8.1473  -8.1400  -8.1236  -8.1236  -8.0628  -8.0628
    -8.0495  -8.0491  -7.9862  -7.9599  -7.9547  -7.9390  -7.9389  -7.9166
    -7.8671  -7.8671  -7.7676  -7.6781  -7.6755  -7.6754  -7.6628  -7.6326
    -7.6325  -7.6195  -7.6070  -7.5781  -7.5331  -7.5331  -7.5007  -7.5006
    -7.4787  -7.4787  -7.4198  -7.4136  -7.4111  -7.3991  -7.3991  -7.3881
    -7.3881  -7.3347  -7.3222  -7.3222  -7.2170  -7.1978  -7.1476  -7.1476
    -7.0489  -7.0489  -6.9452  -6.9143  -6.9143  -6.8925  -6.8925  -6.8739
    -6.8739  -6.8283  -6.8283  -6.8242  -6.8242  -6.7975  -6.7975  -6.7902
    -6.7902  -6.7873  -6.7868  -6.7868  -6.7584  -6.7584  -6.6909  -6.6909
    -6.6765  -6.6616  -6.6616  -6.6466  -6.6466  -6.5889  -6.5860  -6.5860
    -6.5370  -6.5370  -6.5302  -6.5302  -6.4946  -6.4946  -6.4329  -6.4329
    -6.4156  -6.3392  -6.3356  -6.2866  -6.2866  -6.2853  -6.2853  -6.2674
    -6.2674  -6.2482  -6.2482  -6.2380  -6.2380  -6.2227  -6.2227  -6.1820
    -6.1380  -6.0967  -6.0966  -6.0097  -5.9569  -5.9568  -5.9473  -5.9473
    -5.9170  -5.9118  -5.9095  -5.9094  -5.7987  -5.7694  -5.7670  -5.7669
    -5.7605  -5.7605  -5.7555  -5.7554  -5.7494  -5.6739  -5.6739  -5.6413
    -5.5748  -5.5748  -5.5129  -5.5129  -5.4594  -5.4579  -5.4579  -5.4352
    -5.4352  -5.4188  -5.3793  -5.3793  -5.3631  -5.3631  -5.3576  -5.3553
    -5.3553  -5.3350  -5.3350  -5.3337  -5.3336  -5.2614  -5.2614  -5.1699
    -5.1699  -5.1643  -5.1264  -5.1232  -5.1064  -5.1064  -5.0985  -5.0985
    -5.0449  -5.0235  -5.0235  -4.9833  -4.9399  -4.9086  -4.9037  -4.7328
    -4.7173  -4.7173  -4.7122  -4.7121  -4.7000  -4.7000  -4.6617  -4.6616
    -4.6549  -4.6549  -4.6529  -4.6157  -4.5786  -4.5785  -4.5764  -4.5029
    -4.5029  -4.4731  -4.4731  -4.4279  -4.4279  -4.4103  -4.4103  -4.3659
    -4.2952  -4.2952  -4.2915  -4.2914  -4.2738  -4.2196  -4.2195  -4.2164
    -4.2164  -4.1738  -4.1683  -4.1683  -4.1176  -4.1170  -4.1169  -4.0720
    -4.0720  -4.0310  -4.0069  -4.0069  -3.9688  -3.9643  -3.9643  -3.9642
    -3.9642  -3.9388  -3.9387  -3.9281  -3.8662  -3.8661  -3.7479  -3.7423
    -3.7200  -3.6432  -3.6432  -3.6325  -3.6325  -3.6187  -3.6186  -3.5828
    -3.5827  -3.5438  -3.5437  -3.5080  -3.5079  -3.4999  -3.4877  -3.4490
    -3.4490  -3.4156  -3.4156  -3.3949  -3.3848  -3.3847  -3.2949  -3.2949
    -3.2946  -3.2946  -3.2862  -3.2023  -3.2022  -3.1732  -3.1732  -3.1168
    -3.0918  -3.0918  -3.0593  -3.0593  -3.0568  -3.0568  -3.0237  -3.0236
    -3.0134  -2.9000  -2.9000  -2.8830  -2.8830  -2.8530  -2.8530  -2.8247
    -2.8227  -2.8071  -2.8071  -2.7910  -2.7910  -2.7804  -2.7799  -2.7550
    -2.7550  -2.7441  -2.7392  -2.7392  -2.7216  -2.7216  -2.6648  -2.6648
    -2.6423  -2.6383  -2.6383  -2.6292  -2.6292  -2.6272  -2.6240  -2.6166
    -2.5689  -2.5689  -2.5536  -2.5535  -2.4633  -2.4188  -2.4177  -2.4124
    -2.4123  -2.3836  -2.3836  -2.3469  -2.3464  -2.3428  -2.3427  -2.3405
    -2.2861  -2.2861  -2.2717  -2.2717  -2.2663  -2.2662  -2.2461  -2.2139
    -2.2138  -2.1710  -2.1709  -2.1683  -2.1681  -2.1378  -2.1377  -2.1358
    -2.1328  -2.1216  -2.1215  -2.0275  -2.0275  -2.0137  -2.0091  -2.0091
    -1.9758  -1.9613  -1.9609  -1.9405  -1.9405  -1.9393  -1.9386  -1.8726
    -1.8524  -1.8524  -1.8238  -1.8054  -1.8053  -1.7897  -1.7896  -1.7429
    -1.7414  -1.7410  -1.7404  -1.7051  -1.7049  -1.6762  -1.6761  -1.6737
    -1.6729  -1.6260  -1.6259  -1.6136  -1.6109  -1.5374  -1.4935  -1.4755
    -1.4724  -1.4502  -1.4483  -1.4167  -1.4150  -1.4143  -1.4142  -1.4135
    -1.3142  -1.2985

          k = 0.0000-0.3920 0.0000 (260128 PWs)   bands (ev):

   -65.1588 -65.1588 -65.1198 -65.1198 -65.0909 -65.0909 -65.0909 -65.0909
   -65.0877 -65.0877 -65.0870 -65.0870 -65.0612 -65.0612 -65.0591 -65.0591
   -65.0591 -65.0591 -65.0493 -65.0493 -65.0492 -65.0492 -65.0432 -65.0432
   -65.0404 -65.0404 -65.0363 -65.0363 -65.0362 -65.0362 -65.0335 -65.0334
   -65.0308 -65.0308 -65.0307 -65.0307 -65.0232 -65.0232 -65.0188 -65.0188
   -65.0141 -65.0141 -65.0141 -65.0141 -65.0010 -65.0010 -65.0010 -65.0009
   -64.9983 -64.9983 -64.9953 -64.9953 -64.9951 -64.9950 -64.9948 -64.9948
   -64.9874 -64.9874 -64.9871 -64.9870 -64.9810 -64.9809 -64.9809 -64.9809
   -64.9786 -64.9785 -64.9785 -64.9785 -64.9568 -64.9568 -64.9568 -64.9567
   -64.9418 -64.9418 -64.9417 -64.9417 -64.9417 -64.9416 -64.9416 -64.9415
   -64.6745 -64.6745 -64.6744 -64.6744 -64.6733 -64.6732 -64.6731 -64.6731
   -64.6498 -64.6497 -64.6497 -64.6496 -64.6482 -64.6482 -64.6481 -64.6480
   -39.8359 -39.8359 -39.7665 -39.7665 -39.7329 -39.7329 -39.7328 -39.7328
   -39.7009 -39.7009 -39.7008 -39.7008 -39.6857 -39.6857 -39.6621 -39.6621
   -39.6621 -39.6621 -39.6507 -39.6507 -39.5993 -39.5993 -39.5993 -39.5992
   -39.5955 -39.5955 -39.5760 -39.5760 -39.5759 -39.5759 -39.5441 -39.5441
   -39.5147 -39.5147 -39.4806 -39.4806 -39.4677 -39.4677 -39.4676 -39.4676
   -39.4611 -39.4610 -39.4603 -39.4603 -39.4392 -39.4391 -39.4391 -39.4391
   -39.4332 -39.4332 -39.4190 -39.4190 -39.4118 -39.4118 -39.3951 -39.3951
   -39.3946 -39.3946 -39.3942 -39.3942 -39.3941 -39.3941 -39.3857 -39.3857
   -39.3599 -39.3599 -39.3552 -39.3552 -39.3552 -39.3551 -39.3543 -39.3543
   -39.3352 -39.3352 -39.3328 -39.3328 -39.3327 -39.3327 -39.3031 -39.3031
   -39.2872 -39.2872 -39.2835 -39.2835 -39.2588 -39.2588 -39.2536 -39.2536
   -39.2442 -39.2441 -39.2219 -39.2219 -39.2219 -39.2219 -39.2186 -39.2186
   -39.2036 -39.2036 -39.2020 -39.2020 -39.2020 -39.2020 -39.1830 -39.1829
   -39.1824 -39.1824 -39.1824 -39.1824 -39.1731 -39.1731 -39.1634 -39.1634
   -39.1634 -39.1634 -39.1512 -39.1512 -39.1376 -39.1376 -39.1280 -39.1280
   -39.1247 -39.1247 -39.1247 -39.1247 -39.1246 -39.1246 -39.1077 -39.1077
   -39.1076 -39.1076 -39.0920 -39.0920 -39.0919 -39.0919 -39.0896 -39.0896
   -39.0834 -39.0833 -39.0793 -39.0793 -39.0793 -39.0793 -39.0747 -39.0747
   -39.0608 -39.0608 -39.0580 -39.0580 -39.0580 -39.0580 -39.0577 -39.0576
   -39.0557 -39.0556 -39.0423 -39.0423 -39.0423 -39.0423 -39.0231 -39.0231
   -39.0231 -39.0230 -39.0060 -39.0060 -39.0058 -39.0058 -39.0058 -39.0058
   -39.0008 -39.0007 -38.9800 -38.9800 -38.9788 -38.9788 -38.9775 -38.9775
   -38.9775 -38.9775 -38.9672 -38.9672 -38.9655 -38.9654 -38.9599 -38.9599
   -38.9599 -38.9599 -38.9442 -38.9441 -38.9441 -38.9441 -38.9351 -38.9351
   -38.9278 -38.9278 -38.9278 -38.9278 -38.9086 -38.9086 -38.9057 -38.9057
   -38.9057 -38.9057 -38.8919 -38.8918 -38.8553 -38.8552 -38.8509 -38.8508
   -38.8508 -38.8507 -38.8402 -38.8401 -38.8401 -38.8401 -38.8394 -38.8393
   -38.8328 -38.8328 -38.8302 -38.8302 -38.8301 -38.8301 -38.8300 -38.8299
   -38.8261 -38.8261 -38.8210 -38.8210 -38.8210 -38.8209 -38.8063 -38.8063
   -38.8037 -38.8037 -38.8037 -38.8037 -38.7887 -38.7887 -38.7887 -38.7887
   -38.7885 -38.7885 -38.7852 -38.7852 -38.7753 -38.7753 -38.7676 -38.7675
   -38.7675 -38.7675 -38.7599 -38.7599 -38.7564 -38.7563 -38.7563 -38.7563
   -38.7502 -38.7502 -38.7471 -38.7471 -38.7155 -38.7154 -38.7154 -38.7153
   -38.7107 -38.7106 -38.7055 -38.7055 -38.6942 -38.6942 -38.6930 -38.6930
   -38.6339 -38.6338 -38.6338 -38.6337 -38.6228 -38.6228 -38.6227 -38.6226
   -38.4639 -38.4639 -38.4638 -38.4638 -38.4623 -38.4623 -38.4622 -38.4621
   -16.7702 -16.7702 -16.4238 -16.4238 -15.9788 -15.9787 -15.8760 -15.8760
   -15.8759 -15.8759 -15.7941 -15.7940 -15.7940 -15.7939 -15.6913 -15.6913
   -15.6893 -15.6893 -15.6893 -15.6892 -15.5971 -15.5971 -15.5971 -15.5970
   -15.5715 -15.5714 -15.4656 -15.4656 -15.1856 -15.1856 -15.0130 -15.0130
   -15.0042 -15.0042 -14.9533 -14.9533 -14.8822 -14.8821 -14.8819 -14.8818
   -14.6864 -14.6863 -14.6861 -14.6860 -14.2900 -14.2900 -14.2896 -14.2896
   -10.6928 -10.6927 -10.5565 -10.5565 -10.5519 -10.5519 -10.5104 -10.5103
   -10.4775 -10.4775 -10.4775 -10.4775 -10.4750 -10.4750 -10.2617 -10.2617
   -10.2282 -10.2282 -10.2007 -10.2007 -10.2007 -10.2007  -9.9988  -9.9988
    -9.9825  -9.9825  -9.9008  -9.9007  -9.9007  -9.9007  -9.8515  -9.8515
    -9.8515  -9.8515  -9.7994  -9.7994  -9.5926  -9.5925  -9.5785  -9.5784
    -9.5563  -9.5563  -9.5563  -9.5563  -9.4750  -9.4750  -9.3965  -9.3965
    -9.3965  -9.3964  -9.2540  -9.2540  -9.2540  -9.2540  -9.2463  -9.2463
    -9.1935  -9.1935  -9.1935  -9.1935  -9.1140  -9.1140  -9.1140  -9.1140
    -9.0743  -9.0743  -9.0546  -9.0546  -9.0519  -9.0519  -8.9682  -8.9682
    -8.9681  -8.9681  -8.7740  -8.7740  -8.7740  -8.7739  -8.7352  -8.7352
    -8.5836  -8.5836  -8.5836  -8.5836  -8.5200  -8.5200  -8.4407  -8.4407
    -8.4181  -8.4181  -8.4179  -8.4179  -8.3642  -8.3641  -8.3459  -8.3459
    -8.3459  -8.3458  -8.3380  -8.3380  -8.3013  -8.3013  -8.2862  -8.2862
    -8.2379  -8.2379  -8.2306  -8.2305  -8.1785  -8.1785  -8.1784  -8.1784
    -8.1524  -8.1524  -8.0815  -8.0815  -8.0757  -8.0757  -8.0127  -8.0127
    -8.0127  -8.0127  -7.9248  -7.9248  -7.9049  -7.9048  -7.8829  -7.8829
    -7.8388  -7.8387  -7.7543  -7.7543  -7.6727  -7.6727  -7.6629  -7.6629
    -7.6380  -7.6379  -7.6379  -7.6378  -7.6078  -7.6078  -7.5231  -7.5231
    -7.5000  -7.5000  -7.4799  -7.4799  -7.4297  -7.4296  -7.3982  -7.3982
    -7.3981  -7.3981  -7.3008  -7.3008  -7.2059  -7.2058  -7.1626  -7.1626
    -7.0903  -7.0903  -7.0752  -7.0752  -7.0752  -7.0752  -6.8987  -6.8987
    -6.8987  -6.8987  -6.8339  -6.8338  -6.8203  -6.8202  -6.8202  -6.8202
    -6.7793  -6.7792  -6.7330  -6.7330  -6.7189  -6.7189  -6.7189  -6.7189
    -6.6800  -6.6799  -6.5600  -6.5600  -6.5600  -6.5600  -6.4709  -6.4709
    -6.4709  -6.4709  -6.4535  -6.4534  -6.3924  -6.3924  -6.3923  -6.3923
    -6.3604  -6.3604  -6.3306  -6.3306  -6.2413  -6.2413  -6.2266  -6.2266
    -6.2266  -6.2266  -6.1762  -6.1762  -6.1750  -6.1749  -6.0881  -6.0881
    -6.0881  -6.0881  -5.9774  -5.9774  -5.9751  -5.9751  -5.9665  -5.9665
    -5.9665  -5.9664  -5.9199  -5.9199  -5.7883  -5.7883  -5.7761  -5.7760
    -5.7368  -5.7368  -5.6720  -5.6720  -5.6720  -5.6720  -5.6675  -5.6675
    -5.6007  -5.6007  -5.6007  -5.6006  -5.5117  -5.5117  -5.5116  -5.5116
    -5.4811  -5.4811  -5.4548  -5.4548  -5.4122  -5.4122  -5.4121  -5.4121
    -5.3218  -5.3218  -5.2938  -5.2938  -5.2891  -5.2891  -5.2891  -5.2891
    -5.2242  -5.2242  -5.2242  -5.2242  -5.2088  -5.2088  -5.0887  -5.0887
    -5.0712  -5.0712  -5.0712  -5.0712  -4.9349  -4.9349  -4.8389  -4.8389
    -4.7945  -4.7945  -4.7945  -4.7945  -4.7572  -4.7572  -4.6276  -4.6276
    -4.5957  -4.5957  -4.5957  -4.5957  -4.5709  -4.5709  -4.4501  -4.4500
    -4.4453  -4.4453  -4.4336  -4.4336  -4.4336  -4.4336  -4.4081  -4.4081
    -4.3623  -4.3623  -4.3623  -4.3622  -4.3081  -4.3081  -4.2401  -4.2401
    -4.2401  -4.2401  -4.1553  -4.1553  -4.1160  -4.1160  -4.1160  -4.1160
    -4.1092  -4.1092  -4.0317  -4.0317  -3.9535  -3.9535  -3.8725  -3.8724
    -3.8724  -3.8724  -3.7373  -3.7372  -3.7077  -3.7077  -3.7077  -3.7077
    -3.6548  -3.6548  -3.6090  -3.6090  -3.5652  -3.5652  -3.5552  -3.5552
    -3.5552  -3.5552  -3.5348  -3.5348  -3.4649  -3.4649  -3.4554  -3.4554
    -3.4554  -3.4554  -3.3588  -3.3588  -3.3588  -3.3588  -3.3498  -3.3498
    -3.2176  -3.2176  -3.2112  -3.2111  -3.2111  -3.2111  -3.2094  -3.2094
    -3.1423  -3.1423  -3.1200  -3.1200  -3.1200  -3.1200  -2.9909  -2.9909
    -2.9603  -2.9603  -2.9269  -2.9269  -2.9268  -2.9268  -2.9066  -2.9066
    -2.8833  -2.8832  -2.8173  -2.8173  -2.8173  -2.8173  -2.8061  -2.8061
    -2.7186  -2.7186  -2.6946  -2.6945  -2.6734  -2.6734  -2.6734  -2.6734
    -2.6113  -2.6112  -2.5804  -2.5804  -2.5804  -2.5804  -2.5487  -2.5487
    -2.4856  -2.4856  -2.3850  -2.3849  -2.3681  -2.3680  -2.3593  -2.3593
    -2.3593  -2.3593  -2.3095  -2.3095  -2.3094  -2.3094  -2.3076  -2.3076
    -2.1942  -2.1941  -2.1882  -2.1881  -2.1846  -2.1846  -2.1846  -2.1845
    -2.1579  -2.1578  -2.0796  -2.0796  -2.0601  -2.0601  -2.0188  -2.0188
    -2.0186  -2.0186  -2.0043  -2.0043  -1.9956  -1.9956  -1.9954  -1.9952
    -1.9305  -1.9305  -1.9185  -1.9185  -1.9184  -1.9184  -1.8857  -1.8856
    -1.8855  -1.8852  -1.8570  -1.8570  -1.8414  -1.8413  -1.7756  -1.7756
    -1.7740  -1.7730  -1.7679  -1.7677  -1.7443  -1.7442  -1.7410  -1.7409
    -1.7129  -1.7128  -1.7025  -1.7015  -1.6981  -1.6969  -1.6817  -1.6816
    -1.6442  -1.6442  -1.6384  -1.6374  -1.6349  -1.6339  -1.5717  -1.5702
    -1.5408  -1.5407

          k =-0.5000-0.0000 0.0000 (260178 PWs)   bands (ev):

   -65.1492 -65.1492 -65.1115 -65.1115 -65.1104 -65.1104 -65.1104 -65.1104
   -65.0814 -65.0814 -65.0789 -65.0789 -65.0789 -65.0789 -65.0560 -65.0560
   -65.0560 -65.0560 -65.0499 -65.0499 -65.0440 -65.0440 -65.0423 -65.0423
   -65.0346 -65.0346 -65.0318 -65.0318 -65.0316 -65.0316 -65.0291 -65.0291
   -65.0284 -65.0284 -65.0284 -65.0284 -65.0146 -65.0146 -65.0138 -65.0138
   -65.0138 -65.0138 -65.0083 -65.0083 -65.0083 -65.0082 -65.0080 -65.0080
   -65.0022 -65.0022 -65.0013 -65.0013 -65.0013 -65.0013 -65.0013 -65.0013
   -64.9998 -64.9998 -64.9998 -64.9998 -64.9763 -64.9763 -64.9762 -64.9762
   -64.9579 -64.9579 -64.9577 -64.9577 -64.9509 -64.9509 -64.9509 -64.9509
   -64.9507 -64.9507 -64.9507 -64.9507 -64.9484 -64.9483 -64.9483 -64.9483
   -64.6791 -64.6790 -64.6790 -64.6788 -64.6615 -64.6615 -64.6614 -64.6614
   -64.6614 -64.6614 -64.6613 -64.6613 -64.6438 -64.6438 -64.6437 -64.6436
   -39.7953 -39.7953 -39.7840 -39.7840 -39.7676 -39.7676 -39.7033 -39.7033
   -39.7015 -39.7015 -39.7014 -39.7014 -39.6947 -39.6947 -39.6631 -39.6631
   -39.6631 -39.6631 -39.6090 -39.6090 -39.6090 -39.6090 -39.6052 -39.6052
   -39.5729 -39.5729 -39.5672 -39.5672 -39.5455 -39.5454 -39.5454 -39.5454
   -39.5366 -39.5366 -39.5342 -39.5342 -39.5303 -39.5303 -39.5303 -39.5303
   -39.4876 -39.4876 -39.4875 -39.4875 -39.4557 -39.4557 -39.4482 -39.4482
   -39.4305 -39.4305 -39.4305 -39.4305 -39.4011 -39.4011 -39.3985 -39.3985
   -39.3985 -39.3985 -39.3890 -39.3890 -39.3656 -39.3656 -39.3656 -39.3656
   -39.3416 -39.3416 -39.3370 -39.3370 -39.3370 -39.3370 -39.3295 -39.3295
   -39.3100 -39.3100 -39.2838 -39.2838 -39.2838 -39.2838 -39.2799 -39.2799
   -39.2730 -39.2730 -39.2619 -39.2619 -39.2507 -39.2507 -39.2507 -39.2507
   -39.2370 -39.2370 -39.2370 -39.2370 -39.2293 -39.2293 -39.2205 -39.2205
   -39.2190 -39.2190 -39.2175 -39.2174 -39.2174 -39.2174 -39.1836 -39.1836
   -39.1836 -39.1836 -39.1683 -39.1683 -39.1658 -39.1658 -39.1656 -39.1656
   -39.1656 -39.1656 -39.1491 -39.1491 -39.1487 -39.1487 -39.1326 -39.1326
   -39.1299 -39.1299 -39.1299 -39.1299 -39.1240 -39.1240 -39.1240 -39.1240
   -39.1021 -39.1021 -39.0962 -39.0962 -39.0942 -39.0942 -39.0861 -39.0861
   -39.0861 -39.0861 -39.0861 -39.0861 -39.0722 -39.0722 -39.0722 -39.0722
   -39.0630 -39.0630 -39.0611 -39.0611 -39.0522 -39.0522 -39.0425 -39.0425
   -39.0425 -39.0425 -39.0371 -39.0371 -39.0371 -39.0371 -39.0347 -39.0347
   -39.0275 -39.0274 -39.0186 -39.0186 -39.0186 -39.0186 -39.0175 -39.0175
   -39.0036 -39.0036 -39.0036 -39.0036 -38.9969 -38.9969 -38.9933 -38.9933
   -38.9917 -38.9917 -38.9917 -38.9917 -38.9799 -38.9799 -38.9616 -38.9616
   -38.9616 -38.9616 -38.9441 -38.9441 -38.9437 -38.9437 -38.9437 -38.9437
   -38.9431 -38.9431 -38.9267 -38.9267 -38.8991 -38.8991 -38.8914 -38.8914
   -38.8663 -38.8663 -38.8663 -38.8663 -38.8638 -38.8637 -38.8628 -38.8627
   -38.8516 -38.8516 -38.8515 -38.8515 -38.8451 -38.8451 -38.8416 -38.8416
   -38.8390 -38.8390 -38.8350 -38.8350 -38.8343 -38.8343 -38.8343 -38.8343
   -38.8177 -38.8177 -38.8115 -38.8115 -38.8022 -38.8022 -38.8022 -38.8021
   -38.7932 -38.7932 -38.7900 -38.7900 -38.7900 -38.7900 -38.7780 -38.7779
   -38.7779 -38.7779 -38.7752 -38.7751 -38.7719 -38.7719 -38.7659 -38.7659
   -38.7659 -38.7659 -38.7659 -38.7659 -38.7502 -38.7502 -38.7491 -38.7491
   -38.7377 -38.7377 -38.7375 -38.7374 -38.7226 -38.7226 -38.7226 -38.7226
   -38.7214 -38.7214 -38.7214 -38.7214 -38.6839 -38.6838 -38.6837 -38.6837
   -38.6540 -38.6539 -38.6538 -38.6537 -38.5670 -38.5670 -38.5670 -38.5670
   -38.5669 -38.5669 -38.5669 -38.5668 -38.4117 -38.4117 -38.4116 -38.4115
   -16.6679 -16.6679 -16.3851 -16.3851 -16.0862 -16.0862 -16.0861 -16.0861
   -16.0322 -16.0322 -15.8661 -15.8661 -15.8660 -15.8660 -15.7104 -15.7104
   -15.5911 -15.5911 -15.5910 -15.5910 -15.5604 -15.5604 -15.4181 -15.4181
   -15.3510 -15.3510 -15.3509 -15.3509 -15.2749 -15.2749 -15.1547 -15.1547
   -15.0979 -15.0979 -15.0928 -15.0928 -14.6936 -14.6936 -14.6935 -14.6935
   -14.6918 -14.6918 -14.6917 -14.6917 -14.3682 -14.3682 -14.3679 -14.3679
   -10.6355 -10.6355 -10.5864 -10.5864 -10.5864 -10.5864 -10.5636 -10.5636
   -10.5565 -10.5565 -10.5117 -10.5117 -10.3809 -10.3809 -10.3429 -10.3429
   -10.3429 -10.3429 -10.2045 -10.2045 -10.1841 -10.1841 -10.0301 -10.0301
   -10.0301 -10.0301  -9.9916  -9.9916  -9.7538  -9.7538  -9.7476  -9.7476
    -9.7476  -9.7476  -9.6782  -9.6782  -9.6248  -9.6248  -9.6248  -9.6248
    -9.5285  -9.5285  -9.3986  -9.3986  -9.3986  -9.3986  -9.3790  -9.3790
    -9.3571  -9.3571  -9.2467  -9.2467  -9.2467  -9.2467  -9.2410  -9.2410
    -9.2342  -9.2342  -9.0766  -9.0766  -9.0765  -9.0765  -9.0570  -9.0570
    -8.9895  -8.9895  -8.9323  -8.9323  -8.9249  -8.9249  -8.9249  -8.9249
    -8.8445  -8.8445  -8.8277  -8.8277  -8.8277  -8.8277  -8.7949  -8.7949
    -8.7533  -8.7533  -8.6147  -8.6147  -8.6147  -8.6147  -8.5946  -8.5946
    -8.5235  -8.5235  -8.5095  -8.5095  -8.5095  -8.5095  -8.5069  -8.5069
    -8.3963  -8.3963  -8.3963  -8.3963  -8.3096  -8.3096  -8.3037  -8.3037
    -8.2355  -8.2355  -8.1682  -8.1682  -8.1681  -8.1681  -8.1582  -8.1582
    -8.1426  -8.1426  -8.0895  -8.0895  -8.0895  -8.0895  -8.0279  -8.0279
    -8.0084  -8.0084  -8.0032  -8.0032  -8.0032  -8.0032  -7.9735  -7.9735
    -7.7469  -7.7469  -7.6582  -7.6582  -7.5937  -7.5937  -7.5865  -7.5865
    -7.5864  -7.5864  -7.5298  -7.5298  -7.5216  -7.5216  -7.5216  -7.5215
    -7.4680  -7.4680  -7.4671  -7.4671  -7.3529  -7.3529  -7.3529  -7.3529
    -7.2351  -7.2351  -7.2264  -7.2264  -7.1962  -7.1962  -7.1678  -7.1678
    -7.1678  -7.1678  -7.0714  -7.0714  -6.9569  -6.9569  -6.9403  -6.9403
    -6.9403  -6.9403  -6.9048  -6.9048  -6.8391  -6.8391  -6.8391  -6.8391
    -6.7891  -6.7891  -6.7663  -6.7663  -6.7427  -6.7427  -6.7427  -6.7427
    -6.6430  -6.6430  -6.6430  -6.6430  -6.6328  -6.6328  -6.5920  -6.5920
    -6.5738  -6.5738  -6.5738  -6.5738  -6.4876  -6.4876  -6.4876  -6.4875
    -6.3998  -6.3998  -6.3997  -6.3996  -6.3018  -6.3018  -6.3017  -6.3017
    -6.2538  -6.2538  -6.2411  -6.2411  -6.1676  -6.1676  -6.0358  -6.0358
    -6.0358  -6.0358  -6.0342  -6.0342  -5.9503  -5.9503  -5.9300  -5.9300
    -5.9300  -5.9300  -5.8705  -5.8705  -5.8315  -5.8315  -5.7533  -5.7533
    -5.7533  -5.7533  -5.7326  -5.7326  -5.6528  -5.6528  -5.6528  -5.6528
    -5.6515  -5.6515  -5.6381  -5.6381  -5.6197  -5.6197  -5.6197  -5.6197
    -5.5285  -5.5285  -5.4587  -5.4587  -5.4575  -5.4575  -5.3968  -5.3968
    -5.3565  -5.3565  -5.3564  -5.3564  -5.3139  -5.3139  -5.3138  -5.3138
    -5.2556  -5.2556  -5.2418  -5.2418  -5.1219  -5.1219  -5.0662  -5.0662
    -4.9860  -4.9859  -4.9859  -4.9859  -4.9076  -4.9076  -4.7447  -4.7447
    -4.7447  -4.7447  -4.7414  -4.7414  -4.6713  -4.6713  -4.6434  -4.6433
    -4.5630  -4.5630  -4.5358  -4.5358  -4.5358  -4.5358  -4.3697  -4.3697
    -4.3697  -4.3697  -4.3544  -4.3543  -4.3385  -4.3385  -4.2325  -4.2325
    -4.2192  -4.2191  -4.2191  -4.2191  -4.1347  -4.1347  -4.1347  -4.1347
    -4.1008  -4.1007  -4.1007  -4.1007  -4.0927  -4.0927  -4.0086  -4.0086
    -4.0085  -4.0085  -3.9758  -3.9758  -3.9585  -3.9584  -3.8815  -3.8815
    -3.8060  -3.8060  -3.7164  -3.7164  -3.7163  -3.7163  -3.6927  -3.6927
    -3.6566  -3.6566  -3.5811  -3.5811  -3.5694  -3.5694  -3.5235  -3.5235
    -3.5235  -3.5235  -3.5105  -3.5105  -3.4463  -3.4463  -3.3889  -3.3889
    -3.3889  -3.3889  -3.3322  -3.3322  -3.2726  -3.2726  -3.2725  -3.2725
    -3.2420  -3.2420  -3.2242  -3.2242  -3.2242  -3.2242  -3.2158  -3.2158
    -3.1633  -3.1633  -3.1633  -3.1633  -3.1452  -3.1452  -3.1341  -3.1341
    -3.0863  -3.0863  -3.0863  -3.0863  -3.0522  -3.0522  -3.0312  -3.0312
    -3.0304  -3.0304  -2.9429  -2.9429  -2.9429  -2.9429  -2.9241  -2.9241
    -2.8226  -2.8226  -2.8225  -2.8225  -2.8149  -2.8149  -2.7497  -2.7496
    -2.7087  -2.7087  -2.6909  -2.6909  -2.6515  -2.6515  -2.6417  -2.6417
    -2.6417  -2.6417  -2.6047  -2.6047  -2.5599  -2.5599  -2.5599  -2.5599
    -2.5096  -2.5096  -2.4428  -2.4428  -2.3922  -2.3922  -2.3866  -2.3866
    -2.3866  -2.3865  -2.3513  -2.3513  -2.2491  -2.2491  -2.2015  -2.2015
    -2.2015  -2.2015  -2.1579  -2.1578  -2.1079  -2.1079  -2.1079  -2.1079
    -2.1069  -2.1069  -2.0553  -2.0553  -2.0097  -2.0096  -1.9915  -1.9915
    -1.9914  -1.9914  -1.9609  -1.9609  -1.8511  -1.8510  -1.8360  -1.8358
    -1.8142  -1.8142  -1.8137  -1.8131  -1.6998  -1.6997  -1.6970  -1.6959
    -1.6956  -1.6951  -1.6233  -1.6233  -1.6223  -1.6218  -1.5972  -1.5972
    -1.5855  -1.5852  -1.5186  -1.5174  -1.4969  -1.4942  -1.4937  -1.4851
    -1.4448  -1.4445  -1.4087  -1.4082  -1.3507  -1.3461  -1.3068  -1.3057
    -1.2608  -1.2530

          k =-0.5000-0.3920 0.0000 (260352 PWs)   bands (ev):

   -65.1385 -65.1385 -65.1385 -65.1385 -65.1023 -65.1023 -65.1023 -65.1023
   -65.0754 -65.0754 -65.0754 -65.0754 -65.0740 -65.0740 -65.0740 -65.0740
   -65.0525 -65.0525 -65.0525 -65.0525 -65.0384 -65.0384 -65.0384 -65.0384
   -65.0379 -65.0379 -65.0379 -65.0379 -65.0280 -65.0280 -65.0280 -65.0280
   -65.0253 -65.0253 -65.0253 -65.0253 -65.0227 -65.0227 -65.0227 -65.0227
   -65.0110 -65.0110 -65.0110 -65.0109 -65.0065 -65.0065 -65.0064 -65.0064
   -65.0059 -65.0059 -65.0058 -65.0058 -65.0008 -65.0008 -65.0008 -65.0008
   -64.9852 -64.9852 -64.9852 -64.9851 -64.9851 -64.9851 -64.9851 -64.9851
   -64.9557 -64.9557 -64.9556 -64.9556 -64.9554 -64.9554 -64.9554 -64.9554
   -64.9482 -64.9481 -64.9481 -64.9481 -64.9481 -64.9481 -64.9481 -64.9480
   -64.6739 -64.6739 -64.6739 -64.6738 -64.6738 -64.6738 -64.6737 -64.6737
   -64.6490 -64.6490 -64.6490 -64.6489 -64.6489 -64.6489 -64.6488 -64.6488
   -39.7597 -39.7597 -39.7597 -39.7597 -39.7457 -39.7457 -39.7456 -39.7456
   -39.7346 -39.7346 -39.7346 -39.7346 -39.6713 -39.6713 -39.6713 -39.6713
   -39.6601 -39.6601 -39.6600 -39.6600 -39.5904 -39.5904 -39.5904 -39.5904
   -39.5615 -39.5615 -39.5615 -39.5615 -39.5472 -39.5472 -39.5472 -39.5472
   -39.5205 -39.5205 -39.5205 -39.5205 -39.5138 -39.5138 -39.5138 -39.5138
   -39.4651 -39.4651 -39.4651 -39.4651 -39.4611 -39.4611 -39.4611 -39.4611
   -39.4326 -39.4326 -39.4326 -39.4326 -39.4195 -39.4195 -39.4195 -39.4195
   -39.4024 -39.4024 -39.4023 -39.4023 -39.3684 -39.3684 -39.3684 -39.3684
   -39.3540 -39.3540 -39.3540 -39.3540 -39.3454 -39.3454 -39.3454 -39.3454
   -39.3188 -39.3188 -39.3188 -39.3187 -39.2831 -39.2831 -39.2831 -39.2831
   -39.2776 -39.2776 -39.2776 -39.2776 -39.2587 -39.2587 -39.2587 -39.2587
   -39.2311 -39.2311 -39.2311 -39.2311 -39.2212 -39.2212 -39.2212 -39.2212
   -39.2077 -39.2077 -39.2077 -39.2077 -39.2029 -39.2029 -39.2029 -39.2029
   -39.1748 -39.1748 -39.1748 -39.1748 -39.1509 -39.1509 -39.1509 -39.1509
   -39.1490 -39.1490 -39.1490 -39.1490 -39.1419 -39.1419 -39.1419 -39.1419
   -39.1166 -39.1166 -39.1166 -39.1166 -39.1088 -39.1088 -39.1088 -39.1088
   -39.1052 -39.1052 -39.1052 -39.1052 -39.0930 -39.0930 -39.0930 -39.0930
[...]
     atom   60 type  2   force =    -0.00000766   -0.00006058    0.00002304
     atom   61 type  1   force =    -0.00021890    0.00000117   -0.00537476
     atom   62 type  1   force =     0.00026741    0.00002778   -0.00411409
     atom   63 type  1   force =     0.00029667    0.00005074   -0.00096177
     atom   64 type  1   force =     0.00002885   -0.00001515   -0.00681811
     atom   65 type  1   force =    -0.00026750    0.00002780   -0.00411405
     atom   66 type  1   force =     0.00021887    0.00000118   -0.00537478
     atom   67 type  1   force =    -0.00002894   -0.00001511   -0.00681809
     atom   68 type  1   force =    -0.00029669    0.00005071   -0.00096177
     atom   69 type  2   force =     0.00024867   -0.00003582   -0.00242752
     atom   70 type  2   force =     0.00001508    0.00003463   -0.00059292
     atom   71 type  2   force =    -0.00001508    0.00003462   -0.00059293
     atom   72 type  2   force =    -0.00024869   -0.00003583   -0.00242752
     atom   73 type  1   force =    -0.00029263   -0.00003277    0.00413044
     atom   74 type  1   force =     0.00024372    0.00002658    0.00520607
     atom   75 type  1   force =     0.00006927    0.00001300    0.00665206
     atom   76 type  1   force =    -0.00030771   -0.00003397    0.00114086
     atom   77 type  1   force =    -0.00024373    0.00002655    0.00520609
     atom   78 type  1   force =     0.00029263   -0.00003280    0.00413045
     atom   79 type  1   force =     0.00030771   -0.00003396    0.00114087
     atom   80 type  1   force =    -0.00006927    0.00001303    0.00665204
     atom   81 type  2   force =     0.00001927   -0.00006156    0.00061571
     atom   82 type  2   force =    -0.00023811    0.00002258    0.00232132
     atom   83 type  2   force =     0.00023811    0.00002256    0.00232131
     atom   84 type  2   force =    -0.00001927   -0.00006157    0.00061571
     atom   85 type  1   force =    -0.00031527   -0.00003646    0.00004414
     atom   86 type  1   force =     0.00031112    0.00003681    0.00000975
     atom   87 type  1   force =     0.00029643    0.00003419    0.00041930
     atom   88 type  1   force =    -0.00030552   -0.00003417   -0.00026847
     atom   89 type  1   force =    -0.00031111    0.00003676    0.00000975
     atom   90 type  1   force =     0.00031527   -0.00003645    0.00004413
     atom   91 type  1   force =     0.00030553   -0.00003417   -0.00026846
     atom   92 type  1   force =    -0.00029646    0.00003421    0.00041932
     atom   93 type  2   force =     0.00000766   -0.00006058    0.00002305
     atom   94 type  2   force =    -0.00000696    0.00006300   -0.00000500
     atom   95 type  2   force =     0.00000696    0.00006299   -0.00000500
     atom   96 type  2   force =    -0.00000766   -0.00006057    0.00002302
     atom   97 type  1   force =    -0.00021886    0.00000114   -0.00537484
     atom   98 type  1   force =     0.00026751    0.00002779   -0.00411404
     atom   99 type  1   force =     0.00029669    0.00005068   -0.00096184
     atom  100 type  1   force =     0.00002892   -0.00001516   -0.00681811
     atom  101 type  1   force =    -0.00026742    0.00002777   -0.00411408
     atom  102 type  1   force =     0.00021889    0.00000113   -0.00537481
     atom  103 type  1   force =    -0.00002883   -0.00001521   -0.00681813
     atom  104 type  1   force =    -0.00029666    0.00005072   -0.00096184
     atom  105 type  2   force =     0.00024867   -0.00003581   -0.00242752
     atom  106 type  2   force =     0.00001507    0.00003462   -0.00059298
     atom  107 type  2   force =    -0.00001507    0.00003462   -0.00059297
     atom  108 type  2   force =    -0.00024865   -0.00003580   -0.00242751
     atom  109 type  1   force =    -0.00029263   -0.00003275    0.00413043
     atom  110 type  1   force =     0.00024372    0.00002657    0.00520608
     atom  111 type  1   force =     0.00006927    0.00001300    0.00665207
     atom  112 type  1   force =    -0.00030770   -0.00003396    0.00114088
     atom  113 type  1   force =    -0.00024372    0.00002656    0.00520609
     atom  114 type  1   force =     0.00029263   -0.00003280    0.00413046
     atom  115 type  1   force =     0.00030771   -0.00003393    0.00114086
     atom  116 type  1   force =    -0.00006927    0.00001303    0.00665205
     atom  117 type  2   force =     0.00001926   -0.00006156    0.00061571
     atom  118 type  2   force =    -0.00023811    0.00002258    0.00232132
     atom  119 type  2   force =     0.00023811    0.00002256    0.00232131
     atom  120 type  2   force =    -0.00001926   -0.00006157    0.00061571
     atom  121 type  1   force =    -0.00031527   -0.00003641    0.00004413
     atom  122 type  1   force =     0.00031111    0.00003678    0.00000976
     atom  123 type  1   force =     0.00029644    0.00003423    0.00041930
     atom  124 type  1   force =    -0.00030552   -0.00003414   -0.00026846
     atom  125 type  1   force =    -0.00031111    0.00003681    0.00000974
     atom  126 type  1   force =     0.00031527   -0.00003643    0.00004412
     atom  127 type  1   force =     0.00030553   -0.00003412   -0.00026847
     atom  128 type  1   force =    -0.00029645    0.00003419    0.00041933
     atom  129 type  2   force =     0.00000766   -0.00006057    0.00002305
     atom  130 type  2   force =    -0.00000696    0.00006300   -0.00000500
     atom  131 type  2   force =     0.00000696    0.00006301   -0.00000500
     atom  132 type  2   force =    -0.00000766   -0.00006058    0.00002303
     atom  133 type  1   force =    -0.00021887    0.00000119   -0.00537482
     atom  134 type  1   force =     0.00026749    0.00002778   -0.00411404
     atom  135 type  1   force =     0.00029669    0.00005074   -0.00096183
     atom  136 type  1   force =     0.00002893   -0.00001513   -0.00681811
     atom  137 type  1   force =    -0.00026742    0.00002783   -0.00411408
     atom  138 type  1   force =     0.00021890    0.00000117   -0.00537483
     atom  139 type  1   force =    -0.00002883   -0.00001515   -0.00681812
     atom  140 type  1   force =    -0.00029666    0.00005071   -0.00096183
     atom  141 type  2   force =     0.00024867   -0.00003578   -0.00242752
     atom  142 type  2   force =     0.00001507    0.00003463   -0.00059297
     atom  143 type  2   force =    -0.00001507    0.00003464   -0.00059297
     atom  144 type  2   force =    -0.00024865   -0.00003581   -0.00242752

     Total force =     0.005343     Total SCF correction =     0.000323
     Energy error            =      5.8E-05 Ry
     Gradient error          =      7.7E-04 Ry/Bohr

     bfgs converged in  21 scf cycles and  20 bfgs steps
     (criteria: energy <  1.0E-04 Ry, force <  1.0E-03 Ry/Bohr)

     End of BFGS Geometry Optimization

     Final energy             =  -35823.6140867918 Ry

     File ./outdir/pwscf.bfgs deleted, as requested
Begin final coordinates

ATOMIC_POSITIONS (angstrom)
Mo            1.1601412554        0.7392257782       -4.7791904319    0   0   0
Mo            3.5582088138        5.2792776257       -5.6024999980    0   0   0
Mo            1.1990311056        2.2700257574       -7.3746295965    0   0   0
Mo            3.5192974860        3.7485357419       -3.0070750745    0   0   0
Mo            3.5193108535        2.2700268748       -5.6025060514    0   0   0
Mo            1.1990431667        3.7485346169       -4.7791968568    0   0   0
Mo            3.5582050753        0.7392299359       -3.0070762219    0   0   0
Mo            1.1601310663        5.2792769131       -7.3746372035    0   0   0
C             4.7183435275        2.2717513872       -3.8931456964    0   0   0
C             0.0000004698        3.7468077016       -6.4885521187    0   0   0
C             2.3591713727        0.7375051534       -6.4885600432    0   0   0
C             2.3591696184        5.2810089619       -3.8931478365    0   0   0
Mo            1.1611869639        0.7407800663        0.4052869899
Mo            3.5598895659        5.2898291572       -0.4012829054
Mo            1.1955049422        2.2735654348       -2.1816758368
Mo            3.5112037060        3.7476310538        2.1755615478
Mo            3.5176159161        2.2805601932       -0.4012784923
Mo            1.1979700320        3.7500514894        0.4052914506
Mo            3.5663072981        0.7383652287        2.1755445956
Mo            1.1636456672        5.2828448767       -2.1816696736
C             4.7245430056        2.2749942654        1.3001540433
C            -0.0008177143        3.7556410875       -1.2948855314
C             2.3599905776        0.7463658495       -1.2948857877
C             2.3529783967        5.2842609386        1.3001476258
Mo            1.1285930549        0.6876905051        5.6085473220
Mo            3.5415360447        5.2755109536        4.7853212340
Mo            1.2107731699        2.2764468444        3.0186175246
Mo            3.6498683601        3.8576010017        7.0955936252
Mo            3.5359908726        2.2662255013        4.7852945517
Mo            1.2305723583        3.6969583072        5.6085459488
Mo            3.4275728768        0.8482768439        7.0956124476
Mo            1.1483733403        5.2857317348        3.0186158459
C             4.8865935638        2.2312157354        6.6379403900
C             0.0012654380        3.7566910176        3.8944030062
C             2.3579112238        0.7474213549        3.8944035560
C             2.1908132405        5.2404971041        6.6379274427
Mo            1.1601333869        6.7577643992       -4.7791904319    0   0   0
Mo            3.5582009453       11.2978162467       -5.6024999980    0   0   0
Mo            1.1990232371        8.2885643784       -7.3746295965    0   0   0
Mo            3.5192896175        9.7670743629       -3.0070750745    0   0   0
Mo            3.5193029850        8.2885654958       -5.6025060514    0   0   0
Mo            1.1990352982        9.7670732379       -4.7791968568    0   0   0
Mo            3.5581972068        6.7577685569       -3.0070762219    0   0   0
Mo            1.1601231978       11.2978155341       -7.3746372035    0   0   0
C             4.7183356590        8.2902900082       -3.8931456964    0   0   0
C            -0.0000073987        9.7653463226       -6.4885521187    0   0   0
C             2.3591635042        6.7560437744       -6.4885600432    0   0   0
C             2.3591617499       11.2995475829       -3.8931478365    0   0   0
Mo            1.1611811862        6.7593315541        0.4052895480
Mo            3.5598825796       11.3083621448       -0.4012861011
Mo            1.1955027248        8.2921124370       -2.1816840827
Mo            3.5111992784        9.7661780269        2.1755605450
Mo            3.5176038355        8.2991082926       -0.4012764135
Mo            1.1979588557        9.7685992282        0.4052866482
Mo            3.5662962990        6.7569133212        2.1755438031
Mo            1.1636401184       11.3013786234       -2.1816749337
C             4.7245326517        8.2935444965        1.3001508295
C            -0.0008247437        9.7741777505       -1.2948932059
C             2.3599827340        6.7649129605       -1.2948867462
C             2.3529721920       11.3027971046        1.3001473217
Mo            1.1285799567        6.7062374487        5.6085382868
Mo            3.5415329672       11.2940488465        4.7853320321
Mo            1.2107666538        8.2949961039        3.0186103698
Mo            3.6498828834        9.8761644830        7.0956074893
Mo            3.5359812647        8.2847730391        4.7852997775
Mo            1.2305677781        9.7154997538        5.6085453806
Mo            3.4275459892        6.8668569669        7.0956045361
Mo            1.1483632000       11.3042706725        3.0186178585
C             4.8865874247        8.2497648397        6.6379356239
C             0.0012553176        9.7752356626        3.8944048626
C             2.3579003433        6.7659704185        3.8943997896
C             2.1907913683       11.2590223102        6.6379499064
Mo            5.8784915794        0.7392257782       -4.7791904319    0   0   0
Mo            8.2765591378        5.2792776257       -5.6024999980    0   0   0
Mo            5.9173814296        2.2700257574       -7.3746295965    0   0   0
Mo            8.2376478100        3.7485357419       -3.0070750745    0   0   0
Mo            8.2376611775        2.2700268748       -5.6025060514    0   0   0
Mo            5.9173934907        3.7485346169       -4.7791968568    0   0   0
Mo            8.2765553993        0.7392299359       -3.0070762219    0   0   0
Mo            5.8784813903        5.2792769131       -7.3746372035    0   0   0
C            -0.0000067965        2.2717513872       -3.8931456964    0   0   0
C             4.7183507938        3.7468077016       -6.4885521187    0   0   0
C             7.0775216967        0.7375051534       -6.4885600432    0   0   0
C             7.0775199424        5.2810089619       -3.8931478365    0   0   0
Mo            5.8795254693        0.7407765317        0.4052852492
Mo            8.2782291401        5.2898331827       -0.4012908899
Mo            5.9138601709        2.2735711625       -2.1816758031
Mo            8.2295629045        3.7476364795        2.1755442889
Mo            8.2359797740        2.2805468126       -0.4012950733
Mo            5.9163372482        3.7500441681        0.4052890476
Mo            8.2846467492        0.7383609533        2.1755618649
Mo            5.8819799303        5.2828424350       -2.1816758055
C             0.0061714678        2.2749831652        1.3001453713
C             4.7175295597        3.7556327267       -1.2948816971
C             7.0783118148        0.7463636393       -1.2948915489
C             7.0713167317        5.2842673104        1.3001439172
Mo            5.8469636543        0.6876925891        5.6086060801
Mo            8.2598672237        5.2754988889        4.7852872033
Mo            5.9291331855        2.2764544757        3.0186400709
Mo            8.3682444526        3.8574939158        7.0956083121
Mo            8.2543264642        2.2662338946        4.7853238799
Mo            5.9489010522        3.6969698513        5.6085945819
Mo            8.1460446226        0.8482694339        7.0956136191
Mo            5.8667341307        5.2857211931        3.0186289949
C             0.1683303495        2.2312208394        6.6379248702
C             4.7196343472        3.7566992547        3.8944254023
C             7.0762173081        0.7474268729        3.8944325820
C             6.9093104195        5.2404999608        6.6379048588
Mo            5.8784837109        6.7577643992       -4.7791904319    0   0   0
Mo            8.2765512693       11.2978162467       -5.6024999980    0   0   0
Mo            5.9173735611        8.2885643784       -7.3746295965    0   0   0
Mo            8.2376399415        9.7670743629       -3.0070750745    0   0   0
Mo            8.2376533090        8.2885654958       -5.6025060514    0   0   0
Mo            5.9173856222        9.7670732379       -4.7791968568    0   0   0
Mo            8.2765475308        6.7577685569       -3.0070762219    0   0   0
Mo            5.8784735218       11.2978155341       -7.3746372035    0   0   0
C            -0.0000146650        8.2902900082       -3.8931456964    0   0   0
C             4.7183429253        9.7653463226       -6.4885521187    0   0   0
C             7.0775138282        6.7560437744       -6.4885600432    0   0   0
C             7.0775120739       11.2995475829       -3.8931478365    0   0   0
Mo            5.8795202964        6.7593270111        0.4052876287
Mo            8.2782215275       11.3083665255       -0.4012930010
Mo            5.9138583669        8.2921182080       -2.1816852577
Mo            8.2295573001        9.7661835381        2.1755439997
Mo            8.2359670434        8.2990952026       -0.4012924488
Mo            5.9163258198        9.7685915270        0.4052848335
Mo            8.2846353551        6.7569084815        2.1755595387
Mo            5.8819747246       11.3013757782       -2.1816807208
C             0.0061606713        8.2935340711        1.3001425437
C             4.7175227216        9.7741689310       -1.2948899072
C             7.0783040297        6.7649111271       -1.2948931523
C             7.0713095912       11.3028043272        1.3001446554
Mo            5.8469513874        6.7062381965        5.6085971593
Mo            8.2598637364       11.2940382639        4.7852984153
Mo            5.9291282706        8.2950016767        3.0186320297
Mo            8.3682564764        9.8760556962        7.0956220125
Mo            8.2543171429        8.2847811953        4.7853310243
Mo            5.9488992933        9.7155108902        5.6085913495
Mo            8.1460250069        6.8668412233        7.0956084099
Mo            5.8667237651       11.3042607493        3.0186318536
C             0.1683232379        8.2497700608        6.6379232105
C             4.7196248903        9.7752427475        3.8944260498
C             7.0762078318        6.7659742766        3.8944295615
C             6.9092880285       11.2590252506        6.6379265957
End final coordinates



     Writing all to output data dir ./outdir/pwscf.save/
 
     init_run     :     85.17s CPU     86.96s WALL (       1 calls)
     electrons    : 191850.58s CPU 194206.87s WALL (      21 calls)
     update_pot   :     48.97s CPU     49.24s WALL (      20 calls)
     forces       :   1082.60s CPU   1108.79s WALL (      21 calls)
     force_dftd3  :     13.17s CPU     13.92s WALL (      21 calls)

     Called by init_run:
     wfcinit      :     71.82s CPU     73.10s WALL (       1 calls)
     potinit      :      1.26s CPU      1.32s WALL (       1 calls)
     hinit0       :      8.82s CPU      8.83s WALL (       1 calls)

     Called by electrons:
     c_bands      : 170392.28s CPU 171947.99s WALL (     802 calls)
     sum_band     :  20006.24s CPU  20452.91s WALL (     802 calls)
     v_of_rho     :    257.96s CPU    259.33s WALL (     813 calls)
     newd         :    681.24s CPU   1036.03s WALL (     813 calls)
     PAW_pot      :    386.54s CPU    386.60s WALL (     833 calls)
     mix_rho      :     76.34s CPU     76.52s WALL (     802 calls)
     energy_dftd3 :      6.69s CPU      6.70s WALL (      21 calls)

     Called by c_bands:
     init_us_2    :    778.71s CPU    779.00s WALL (    6584 calls)
     init_us_2:cp :    778.67s CPU    778.98s WALL (    6584 calls)
     cegterg      : 167663.99s CPU 169210.12s WALL (    3305 calls)

     Called by *egterg:
     cdiaghg      :  13195.46s CPU  13237.02s WALL (   21976 calls)
     h_psi        :  79609.77s CPU  80019.48s WALL (   22125 calls)
     s_psi        :  16591.06s CPU  16591.99s WALL (   22125 calls)
     g_psi        :    238.94s CPU    239.47s WALL (   18816 calls)

     Called by h_psi:
     h_psi:calbec :  17023.55s CPU  17027.62s WALL (   22125 calls)
     vloc_psi     :  45680.18s CPU  45812.17s WALL (   22125 calls)
     add_vuspsi   :  16658.33s CPU  16661.17s WALL (   22125 calls)

     General routines
     calbec       :  24134.48s CPU  24140.28s WALL (   25749 calls)
     fft          :    229.26s CPU    231.63s WALL (   10788 calls)
     ffts         :      8.76s CPU      8.84s WALL (    1615 calls)
     fftw         :  36565.51s CPU  36670.15s WALL (18356440 calls)
     interpolate  :     24.14s CPU     24.25s WALL (     813 calls)
 
     Parallel routines
 
     PWSCF        :   2d 5h43m CPU   2d 6h24m WALL

 
   This run was terminated on:   3: 5:36  20Dec2023            

=------------------------------------------------------------------------------=
   JOB DONE.
=------------------------------------------------------------------------------=
Application 11515717 resources: utime ~6963318s, stime ~86591s, Rss ~1982128, inblocks ~0, outblocks ~36056584
