
     Program PWSCF v.7.2 starts on 16Aug2023 at 16:34:11 

     This program is part of the open-source Quantum ESPRESSO suite
     for quantum simulation of materials; please cite
         "P. Giannozzi et al., J. Phys.:Condens. Matter 21 395502 (2009);
         "P. Giannozzi et al., J. Phys.:Condens. Matter 29 465901 (2017);
         "P. Giannozzi et al., J. Chem. Phys. 152 154105 (2020);
          URL http://www.quantum-espresso.org", 
     in publications or presentations arising from this work. More details at
     http://www.quantum-espresso.org/quote

     Parallel version (MPI), running on    36 processors

     MPI processes distributed on     1 nodes
     770042 MiB available memory on the printing compute node when the environment starts
 
     Waiting for input...
     Reading input from standard input
Warning: card &CELL ignored
Warning: card / ignored

     Current dimensions of program PWSCF are:
     Max number of different atomic species (ntypx) = 10
     Max number of k-points (npk) =  40000
     Max angular momentum in pseudopotentials (lmaxx) =  4
     file Mo.pbe-spn-kjpaw_psl.1.0.0.UPF: wavefunction(s)  4S 4D renormalized
     file S.pbe-n-kjpaw_psl.1.0.0.UPF: wavefunction(s)  3S 3P renormalized
     file Pd.pbe-spn-kjpaw_psl.1.0.0.UPF: wavefunction(s)  4S 5S 4D renormalized
 
     R & G space division:  proc/nbgrp/npool/nimage =      36
     Subspace diagonalization in iterative solution of the eigenvalue problem:
     one sub-group per band group will be used
     custom distributed-memory algorithm (size of sub-group:  6*  6 procs)

 
     Parallelization info
     --------------------
     sticks:   dense  smooth     PW     G-vecs:    dense   smooth      PW
     Min         585     334     89               198743    85850   11735
     Max         586     335     90               198750    85861   11748
     Sum       21073   12049   3205              7154885  3090769  422587
 
     Using Slab Decomposition
 


     bravais-lattice index     =            0
     lattice parameter (alat)  =      23.8199  a.u.
     unit-cell volume          =   33861.0370 (a.u.)^3
     number of atoms/cell      =          193
     number of atomic types    =            3
     number of electrons       =      1682.00
     number of Kohn-Sham states=         1009
     kinetic-energy cutoff     =      77.0000  Ry
     charge density cutoff     =     539.0000  Ry
     scf convergence threshold =      1.0E-06
     mixing beta               =       0.2000
     number of iterations used =            8  plain     mixing
     Exchange-correlation= SLA  PW   PBX  PBC
                           (   1   4   3   4   0   0   0)

     Effective Screening Medium Method
     =================================
     Boundary Conditions: Vacuum-Slab-Vacuum
     total charge in unit cell        =   0.0000
     grid points for fit at edges     =        4 
 

     celldm(1)=  23.819920  celldm(2)=   0.000000  celldm(3)=   0.000000
     celldm(4)=   0.000000  celldm(5)=   0.000000  celldm(6)=   0.000000

     crystal axes: (cart. coord. in units of alat)
               a(1) = (   1.000000   0.000000   0.000000 )  
               a(2) = (  -0.499999   0.866026   0.000000 )  
               a(3) = (   0.000000   0.000000   2.893000 )  

     reciprocal axes: (cart. coord. in units 2 pi/alat)
               b(1) = (  1.000000  0.577349  0.000000 )  
               b(2) = (  0.000000  1.154700  0.000000 )  
               b(3) = (  0.000000  0.000000  0.345662 )  


     PseudoPot. # 1 for Mo read from file:
     ./pseudo/Mo.pbe-spn-kjpaw_psl.1.0.0.UPF
     MD5 check sum: 317bf72632116215fd98f72de1686f13
     Pseudo is Projector augmented-wave + core cor, Zval = 14.0
     Generated using 'atomic' code by A. Dal Corso  v.7.2
     Shape of augmentation charge: PSQ
     Using radial grid of 1229 points,  6 beta functions with: 
                l(1) =   0
                l(2) =   0
                l(3) =   1
                l(4) =   1
                l(5) =   2
                l(6) =   2
     Q(r) pseudized with 0 coefficients 


     PseudoPot. # 2 for S  read from file:
     ./pseudo/S.pbe-n-kjpaw_psl.1.0.0.UPF
     MD5 check sum: 8b7b5302570d38d5e87fed6a1065abda
     Pseudo is Projector augmented-wave + core cor, Zval =  6.0
     Generated using 'atomic' code by A. Dal Corso  v.7.2
     Shape of augmentation charge: PSQ
     Using radial grid of 1151 points,  6 beta functions with: 
                l(1) =   0
                l(2) =   0
                l(3) =   1
                l(4) =   1
                l(5) =   2
                l(6) =   2
     Q(r) pseudized with 0 coefficients 


     PseudoPot. # 3 for Pd read from file:
     ./pseudo/Pd.pbe-spn-kjpaw_psl.1.0.0.UPF
     MD5 check sum: a60571a671f2502b8a6a4569d20a6edb
     Pseudo is Projector augmented-wave + core cor, Zval = 18.0
     Generated using 'atomic' code by A. Dal Corso  v.7.2
     Shape of augmentation charge: PSQ
     Using radial grid of 1235 points,  6 beta functions with: 
                l(1) =   0
                l(2) =   0
                l(3) =   1
                l(4) =   1
                l(5) =   2
                l(6) =   2
     Q(r) pseudized with 0 coefficients 


     atomic species   valence    mass     pseudopotential
        Mo            14.00    95.95000     Mo( 1.00)
        S              6.00    32.06000     S ( 1.00)
        Pd            18.00   106.42000     Pd( 1.00)

     No symmetry found



   Cartesian axes

     site n.     atom                  positions (alat units)
         1           Mo  tau(   1) = (   0.0000010   0.1443372  -0.7272732  )
         2           Mo  tau(   2) = (   0.1249995   0.0721706  -0.2424038  )
         3           S   tau(   3) = (   0.0000015   0.1443386  -0.3667807  )
         4           S   tau(   4) = (   0.1250010   0.0721682  -0.6030489  )
         5           S   tau(   5) = (   0.1250010   0.0721683  -0.8514963  )
         6           S   tau(   6) = (   0.0000015   0.1443389  -0.1180260  )
         7           Mo  tau(   7) = (   0.0000030   0.1443414   0.2424112  )
         8           Mo  tau(   8) = (   0.1250040   0.0723275   0.7276393  )
         9           S   tau(   9) = (   0.0000117   0.1438914   0.6027725  )
        10           S   tau(  10) = (   0.1250026   0.0721702   0.3667673  )
        11           S   tau(  11) = (   0.1250021   0.0721747   0.1180335  )
        12           S   tau(  12) = (  -0.0000470   0.1447877   0.8519195  )
        13           Mo  tau(  13) = (  -0.1249989   0.3608437  -0.7272732  )
        14           Mo  tau(  14) = (   0.0000030   0.2886752  -0.2424042  )
        15           S   tau(  15) = (  -0.1249977   0.3608450  -0.3667802  )
        16           S   tau(  16) = (   0.0000012   0.2886747  -0.6030489  )
        17           S   tau(  17) = (   0.0000012   0.2886748  -0.8514963  )
        18           S   tau(  18) = (  -0.1249977   0.3608454  -0.1180274  )
        19           Mo  tau(  19) = (  -0.1249948   0.3608421   0.2424109  )
        20           Mo  tau(  20) = (  -0.0005420   0.2883616   0.7266767  )
        21           S   tau(  21) = (  -0.1253798   0.3610762   0.6027725  )
        22           S   tau(  22) = (   0.0000222   0.2886872   0.3667970  )
        23           S   tau(  23) = (  -0.0000028   0.2886730   0.1180246  )
        24           S   tau(  24) = (  -0.1246332   0.3605773   0.8519193  )
        25           Mo  tau(  25) = (  -0.2499987   0.5773502  -0.7272732  )
        26           Mo  tau(  26) = (  -0.1249977   0.5051839  -0.2424055  )
        27           S   tau(  27) = (  -0.2499981   0.5773518  -0.3667809  )
        28           S   tau(  28) = (  -0.1249986   0.5051812  -0.6030489  )
        29           S   tau(  29) = (  -0.1249986   0.5051813  -0.8514963  )
        30           S   tau(  30) = (  -0.2499979   0.5773512  -0.1180266  )
        31           Mo  tau(  31) = (  -0.2499975   0.5773520   0.2424028  )
        32           Mo  tau(  32) = (  -0.1248598   0.5051049   0.7276392  )
        33           S   tau(  33) = (  -0.2499216   0.5773096   0.6031572  )
        34           S   tau(  34) = (  -0.1249961   0.5051815   0.3667685  )
        35           S   tau(  35) = (  -0.1249922   0.5051781   0.1180318  )
        36           S   tau(  36) = (  -0.2499221   0.5773098   0.8519834  )
        37           Mo  tau(  37) = (  -0.3749985   0.7938567  -0.7272732  )
        38           Mo  tau(  38) = (  -0.2500001   0.7216874  -0.2424031  )
        39           S   tau(  39) = (  -0.3749980   0.7938584  -0.3667800  )
        40           S   tau(  40) = (  -0.2499984   0.7216877  -0.6030489  )
        41           S   tau(  41) = (  -0.2499984   0.7216878  -0.8514963  )
        42           S   tau(  42) = (  -0.3749982   0.7938585  -0.1180264  )
        43           Mo  tau(  43) = (  -0.3749959   0.7938571   0.2424020  )
        44           Mo  tau(  44) = (  -0.2500051   0.7216842   0.7274781  )
        45           S   tau(  45) = (  -0.3749954   0.7939442   0.6031573  )
        46           S   tau(  46) = (  -0.2499996   0.7216860   0.3667850  )
        47           S   tau(  47) = (  -0.2499967   0.7216882   0.1180263  )
        48           S   tau(  48) = (  -0.3749952   0.7939437   0.8519836  )
        49           Mo  tau(  49) = (   0.2500010   0.1443372  -0.7272732  )
        50           Mo  tau(  50) = (   0.3750034   0.0721723  -0.2424032  )
        51           S   tau(  51) = (   0.2500017   0.1443391  -0.3667788  )
        52           S   tau(  52) = (   0.3750010   0.0721682  -0.6030489  )
        53           S   tau(  53) = (   0.3750010   0.0721683  -0.8514963  )
        54           S   tau(  54) = (   0.2500016   0.1443391  -0.1180271  )
        55           Mo  tau(  55) = (   0.2500033   0.1443410   0.2424096  )
        56           Mo  tau(  56) = (   0.3748725   0.0720595   0.7274652  )
        57           S   tau(  57) = (   0.2499964   0.1438908   0.6027719  )
        58           S   tau(  58) = (   0.3750107   0.0721689   0.3667769  )
        59           S   tau(  59) = (   0.3749997   0.0721712   0.1180296  )
        60           S   tau(  60) = (   0.2500551   0.1447881   0.8519191  )
        61           Mo  tau(  61) = (   0.1250012   0.3608437  -0.7272732  )
        62           Mo  tau(  62) = (   0.2500029   0.2886782  -0.2424031  )
        63           S   tau(  63) = (   0.1250024   0.3608455  -0.3667794  )
        64           S   tau(  64) = (   0.2500012   0.2886747  -0.6030489  )
        65           S   tau(  65) = (   0.2500012   0.2886748  -0.8514963  )
        66           S   tau(  66) = (   0.1250021   0.3608455  -0.1180270  )
        67           Mo  tau(  67) = (   0.1250023   0.3608438   0.2423976  )
        68           Mo  tau(  68) = (   0.2505505   0.2883613   0.7266755  )
        69           S   tau(  69) = (   0.1250040   0.3608459   0.6030101  )
        70           S   tau(  70) = (   0.2499840   0.2886873   0.3667951  )
        71           S   tau(  71) = (   0.2500083   0.2886734   0.1180261  )
        72           S   tau(  72) = (   0.1250051   0.3608444   0.8511256  )
        73           Mo  tau(  73) = (   0.0000014   0.5773502  -0.7272732  )
        74           Mo  tau(  74) = (   0.1250045   0.5051840  -0.2424036  )
        75           S   tau(  75) = (   0.0000030   0.5773520  -0.3667799  )
        76           S   tau(  76) = (   0.1250014   0.5051812  -0.6030489  )
        77           S   tau(  77) = (   0.1250014   0.5051813  -0.8514963  )
        78           S   tau(  78) = (   0.0000026   0.5773517  -0.1180274  )
        79           Mo  tau(  79) = (   0.0000062   0.5773503   0.2424093  )
        80           Mo  tau(  80) = (   0.1250043   0.5058136   0.7266775  )
        81           S   tau(  81) = (  -0.0003868   0.5775693   0.6027729  )
        82           S   tau(  82) = (   0.1250038   0.5051600   0.3667951  )
        83           S   tau(  83) = (   0.1250037   0.5051877   0.1180254  )
        84           S   tau(  84) = (   0.0004179   0.5771723   0.8519197  )
        85           Mo  tau(  85) = (  -0.1249984   0.7938567  -0.7272732  )
        86           Mo  tau(  86) = (   0.0000069   0.7216896  -0.2424039  )
        87           S   tau(  87) = (  -0.1249975   0.7938582  -0.3667782  )
        88           S   tau(  88) = (   0.0000016   0.7216877  -0.6030489  )
        89           S   tau(  89) = (   0.0000016   0.7216878  -0.8514963  )
        90           S   tau(  90) = (  -0.1249973   0.7938582  -0.1180279  )
        91           Mo  tau(  91) = (  -0.1249995   0.7938563   0.2424042  )
        92           Mo  tau(  92) = (  -0.0001569   0.7216314   0.7274654  )
        93           S   tau(  93) = (  -0.1250948   0.7938012   0.6030519  )
        94           S   tau(  94) = (   0.0000072   0.7216942   0.3667769  )
        95           S   tau(  95) = (   0.0000039   0.7216840   0.1180299  )
        96           S   tau(  96) = (  -0.1250924   0.7938028   0.8519455  )
        97           Mo  tau(  97) = (   0.5000010   0.1443372  -0.7272732  )
        98           Mo  tau(  98) = (   0.6250001   0.0721662  -0.2424040  )
        99           S   tau(  99) = (   0.5000017   0.1443386  -0.3667801  )
       100           S   tau( 100) = (   0.6250010   0.0721682  -0.6030489  )
       101           S   tau( 101) = (   0.6250010   0.0721683  -0.8514963  )
       102           S   tau( 102) = (   0.5000020   0.1443388  -0.1180261  )
       103           Mo  tau( 103) = (   0.5000056   0.1443351   0.2424021  )
       104           Mo  tau( 104) = (   0.6250041   0.0721704   0.7273489  )
       105           S   tau( 105) = (   0.4999130   0.1443913   0.6030814  )
       106           S   tau( 106) = (   0.6250030   0.0721689   0.3667883  )
       107           S   tau( 107) = (   0.6250040   0.0721692   0.1180242  )
       108           S   tau( 108) = (   0.4999643   0.1443620   0.8518122  )
       109           Mo  tau( 109) = (   0.3750012   0.3608437  -0.7272732  )
       110           Mo  tau( 110) = (   0.4999991   0.2886761  -0.2424038  )
       111           S   tau( 111) = (   0.3750012   0.3608452  -0.3667804  )
       112           S   tau( 112) = (   0.5000012   0.2886747  -0.6030489  )
       113           S   tau( 113) = (   0.5000012   0.2886748  -0.8514963  )
       114           S   tau( 114) = (   0.3750014   0.3608455  -0.1180261  )
       115           Mo  tau( 115) = (   0.3749997   0.3608405   0.2424093  )
       116           Mo  tau( 116) = (   0.5000345   0.2888459   0.7274651  )
       117           S   tau( 117) = (   0.3753885   0.3610764   0.6027720  )
       118           S   tau( 118) = (   0.5000066   0.2886695   0.3667792  )
       119           S   tau( 119) = (   0.4999998   0.2886782   0.1180283  )
       120           S   tau( 120) = (   0.3746412   0.3605769   0.8519189  )
       121           Mo  tau( 121) = (   0.2500014   0.5773502  -0.7272732  )
       122           Mo  tau( 122) = (   0.3749983   0.5051825  -0.2424043  )
       123           S   tau( 123) = (   0.2500017   0.5773519  -0.3667810  )
       124           S   tau( 124) = (   0.3750014   0.5051812  -0.6030489  )
       125           S   tau( 125) = (   0.3750014   0.5051813  -0.8514963  )
       126           S   tau( 126) = (   0.2500018   0.5773519  -0.1180256  )
       127           Mo  tau( 127) = (   0.2499989   0.5773489   0.2424089  )
       128           Mo  tau( 128) = (   0.3748686   0.5051048   0.7276392  )
       129           S   tau( 129) = (   0.2503955   0.5775691   0.6027730  )
       130           S   tau( 130) = (   0.3750023   0.5051816   0.3667694  )
       131           S   tau( 131) = (   0.3749985   0.5051789   0.1180307  )
       132           S   tau( 132) = (   0.2495908   0.5771721   0.8519197  )
       133           Mo  tau( 133) = (   0.1250016   0.7938567  -0.7272732  )
       134           Mo  tau( 134) = (   0.2499995   0.7216883  -0.2424036  )
       135           S   tau( 135) = (   0.1250024   0.7938578  -0.3667813  )
       136           S   tau( 136) = (   0.2500016   0.7216877  -0.6030489  )
       137           S   tau( 137) = (   0.2500016   0.7216878  -0.8514963  )
       138           S   tau( 138) = (   0.1250024   0.7938579  -0.1180253  )
       139           Mo  tau( 139) = (   0.1250029   0.7938612   0.2424011  )
       140           Mo  tau( 140) = (   0.2501662   0.7216315   0.7274655  )
       141           S   tau( 141) = (   0.1250045   0.7937537   0.6030816  )
       142           S   tau( 142) = (   0.2500007   0.7216937   0.3667791  )
       143           S   tau( 143) = (   0.2500044   0.7216840   0.1180280  )
       144           S   tau( 144) = (   0.1250045   0.7938132   0.8518123  )
       145           Mo  tau( 145) = (   0.7500010   0.1443372  -0.7272732  )
       146           Mo  tau( 146) = (   0.8750038   0.0721696  -0.2424038  )
       147           S   tau( 147) = (   0.7500016   0.1443382  -0.3667789  )
       148           S   tau( 148) = (   0.8750010   0.0721682  -0.6030489  )
       149           S   tau( 149) = (   0.8750010   0.0721683  -0.8514963  )
       150           S   tau( 150) = (   0.7500016   0.1443384  -0.1180279  )
       151           Mo  tau( 151) = (   0.7499999   0.1443354   0.2424028  )
       152           Mo  tau( 152) = (   0.8751350   0.0720596   0.7274653  )
       153           S   tau( 153) = (   0.7500946   0.1443914   0.6030818  )
       154           S   tau( 154) = (   0.8749954   0.0721682   0.3667780  )
       155           S   tau( 155) = (   0.8750058   0.0721708   0.1180303  )
       156           S   tau( 156) = (   0.7500433   0.1443620   0.8518119  )
       157           Mo  tau( 157) = (   0.6250012   0.3608437  -0.7272732  )
       158           Mo  tau( 158) = (   0.7500028   0.2886769  -0.2424041  )
       159           S   tau( 159) = (   0.6250015   0.3608451  -0.3667792  )
       160           S   tau( 160) = (   0.7500012   0.2886747  -0.6030489  )
       161           S   tau( 161) = (   0.7500012   0.2886748  -0.8514963  )
       162           S   tau( 162) = (   0.6250016   0.3608454  -0.1180280  )
       163           Mo  tau( 163) = (   0.6250030   0.3608463   0.2424050  )
       164           Mo  tau( 164) = (   0.7499738   0.2888456   0.7274652  )
       165           S   tau( 165) = (   0.6250042   0.3609606   0.6030518  )
       166           S   tau( 166) = (   0.7499992   0.2886696   0.3667790  )
       167           S   tau( 167) = (   0.7500066   0.2886776   0.1180300  )
       168           S   tau( 168) = (   0.6250041   0.3609576   0.8519450  )
       169           Mo  tau( 169) = (   0.5000014   0.5773502  -0.7272732  )
       170           Mo  tau( 170) = (   0.6250029   0.5051841  -0.2424047  )
       171           S   tau( 171) = (   0.5000014   0.5773518  -0.3667794  )
       172           S   tau( 172) = (   0.6250014   0.5051812  -0.6030489  )
       173           S   tau( 173) = (   0.6250014   0.5051813  -0.8514963  )
       174           S   tau( 174) = (   0.5000016   0.5773516  -0.1180277  )
       175           Mo  tau( 175) = (   0.5000041   0.5773512   0.2424025  )
       176           Mo  tau( 176) = (   0.6250043   0.5051947   0.7274779  )
       177           S   tau( 177) = (   0.4999304   0.5773096   0.6031574  )
       178           S   tau( 178) = (   0.6250027   0.5051855   0.3667833  )
       179           S   tau( 179) = (   0.6250026   0.5051807   0.1180284  )
       180           S   tau( 180) = (   0.4999310   0.5773096   0.8519834  )
       181           Mo  tau( 181) = (   0.3750016   0.7938567  -0.7272732  )
       182           Mo  tau( 182) = (   0.5000025   0.7216901  -0.2424039  )
       183           S   tau( 183) = (   0.3750019   0.7938578  -0.3667793  )
       184           S   tau( 184) = (   0.5000016   0.7216877  -0.6030489  )
       185           S   tau( 185) = (   0.5000016   0.7216878  -0.8514963  )
       186           S   tau( 186) = (   0.3750020   0.7938579  -0.1180272  )
       187           Mo  tau( 187) = (   0.3750061   0.7938563   0.2424051  )
       188           Mo  tau( 188) = (   0.5000143   0.7216841   0.7274782  )
       189           S   tau( 189) = (   0.3751043   0.7938011   0.6030521  )
       190           S   tau( 190) = (   0.5000065   0.7216856   0.3667844  )
       191           S   tau( 191) = (   0.5000031   0.7216880   0.1180276  )
       192           S   tau( 192) = (   0.3751018   0.7938027   0.8519453  )
       193           Pd  tau( 193) = (   0.1250289   0.3608128   1.0220745  )

     --------------------------------------------
     DFT-D3 Dispersion Correction (3-body terms):
     --------------------------------------------
       Reference C6 values for interpolation: 

         atom   Coordination number   C6
         S          0.000           268.01
         S          0.995           261.99
         S          1.990           251.62
         Mo         0.000          1691.79
         Mo         1.942          1004.01
         Mo        11.056           674.22
         Pd         0.000          1217.01
         Pd         1.863           573.90
         Pd         5.710           531.75

       Values used:

         atom   Coordination number  R0_AB[au]  C6      C8
         Mo        10.208            3.547    674.22  77634.20
         Mo        10.221            3.547    674.22  77634.20
         S          3.858            3.128    251.62  12327.25
         S          3.859            3.128    251.62  12327.25
         S          3.758            3.128    251.62  12327.25
         S          3.859            3.128    251.62  12327.25
         Mo        10.221            3.547    674.22  77634.20
         Mo        10.211            3.547    674.22  77634.20
         S          3.854            3.128    251.62  12327.25
         S          3.859            3.128    251.62  12327.25
         S          3.859            3.128    251.62  12327.25
         S          3.769            3.128    251.62  12327.25
         Mo        10.208            3.547    674.22  77634.20
         Mo        10.221            3.547    674.22  77634.20
         S          3.858            3.128    251.62  12327.25
         S          3.859            3.128    251.62  12327.25
         S          3.758            3.128    251.62  12327.25
         S          3.859            3.128    251.62  12327.25
         Mo        10.221            3.547    674.22  77634.20
         Mo        10.210            3.547    674.22  77634.20
         S          3.854            3.128    251.62  12327.25
         S          3.858            3.128    251.62  12327.25
         S          3.859            3.128    251.62  12327.25
         S          3.769            3.128    251.62  12327.25
         Mo        10.208            3.547    674.22  77634.20
         Mo        10.221            3.547    674.22  77634.20
         S          3.858            3.128    251.62  12327.25
         S          3.859            3.128    251.62  12327.25
         S          3.758            3.128    251.62  12327.25
         S          3.859            3.128    251.62  12327.25
         Mo        10.221            3.547    674.22  77634.20
         Mo        10.211            3.547    674.22  77634.20
         S          3.860            3.128    251.62  12327.25
         S          3.859            3.128    251.62  12327.25
         S          3.859            3.128    251.62  12327.25
         S          3.751            3.128    251.62  12327.25
         Mo        10.208            3.547    674.22  77634.20
         Mo        10.221            3.547    674.22  77634.20
         S          3.858            3.128    251.62  12327.25
         S          3.859            3.128    251.62  12327.25
         S          3.758            3.128    251.62  12327.25
         S          3.859            3.128    251.62  12327.25
         Mo        10.221            3.547    674.22  77634.20
         Mo        10.207            3.547    674.22  77634.20
         S          3.860            3.128    251.62  12327.25
         S          3.858            3.128    251.62  12327.25
         S          3.859            3.128    251.62  12327.25
         S          3.751            3.128    251.62  12327.25
         Mo        10.208            3.547    674.21  77634.20
         Mo        10.221            3.547    674.22  77634.20
         S          3.858            3.128    251.62  12327.25
         S          3.859            3.128    251.62  12327.25
         S          3.758            3.128    251.62  12327.25
         S          3.859            3.128    251.62  12327.25
         Mo        10.221            3.547    674.22  77634.20
         Mo        10.212            3.547    674.22  77634.20
         S          3.854            3.128    251.62  12327.25
         S          3.858            3.128    251.62  12327.25
         S          3.859            3.128    251.62  12327.25
         S          3.769            3.128    251.62  12327.25
         Mo        10.208            3.547    674.22  77634.20
         Mo        10.221            3.547    674.22  77634.20
         S          3.858            3.128    251.62  12327.25
         S          3.859            3.128    251.62  12327.25
         S          3.758            3.128    251.62  12327.25
         S          3.859            3.128    251.62  12327.25
         Mo        10.221            3.547    674.22  77634.20
         Mo        10.210            3.547    674.22  77634.20
         S          3.849            3.128    251.62  12327.25
         S          3.858            3.128    251.62  12327.25
         S          3.859            3.128    251.62  12327.25
         S          4.760            3.128    251.62  12327.25
         Mo        10.208            3.547    674.22  77634.20
         Mo        10.221            3.547    674.22  77634.20
         S          3.858            3.128    251.62  12327.25
         S          3.859            3.128    251.62  12327.25
         S          3.758            3.128    251.62  12327.25
         S          3.859            3.128    251.62  12327.25
         Mo        10.221            3.547    674.22  77634.20
         Mo        10.210            3.547    674.22  77634.20
         S          3.854            3.128    251.62  12327.25
         S          3.858            3.128    251.62  12327.25
         S          3.859            3.128    251.62  12327.25
         S          3.769            3.128    251.62  12327.25
         Mo        10.208            3.547    674.22  77634.20
         Mo        10.221            3.547    674.22  77634.20
         S          3.858            3.128    251.62  12327.25
         S          3.859            3.128    251.62  12327.25
         S          3.758            3.128    251.62  12327.25
         S          3.859            3.128    251.62  12327.25
         Mo        10.221            3.547    674.22  77634.20
         Mo        10.212            3.547    674.21  77634.20
         S          3.859            3.128    251.62  12327.25
         S          3.858            3.128    251.62  12327.25
         S          3.859            3.128    251.62  12327.25
         S          3.751            3.128    251.62  12327.25
         Mo        10.208            3.547    674.22  77634.20
         Mo        10.221            3.547    674.22  77634.20
         S          3.858            3.128    251.62  12327.25
         S          3.859            3.128    251.62  12327.25
         S          3.758            3.128    251.62  12327.25
         S          3.859            3.128    251.62  12327.25
         Mo        10.221            3.547    674.22  77634.20
         Mo        10.194            3.547    674.22  77634.20
         S          3.855            3.128    251.62  12327.25
         S          3.858            3.128    251.62  12327.25
         S          3.859            3.128    251.62  12327.25
         S          3.755            3.128    251.62  12327.25
         Mo        10.208            3.547    674.22  77634.20
         Mo        10.221            3.547    674.22  77634.20
         S          3.858            3.128    251.62  12327.25
         S          3.859            3.128    251.62  12327.25
         S          3.758            3.128    251.62  12327.25
         S          3.859            3.128    251.62  12327.25
         Mo        10.221            3.547    674.22  77634.20
         Mo        10.212            3.547    674.22  77634.20
         S          3.854            3.128    251.62  12327.25
         S          3.858            3.128    251.62  12327.25
         S          3.859            3.128    251.62  12327.25
         S          3.769            3.128    251.62  12327.25
         Mo        10.208            3.547    674.22  77634.20
         Mo        10.221            3.547    674.22  77634.20
         S          3.858            3.128    251.62  12327.25
         S          3.859            3.128    251.62  12327.25
         S          3.758            3.128    251.62  12327.25
         S          3.859            3.128    251.62  12327.25
         Mo        10.221            3.547    674.22  77634.20
         Mo        10.211            3.547    674.22  77634.20
         S          3.854            3.128    251.62  12327.25
         S          3.859            3.128    251.62  12327.25
         S          3.859            3.128    251.62  12327.25
         S          3.769            3.128    251.62  12327.25
         Mo        10.208            3.547    674.22  77634.20
         Mo        10.221            3.547    674.22  77634.20
         S          3.858            3.128    251.62  12327.25
         S          3.859            3.128    251.62  12327.25
         S          3.758            3.128    251.62  12327.25
         S          3.859            3.128    251.62  12327.25
         Mo        10.221            3.547    674.22  77634.20
         Mo        10.212            3.547    674.22  77634.20
         S          3.855            3.128    251.62  12327.25
         S          3.858            3.128    251.62  12327.25
         S          3.859            3.128    251.62  12327.25
         S          3.755            3.128    251.62  12327.25
         Mo        10.208            3.547    674.22  77634.20
         Mo        10.221            3.547    674.22  77634.20
         S          3.858            3.128    251.62  12327.25
         S          3.859            3.128    251.62  12327.25
         S          3.758            3.128    251.62  12327.25
         S          3.859            3.128    251.62  12327.25
         Mo        10.221            3.547    674.22  77634.20
         Mo        10.212            3.547    674.22  77634.20
         S          3.855            3.128    251.62  12327.25
         S          3.858            3.128    251.62  12327.25
         S          3.859            3.128    251.62  12327.25
         S          3.755            3.128    251.62  12327.25
         Mo        10.208            3.547    674.22  77634.20
         Mo        10.220            3.547    674.22  77634.20
         S          3.858            3.128    251.62  12327.25
         S          3.859            3.128    251.62  12327.25
         S          3.758            3.128    251.62  12327.25
         S          3.859            3.128    251.62  12327.25
         Mo        10.221            3.547    674.22  77634.20
         Mo        10.212            3.547    674.22  77634.20
         S          3.859            3.128    251.62  12327.25
         S          3.858            3.128    251.62  12327.25
         S          3.859            3.128    251.62  12327.25
         S          3.751            3.128    251.62  12327.25
         Mo        10.208            3.547    674.22  77634.20
         Mo        10.221            3.547    674.22  77634.20
         S          3.858            3.128    251.62  12327.25
         S          3.859            3.128    251.62  12327.25
         S          3.758            3.128    251.62  12327.25
         S          3.859            3.128    251.62  12327.25
         Mo        10.221            3.547    674.22  77634.20
         Mo        10.207            3.547    674.22  77634.20
         S          3.860            3.128    251.62  12327.25
         S          3.858            3.128    251.62  12327.25
         S          3.859            3.128    251.62  12327.25
         S          3.751            3.128    251.62  12327.25
         Mo        10.208            3.547    674.22  77634.20
         Mo        10.221            3.547    674.22  77634.20
         S          3.858            3.128    251.62  12327.25
         S          3.859            3.128    251.62  12327.25
         S          3.758            3.128    251.62  12327.25
         S          3.859            3.128    251.62  12327.25
         Mo        10.221            3.547    674.22  77634.20
         Mo        10.207            3.547    674.22  77634.20
         S          3.859            3.128    251.62  12327.25
         S          3.858            3.128    251.62  12327.25
         S          3.859            3.128    251.62  12327.25
         S          3.751            3.128    251.62  12327.25
         Pd         1.143            3.168    594.51  54471.03

         Molecular C6 ( Ry / a.u.^6 ) =  13793209.90


     number of k points=     4  Gaussian smearing, width (Ry)=  0.0100
                       cart. coord. in units 2pi/alat
        k(    1) = (   0.0000000   0.0000000   0.0000000), wk =   0.5000000
        k(    2) = (   0.0000000  -0.5773499   0.0000000), wk =   0.5000000
        k(    3) = (  -0.5000000  -0.2886744   0.0000000), wk =   0.5000000
        k(    4) = (  -0.5000000  -0.8660242   0.0000000), wk =   0.5000000

     Dense  grid:  7154885 G-vectors     FFT dimensions: ( 180, 180, 512)

     Smooth grid:  3090769 G-vectors     FFT dimensions: ( 135, 135, 400)

     Estimated max dynamical RAM per process >       3.18 GB

     Estimated total dynamical RAM >     114.35 GB

     Initial potential from superposition of free atoms

     starting charge    1681.9391, renormalised to    1682.0000

     negative rho (up, down):  8.886E-04 0.000E+00
     Starting wfcs are 1162 randomized atomic wfcs
     Checking if some PAW data can be deallocated... 

     total cpu time spent up to now is      194.8 secs

     Self-consistent Calculation

     iteration #  1     ecut=    77.00 Ry     beta= 0.20
     Davidson diagonalization with overlap
     ethr =  1.00E-02,  avg # of iterations =  2.0

     Threshold (ethr) on eigenvalues was too large:
     Diagonalizing with lowered threshold

     Davidson diagonalization with overlap
     ethr =  1.58E-04,  avg # of iterations = 15.2

     negative rho (up, down):  2.320E-04 0.000E+00

     total cpu time spent up to now is     2422.6 secs

     total energy              =  -32305.62841256 Ry
     estimated scf accuracy    <       6.71260974 Ry

     iteration #  2     ecut=    77.00 Ry     beta= 0.20
     Davidson diagonalization with overlap
     ethr =  3.99E-04,  avg # of iterations =  5.8

     negative rho (up, down):  2.413E-05 0.000E+00

     total cpu time spent up to now is     2866.0 secs

     total energy              =  -32304.12454808 Ry
     estimated scf accuracy    <       3.53028123 Ry

     iteration #  3     ecut=    77.00 Ry     beta= 0.20
     Davidson diagonalization with overlap
     ethr =  2.10E-04,  avg # of iterations = 14.2

     negative rho (up, down):  2.240E-05 0.000E+00

     total cpu time spent up to now is     3469.7 secs

     total energy              =  -32304.70131561 Ry
     estimated scf accuracy    <      11.67052877 Ry

     iteration #  4     ecut=    77.00 Ry     beta= 0.20
     Davidson diagonalization with overlap
     ethr =  2.10E-04,  avg # of iterations =  9.8

     negative rho (up, down):  2.059E-05 0.000E+00

     total cpu time spent up to now is     3934.1 secs

     total energy              =  -32304.84327679 Ry
     estimated scf accuracy    <       0.86433245 Ry

     iteration #  5     ecut=    77.00 Ry     beta= 0.20
     Davidson diagonalization with overlap
     ethr =  5.14E-05,  avg # of iterations = 13.8

     negative rho (up, down):  2.552E-05 0.000E+00

     total cpu time spent up to now is     4961.1 secs

     total energy              =  -32305.42996979 Ry
     estimated scf accuracy    <       0.35324330 Ry

     iteration #  6     ecut=    77.00 Ry     beta= 0.20
     Davidson diagonalization with overlap
     ethr =  2.10E-05,  avg # of iterations = 13.0

     negative rho (up, down):  5.127E-05 0.000E+00

     total cpu time spent up to now is     5634.3 secs

     total energy              =  -32305.53962755 Ry
     estimated scf accuracy    <       0.15801617 Ry

     iteration #  7     ecut=    77.00 Ry     beta= 0.20
     Davidson diagonalization with overlap
     c_bands:  4 eigenvalues not converged
     c_bands:  4 eigenvalues not converged
     c_bands:  5 eigenvalues not converged
     c_bands:  5 eigenvalues not converged
     ethr =  9.39E-06,  avg # of iterations = 40.0

     negative rho (up, down):  2.259E-04 0.000E+00

     total cpu time spent up to now is     6892.3 secs

     total energy              =  -32305.56437795 Ry
     estimated scf accuracy    <       0.12102809 Ry

     iteration #  8     ecut=    77.00 Ry     beta= 0.20
     Davidson diagonalization with overlap
     c_bands:  1 eigenvalues not converged
     c_bands:  5 eigenvalues not converged
     c_bands:  3 eigenvalues not converged
     ethr =  7.20E-06,  avg # of iterations = 67.5

     negative rho (up, down):  8.318E-04 0.000E+00

     total cpu time spent up to now is     8597.2 secs

     total energy              =  -32305.60730345 Ry
     estimated scf accuracy    <       0.04984763 Ry

     iteration #  9     ecut=    77.00 Ry     beta= 0.20
     Davidson diagonalization with overlap
     c_bands:  3 eigenvalues not converged
     c_bands:  3 eigenvalues not converged
     c_bands:  5 eigenvalues not converged
     c_bands:  1 eigenvalues not converged
     ethr =  2.96E-06,  avg # of iterations = 30.0

     negative rho (up, down):  6.589E-04 0.000E+00

     total cpu time spent up to now is     9834.2 secs

     total energy              =  -32305.61388897 Ry
     estimated scf accuracy    <       0.08240750 Ry

     iteration # 10     ecut=    77.00 Ry     beta= 0.20
     Davidson diagonalization with overlap
     c_bands:  3 eigenvalues not converged
     c_bands:  2 eigenvalues not converged
     c_bands:  4 eigenvalues not converged
     ethr =  2.96E-06,  avg # of iterations = 20.5

     negative rho (up, down):  4.688E-04 0.000E+00

     total cpu time spent up to now is    10439.8 secs

     total energy              =  -32305.59696216 Ry
     estimated scf accuracy    <       0.03026878 Ry

     iteration # 11     ecut=    77.00 Ry     beta= 0.20
     Davidson diagonalization with overlap
     c_bands:  3 eigenvalues not converged
     c_bands:  2 eigenvalues not converged
     c_bands:  4 eigenvalues not converged
     c_bands:  2 eigenvalues not converged
     ethr =  1.80E-06,  avg # of iterations = 25.0

     negative rho (up, down):  5.562E-04 0.000E+00

     total cpu time spent up to now is    11431.1 secs

     total energy              =  -32305.61622064 Ry
     estimated scf accuracy    <       0.00719883 Ry

     iteration # 12     ecut=    77.00 Ry     beta= 0.20
     Davidson diagonalization with overlap
     c_bands:  1 eigenvalues not converged
     c_bands:  2 eigenvalues not converged
     ethr =  4.28E-07,  avg # of iterations = 15.2

     negative rho (up, down):  5.572E-04 0.000E+00

     total cpu time spent up to now is    12139.3 secs

     total energy              =  -32305.62003955 Ry
     estimated scf accuracy    <       0.00458797 Ry

     iteration # 13     ecut=    77.00 Ry     beta= 0.20
     Davidson diagonalization with overlap
     c_bands:  1 eigenvalues not converged
     ethr =  2.73E-07,  avg # of iterations = 12.5

     negative rho (up, down):  6.863E-04 0.000E+00

     total cpu time spent up to now is    12855.9 secs

     total energy              =  -32305.61662463 Ry
     estimated scf accuracy    <       0.01072837 Ry

     iteration # 14     ecut=    77.00 Ry     beta= 0.20
     Davidson diagonalization with overlap
     ethr =  2.73E-07,  avg # of iterations =  6.8

     negative rho (up, down):  8.204E-04 0.000E+00

     total cpu time spent up to now is    13354.5 secs

     total energy              =  -32305.61632579 Ry
     estimated scf accuracy    <       0.00177627 Ry

     iteration # 15     ecut=    77.00 Ry     beta= 0.20
     Davidson diagonalization with overlap
     ethr =  1.06E-07,  avg # of iterations = 15.0

     negative rho (up, down):  7.803E-04 0.000E+00

     total cpu time spent up to now is    14620.8 secs

     total energy              =  -32305.61797052 Ry
     estimated scf accuracy    <       0.00343137 Ry

     iteration # 16     ecut=    77.00 Ry     beta= 0.20
     Davidson diagonalization with overlap
     ethr =  1.06E-07,  avg # of iterations =  6.0

     negative rho (up, down):  8.375E-04 0.000E+00

     total cpu time spent up to now is    15148.0 secs

     total energy              =  -32305.61819052 Ry
     estimated scf accuracy    <       0.00034563 Ry

     iteration # 17     ecut=    77.00 Ry     beta= 0.20
     Davidson diagonalization with overlap
     ethr =  2.05E-08,  avg # of iterations = 18.5

     negative rho (up, down):  8.976E-04 0.000E+00

     total cpu time spent up to now is    16389.0 secs

     total energy              =  -32305.61866546 Ry
     estimated scf accuracy    <       0.00025656 Ry

     iteration # 18     ecut=    77.00 Ry     beta= 0.20
     Davidson diagonalization with overlap
     ethr =  1.53E-08,  avg # of iterations =  8.5

     negative rho (up, down):  9.214E-04 0.000E+00

     total cpu time spent up to now is    16956.5 secs

     total energy              =  -32305.61873572 Ry
     estimated scf accuracy    <       0.00000928 Ry

     iteration # 19     ecut=    77.00 Ry     beta= 0.20
     Davidson diagonalization with overlap
     ethr =  5.52E-10,  avg # of iterations = 35.0

     negative rho (up, down):  9.167E-04 0.000E+00

     total cpu time spent up to now is    21106.4 secs

     total energy              =  -32305.61880549 Ry
     estimated scf accuracy    <       0.00027453 Ry

     iteration # 20     ecut=    77.00 Ry     beta= 0.20
     Davidson diagonalization with overlap
     ethr =  5.52E-10,  avg # of iterations = 11.5

     negative rho (up, down):  9.086E-04 0.000E+00

     total cpu time spent up to now is    22059.6 secs

     total energy              =  -32305.61876906 Ry
     estimated scf accuracy    <       0.00009768 Ry

     iteration # 21     ecut=    77.00 Ry     beta= 0.20
     Davidson diagonalization with overlap
     ethr =  5.52E-10,  avg # of iterations = 12.2

     negative rho (up, down):  9.165E-04 0.000E+00

     total cpu time spent up to now is    23493.2 secs

     total energy              =  -32305.61879652 Ry
     estimated scf accuracy    <       0.00000320 Ry

     iteration # 22     ecut=    77.00 Ry     beta= 0.20
     Davidson diagonalization with overlap
     ethr =  1.90E-10,  avg # of iterations =  6.5

     negative rho (up, down):  9.261E-04 0.000E+00

     total cpu time spent up to now is    23994.2 secs

     End of self-consistent calculation

          k = 0.0000 0.0000 0.0000 (386245 PWs)   bands (ev):

   -87.4709 -66.5554 -66.5552 -66.5547 -66.5539 -66.5365 -66.5365 -66.5362
   -66.5342 -66.5341 -66.5341 -66.5340 -66.5340 -66.5340 -66.5340 -66.5340
   -66.5339 -66.5339 -66.5338 -66.5338 -66.5326 -66.5326 -66.5325 -66.5325
   -66.5325 -66.5325 -66.5323 -66.5323 -66.5223 -66.5158 -66.5158 -66.5147
   -66.5146 -66.5146 -66.5141 -66.5128 -66.5128 -66.5128 -66.5127 -66.5127
   -66.5127 -66.5126 -66.5126 -66.5126 -66.5126 -66.5126 -66.5126 -66.5125
   -66.5125 -66.5124 -66.5124 -66.5124 -66.5122 -66.5112 -66.5112 -66.5112
   -66.5111 -66.5111 -66.5111 -66.5111 -66.5111 -66.5111 -66.4892 -66.4766
   -66.4766 -53.6276 -53.1189 -53.1189 -40.8828 -40.8828 -40.8828 -40.8826
   -40.8826 -40.8826 -40.8819 -40.8819 -40.8819 -40.8785 -40.8778 -40.8778
   -40.8075 -40.8075 -40.8075 -40.8075 -40.8074 -40.8074 -40.8073 -40.8073
   -40.8073 -40.8073 -40.8073 -40.8072 -40.8069 -40.8069 -40.8066 -40.8066
   -40.8065 -40.8065 -40.8065 -40.8065 -40.8029 -40.8004 -40.8004 -40.7932
   -40.7150 -40.7148 -40.7141 -40.7133 -40.6812 -40.6812 -40.6811 -40.6811
   -40.6811 -40.6810 -40.6810 -40.6810 -40.6810 -40.6810 -40.6809 -40.6809
   -40.6809 -40.6801 -40.6801 -40.6801 -40.6801 -40.6801 -40.6801 -40.6801
   -40.6800 -40.6763 -40.6762 -40.6754 -40.6734 -40.6733 -40.6733 -40.6732
   -40.6732 -40.6732 -40.6732 -40.6731 -40.6731 -40.6730 -40.6730 -40.6730
   -40.6724 -40.6724 -40.6724 -40.6724 -40.6723 -40.6723 -40.6712 -40.6712
   -40.6709 -40.6703 -40.6702 -40.6549 -40.6462 -40.6461 -40.6461 -40.6461
   -40.6460 -40.6460 -40.6460 -40.6460 -40.6459 -40.6459 -40.6459 -40.6459
   -40.6457 -40.6457 -40.6450 -40.6450 -40.6450 -40.6450 -40.6450 -40.6449
   -40.6410 -40.6384 -40.6351 -40.6351 -40.6343 -40.6343 -40.6343 -40.6336
   -40.6336 -40.6326 -40.6314 -40.6314 -40.6314 -40.6313 -40.6313 -40.6313
   -40.6312 -40.6312 -40.6312 -40.6312 -40.6312 -40.6312 -40.6312 -40.6311
   -40.6310 -40.6310 -40.6310 -40.6309 -40.6304 -40.6304 -40.6304 -40.6304
   -40.6304 -40.6303 -40.6303 -40.6303 -40.6303 -40.6163 -40.5982 -40.5982
   -40.5678 -40.5677 -40.5677 -40.5676 -40.5676 -40.5676 -40.5666 -40.5666
   -40.5666 -40.5634 -40.5634 -40.5589 -40.5214 -40.5207 -40.5206 -40.5206
   -40.5206 -40.5206 -40.5205 -40.5205 -40.5205 -40.5205 -40.5204 -40.5204
   -40.5204 -40.5194 -40.5194 -40.5194 -40.5194 -40.5194 -40.5194 -40.5151
   -40.5151 -40.5111 -40.5111 -40.5081 -40.4730 -40.4730 -40.4729 -40.4729
   -40.4718 -40.4718 -40.4643 -40.4643 -20.0514 -19.9822 -19.8893 -19.8063
   -19.2210 -19.1781 -19.1781 -19.1777 -19.1776 -19.1776 -19.1575 -19.1138
   -19.1138 -19.1130 -19.1126 -19.1126 -19.0677 -19.0272 -19.0272 -19.0265
   -19.0259 -19.0259 -18.9697 -18.9529 -18.9529 -18.9526 -18.9523 -18.9523
   -18.8156 -18.6840 -18.5427 -18.4630 -18.4140 -18.3970 -18.3969 -18.3969
   -18.3969 -18.3962 -18.3458 -18.2884 -18.2884 -18.2878 -18.2877 -18.2865
   -18.2194 -18.1805 -18.1805 -18.1792 -18.1792 -18.1787 -18.1222 -18.1053
   -18.1052 -18.1046 -18.1046 -18.1046 -18.0717 -18.0531 -18.0531 -18.0527
   -18.0527 -18.0527 -18.0471 -18.0212 -18.0212 -18.0204 -18.0204 -18.0199
   -18.0120 -18.0089 -18.0089 -18.0053 -17.9820 -17.9820 -17.9818 -17.9743
   -17.9743 -17.9740 -17.9740 -17.9719 -17.9571 -17.9434 -17.9433 -17.9377
   -17.9260 -17.9260 -17.9258 -17.9257 -17.9237 -17.9114 -17.9048 -17.9047
   -17.8713 -17.8459 -17.8459 -17.8446 -17.8416 -17.8416 -17.8409 -17.8408
   -17.8405 -17.8191 -17.8095 -17.8095 -17.8003 -17.7907 -17.7907 -17.7900
   -17.7892 -17.7892 -17.7857 -17.7833 -17.7833 -17.7710 -17.7695 -17.7695
   -17.7554 -17.7502 -17.7501 -17.7497 -17.7485 -17.7485 -17.7268 -17.7251
   -17.7251 -17.7249 -17.7244 -17.7244 -11.9118 -11.7486 -11.7479 -11.7479
   -11.6816 -11.6641 -11.6641 -11.6558 -11.5585 -11.5585 -11.5553 -11.4722
   -11.4722 -11.4709 -11.3567 -11.2085 -11.1671 -11.1671 -11.1665 -11.1665
   -11.1661 -11.0973 -11.0672 -11.0672 -11.0646 -11.0646 -11.0645 -11.0592
   -11.0047 -11.0038 -11.0038 -10.9918 -10.9918 -10.9915 -10.9900 -10.9830
   -10.9830 -10.9816 -10.9815 -10.9808 -10.9220 -10.9220 -10.9100 -10.9049
   -10.9049 -10.9047 -10.8522 -10.8522 -10.8439 -10.8382 -10.8382 -10.8379
   -10.8130 -10.7870 -10.7869 -10.7811 -10.7799 -10.7799 -10.7724 -10.7724
   -10.7722 -10.7719 -10.7465 -10.7465 -10.7333 -10.7320 -10.7320 -10.7304
   -10.7299 -10.7299 -10.7293 -10.7288 -10.7288 -10.7282 -10.7275 -10.7275
   -10.6963 -10.6963 -10.6917 -10.6903 -10.6897 -10.6897 -10.6656 -10.6656
   -10.6631 -10.6627 -10.6621 -10.6621 -10.6519 -10.6516 -10.6516 -10.5789
   -10.5696 -10.5696 -10.5365 -10.5056 -10.5056 -10.5034 -10.5034 -10.5032
   -10.2195 -10.1145 -10.1144 -10.0490  -9.9064  -9.9064  -9.8449  -9.7382
    -9.7382  -9.7298  -9.7297  -9.7295  -9.7284  -9.7025  -9.7025  -9.6978
    -9.6978  -9.6961  -9.6959  -9.6959  -9.6954  -9.6802  -9.6775  -9.6775
    -9.6735  -9.6735  -9.6713  -9.6631  -9.5587  -9.5587  -9.5574  -9.5546
    -9.5546  -9.5519  -9.5519  -9.5518  -9.5479  -9.5479  -9.5440  -9.5436
    -9.5422  -9.5422  -9.5375  -9.4914  -9.4914  -9.4835  -9.4835  -9.4758
    -9.4723  -9.4712  -9.4712  -9.4710  -9.4709  -9.4680  -9.4413  -9.4413
    -9.4381  -9.4379  -9.4365  -9.4365  -9.4103  -9.3744  -9.3744  -9.3735
    -9.3735  -9.3729  -9.2830  -9.2585  -9.2585  -9.2497  -9.2497  -9.2492
    -9.2485  -9.2347  -9.2347  -9.2333  -9.2329  -9.2329  -9.1545  -9.1545
    -9.1433  -9.1430  -9.1430  -9.1408  -9.1092  -9.1092  -9.1057  -9.1054
    -9.1054  -9.1042  -9.0537  -9.0347  -9.0347  -9.0260  -9.0258  -9.0258
    -8.9172  -8.9172  -8.9148  -8.8984  -8.8984  -8.8902  -8.8748  -8.8748
    -8.8615  -8.8566  -8.8566  -8.8564  -8.8466  -8.8465  -8.8465  -8.8429
    -8.8429  -8.8412  -8.7843  -8.7843  -8.7582  -8.7582  -8.7580  -8.7558
    -8.7509  -8.7509  -8.7496  -8.7495  -8.7495  -8.7484  -8.6614  -8.6591
    -8.6591  -8.6549  -8.6537  -8.6537  -8.5774  -8.5774  -8.5760  -8.5721
    -8.5698  -8.5698  -8.5175  -8.5175  -8.5167  -8.5156  -8.5145  -8.5145
    -8.4445  -8.2973  -8.2973  -8.2931  -8.2931  -8.2869  -8.2869  -8.2821
    -8.2821  -8.2125  -8.2125  -8.2096  -8.2094  -8.2093  -8.2093  -8.1962
    -8.1962  -8.1892  -8.1884  -8.1882  -8.1882  -8.1718  -8.1718  -8.1646
    -8.1632  -8.1631  -8.1630  -8.1489  -8.1489  -8.1461  -8.1452  -8.1452
    -8.1451  -8.1171  -7.9206  -7.8001  -7.8000  -7.7877  -7.7334  -7.7333
    -7.6979  -7.6459  -7.6459  -7.6064  -7.5742  -7.5742  -7.5638  -7.5578
    -7.5577  -7.5535  -7.5529  -7.5528  -7.5197  -7.4969  -7.4969  -7.4710
    -7.4690  -7.4690  -7.4687  -7.4686  -7.4683  -7.4683  -7.4680  -7.4680
    -7.4552  -7.4552  -7.4473  -7.4471  -7.4461  -7.4461  -7.4331  -7.4330
    -7.4241  -7.4238  -7.4221  -7.4221  -7.4117  -7.4116  -7.4082  -7.4079
    -7.4066  -7.4066  -7.3989  -7.3469  -7.3469  -7.3383  -7.3354  -7.3354
    -7.3330  -7.3315  -7.3314  -7.3312  -7.3312  -7.3297  -7.3154  -7.2486
    -7.2257  -7.2256  -7.2193  -7.2183  -7.2183  -7.2128  -7.2074  -7.2074
    -7.2025  -7.2025  -7.1996  -7.1837  -7.1837  -7.1700  -7.1700  -7.1541
    -7.1541  -7.1417  -7.1416  -7.0453  -7.0026  -7.0026  -6.9932  -6.9932
    -6.9913  -6.8068  -6.7787  -6.7787  -6.7663  -6.7663  -6.7655  -6.7318
    -6.7318  -6.7214  -6.6842  -6.6841  -6.6618  -6.6589  -6.6125  -6.6125
    -6.5893  -6.5635  -6.5501  -6.5500  -6.5396  -6.5360  -6.5360  -6.5329
    -6.5329  -6.5314  -6.4874  -6.4718  -6.4717  -6.4656  -6.4656  -6.4638
    -6.4503  -6.4434  -6.4433  -6.4368  -6.4368  -6.4360  -6.4352  -6.4352
    -6.4339  -6.4278  -6.4275  -6.4274  -6.4272  -6.4272  -6.4269  -6.4085
    -6.3998  -6.3998  -6.3689  -6.3600  -6.3600  -6.3391  -6.3371  -6.3371
    -6.2950  -6.2950  -6.2675  -6.2670  -6.2670  -6.2670  -6.2573  -6.2573
    -6.2374  -6.2360  -6.2355  -6.2355  -6.2168  -6.2168  -6.2035  -6.2032
    -6.2014  -6.2014  -6.1823  -6.1823  -6.1788  -6.1783  -6.1776  -6.1775
    -6.1103  -5.8551  -5.8551  -5.6100  -5.5430  -5.5430  -5.2826  -5.2419
    -5.0892  -3.8728  -3.7782  -3.7782  -3.7771  -3.7771  -3.7761  -3.7541
    -3.7530  -3.7519  -3.7519  -3.7509  -3.7508  -3.7029  -3.6144  -3.6143
    -3.6110  -3.6110  -3.6084  -3.6077  -3.6045  -3.6045  -3.6025  -3.6025
    -3.5989  -3.4764  -3.4230  -3.4210  -3.4210  -3.4190  -3.4190  -3.4040
    -3.4040  -3.4038  -3.4032  -3.4031  -3.4018  -3.4018  -3.3841  -3.3841
    -3.3802  -3.3801  -3.3754  -3.3732  -3.3730  -3.3730  -3.3600  -3.3596
    -3.3596  -3.3467  -3.3447  -3.3447  -3.3445  -3.3427  -3.3421  -3.3421
    -3.3372  -3.3371  -3.3324  -3.3311  -3.3311  -3.2740  -3.2720  -3.2707
    -3.2694  -3.2694  -3.2669  -3.2669  -3.2655  -3.2652  -3.2651  -3.2629
    -3.2628  -3.2125  -3.2123  -3.2119  -3.2118  -3.2094  -3.2092  -3.1921
    -3.1393  -3.1391  -3.1351  -3.1350  -3.1320  -2.9906  -2.9898  -2.9897
    -2.9885  -2.9885  -2.9881  -2.9713  -2.9706  -2.9705  -2.9564  -2.9020
    -2.9017  -2.9011  -2.9007  -2.8996  -2.8992  -2.8936  -2.8936  -2.8916
    -2.8913  -2.8909  -2.8863  -2.8863  -2.8785  -2.8782  -2.8744  -2.8742
    -2.8737  -2.8704  -2.8704  -2.8614  -2.8614  -2.8604  -2.8601  -2.8598
    -2.8596  -2.8594  -2.8593  -2.8014  -2.8013  -2.8013  -2.7980  -2.7493
    -2.7493  -2.7453  -2.7441  -2.7441  -2.7347  -2.7343  -2.7339  -2.7335
    -2.7330  -2.7326  -2.7323  -2.7318  -2.7318  -2.7204  -2.7203  -2.6903
    -2.6699  -2.6699  -2.6674  -2.6662  -2.6661  -2.6630  -2.6630  -2.6057
    -2.6056  -2.5675  -2.5675  -2.5474  -2.5465  -2.5461  -2.5449  -2.5446
    -2.5434  -2.5265  -2.4781  -2.4779  -2.4776  -2.4760  -2.4758  -2.3696
    -2.3391

          k = 0.0000-0.5773 0.0000 (386352 PWs)   bands (ev):

   -87.4709 -66.5507 -66.5492 -66.5491 -66.5490 -66.5490 -66.5476 -66.5476
   -66.5471 -66.5390 -66.5385 -66.5384 -66.5383 -66.5383 -66.5370 -66.5370
   -66.5346 -66.5254 -66.5242 -66.5234 -66.5234 -66.5234 -66.5233 -66.5232
   -66.5232 -66.5232 -66.5232 -66.5230 -66.5225 -66.5218 -66.5218 -66.5218
   -66.5218 -66.5190 -66.5190 -66.5189 -66.5188 -66.5188 -66.5174 -66.5174
   -66.5154 -66.5145 -66.5139 -66.5128 -66.5127 -66.5127 -66.5126 -66.5126
   -66.5125 -66.5125 -66.5125 -66.5113 -66.5112 -66.5111 -66.5111 -66.5111
   -66.5083 -66.5082 -66.5081 -66.5081 -66.5067 -66.5067 -66.4893 -66.4766
   -66.4765 -53.6276 -53.1189 -53.1189 -40.8526 -40.8512 -40.8512 -40.8511
   -40.8510 -40.8510 -40.8510 -40.8510 -40.8509 -40.8503 -40.8503 -40.8503
   -40.8502 -40.8492 -40.8435 -40.8394 -40.8244 -40.8243 -40.8242 -40.8241
   -40.8239 -40.8234 -40.8234 -40.8193 -40.8123 -40.8122 -40.8121 -40.8121
   -40.8114 -40.8114 -40.8094 -40.7994 -40.7616 -40.7616 -40.7616 -40.7615
   -40.7614 -40.7614 -40.7614 -40.7614 -40.7606 -40.7606 -40.7606 -40.7606
   -40.7602 -40.7562 -40.7525 -40.7517 -40.7044 -40.7028 -40.7027 -40.7027
   -40.7026 -40.7019 -40.7019 -40.6988 -40.6933 -40.6933 -40.6932 -40.6931
   -40.6922 -40.6922 -40.6884 -40.6867 -40.6821 -40.6819 -40.6819 -40.6818
   -40.6818 -40.6811 -40.6811 -40.6758 -40.6545 -40.6524 -40.6524 -40.6523
   -40.6523 -40.6522 -40.6522 -40.6522 -40.6521 -40.6521 -40.6514 -40.6514
   -40.6514 -40.6514 -40.6512 -40.6492 -40.6436 -40.6435 -40.6435 -40.6434
   -40.6428 -40.6427 -40.6426 -40.6349 -40.6345 -40.6330 -40.6318 -40.6318
   -40.6317 -40.6317 -40.6314 -40.6313 -40.6313 -40.6312 -40.6312 -40.6311
   -40.6311 -40.6311 -40.6307 -40.6307 -40.6304 -40.6303 -40.6303 -40.6303
   -40.6276 -40.6272 -40.6256 -40.6226 -40.6225 -40.6224 -40.6224 -40.6216
   -40.6216 -40.6176 -40.6010 -40.6009 -40.6008 -40.6008 -40.6008 -40.6008
   -40.6007 -40.6007 -40.6005 -40.6000 -40.5997 -40.5997 -40.5997 -40.5997
   -40.5995 -40.5982 -40.5939 -40.5884 -40.5662 -40.5662 -40.5661 -40.5661
   -40.5660 -40.5660 -40.5660 -40.5660 -40.5652 -40.5650 -40.5650 -40.5650
   -40.5650 -40.5628 -40.5581 -40.5548 -40.5540 -40.5539 -40.5539 -40.5538
   -40.5528 -40.5528 -40.5518 -40.5387 -40.5347 -40.5346 -40.5346 -40.5345
   -40.5335 -40.5335 -40.5327 -40.5280 -40.5177 -40.5176 -40.5175 -40.5175
   -40.5165 -40.5165 -40.5110 -40.5024 -40.4871 -40.4869 -40.4869 -40.4868
   -40.4858 -40.4858 -40.4852 -40.4735 -19.8164 -19.8120 -19.7539 -19.7401
   -19.6638 -19.6460 -19.5761 -19.5677 -19.3788 -19.3746 -19.3211 -19.3072
   -19.2364 -19.2174 -19.1508 -19.1415 -18.7590 -18.6984 -18.6795 -18.6593
   -18.6591 -18.6589 -18.6483 -18.6051 -18.6049 -18.6044 -18.5888 -18.5661
   -18.5508 -18.5308 -18.5300 -18.5299 -18.4995 -18.4897 -18.4781 -18.4646
   -18.4642 -18.4638 -18.4380 -18.4281 -18.4088 -18.4071 -18.3894 -18.3729
   -18.3635 -18.3614 -18.3342 -18.3294 -18.3099 -18.2976 -18.2684 -18.2547
   -18.2433 -18.2389 -18.1837 -18.1720 -18.1628 -18.1475 -18.1469 -18.1469
   -18.1027 -18.0612 -18.0604 -18.0596 -18.0426 -18.0347 -18.0320 -18.0320
   -18.0315 -18.0314 -18.0161 -18.0030 -18.0017 -18.0017 -17.9955 -17.9806
   -17.9801 -17.9790 -17.9720 -17.9637 -17.9615 -17.9605 -17.9587 -17.9586
   -17.9336 -17.9268 -17.9266 -17.9261 -17.9229 -17.9159 -17.9148 -17.9147
   -17.9044 -17.9014 -17.8659 -17.8618 -17.8552 -17.8443 -17.8441 -17.8436
   -17.8122 -17.8002 -17.7999 -17.7990 -17.7735 -17.7668 -17.7661 -17.7653
   -17.7499 -17.7494 -17.7485 -17.7468 -17.7464 -17.7461 -17.7381 -17.7371
   -17.7225 -17.7192 -17.7028 -17.6957 -17.6856 -17.6793 -17.6674 -17.6633
   -17.6550 -17.6525 -17.6491 -17.6487 -11.6606 -11.6432 -11.4755 -11.4471
   -11.4427 -11.4425 -11.4392 -11.4121 -11.4101 -11.3982 -11.3736 -11.3658
   -11.3594 -11.3592 -11.3300 -11.3189 -11.2760 -11.2759 -11.2586 -11.2575
   -11.2518 -11.2442 -11.2184 -11.2044 -11.1939 -11.1937 -11.1894 -11.1874
   -11.1827 -11.1826 -11.1590 -11.1552 -11.1472 -11.1189 -11.1102 -11.1073
   -11.1046 -11.0965 -11.0960 -11.0956 -11.0916 -11.0677 -11.0657 -11.0638
   -11.0394 -11.0292 -10.9879 -10.9817 -10.9811 -10.9773 -10.8747 -10.8670
   -10.8630 -10.8385 -10.8384 -10.8283 -10.8087 -10.7975 -10.7925 -10.7588
   -10.7521 -10.7501 -10.7436 -10.7426 -10.7425 -10.7421 -10.7399 -10.7363
   -10.7248 -10.7244 -10.7204 -10.7201 -10.7191 -10.7180 -10.7179 -10.7174
   -10.7168 -10.7164 -10.6974 -10.6892 -10.6834 -10.6833 -10.6711 -10.6696
   -10.6660 -10.6657 -10.4781 -10.4638 -10.4614 -10.4449 -10.4058 -10.3989
   -10.3212 -10.3015 -10.2435 -10.1662 -10.1449 -10.0706 -10.0673 -10.0647
   -10.0645 -10.0181 -10.0120 -10.0070 -10.0062  -9.9807  -9.9793  -9.9790
    -9.9673  -9.9401  -9.9393  -9.9305  -9.9304  -9.9295  -9.9115  -9.8513
    -9.8449  -9.8440  -9.8427  -9.8267  -9.8265  -9.8262  -9.8248  -9.8239
    -9.7957  -9.7802  -9.7646  -9.7197  -9.7150  -9.7030  -9.6996  -9.6991
    -9.6822  -9.6710  -9.6581  -9.6383  -9.6383  -9.6358  -9.6034  -9.5831
    -9.5818  -9.5814  -9.5590  -9.5581  -9.5378  -9.5243  -9.4978  -9.4675
    -9.4649  -9.4633  -9.4632  -9.4625  -9.4620  -9.4612  -9.4383  -9.4330
    -9.4145  -9.4117  -9.3957  -9.3893  -9.3881  -9.3855  -9.3736  -9.3686
    -9.3550  -9.3460  -9.3445  -9.3431  -9.2776  -9.2665  -9.1772  -9.1695
    -9.1605  -9.1553  -9.1331  -9.1070  -9.1059  -9.1040  -9.0940  -9.0867
    -9.0834  -9.0822  -9.0346  -9.0270  -8.9993  -8.9944  -8.9868  -8.9801
    -8.9657  -8.9558  -8.9543  -8.9511  -8.9478  -8.9370  -8.9367  -8.9364
    -8.8864  -8.8797  -8.8656  -8.8629  -8.8589  -8.8510  -8.8509  -8.8499
    -8.8158  -8.8146  -8.8120  -8.8115  -8.8003  -8.8002  -8.7975  -8.7912
    -8.7903  -8.7891  -8.7877  -8.7876  -8.7724  -8.7713  -8.7669  -8.7653
    -8.7585  -8.7493  -8.7395  -8.7394  -8.7278  -8.7276  -8.7108  -8.7106
    -8.7088  -8.7083  -8.7059  -8.7044  -8.6807  -8.6770  -8.6592  -8.6570
    -8.6480  -8.6465  -8.6253  -8.6098  -8.5701  -8.5701  -8.5225  -8.5012
    -8.4435  -8.4410  -8.4139  -8.4050  -8.3532  -8.3410  -8.2778  -8.2721
    -8.2062  -8.1734  -8.1037  -8.0583  -8.0579  -8.0523  -8.0503  -8.0434
    -8.0397  -8.0353  -8.0321  -7.9907  -7.9866  -7.9077  -7.8987  -7.8756
    -7.8326  -7.7986  -7.7713  -7.7699  -7.7699  -7.7532  -7.7477  -7.7423
    -7.7418  -7.7362  -7.7292  -7.7229  -7.7206  -7.7205  -7.7193  -7.7190
    -7.7141  -7.7126  -7.7101  -7.7058  -7.7020  -7.7009  -7.6987  -7.6980
    -7.6980  -7.6942  -7.6908  -7.6886  -7.6877  -7.6832  -7.6749  -7.6742
    -7.6738  -7.6566  -7.6525  -7.6428  -7.6416  -7.6336  -7.6268  -7.6223
    -7.6210  -7.6208  -7.6198  -7.6153  -7.6137  -7.6125  -7.5954  -7.5915
    -7.5914  -7.5900  -7.5716  -7.5691  -7.5424  -7.5408  -7.5289  -7.5266
    -7.5236  -7.5231  -7.5226  -7.5220  -7.5082  -7.5039  -7.5031  -7.4919
    -7.4893  -7.4786  -7.4752  -7.4667  -7.4641  -7.4639  -7.3872  -7.3808
    -7.3778  -7.3776  -7.3512  -7.3380  -7.1722  -7.1148  -7.1075  -7.1047
    -7.0960  -7.0874  -7.0774  -7.0727  -7.0399  -7.0348  -7.0305  -7.0267
    -7.0145  -7.0126  -6.9588  -6.9515  -6.9486  -6.9444  -6.9439  -6.9414
    -6.9211  -6.9148  -6.8851  -6.8682  -6.8394  -6.8363  -6.8286  -6.8169
    -6.8050  -6.7888  -6.7855  -6.7802  -6.7770  -6.7567  -6.7461  -6.7333
    -6.6979  -6.6876  -6.6431  -6.6117  -6.6061  -6.6002  -6.5630  -6.5493
    -6.5474  -6.5426  -6.5396  -6.5384  -6.5327  -6.5285  -6.5239  -6.5222
    -6.5159  -6.5152  -6.5120  -6.5109  -6.5084  -6.5084  -6.5076  -6.5071
    -6.4464  -6.4220  -6.3971  -6.3785  -6.3289  -6.3262  -6.2795  -6.2731
    -6.2607  -6.2559  -6.2356  -6.2344  -6.2204  -6.2156  -6.2119  -6.2067
    -6.2055  -6.2050  -6.2007  -6.1998  -6.1778  -6.1748  -6.1658  -6.1576
    -6.1354  -6.1318  -6.1318  -6.1275  -6.1259  -6.1199  -5.9687  -5.9585
    -5.9153  -5.9150  -5.8551  -5.8539  -5.7918  -5.7915  -5.7763  -5.7713
    -5.7474  -5.7442  -5.6021  -5.5988  -5.5430  -5.5411  -5.5196  -5.5181
    -5.2538  -4.0285  -4.0158  -4.0143  -4.0137  -3.8968  -3.8635  -3.8502
    -3.8356  -3.8317  -3.8302  -3.7704  -3.7699  -3.7550  -3.7524  -3.7430
    -3.7351  -3.7335  -3.7249  -3.7247  -3.7146  -3.6403  -3.6013  -3.5963
    -3.5956  -3.5484  -3.5293  -3.5289  -3.5287  -3.5266  -3.5248  -3.4814
    -3.4810  -3.4646  -3.4485  -3.4480  -3.4451  -3.4446  -3.4434  -3.4241
    -3.4066  -3.4054  -3.4040  -3.4015  -3.3959  -3.3936  -3.3931  -3.3746
    -3.3742  -3.3726  -3.3479  -3.3463  -3.3461  -3.3398  -3.3396  -3.3038
    -3.2774  -3.2745  -3.2741  -3.2730  -3.2730  -3.2703  -3.2694  -3.2544
    -3.2356  -3.2295  -3.2201  -3.2131  -3.2116  -3.2101  -3.2097  -3.2087
    -3.2075  -3.1984  -3.1797  -3.1687  -3.1655  -3.1640  -3.1616  -3.1548
    -3.1512  -3.1393  -3.1370  -3.1328  -3.1288  -3.1129  -3.1039  -3.1002
    -3.0956  -3.0951  -3.0938  -3.0916  -3.0892  -3.0892  -3.0879  -3.0265
    -3.0263  -2.9995  -2.9946  -2.9937  -2.9860  -2.9850  -2.9820  -2.9512
    -2.9510  -2.9501  -2.9497  -2.9494  -2.9488  -2.9391  -2.9379  -2.9361
    -2.9336  -2.9313  -2.9270  -2.9188  -2.9182  -2.9020  -2.8983  -2.8969
    -2.8945  -2.8907  -2.8833  -2.8822  -2.8795  -2.8763  -2.8751  -2.8724
    -2.8703  -2.8627  -2.8606  -2.8577  -2.8563  -2.8149  -2.8148  -2.8122
    -2.8103  -2.8028  -2.8018  -2.7823  -2.7812  -2.7225  -2.7156  -2.7135
    -2.7128  -2.6634  -2.6375  -2.6358  -2.6341  -2.5644  -2.5390  -2.5378
    -2.5015  -2.4988  -2.4834  -2.4829  -2.4702  -2.4679  -2.4533  -2.4527
    -2.4482  -2.4466  -2.4431  -2.4277  -2.3205  -2.3088  -2.3071  -2.2966
    -2.2846

          k =-0.5000-0.2887 0.0000 (386352 PWs)   bands (ev):

   -87.4709 -66.5507 -66.5492 -66.5490 -66.5490 -66.5489 -66.5477 -66.5476
   -66.5471 -66.5390 -66.5385 -66.5384 -66.5383 -66.5383 -66.5370 -66.5370
   -66.5347 -66.5254 -66.5242 -66.5234 -66.5234 -66.5234 -66.5233 -66.5232
   -66.5232 -66.5232 -66.5232 -66.5230 -66.5225 -66.5219 -66.5218 -66.5218
   -66.5218 -66.5190 -66.5190 -66.5188 -66.5188 -66.5187 -66.5174 -66.5174
   -66.5155 -66.5145 -66.5139 -66.5128 -66.5127 -66.5126 -66.5126 -66.5126
   -66.5125 -66.5124 -66.5124 -66.5113 -66.5112 -66.5111 -66.5111 -66.5111
   -66.5083 -66.5082 -66.5081 -66.5081 -66.5067 -66.5067 -66.4893 -66.4766
   -66.4765 -53.6276 -53.1189 -53.1189 -40.8527 -40.8513 -40.8512 -40.8511
   -40.8511 -40.8510 -40.8510 -40.8509 -40.8509 -40.8503 -40.8503 -40.8502
   -40.8502 -40.8492 -40.8435 -40.8394 -40.8244 -40.8243 -40.8242 -40.8241
   -40.8239 -40.8235 -40.8234 -40.8193 -40.8123 -40.8122 -40.8121 -40.8121
   -40.8114 -40.8114 -40.8094 -40.7994 -40.7616 -40.7616 -40.7615 -40.7615
   -40.7615 -40.7614 -40.7614 -40.7614 -40.7606 -40.7606 -40.7606 -40.7606
   -40.7602 -40.7562 -40.7525 -40.7517 -40.7044 -40.7029 -40.7027 -40.7027
   -40.7026 -40.7020 -40.7019 -40.6988 -40.6933 -40.6933 -40.6932 -40.6931
   -40.6922 -40.6922 -40.6884 -40.6867 -40.6821 -40.6819 -40.6819 -40.6818
   -40.6818 -40.6811 -40.6811 -40.6758 -40.6545 -40.6524 -40.6524 -40.6523
   -40.6523 -40.6522 -40.6522 -40.6522 -40.6521 -40.6521 -40.6514 -40.6514
   -40.6514 -40.6514 -40.6512 -40.6492 -40.6436 -40.6435 -40.6435 -40.6434
   -40.6428 -40.6427 -40.6426 -40.6349 -40.6345 -40.6330 -40.6319 -40.6318
   -40.6317 -40.6317 -40.6314 -40.6313 -40.6313 -40.6312 -40.6312 -40.6311
   -40.6310 -40.6310 -40.6307 -40.6307 -40.6304 -40.6303 -40.6303 -40.6303
   -40.6275 -40.6272 -40.6256 -40.6226 -40.6225 -40.6224 -40.6224 -40.6216
   -40.6216 -40.6176 -40.6010 -40.6009 -40.6008 -40.6008 -40.6008 -40.6007
   -40.6007 -40.6007 -40.6005 -40.6001 -40.5998 -40.5997 -40.5997 -40.5997
   -40.5995 -40.5982 -40.5939 -40.5884 -40.5662 -40.5662 -40.5661 -40.5661
   -40.5660 -40.5660 -40.5660 -40.5660 -40.5652 -40.5650 -40.5650 -40.5650
   -40.5650 -40.5628 -40.5581 -40.5548 -40.5541 -40.5539 -40.5539 -40.5538
   -40.5528 -40.5528 -40.5519 -40.5387 -40.5347 -40.5346 -40.5346 -40.5345
   -40.5335 -40.5335 -40.5327 -40.5280 -40.5177 -40.5176 -40.5175 -40.5175
   -40.5165 -40.5165 -40.5110 -40.5024 -40.4871 -40.4869 -40.4869 -40.4868
   -40.4858 -40.4857 -40.4852 -40.4735 -19.8164 -19.8120 -19.7539 -19.7401
   -19.6638 -19.6460 -19.5761 -19.5677 -19.3788 -19.3747 -19.3211 -19.3072
   -19.2364 -19.2174 -19.1508 -19.1415 -18.7590 -18.6984 -18.6795 -18.6593
   -18.6591 -18.6589 -18.6483 -18.6051 -18.6049 -18.6044 -18.5888 -18.5661
   -18.5508 -18.5308 -18.5299 -18.5299 -18.4995 -18.4897 -18.4781 -18.4646
   -18.4642 -18.4638 -18.4380 -18.4281 -18.4087 -18.4071 -18.3894 -18.3729
   -18.3635 -18.3615 -18.3342 -18.3294 -18.3099 -18.2976 -18.2684 -18.2547
   -18.2433 -18.2389 -18.1837 -18.1720 -18.1628 -18.1476 -18.1470 -18.1469
   -18.1027 -18.0612 -18.0604 -18.0596 -18.0426 -18.0347 -18.0320 -18.0319
   -18.0315 -18.0314 -18.0161 -18.0030 -18.0017 -18.0017 -17.9955 -17.9806
   -17.9801 -17.9789 -17.9720 -17.9637 -17.9615 -17.9605 -17.9587 -17.9586
   -17.9335 -17.9268 -17.9266 -17.9261 -17.9229 -17.9159 -17.9148 -17.9147
   -17.9044 -17.9014 -17.8659 -17.8618 -17.8552 -17.8443 -17.8441 -17.8436
   -17.8121 -17.8002 -17.7999 -17.7990 -17.7735 -17.7668 -17.7661 -17.7653
   -17.7499 -17.7494 -17.7484 -17.7468 -17.7465 -17.7461 -17.7381 -17.7371
   -17.7225 -17.7192 -17.7028 -17.6957 -17.6855 -17.6793 -17.6674 -17.6633
   -17.6550 -17.6525 -17.6491 -17.6487 -11.6606 -11.6432 -11.4755 -11.4470
   -11.4427 -11.4426 -11.4392 -11.4121 -11.4101 -11.3982 -11.3736 -11.3658
   -11.3594 -11.3592 -11.3300 -11.3189 -11.2760 -11.2759 -11.2586 -11.2575
   -11.2518 -11.2442 -11.2184 -11.2044 -11.1939 -11.1937 -11.1893 -11.1874
   -11.1827 -11.1826 -11.1590 -11.1552 -11.1472 -11.1189 -11.1102 -11.1073
   -11.1046 -11.0965 -11.0960 -11.0956 -11.0916 -11.0677 -11.0657 -11.0638
   -11.0394 -11.0292 -10.9879 -10.9817 -10.9811 -10.9774 -10.8747 -10.8670
   -10.8630 -10.8385 -10.8384 -10.8283 -10.8087 -10.7975 -10.7925 -10.7588
   -10.7521 -10.7501 -10.7436 -10.7426 -10.7426 -10.7421 -10.7399 -10.7363
   -10.7248 -10.7244 -10.7204 -10.7201 -10.7191 -10.7180 -10.7179 -10.7175
   -10.7168 -10.7164 -10.6974 -10.6892 -10.6834 -10.6833 -10.6711 -10.6697
   -10.6660 -10.6657 -10.4781 -10.4638 -10.4614 -10.4449 -10.4058 -10.3989
   -10.3212 -10.3015 -10.2435 -10.1662 -10.1449 -10.0706 -10.0673 -10.0648
   -10.0644 -10.0181 -10.0120 -10.0070 -10.0062  -9.9807  -9.9793  -9.9790
    -9.9673  -9.9401  -9.9393  -9.9305  -9.9304  -9.9295  -9.9115  -9.8512
    -9.8449  -9.8440  -9.8427  -9.8267  -9.8265  -9.8262  -9.8248  -9.8239
    -9.7956  -9.7802  -9.7646  -9.7197  -9.7150  -9.7030  -9.6996  -9.6991
    -9.6821  -9.6710  -9.6581  -9.6383  -9.6383  -9.6358  -9.6033  -9.5831
    -9.5818  -9.5814  -9.5590  -9.5581  -9.5377  -9.5243  -9.4978  -9.4675
    -9.4649  -9.4633  -9.4632  -9.4626  -9.4620  -9.4612  -9.4383  -9.4330
    -9.4145  -9.4117  -9.3957  -9.3893  -9.3881  -9.3855  -9.3736  -9.3686
    -9.3550  -9.3460  -9.3445  -9.3431  -9.2776  -9.2665  -9.1772  -9.1695
    -9.1605  -9.1553  -9.1331  -9.1070  -9.1059  -9.1040  -9.0940  -9.0867
    -9.0834  -9.0822  -9.0346  -9.0270  -8.9993  -8.9944  -8.9868  -8.9801
    -8.9657  -8.9558  -8.9543  -8.9511  -8.9478  -8.9370  -8.9367  -8.9364
    -8.8864  -8.8797  -8.8656  -8.8629  -8.8589  -8.8510  -8.8509  -8.8499
    -8.8158  -8.8146  -8.8120  -8.8115  -8.8003  -8.8002  -8.7975  -8.7912
    -8.7904  -8.7891  -8.7877  -8.7876  -8.7724  -8.7713  -8.7669  -8.7653
    -8.7585  -8.7493  -8.7395  -8.7394  -8.7278  -8.7276  -8.7108  -8.7106
    -8.7088  -8.7083  -8.7059  -8.7044  -8.6807  -8.6770  -8.6591  -8.6570
    -8.6480  -8.6465  -8.6253  -8.6098  -8.5701  -8.5701  -8.5225  -8.5012
    -8.4435  -8.4410  -8.4139  -8.4050  -8.3532  -8.3410  -8.2778  -8.2721
    -8.2062  -8.1734  -8.1037  -8.0583  -8.0579  -8.0523  -8.0503  -8.0434
    -8.0397  -8.0352  -8.0321  -7.9907  -7.9866  -7.9077  -7.8987  -7.8756
    -7.8326  -7.7986  -7.7713  -7.7700  -7.7699  -7.7532  -7.7477  -7.7423
    -7.7418  -7.7362  -7.7292  -7.7229  -7.7206  -7.7205  -7.7193  -7.7190
    -7.7141  -7.7126  -7.7101  -7.7058  -7.7020  -7.7009  -7.6987  -7.6980
    -7.6980  -7.6942  -7.6909  -7.6886  -7.6877  -7.6832  -7.6749  -7.6742
    -7.6738  -7.6566  -7.6525  -7.6428  -7.6416  -7.6336  -7.6268  -7.6223
    -7.6210  -7.6208  -7.6198  -7.6153  -7.6137  -7.6125  -7.5954  -7.5915
    -7.5914  -7.5901  -7.5716  -7.5692  -7.5424  -7.5408  -7.5288  -7.5266
    -7.5236  -7.5231  -7.5226  -7.5220  -7.5081  -7.5039  -7.5031  -7.4918
    -7.4894  -7.4786  -7.4752  -7.4667  -7.4641  -7.4639  -7.3872  -7.3808
    -7.3778  -7.3776  -7.3512  -7.3380  -7.1722  -7.1148  -7.1076  -7.1047
    -7.0960  -7.0874  -7.0774  -7.0727  -7.0399  -7.0348  -7.0305  -7.0267
    -7.0145  -7.0126  -6.9587  -6.9515  -6.9486  -6.9444  -6.9438  -6.9414
    -6.9211  -6.9148  -6.8850  -6.8682  -6.8394  -6.8363  -6.8286  -6.8169
    -6.8050  -6.7888  -6.7855  -6.7802  -6.7770  -6.7567  -6.7461  -6.7333
    -6.6979  -6.6876  -6.6431  -6.6117  -6.6061  -6.6003  -6.5630  -6.5493
    -6.5474  -6.5426  -6.5396  -6.5384  -6.5327  -6.5285  -6.5239  -6.5222
    -6.5159  -6.5152  -6.5120  -6.5109  -6.5084  -6.5084  -6.5076  -6.5071
    -6.4464  -6.4220  -6.3971  -6.3785  -6.3289  -6.3262  -6.2794  -6.2731
    -6.2607  -6.2558  -6.2355  -6.2345  -6.2204  -6.2156  -6.2119  -6.2067
    -6.2054  -6.2050  -6.2007  -6.1998  -6.1778  -6.1748  -6.1658  -6.1576
    -6.1354  -6.1318  -6.1317  -6.1275  -6.1259  -6.1200  -5.9687  -5.9585
    -5.9153  -5.9150  -5.8551  -5.8539  -5.7918  -5.7915  -5.7763  -5.7713
    -5.7474  -5.7442  -5.6020  -5.5988  -5.5430  -5.5411  -5.5195  -5.5181
    -5.2538  -4.0285  -4.0157  -4.0142  -4.0137  -3.8968  -3.8634  -3.8502
    -3.8356  -3.8315  -3.8301  -3.7703  -3.7699  -3.7549  -3.7523  -3.7429
    -3.7350  -3.7334  -3.7248  -3.7246  -3.7145  -3.6405  -3.6013  -3.5962
    -3.5955  -3.5485  -3.5293  -3.5290  -3.5286  -3.5266  -3.5247  -3.4814
    -3.4810  -3.4645  -3.4484  -3.4479  -3.4447  -3.4445  -3.4431  -3.4238
    -3.4067  -3.4054  -3.4039  -3.4012  -3.3957  -3.3935  -3.3929  -3.3749
    -3.3744  -3.3726  -3.3478  -3.3460  -3.3459  -3.3396  -3.3395  -3.3037
    -3.2774  -3.2744  -3.2739  -3.2728  -3.2727  -3.2702  -3.2693  -3.2542
    -3.2354  -3.2294  -3.2199  -3.2131  -3.2114  -3.2098  -3.2096  -3.2084
    -3.2074  -3.1984  -3.1795  -3.1686  -3.1653  -3.1638  -3.1614  -3.1548
    -3.1510  -3.1392  -3.1370  -3.1327  -3.1286  -3.1128  -3.1037  -3.0999
    -3.0952  -3.0947  -3.0935  -3.0912  -3.0897  -3.0895  -3.0878  -3.0267
    -3.0264  -2.9994  -2.9943  -2.9936  -2.9860  -2.9846  -2.9817  -2.9511
    -2.9510  -2.9500  -2.9497  -2.9495  -2.9489  -2.9390  -2.9379  -2.9361
    -2.9339  -2.9310  -2.9273  -2.9185  -2.9178  -2.9020  -2.8978  -2.8965
    -2.8939  -2.8908  -2.8831  -2.8819  -2.8794  -2.8762  -2.8751  -2.8719
    -2.8702  -2.8625  -2.8603  -2.8574  -2.8563  -2.8149  -2.8139  -2.8113
    -2.8093  -2.8024  -2.8016  -2.7838  -2.7828  -2.7230  -2.7149  -2.7127
    -2.7117  -2.6637  -2.6374  -2.6359  -2.6340  -2.5663  -2.5390  -2.5378
    -2.5014  -2.4988  -2.4782  -2.4777  -2.4701  -2.4679  -2.4534  -2.4527
    -2.4481  -2.4455  -2.4423  -2.4363  -2.3206  -2.3104  -2.3078  -2.2911
    -2.2852

          k =-0.5000-0.8660 0.0000 (386352 PWs)   bands (ev):

   -87.4709 -66.5507 -66.5492 -66.5491 -66.5490 -66.5489 -66.5476 -66.5476
   -66.5471 -66.5390 -66.5385 -66.5384 -66.5383 -66.5383 -66.5370 -66.5370
   -66.5347 -66.5254 -66.5242 -66.5234 -66.5234 -66.5234 -66.5233 -66.5232
   -66.5232 -66.5232 -66.5232 -66.5230 -66.5225 -66.5218 -66.5218 -66.5218
   -66.5218 -66.5190 -66.5190 -66.5189 -66.5188 -66.5187 -66.5174 -66.5174
   -66.5154 -66.5145 -66.5139 -66.5128 -66.5127 -66.5126 -66.5126 -66.5126
   -66.5125 -66.5125 -66.5124 -66.5113 -66.5112 -66.5111 -66.5111 -66.5111
   -66.5083 -66.5082 -66.5081 -66.5081 -66.5067 -66.5067 -66.4893 -66.4766
   -66.4765 -53.6276 -53.1189 -53.1189 -40.8526 -40.8512 -40.8512 -40.8511
   -40.8511 -40.8510 -40.8510 -40.8509 -40.8509 -40.8503 -40.8503 -40.8502
   -40.8502 -40.8492 -40.8435 -40.8394 -40.8244 -40.8243 -40.8242 -40.8241
   -40.8239 -40.8234 -40.8234 -40.8193 -40.8123 -40.8122 -40.8121 -40.8121
   -40.8114 -40.8114 -40.8094 -40.7994 -40.7616 -40.7616 -40.7616 -40.7615
   -40.7614 -40.7614 -40.7614 -40.7614 -40.7606 -40.7606 -40.7606 -40.7606
   -40.7602 -40.7563 -40.7525 -40.7517 -40.7044 -40.7028 -40.7027 -40.7027
   -40.7026 -40.7019 -40.7019 -40.6988 -40.6933 -40.6933 -40.6932 -40.6931
   -40.6922 -40.6922 -40.6884 -40.6867 -40.6821 -40.6819 -40.6819 -40.6818
   -40.6818 -40.6811 -40.6811 -40.6758 -40.6545 -40.6524 -40.6524 -40.6523
   -40.6523 -40.6522 -40.6522 -40.6522 -40.6521 -40.6521 -40.6514 -40.6514
   -40.6514 -40.6514 -40.6512 -40.6492 -40.6436 -40.6435 -40.6435 -40.6434
   -40.6428 -40.6427 -40.6426 -40.6349 -40.6345 -40.6330 -40.6318 -40.6318
   -40.6317 -40.6317 -40.6314 -40.6313 -40.6313 -40.6312 -40.6312 -40.6311
   -40.6311 -40.6310 -40.6307 -40.6307 -40.6304 -40.6304 -40.6303 -40.6303
   -40.6275 -40.6272 -40.6256 -40.6226 -40.6225 -40.6224 -40.6224 -40.6216
   -40.6216 -40.6176 -40.6010 -40.6009 -40.6008 -40.6008 -40.6008 -40.6008
   -40.6007 -40.6007 -40.6005 -40.6000 -40.5997 -40.5997 -40.5997 -40.5997
   -40.5995 -40.5982 -40.5939 -40.5884 -40.5662 -40.5662 -40.5661 -40.5661
   -40.5660 -40.5660 -40.5660 -40.5660 -40.5652 -40.5650 -40.5650 -40.5650
   -40.5650 -40.5628 -40.5581 -40.5548 -40.5541 -40.5539 -40.5539 -40.5538
   -40.5528 -40.5528 -40.5519 -40.5387 -40.5347 -40.5346 -40.5346 -40.5345
   -40.5335 -40.5335 -40.5327 -40.5280 -40.5177 -40.5176 -40.5175 -40.5175
   -40.5165 -40.5165 -40.5110 -40.5024 -40.4871 -40.4869 -40.4869 -40.4868
   -40.4858 -40.4858 -40.4852 -40.4735 -19.8164 -19.8120 -19.7539 -19.7401
   -19.6638 -19.6460 -19.5761 -19.5677 -19.3788 -19.3747 -19.3211 -19.3072
   -19.2364 -19.2174 -19.1508 -19.1415 -18.7590 -18.6984 -18.6795 -18.6593
   -18.6591 -18.6589 -18.6483 -18.6051 -18.6049 -18.6044 -18.5888 -18.5661
   -18.5508 -18.5308 -18.5299 -18.5299 -18.4995 -18.4897 -18.4781 -18.4646
   -18.4642 -18.4638 -18.4380 -18.4281 -18.4088 -18.4071 -18.3894 -18.3729
   -18.3635 -18.3614 -18.3342 -18.3294 -18.3099 -18.2976 -18.2684 -18.2547
   -18.2433 -18.2389 -18.1837 -18.1720 -18.1628 -18.1476 -18.1469 -18.1469
   -18.1027 -18.0612 -18.0604 -18.0596 -18.0426 -18.0347 -18.0320 -18.0320
   -18.0315 -18.0314 -18.0161 -18.0030 -18.0017 -18.0017 -17.9955 -17.9806
   -17.9801 -17.9789 -17.9720 -17.9637 -17.9615 -17.9605 -17.9587 -17.9586
   -17.9336 -17.9268 -17.9266 -17.9261 -17.9229 -17.9159 -17.9148 -17.9147
   -17.9044 -17.9014 -17.8659 -17.8618 -17.8552 -17.8443 -17.8441 -17.8436
   -17.8122 -17.8002 -17.7999 -17.7990 -17.7735 -17.7668 -17.7661 -17.7653
   -17.7499 -17.7494 -17.7485 -17.7468 -17.7464 -17.7461 -17.7381 -17.7371
   -17.7225 -17.7192 -17.7028 -17.6957 -17.6855 -17.6793 -17.6674 -17.6633
   -17.6550 -17.6525 -17.6491 -17.6487 -11.6606 -11.6432 -11.4755 -11.4471
   -11.4427 -11.4425 -11.4392 -11.4121 -11.4101 -11.3982 -11.3736 -11.3658
   -11.3594 -11.3592 -11.3300 -11.3189 -11.2760 -11.2759 -11.2586 -11.2575
   -11.2518 -11.2442 -11.2184 -11.2044 -11.1939 -11.1937 -11.1894 -11.1874
   -11.1827 -11.1826 -11.1590 -11.1552 -11.1472 -11.1189 -11.1102 -11.1073
   -11.1046 -11.0965 -11.0960 -11.0956 -11.0916 -11.0677 -11.0657 -11.0638
   -11.0394 -11.0292 -10.9879 -10.9817 -10.9811 -10.9773 -10.8747 -10.8670
   -10.8630 -10.8385 -10.8384 -10.8283 -10.8087 -10.7975 -10.7925 -10.7588
   -10.7521 -10.7501 -10.7436 -10.7426 -10.7425 -10.7421 -10.7399 -10.7363
   -10.7248 -10.7244 -10.7204 -10.7201 -10.7191 -10.7180 -10.7179 -10.7175
   -10.7168 -10.7164 -10.6974 -10.6892 -10.6834 -10.6833 -10.6711 -10.6696
   -10.6660 -10.6657 -10.4781 -10.4638 -10.4614 -10.4449 -10.4058 -10.3989
   -10.3212 -10.3015 -10.2435 -10.1662 -10.1449 -10.0706 -10.0673 -10.0648
   -10.0645 -10.0181 -10.0120 -10.0070 -10.0062  -9.9807  -9.9793  -9.9790
    -9.9673  -9.9401  -9.9393  -9.9305  -9.9304  -9.9295  -9.9115  -9.8513
    -9.8449  -9.8440  -9.8427  -9.8267  -9.8265  -9.8262  -9.8248  -9.8239
    -9.7957  -9.7802  -9.7646  -9.7197  -9.7150  -9.7030  -9.6996  -9.6991
    -9.6822  -9.6710  -9.6581  -9.6383  -9.6383  -9.6358  -9.6034  -9.5831
    -9.5818  -9.5814  -9.5590  -9.5581  -9.5378  -9.5243  -9.4978  -9.4675
    -9.4649  -9.4633  -9.4632  -9.4625  -9.4620  -9.4612  -9.4383  -9.4330
    -9.4145  -9.4117  -9.3957  -9.3893  -9.3881  -9.3855  -9.3736  -9.3686
    -9.3550  -9.3460  -9.3445  -9.3431  -9.2776  -9.2665  -9.1772  -9.1695
    -9.1605  -9.1553  -9.1331  -9.1070  -9.1059  -9.1040  -9.0940  -9.0867
    -9.0834  -9.0822  -9.0346  -9.0270  -8.9993  -8.9944  -8.9868  -8.9801
    -8.9657  -8.9557  -8.9543  -8.9511  -8.9478  -8.9370  -8.9367  -8.9363
    -8.8864  -8.8797  -8.8656  -8.8629  -8.8589  -8.8510  -8.8509  -8.8499
    -8.8158  -8.8146  -8.8120  -8.8115  -8.8003  -8.8002  -8.7975  -8.7912
    -8.7903  -8.7891  -8.7877  -8.7876  -8.7724  -8.7713  -8.7669  -8.7653
    -8.7585  -8.7493  -8.7395  -8.7394  -8.7279  -8.7277  -8.7108  -8.7106
    -8.7088  -8.7083  -8.7060  -8.7044  -8.6807  -8.6770  -8.6592  -8.6570
    -8.6480  -8.6465  -8.6253  -8.6098  -8.5701  -8.5701  -8.5225  -8.5012
    -8.4435  -8.4410  -8.4139  -8.4050  -8.3532  -8.3409  -8.2778  -8.2721
    -8.2062  -8.1734  -8.1037  -8.0583  -8.0579  -8.0523  -8.0503  -8.0434
    -8.0397  -8.0353  -8.0321  -7.9907  -7.9865  -7.9077  -7.8987  -7.8756
    -7.8326  -7.7986  -7.7713  -7.7699  -7.7699  -7.7532  -7.7477  -7.7423
    -7.7418  -7.7363  -7.7292  -7.7229  -7.7206  -7.7205  -7.7193  -7.7190
    -7.7141  -7.7126  -7.7101  -7.7058  -7.7020  -7.7009  -7.6987  -7.6980
    -7.6980  -7.6942  -7.6908  -7.6886  -7.6877  -7.6832  -7.6749  -7.6742
    -7.6738  -7.6566  -7.6525  -7.6428  -7.6416  -7.6336  -7.6268  -7.6223
    -7.6210  -7.6208  -7.6198  -7.6153  -7.6137  -7.6125  -7.5954  -7.5915
    -7.5914  -7.5900  -7.5716  -7.5691  -7.5424  -7.5408  -7.5289  -7.5266
    -7.5236  -7.5231  -7.5226  -7.5220  -7.5082  -7.5039  -7.5031  -7.4919
    -7.4894  -7.4786  -7.4752  -7.4667  -7.4641  -7.4639  -7.3872  -7.3808
    -7.3778  -7.3776  -7.3512  -7.3380  -7.1722  -7.1148  -7.1075  -7.1047
    -7.0960  -7.0874  -7.0774  -7.0727  -7.0398  -7.0348  -7.0305  -7.0267
    -7.0145  -7.0126  -6.9587  -6.9515  -6.9486  -6.9444  -6.9438  -6.9414
    -6.9211  -6.9148  -6.8851  -6.8683  -6.8394  -6.8363  -6.8287  -6.8169
    -6.8050  -6.7888  -6.7855  -6.7802  -6.7770  -6.7567  -6.7461  -6.7333
    -6.6979  -6.6876  -6.6431  -6.6117  -6.6060  -6.6002  -6.5630  -6.5493
    -6.5474  -6.5426  -6.5396  -6.5384  -6.5327  -6.5285  -6.5239  -6.5222
    -6.5159  -6.5152  -6.5120  -6.5109  -6.5084  -6.5084  -6.5076  -6.5071
    -6.4464  -6.4220  -6.3971  -6.3785  -6.3289  -6.3262  -6.2795  -6.2731
    -6.2607  -6.2559  -6.2356  -6.2344  -6.2204  -6.2156  -6.2119  -6.2067
    -6.2055  -6.2050  -6.2007  -6.1998  -6.1778  -6.1748  -6.1658  -6.1576
[...]
     atom  161 type  2   force =     0.00002193    0.00001148    0.00010750
     atom  162 type  2   force =    -0.00000065   -0.00001480   -0.00006404
     atom  163 type  1   force =     0.00002760   -0.00010270    0.00012720
     atom  164 type  1   force =     0.00006703   -0.00004968    0.00009283
     atom  165 type  2   force =    -0.00000047   -0.00002155    0.00011114
     atom  166 type  2   force =     0.00003651   -0.00000881   -0.00001725
     atom  167 type  2   force =     0.00003375   -0.00000353    0.00013086
     atom  168 type  2   force =     0.00000018   -0.00001915   -0.00004236
     atom  169 type  1   force =    -0.00003538   -0.00004002   -0.00012593
     atom  170 type  1   force =     0.00001266   -0.00005940    0.00003004
     atom  171 type  2   force =    -0.00001629   -0.00002110    0.00009344
     atom  172 type  2   force =     0.00001248   -0.00000901   -0.00009163
     atom  173 type  2   force =     0.00000803   -0.00000684    0.00008584
     atom  174 type  2   force =    -0.00002352   -0.00002346   -0.00006269
     atom  175 type  1   force =    -0.00005973   -0.00006911    0.00012390
     atom  176 type  1   force =     0.00000344   -0.00006483    0.00013399
     atom  177 type  2   force =    -0.00002514   -0.00001605    0.00010577
     atom  178 type  2   force =     0.00001671   -0.00002086    0.00000815
     atom  179 type  2   force =     0.00001837   -0.00002301    0.00009869
     atom  180 type  2   force =    -0.00003134   -0.00001202   -0.00002770
     atom  181 type  1   force =     0.00001256    0.00003032   -0.00013386
     atom  182 type  1   force =    -0.00001060    0.00002225    0.00003970
     atom  183 type  2   force =     0.00000098    0.00000494    0.00009875
     atom  184 type  2   force =     0.00000689    0.00000491   -0.00009908
     atom  185 type  2   force =     0.00000268    0.00000292    0.00008927
     atom  186 type  2   force =    -0.00000326    0.00000801   -0.00005693
     atom  187 type  1   force =    -0.00007297    0.00006162    0.00012558
     atom  188 type  1   force =    -0.00006389    0.00003463    0.00015159
     atom  189 type  2   force =    -0.00002491    0.00000756    0.00012632
     atom  190 type  2   force =    -0.00001191    0.00001567    0.00001411
     atom  191 type  2   force =    -0.00000828    0.00001562    0.00009678
     atom  192 type  2   force =    -0.00002046    0.00000408   -0.00004551
     atom  193 type  3   force =    -0.00000307    0.00001381    0.00002491

     DFT-D3 dispersion contribution to forces:
     atom    1 type  1   force =     0.00000002    0.00000004    0.00255971
     atom    2 type  1   force =     0.00000000    0.00000006    0.00001532
     atom    3 type  2   force =     0.00000001    0.00000001   -0.00003303
     atom    4 type  2   force =    -0.00000001    0.00000003    0.00017155
     atom    5 type  2   force =    -0.00000000    0.00000003    0.00441491
     atom    6 type  2   force =     0.00000003    0.00000002    0.00009775
     atom    7 type  1   force =     0.00000036    0.00000123   -0.00001153
     atom    8 type  1   force =     0.00000002    0.00028493   -0.00224381
     atom    9 type  2   force =     0.00001906    0.00003846   -0.00010105
     atom   10 type  2   force =     0.00000001    0.00000075    0.00003547
     atom   11 type  2   force =     0.00000001    0.00000013   -0.00009709
     atom   12 type  2   force =     0.00018252    0.00030094   -0.00416514
     atom   13 type  1   force =     0.00000005    0.00000000    0.00255971
     atom   14 type  1   force =     0.00000004    0.00000002    0.00001532
     atom   15 type  2   force =     0.00000003    0.00000001   -0.00003304
     atom   16 type  2   force =     0.00000000    0.00000000    0.00017157
     atom   17 type  2   force =     0.00000001    0.00000001    0.00441476
     atom   18 type  2   force =     0.00000006    0.00000001    0.00009773
     atom   19 type  1   force =     0.00000124   -0.00000032   -0.00001153
     atom   20 type  1   force =     0.00013018    0.00007511   -0.00221108
     atom   21 type  2   force =     0.00004282   -0.00000273   -0.00010107
     atom   22 type  2   force =    -0.00000055   -0.00000033    0.00003796
     atom   23 type  2   force =     0.00000045    0.00000023   -0.00009672
     atom   24 type  2   force =     0.00035219    0.00000749   -0.00416498
     atom   25 type  1   force =     0.00000003   -0.00000002    0.00255966
     atom   26 type  1   force =     0.00000009    0.00000001    0.00001529
     atom   27 type  2   force =     0.00000004   -0.00000001   -0.00003299
     atom   28 type  2   force =     0.00000002   -0.00000001    0.00017155
     atom   29 type  2   force =     0.00000003   -0.00000001    0.00441491
     atom   30 type  2   force =     0.00000006   -0.00000001    0.00009776
     atom   31 type  1   force =     0.00000220   -0.00000126   -0.00001282
     atom   32 type  1   force =     0.00024666   -0.00014244   -0.00224399
     atom   33 type  2   force =    -0.00000637    0.00000365   -0.00017227
     atom   34 type  2   force =     0.00000065   -0.00000038    0.00003545
     atom   35 type  2   force =     0.00000012   -0.00000003   -0.00009707
     atom   36 type  2   force =     0.00010514   -0.00006071   -0.00436961
     atom   37 type  1   force =    -0.00000000    0.00000003    0.00255966
     atom   38 type  1   force =     0.00000001    0.00000001    0.00001529
     atom   39 type  2   force =     0.00000001    0.00000003   -0.00003299
     atom   40 type  2   force =     0.00000000   -0.00000000    0.00017153
     atom   41 type  2   force =     0.00000003    0.00000002    0.00441503
     atom   42 type  2   force =     0.00000001    0.00000007    0.00009776
     atom   43 type  1   force =     0.00000001    0.00000254   -0.00001284
     atom   44 type  1   force =     0.00000559    0.00000326   -0.00252902
     atom   45 type  2   force =    -0.00000001   -0.00000734   -0.00017226
     atom   46 type  2   force =     0.00000159    0.00000094    0.00003677
     atom   47 type  2   force =     0.00000003    0.00000002   -0.00009725
     atom   48 type  2   force =     0.00000001    0.00012154   -0.00436956
     atom   49 type  1   force =    -0.00000002    0.00000004    0.00255970
     atom   50 type  1   force =    -0.00000002    0.00000002    0.00001536
     atom   51 type  2   force =    -0.00000002   -0.00000000   -0.00003303
     atom   52 type  2   force =     0.00000001    0.00000001    0.00017154
     atom   53 type  2   force =    -0.00000001    0.00000002    0.00441497
     atom   54 type  2   force =    -0.00000003    0.00000002    0.00009776
     atom   55 type  1   force =    -0.00000034    0.00000122   -0.00001156
     atom   56 type  1   force =    -0.00009177    0.00009993   -0.00243307
     atom   57 type  2   force =    -0.00001907    0.00003849   -0.00010104
     atom   58 type  2   force =    -0.00000194    0.00000081    0.00003505
     atom   59 type  2   force =    -0.00000038    0.00000007   -0.00009708
     atom   60 type  2   force =    -0.00018237    0.00030081   -0.00416523
     atom   61 type  1   force =     0.00000000    0.00000000    0.00255970
     atom   62 type  1   force =     0.00000001    0.00000004    0.00001535
     atom   63 type  2   force =    -0.00000001    0.00000001   -0.00003296
     atom   64 type  2   force =     0.00000000    0.00000001    0.00017158
     atom   65 type  2   force =    -0.00000001    0.00000001    0.00441476
     atom   66 type  2   force =     0.00000001    0.00000002    0.00009788
     atom   67 type  1   force =    -0.00000001   -0.00000000   -0.00001224
     atom   68 type  1   force =    -0.00013006    0.00007508   -0.00221121
     atom   69 type  2   force =     0.00000003   -0.00000003    0.00008939
     atom   70 type  2   force =     0.00000056   -0.00000033    0.00003798
     atom   71 type  2   force =    -0.00000042    0.00000023   -0.00009676
     atom   72 type  2   force =    -0.00000004    0.00000006   -0.00459235
     atom   73 type  1   force =     0.00000003   -0.00000004    0.00255972
     atom   74 type  1   force =     0.00000003    0.00000003    0.00001534
     atom   75 type  2   force =     0.00000001   -0.00000001   -0.00003302
     atom   76 type  2   force =     0.00000001    0.00000001    0.00017159
     atom   77 type  2   force =    -0.00000000   -0.00000001    0.00441476
     atom   78 type  2   force =     0.00000003   -0.00000003    0.00009774
     atom   79 type  1   force =     0.00000089   -0.00000090   -0.00001157
     atom   80 type  1   force =     0.00000003   -0.00015038   -0.00221099
     atom   81 type  2   force =     0.00002376   -0.00003573   -0.00010110
     atom   82 type  2   force =    -0.00000001    0.00000063    0.00003798
     atom   83 type  2   force =     0.00000001   -0.00000047   -0.00009677
     atom   84 type  2   force =     0.00016964   -0.00030888   -0.00416492
     atom   85 type  1   force =     0.00000002    0.00000000    0.00255965
     atom   86 type  1   force =     0.00000006   -0.00000004    0.00001535
     atom   87 type  2   force =     0.00000000   -0.00000001   -0.00003302
     atom   88 type  2   force =     0.00000002   -0.00000001    0.00017155
     atom   89 type  2   force =     0.00000002   -0.00000001    0.00441497
     atom   90 type  2   force =     0.00000003    0.00000001    0.00009771
     atom   91 type  1   force =     0.00000056    0.00000033   -0.00001288
     atom   92 type  1   force =     0.00004061   -0.00012932   -0.00243320
     atom   93 type  2   force =     0.00000188    0.00000108   -0.00017567
     atom   94 type  2   force =    -0.00000026   -0.00000207    0.00003506
     atom   95 type  2   force =    -0.00000013   -0.00000035   -0.00009709
     atom   96 type  2   force =     0.00000285    0.00000172   -0.00439237
     atom   97 type  1   force =    -0.00000000    0.00000000    0.00255970
     atom   98 type  1   force =     0.00000001   -0.00000005    0.00001533
     atom   99 type  2   force =    -0.00000000    0.00000002   -0.00003299
     atom  100 type  2   force =     0.00000000   -0.00000001    0.00017150
     atom  101 type  2   force =    -0.00000000    0.00000000    0.00441502
     atom  102 type  2   force =    -0.00000001    0.00000002    0.00009771
     atom  103 type  1   force =    -0.00000116    0.00000067   -0.00001444
     atom  104 type  1   force =    -0.00000001    0.00000001   -0.00254859
     atom  105 type  2   force =     0.00000237   -0.00000136   -0.00017241
     atom  106 type  2   force =     0.00000000    0.00000000    0.00003330
     atom  107 type  2   force =    -0.00000003   -0.00000002   -0.00009714
     atom  108 type  2   force =    -0.00010218    0.00005899   -0.00436389
     atom  109 type  1   force =    -0.00000004    0.00000000    0.00255971
     atom  110 type  1   force =    -0.00000006    0.00000003    0.00001535
     atom  111 type  2   force =     0.00000000    0.00000003   -0.00003302
     atom  112 type  2   force =    -0.00000001    0.00000000    0.00017153
     atom  113 type  2   force =    -0.00000002   -0.00000001    0.00441497
     atom  114 type  2   force =    -0.00000003    0.00000003    0.00009774
     atom  115 type  1   force =    -0.00000123   -0.00000032   -0.00001157
     atom  116 type  1   force =    -0.00013241    0.00002951   -0.00243310
     atom  117 type  2   force =    -0.00004285   -0.00000273   -0.00010103
     atom  118 type  2   force =    -0.00000166    0.00000127    0.00003504
     atom  119 type  2   force =    -0.00000026    0.00000028   -0.00009705
     atom  120 type  2   force =    -0.00035182    0.00000750   -0.00416517
     atom  121 type  1   force =    -0.00000002   -0.00000004    0.00255973
     atom  122 type  1   force =    -0.00000008    0.00000001    0.00001533
     atom  123 type  2   force =     0.00000002    0.00000001   -0.00003301
     atom  124 type  2   force =    -0.00000003   -0.00000001    0.00017157
     atom  125 type  2   force =    -0.00000003   -0.00000001    0.00441491
     atom  126 type  2   force =     0.00000001   -0.00000002    0.00009772
     atom  127 type  1   force =    -0.00000088   -0.00000091   -0.00001160
     atom  128 type  1   force =    -0.00024670   -0.00014248   -0.00224389
     atom  129 type  2   force =    -0.00002375   -0.00003574   -0.00010106
     atom  130 type  2   force =    -0.00000064   -0.00000039    0.00003544
     atom  131 type  2   force =    -0.00000012   -0.00000006   -0.00009708
     atom  132 type  2   force =    -0.00016949   -0.00030875   -0.00416502
     atom  133 type  1   force =     0.00000000   -0.00000002    0.00255972
     atom  134 type  1   force =    -0.00000001   -0.00000005    0.00001536
     atom  135 type  2   force =     0.00000003   -0.00000003   -0.00003298
     atom  136 type  2   force =    -0.00000001   -0.00000001    0.00017155
     atom  137 type  2   force =    -0.00000002   -0.00000001    0.00441497
     atom  138 type  2   force =     0.00000003   -0.00000004    0.00009770
     atom  139 type  1   force =     0.00000000   -0.00000134   -0.00001448
     atom  140 type  1   force =    -0.00004060   -0.00012935   -0.00243318
     atom  141 type  2   force =     0.00000000    0.00000274   -0.00017242
     atom  142 type  2   force =     0.00000025   -0.00000206    0.00003504
     atom  143 type  2   force =     0.00000012   -0.00000037   -0.00009707
     atom  144 type  2   force =     0.00000001   -0.00011786   -0.00436395
     atom  145 type  1   force =     0.00000001   -0.00000000    0.00255971
     atom  146 type  1   force =    -0.00000000   -0.00000003    0.00001535
     atom  147 type  2   force =     0.00000001   -0.00000002   -0.00003299
     atom  148 type  2   force =    -0.00000000   -0.00000000    0.00017154
     atom  149 type  2   force =     0.00000000    0.00000002    0.00441497
     atom  150 type  2   force =     0.00000001   -0.00000002    0.00009770
     atom  151 type  1   force =     0.00000116    0.00000067   -0.00001443
     atom  152 type  1   force =     0.00009175    0.00009988   -0.00243314
     atom  153 type  2   force =    -0.00000236   -0.00000136   -0.00017242
     atom  154 type  2   force =     0.00000193    0.00000083    0.00003505
     atom  155 type  2   force =     0.00000039    0.00000005   -0.00009708
     atom  156 type  2   force =     0.00010212    0.00005895   -0.00436392
     atom  157 type  1   force =     0.00000000   -0.00000001    0.00255966
     atom  158 type  1   force =     0.00000001   -0.00000001    0.00001534
     atom  159 type  2   force =    -0.00000003   -0.00000001   -0.00003302
     atom  160 type  2   force =     0.00000001    0.00000000    0.00017153
     atom  161 type  2   force =     0.00000002   -0.00000001    0.00441497
     atom  162 type  2   force =    -0.00000004   -0.00000004    0.00009771
     atom  163 type  1   force =    -0.00000001   -0.00000067   -0.00001286
     atom  164 type  1   force =     0.00013233    0.00002949   -0.00243318
     atom  165 type  2   force =     0.00000000   -0.00000216   -0.00017567
     atom  166 type  2   force =     0.00000167    0.00000126    0.00003505
     atom  167 type  2   force =     0.00000024    0.00000029   -0.00009705
     atom  168 type  2   force =    -0.00000004   -0.00000333   -0.00439236
     atom  169 type  1   force =    -0.00000003   -0.00000002    0.00255967
     atom  170 type  1   force =    -0.00000006    0.00000000    0.00001526
     atom  171 type  2   force =    -0.00000006   -0.00000002   -0.00003297
     atom  172 type  2   force =    -0.00000000   -0.00000000    0.00017154
     atom  173 type  2   force =    -0.00000000   -0.00000004    0.00441503
     atom  174 type  2   force =    -0.00000009   -0.00000003    0.00009775
     atom  175 type  1   force =    -0.00000221   -0.00000128   -0.00001284
     atom  176 type  1   force =    -0.00000002   -0.00000648   -0.00252904
     atom  177 type  2   force =     0.00000636    0.00000366   -0.00017226
     atom  178 type  2   force =     0.00000000   -0.00000185    0.00003679
     atom  179 type  2   force =    -0.00000000   -0.00000001   -0.00009727
     atom  180 type  2   force =    -0.00010521   -0.00006075   -0.00436958
     atom  181 type  1   force =    -0.00000001    0.00000000    0.00255967
     atom  182 type  1   force =    -0.00000007   -0.00000002    0.00001528
     atom  183 type  2   force =    -0.00000004   -0.00000003   -0.00003301
     atom  184 type  2   force =    -0.00000001    0.00000000    0.00017155
     atom  185 type  2   force =    -0.00000003    0.00000002    0.00441503
     atom  186 type  2   force =    -0.00000006   -0.00000002    0.00009770
     atom  187 type  1   force =    -0.00000057    0.00000032   -0.00001288
     atom  188 type  1   force =    -0.00000561    0.00000325   -0.00252903
     atom  189 type  2   force =    -0.00000187    0.00000108   -0.00017567
     atom  190 type  2   force =    -0.00000159    0.00000095    0.00003678
     atom  191 type  2   force =    -0.00000003    0.00000002   -0.00009728
     atom  192 type  2   force =    -0.00000286    0.00000168   -0.00439236
     atom  193 type  3   force =    -0.00000047    0.00000062   -0.00530112

     Total force =     0.012529     Total SCF correction =     0.001633
     SCF correction compared to forces is large: reduce conv_thr to get better values

     Writing all to output data dir ./outdir/pwscf.save/
 
     init_run     :    190.87s CPU    194.46s WALL (       1 calls)
     electrons    :  23623.74s CPU  23800.01s WALL (       1 calls)
     forces       :    120.42s CPU    123.36s WALL (       1 calls)
     force_dftd3  :      0.75s CPU      0.81s WALL (       1 calls)

     Called by init_run:
     wfcinit      :    165.98s CPU    168.02s WALL (       1 calls)
     potinit      :      2.22s CPU      2.30s WALL (       1 calls)
     hinit0       :     15.95s CPU     15.98s WALL (       1 calls)

     Called by electrons:
     c_bands      :  22038.94s CPU  22147.59s WALL (      23 calls)
     sum_band     :   1490.69s CPU   1529.54s WALL (      23 calls)
     v_of_rho     :     11.30s CPU     11.48s WALL (      23 calls)
     newd         :     61.42s CPU     91.00s WALL (      23 calls)
     PAW_pot      :     15.40s CPU     15.40s WALL (      23 calls)
     mix_rho      :      3.28s CPU      3.28s WALL (      23 calls)
     energy_dftd3 :      0.36s CPU      0.36s WALL (       1 calls)

     Called by c_bands:
     init_us_2    :     55.18s CPU     55.43s WALL (     192 calls)
     init_us_2:cp :     55.18s CPU     55.43s WALL (     192 calls)
     cegterg      :  21845.02s CPU  21950.63s WALL (     114 calls)

     Called by *egterg:
     cdiaghg      :   1317.76s CPU   1321.98s WALL (    1728 calls)
     h_psi        :  11381.49s CPU  11413.89s WALL (    1736 calls)
     s_psi        :   2396.58s CPU   2403.53s WALL (    1736 calls)
     g_psi        :     22.65s CPU     22.66s WALL (    1618 calls)

     Called by h_psi:
     h_psi:calbec :   2398.23s CPU   2398.61s WALL (    1736 calls)
     vloc_psi     :   6546.36s CPU   6556.39s WALL (    1736 calls)
     add_vuspsi   :   2408.38s CPU   2415.74s WALL (    1736 calls)

     General routines
     calbec       :   2951.52s CPU   2951.96s WALL (    1844 calls)
     fft          :     10.16s CPU     10.30s WALL (     309 calls)
     ffts         :      0.60s CPU      0.59s WALL (      46 calls)
     fftw         :   5029.42s CPU   5039.03s WALL (  981458 calls)
     interpolate  :      1.19s CPU      1.20s WALL (      23 calls)
 
     Parallel routines
 
     PWSCF        :      6h39m CPU      6h42m WALL

 
   This run was terminated on:  23:17: 1  16Aug2023            

=------------------------------------------------------------------------------=
   JOB DONE.
=------------------------------------------------------------------------------=
Application 11046851 resources: utime ~863264s, stime ~6800s, Rss ~3483796, inblocks ~0, outblocks ~49567656
