
     Program PWSCF v.7.2 starts on 29Aug2023 at  3:56:37 

     This program is part of the open-source Quantum ESPRESSO suite
     for quantum simulation of materials; please cite
         "P. Giannozzi et al., J. Phys.:Condens. Matter 21 395502 (2009);
         "P. Giannozzi et al., J. Phys.:Condens. Matter 29 465901 (2017);
         "P. Giannozzi et al., J. Chem. Phys. 152 154105 (2020);
          URL http://www.quantum-espresso.org", 
     in publications or presentations arising from this work. More details at
     http://www.quantum-espresso.org/quote

     Parallel version (MPI), running on    36 processors

     MPI processes distributed on     1 nodes
     769123 MiB available memory on the printing compute node when the environment starts
 
     Waiting for input...
     Reading input from standard input
Warning: card &CELL ignored
Warning: card / ignored

     Current dimensions of program PWSCF are:
     Max number of different atomic species (ntypx) = 10
     Max number of k-points (npk) =  40000
     Max angular momentum in pseudopotentials (lmaxx) =  4
     file Mo.pbe-spn-kjpaw_psl.1.0.0.UPF: wavefunction(s)  4S 4D renormalized
     file S.pbe-n-kjpaw_psl.1.0.0.UPF: wavefunction(s)  3S 3P renormalized
     file Pd.pbe-spn-kjpaw_psl.1.0.0.UPF: wavefunction(s)  4S 5S 4D renormalized
     file H.pbe-kjpaw_psl.1.0.0.UPF: wavefunction(s)  1S renormalized
 
     R & G space division:  proc/nbgrp/npool/nimage =      36
     Subspace diagonalization in iterative solution of the eigenvalue problem:
     one sub-group per band group will be used
     custom distributed-memory algorithm (size of sub-group:  6*  6 procs)

 
     Parallelization info
     --------------------
     sticks:   dense  smooth     PW     G-vecs:    dense   smooth      PW
     Min         585     334     89               198743    85850   11735
     Max         586     335     90               198750    85861   11748
     Sum       21073   12049   3205              7154885  3090769  422587
 
     Using Slab Decomposition
 


     bravais-lattice index     =            0
     lattice parameter (alat)  =      23.8199  a.u.
     unit-cell volume          =   33861.0370 (a.u.)^3
     number of atoms/cell      =          194
     number of atomic types    =            4
     number of electrons       =      1683.00
     number of Kohn-Sham states=         1010
     kinetic-energy cutoff     =      77.0000  Ry
     charge density cutoff     =     539.0000  Ry
     scf convergence threshold =      1.0E-06
     mixing beta               =       0.2000
     number of iterations used =            8  plain     mixing
     energy convergence thresh.=      1.0E-04
     force convergence thresh. =      1.0E-03
     Exchange-correlation= SLA  PW   PBX  PBC
                           (   1   4   3   4   0   0   0)
     nstep                     =         1000


     Effective Screening Medium Method
     =================================
     Boundary Conditions: Vacuum-Slab-Vacuum
     total charge in unit cell        =   0.0000
     grid points for fit at edges     =        4 
 

     celldm(1)=  23.819920  celldm(2)=   0.000000  celldm(3)=   0.000000
     celldm(4)=   0.000000  celldm(5)=   0.000000  celldm(6)=   0.000000

     crystal axes: (cart. coord. in units of alat)
               a(1) = (   1.000000   0.000000   0.000000 )  
               a(2) = (  -0.499999   0.866026   0.000000 )  
               a(3) = (   0.000000   0.000000   2.893000 )  

     reciprocal axes: (cart. coord. in units 2 pi/alat)
               b(1) = (  1.000000  0.577349  0.000000 )  
               b(2) = (  0.000000  1.154700  0.000000 )  
               b(3) = (  0.000000  0.000000  0.345662 )  


     PseudoPot. # 1 for Mo read from file:
     ./pseudo/Mo.pbe-spn-kjpaw_psl.1.0.0.UPF
     MD5 check sum: 317bf72632116215fd98f72de1686f13
     Pseudo is Projector augmented-wave + core cor, Zval = 14.0
     Generated using 'atomic' code by A. Dal Corso  v.7.2
     Shape of augmentation charge: PSQ
     Using radial grid of 1229 points,  6 beta functions with: 
                l(1) =   0
                l(2) =   0
                l(3) =   1
                l(4) =   1
                l(5) =   2
                l(6) =   2
     Q(r) pseudized with 0 coefficients 


     PseudoPot. # 2 for S  read from file:
     ./pseudo/S.pbe-n-kjpaw_psl.1.0.0.UPF
     MD5 check sum: 8b7b5302570d38d5e87fed6a1065abda
     Pseudo is Projector augmented-wave + core cor, Zval =  6.0
     Generated using 'atomic' code by A. Dal Corso  v.7.2
     Shape of augmentation charge: PSQ
     Using radial grid of 1151 points,  6 beta functions with: 
                l(1) =   0
                l(2) =   0
                l(3) =   1
                l(4) =   1
                l(5) =   2
                l(6) =   2
     Q(r) pseudized with 0 coefficients 


     PseudoPot. # 3 for Pd read from file:
     ./pseudo/Pd.pbe-spn-kjpaw_psl.1.0.0.UPF
     MD5 check sum: a60571a671f2502b8a6a4569d20a6edb
     Pseudo is Projector augmented-wave + core cor, Zval = 18.0
     Generated using 'atomic' code by A. Dal Corso  v.7.2
     Shape of augmentation charge: PSQ
     Using radial grid of 1235 points,  6 beta functions with: 
                l(1) =   0
                l(2) =   0
                l(3) =   1
                l(4) =   1
                l(5) =   2
                l(6) =   2
     Q(r) pseudized with 0 coefficients 


     PseudoPot. # 4 for H  read from file:
     ./pseudo/H.pbe-kjpaw_psl.1.0.0.UPF
     MD5 check sum: b3cb3c48ee3b58cc53e4d592112d0ca6
     Pseudo is Projector augmented-wave, Zval =  1.0
     Generated using 'atomic' code by A. Dal Corso  v.7.2
     Shape of augmentation charge: PSQ
     Using radial grid of  929 points,  2 beta functions with: 
                l(1) =   0
                l(2) =   0
     Q(r) pseudized with 0 coefficients 


     atomic species   valence    mass     pseudopotential
        Mo            14.00    95.95000     Mo( 1.00)
        S              6.00    32.06000     S ( 1.00)
        Pd            18.00   106.42000     Pd( 1.00)
        H              1.00     1.00800     H ( 1.00)

     No symmetry found



   Cartesian axes

     site n.     atom                  positions (alat units)
         1           Mo  tau(   1) = (   0.0000010   0.1443372  -0.7272732  )
         2           Mo  tau(   2) = (   0.1249995   0.0721706  -0.2424038  )
         3           S   tau(   3) = (   0.0000015   0.1443386  -0.3667807  )
         4           S   tau(   4) = (   0.1250010   0.0721682  -0.6030489  )
         5           S   tau(   5) = (   0.1250010   0.0721683  -0.8514963  )
         6           S   tau(   6) = (   0.0000015   0.1443389  -0.1180260  )
         7           Mo  tau(   7) = (   0.0000007   0.1443589   0.2424205  )
         8           Mo  tau(   8) = (   0.1250041   0.0720322   0.7266168  )
         9           S   tau(   9) = (   0.0000742   0.1444871   0.6020949  )
        10           S   tau(  10) = (   0.1250024   0.0721701   0.3667478  )
        11           S   tau(  11) = (   0.1250035   0.0721876   0.1180348  )
        12           S   tau(  12) = (  -0.0004118   0.1430864   0.8514340  )
        13           Mo  tau(  13) = (  -0.1249989   0.3608437  -0.7272732  )
        14           Mo  tau(  14) = (   0.0000030   0.2886752  -0.2424042  )
        15           S   tau(  15) = (  -0.1249977   0.3608450  -0.3667802  )
        16           S   tau(  16) = (   0.0000012   0.2886747  -0.6030489  )
        17           S   tau(  17) = (   0.0000012   0.2886748  -0.8514963  )
        18           S   tau(  18) = (  -0.1249977   0.3608454  -0.1180274  )
        19           Mo  tau(  19) = (  -0.1249729   0.3608584   0.2424608  )
        20           Mo  tau(  20) = (  -0.0007193   0.2876626   0.7275440  )
        21           S   tau(  21) = (  -0.1251115   0.3607789   0.6027257  )
        22           S   tau(  22) = (   0.0000621   0.2887099   0.3668377  )
        23           S   tau(  23) = (  -0.0000096   0.2886902   0.1180527  )
        24           S   tau(  24) = (  -0.1254673   0.3605734   0.8517408  )
        25           Mo  tau(  25) = (  -0.2499987   0.5773502  -0.7272732  )
        26           Mo  tau(  26) = (  -0.1249977   0.5051839  -0.2424055  )
        27           S   tau(  27) = (  -0.2499981   0.5773518  -0.3667809  )
        28           S   tau(  28) = (  -0.1249986   0.5051812  -0.6030489  )
        29           S   tau(  29) = (  -0.1249986   0.5051813  -0.8514963  )
        30           S   tau(  30) = (  -0.2499979   0.5773512  -0.1180266  )
        31           Mo  tau(  31) = (  -0.2499795   0.5773389   0.2424205  )
        32           Mo  tau(  32) = (  -0.1262356   0.5050639   0.7275441  )
        33           S   tau(  33) = (  -0.2498323   0.5773390   0.6020948  )
        34           S   tau(  34) = (  -0.1249376   0.5052159   0.3668377  )
        35           S   tau(  35) = (  -0.1249905   0.5051638   0.1180531  )
        36           S   tau(  36) = (  -0.2512883   0.5776183   0.8514340  )
        37           Mo  tau(  37) = (  -0.3749985   0.7938567  -0.7272732  )
        38           Mo  tau(  38) = (  -0.2500001   0.7216874  -0.2424031  )
        39           S   tau(  39) = (  -0.3749980   0.7938584  -0.3667800  )
        40           S   tau(  40) = (  -0.2499984   0.7216877  -0.6030489  )
        41           S   tau(  41) = (  -0.2499984   0.7216878  -0.8514963  )
        42           S   tau(  42) = (  -0.3749982   0.7938585  -0.1180264  )
        43           Mo  tau(  43) = (  -0.3749962   0.7938568   0.2423838  )
        44           Mo  tau(  44) = (  -0.2501148   0.7217588   0.7266170  )
        45           S   tau(  45) = (  -0.3749945   0.7938590   0.6021274  )
        46           S   tau(  46) = (  -0.2499958   0.7216877   0.3667488  )
        47           S   tau(  47) = (  -0.2499810   0.7216794   0.1180323  )
        48           S   tau(  48) = (  -0.3749953   0.7938585   0.8511588  )
        49           Mo  tau(  49) = (   0.2500010   0.1443372  -0.7272732  )
        50           Mo  tau(  50) = (   0.3750034   0.0721723  -0.2424032  )
        51           S   tau(  51) = (   0.2500017   0.1443391  -0.3667788  )
        52           S   tau(  52) = (   0.3750010   0.0721682  -0.6030489  )
        53           S   tau(  53) = (   0.3750010   0.0721683  -0.8514963  )
        54           S   tau(  54) = (   0.2500016   0.1443391  -0.1180271  )
        55           Mo  tau(  55) = (   0.2500054   0.1443594   0.2424211  )
        56           Mo  tau(  56) = (   0.3749279   0.0721263   0.7263991  )
        57           S   tau(  57) = (   0.2499344   0.1444864   0.6020948  )
        58           S   tau(  58) = (   0.3750316   0.0721860   0.3667597  )
        59           S   tau(  59) = (   0.3749924   0.0721644   0.1180346  )
        60           S   tau(  60) = (   0.2504199   0.1430865   0.8514340  )
        61           Mo  tau(  61) = (   0.1250012   0.3608437  -0.7272732  )
        62           Mo  tau(  62) = (   0.2500029   0.2886782  -0.2424031  )
        63           S   tau(  63) = (   0.1250024   0.3608455  -0.3667794  )
        64           S   tau(  64) = (   0.2500012   0.2886747  -0.6030489  )
        65           S   tau(  65) = (   0.2500012   0.2886748  -0.8514963  )
        66           S   tau(  66) = (   0.1250021   0.3608455  -0.1180270  )
        67           Mo  tau(  67) = (   0.1250038   0.3608653   0.2423963  )
        68           Mo  tau(  68) = (   0.2507284   0.2876625   0.7275438  )
        69           S   tau(  69) = (   0.1250046   0.3627170   0.6061948  )
        70           S   tau(  70) = (   0.2499461   0.2887116   0.3668373  )
        71           S   tau(  71) = (   0.2500171   0.2886900   0.1180543  )
        72           S   tau(  72) = (   0.1250046   0.3519103   0.8557806  )
        73           Mo  tau(  73) = (   0.0000014   0.5773502  -0.7272732  )
        74           Mo  tau(  74) = (   0.1250045   0.5051840  -0.2424036  )
        75           S   tau(  75) = (   0.0000030   0.5773520  -0.3667799  )
        76           S   tau(  76) = (   0.1250014   0.5051812  -0.6030489  )
        77           S   tau(  77) = (   0.1250014   0.5051813  -0.8514963  )
        78           S   tau(  78) = (   0.0000026   0.5773517  -0.1180274  )
        79           Mo  tau(  79) = (   0.0000222   0.5773400   0.2423964  )
        80           Mo  tau(  80) = (   0.1250047   0.5051836   0.7321380  )
        81           S   tau(  81) = (   0.0016251   0.5764170   0.6061946  )
        82           S   tau(  82) = (   0.1250047   0.5051815   0.3667777  )
        83           S   tau(  83) = (   0.1250048   0.5051819   0.1179962  )
        84           S   tau(  84) = (  -0.0077335   0.5818202   0.8557807  )
        85           Mo  tau(  85) = (  -0.1249984   0.7938567  -0.7272732  )
        86           Mo  tau(  86) = (   0.0000069   0.7216896  -0.2424039  )
        87           S   tau(  87) = (  -0.1249975   0.7938582  -0.3667782  )
        88           S   tau(  88) = (   0.0000016   0.7216877  -0.6030489  )
        89           S   tau(  89) = (   0.0000016   0.7216878  -0.8514963  )
        90           S   tau(  90) = (  -0.1249973   0.7938582  -0.1180279  )
        91           Mo  tau(  91) = (  -0.1249774   0.7938494   0.2424207  )
        92           Mo  tau(  92) = (  -0.0005116   0.7228241   0.7275438  )
        93           S   tau(  93) = (  -0.1249026   0.7937246   0.6020948  )
        94           S   tau(  94) = (   0.0000043   0.7216209   0.3668361  )
        95           S   tau(  95) = (   0.0000226   0.7216928   0.1180549  )
        96           S   tau(  96) = (  -0.1258721   0.7948451   0.8514341  )
        97           Mo  tau(  97) = (   0.5000010   0.1443372  -0.7272732  )
        98           Mo  tau(  98) = (   0.6250001   0.0721662  -0.2424040  )
        99           S   tau(  99) = (   0.5000017   0.1443386  -0.3667801  )
       100           S   tau( 100) = (   0.6250010   0.0721682  -0.6030489  )
       101           S   tau( 101) = (   0.6250010   0.0721683  -0.8514963  )
       102           S   tau( 102) = (   0.5000020   0.1443388  -0.1180261  )
       103           Mo  tau( 103) = (   0.5000075   0.1443411   0.2423793  )
       104           Mo  tau( 104) = (   0.6250042   0.0723339   0.7270464  )
       105           S   tau( 105) = (   0.5002366   0.1444733   0.6023595  )
       106           S   tau( 106) = (   0.6250029   0.0721787   0.3667562  )
       107           S   tau( 107) = (   0.6250040   0.0721260   0.1180315  )
       108           S   tau( 108) = (   0.4998752   0.1442648   0.8512770  )
       109           Mo  tau( 109) = (   0.3750012   0.3608437  -0.7272732  )
       110           Mo  tau( 110) = (   0.4999991   0.2886761  -0.2424038  )
       111           S   tau( 111) = (   0.3750012   0.3608452  -0.3667804  )
       112           S   tau( 112) = (   0.5000012   0.2886747  -0.6030489  )
       113           S   tau( 113) = (   0.5000012   0.2886748  -0.8514963  )
       114           S   tau( 114) = (   0.3750014   0.3608455  -0.1180261  )
       115           Mo  tau( 115) = (   0.3749795   0.3608597   0.2424601  )
       116           Mo  tau( 116) = (   0.5001461   0.2885951   0.7270464  )
       117           S   tau( 117) = (   0.3751205   0.3607791   0.6027254  )
       118           S   tau( 118) = (   0.5000105   0.2886721   0.3667569  )
       119           S   tau( 119) = (   0.4999655   0.2886989   0.1180297  )
       120           S   tau( 120) = (   0.3754765   0.3605739   0.8517402  )
       121           Mo  tau( 121) = (   0.2500014   0.5773502  -0.7272732  )
       122           Mo  tau( 122) = (   0.3749983   0.5051825  -0.2424043  )
       123           S   tau( 123) = (   0.2500017   0.5773519  -0.3667810  )
       124           S   tau( 124) = (   0.3750014   0.5051812  -0.6030489  )
       125           S   tau( 125) = (   0.3750014   0.5051813  -0.8514963  )
       126           S   tau( 126) = (   0.2500018   0.5773519  -0.1180256  )
       127           Mo  tau( 127) = (   0.2499863   0.5773402   0.2423965  )
       128           Mo  tau( 128) = (   0.3762454   0.5050642   0.7275433  )
       129           S   tau( 129) = (   0.2483844   0.5764169   0.6061944  )
       130           S   tau( 130) = (   0.3749442   0.5052158   0.3668400  )
       131           S   tau( 131) = (   0.3749972   0.5051650   0.1180510  )
       132           S   tau( 132) = (   0.2577438   0.5818204   0.8557797  )
       133           Mo  tau( 133) = (   0.1250016   0.7938567  -0.7272732  )
       134           Mo  tau( 134) = (   0.2499995   0.7216883  -0.2424036  )
       135           S   tau( 135) = (   0.1250024   0.7938578  -0.3667813  )
       136           S   tau( 136) = (   0.2500016   0.7216877  -0.6030489  )
       137           S   tau( 137) = (   0.2500016   0.7216878  -0.8514963  )
       138           S   tau( 138) = (   0.1250024   0.7938579  -0.1180253  )
       139           Mo  tau( 139) = (   0.1250047   0.7938294   0.2424606  )
       140           Mo  tau( 140) = (   0.2505220   0.7228241   0.7275433  )
       141           S   tau( 141) = (   0.1250053   0.7939926   0.6027252  )
       142           S   tau( 142) = (   0.2500048   0.7216200   0.3668387  )
       143           S   tau( 143) = (   0.2499864   0.7216915   0.1180524  )
       144           S   tau( 144) = (   0.1250054   0.7944033   0.8517402  )
       145           Mo  tau( 145) = (   0.7500010   0.1443372  -0.7272732  )
       146           Mo  tau( 146) = (   0.8750038   0.0721696  -0.2424038  )
       147           S   tau( 147) = (   0.7500016   0.1443382  -0.3667789  )
       148           S   tau( 148) = (   0.8750010   0.0721682  -0.6030489  )
       149           S   tau( 149) = (   0.8750010   0.0721683  -0.8514963  )
       150           S   tau( 150) = (   0.7500016   0.1443384  -0.1180279  )
       151           Mo  tau( 151) = (   0.7499986   0.1443409   0.2423802  )
       152           Mo  tau( 152) = (   0.8750804   0.0721266   0.7263988  )
       153           S   tau( 153) = (   0.7497713   0.1444738   0.6023592  )
       154           S   tau( 154) = (   0.8749758   0.0721848   0.3667595  )
       155           S   tau( 155) = (   0.8750127   0.0721632   0.1180342  )
       156           S   tau( 156) = (   0.7501331   0.1442647   0.8512770  )
       157           Mo  tau( 157) = (   0.6250012   0.3608437  -0.7272732  )
       158           Mo  tau( 158) = (   0.7500028   0.2886769  -0.2424041  )
       159           S   tau( 159) = (   0.6250015   0.3608451  -0.3667792  )
       160           S   tau( 160) = (   0.7500012   0.2886747  -0.6030489  )
       161           S   tau( 161) = (   0.7500012   0.2886748  -0.8514963  )
       162           S   tau( 162) = (   0.6250016   0.3608454  -0.1180280  )
       163           Mo  tau( 163) = (   0.6250032   0.3608391   0.2423797  )
       164           Mo  tau( 164) = (   0.7498627   0.2885951   0.7270467  )
       165           S   tau( 165) = (   0.6250046   0.3605769   0.6023590  )
       166           S   tau( 166) = (   0.7499943   0.2886711   0.3667569  )
       167           S   tau( 167) = (   0.7500399   0.2886970   0.1180318  )
       168           S   tau( 168) = (   0.6250043   0.3609947   0.8512770  )
       169           Mo  tau( 169) = (   0.5000014   0.5773502  -0.7272732  )
       170           Mo  tau( 170) = (   0.6250029   0.5051841  -0.2424047  )
       171           S   tau( 171) = (   0.5000014   0.5773518  -0.3667794  )
       172           S   tau( 172) = (   0.6250014   0.5051812  -0.6030489  )
       173           S   tau( 173) = (   0.6250014   0.5051813  -0.8514963  )
       174           S   tau( 174) = (   0.5000016   0.5773516  -0.1180277  )
       175           Mo  tau( 175) = (   0.4999855   0.5773383   0.2424207  )
       176           Mo  tau( 176) = (   0.6250049   0.5052713   0.7263986  )
       177           S   tau( 177) = (   0.4998428   0.5773389   0.6020941  )
       178           S   tau( 178) = (   0.6250030   0.5051500   0.3667588  )
       179           S   tau( 179) = (   0.6250025   0.5051935   0.1180351  )
       180           S   tau( 180) = (   0.5012979   0.5776190   0.8514332  )
       181           Mo  tau( 181) = (   0.3750016   0.7938567  -0.7272732  )
       182           Mo  tau( 182) = (   0.5000025   0.7216901  -0.2424039  )
       183           S   tau( 183) = (   0.3750019   0.7938578  -0.3667793  )
       184           S   tau( 184) = (   0.5000016   0.7216877  -0.6030489  )
       185           S   tau( 185) = (   0.5000016   0.7216878  -0.8514963  )
       186           S   tau( 186) = (   0.3750020   0.7938579  -0.1180272  )
       187           Mo  tau( 187) = (   0.3749848   0.7938487   0.2424206  )
       188           Mo  tau( 188) = (   0.5001249   0.7217591   0.7266160  )
       189           S   tau( 189) = (   0.3749125   0.7937251   0.6020942  )
       190           S   tau( 190) = (   0.5000021   0.7216868   0.3667472  )
       191           S   tau( 191) = (   0.4999874   0.7216780   0.1180346  )
       192           S   tau( 192) = (   0.3758826   0.7948451   0.8514332  )
       193           Pd  tau( 193) = (   0.1250063   0.5051842   0.9601361  )
       194           H   tau( 194) = (   0.3754871   0.3605724   0.9627957  )

     --------------------------------------------
     DFT-D3 Dispersion Correction (3-body terms):
     --------------------------------------------
       Reference C6 values for interpolation: 

         atom   Coordination number   C6
         H          0.912             6.05
         H          0.000            15.18
         S          0.000           268.01
         S          0.995           261.99
         S          1.990           251.62
         Mo         0.000          1691.79
         Mo         1.942          1004.01
         Mo        11.056           674.22
         Pd         0.000          1217.01
         Pd         1.863           573.90
         Pd         5.710           531.75

       Values used:

         atom   Coordination number  R0_AB[au]  C6      C8
         Mo        10.208            3.547    674.22  77634.20
         Mo        10.221            3.547    674.22  77634.20
         S          3.858            3.128    251.62  12327.25
         S          3.859            3.128    251.62  12327.25
         S          3.758            3.128    251.62  12327.25
         S          3.859            3.128    251.62  12327.25
         Mo        10.220            3.547    674.22  77634.20
         Mo        10.233            3.547    674.22  77634.20
         S          3.846            3.128    251.62  12327.25
         S          3.861            3.128    251.62  12327.25
         S          3.859            3.128    251.62  12327.25
         S          3.805            3.128    251.62  12327.25
         Mo        10.208            3.547    674.22  77634.20
         Mo        10.221            3.547    674.21  77634.20
         S          3.858            3.128    251.62  12327.25
         S          3.859            3.128    251.62  12327.25
         S          3.758            3.128    251.62  12327.25
         S          3.859            3.128    251.62  12327.25
         Mo        10.221            3.547    674.22  77634.20
         Mo        10.191            3.547    674.22  77634.20
         S          3.855            3.128    251.62  12327.25
         S          3.856            3.128    251.62  12327.25
         S          3.859            3.128    251.62  12327.25
         S          3.756            3.128    251.62  12327.25
         Mo        10.208            3.547    674.22  77634.20
         Mo        10.221            3.547    674.22  77634.20
         S          3.858            3.128    251.62  12327.25
         S          3.859            3.128    251.62  12327.25
         S          3.758            3.128    251.62  12327.25
         S          3.859            3.128    251.62  12327.25
         Mo        10.220            3.547    674.22  77634.20
         Mo        10.191            3.547    674.22  77634.20
         S          3.846            3.128    251.62  12327.25
         S          3.856            3.128    251.62  12327.25
         S          3.859            3.128    251.62  12327.25
         S          3.805            3.128    251.62  12327.25
         Mo        10.208            3.547    674.22  77634.20
         Mo        10.221            3.547    674.22  77634.20
         S          3.858            3.128    251.62  12327.25
         S          3.859            3.128    251.62  12327.25
         S          3.758            3.128    251.62  12327.25
         S          3.859            3.128    251.62  12327.25
         Mo        10.219            3.547    674.22  77634.20
         Mo        10.233            3.547    674.22  77634.20
         S          3.856            3.128    251.62  12327.25
         S          3.861            3.128    251.62  12327.25
         S          3.859            3.128    251.62  12327.25
         S          3.781            3.128    251.62  12327.25
         Mo        10.208            3.547    674.22  77634.20
         Mo        10.221            3.547    674.22  77634.20
         S          3.858            3.128    251.62  12327.25
         S          3.859            3.128    251.62  12327.25
         S          3.758            3.128    251.62  12327.25
         S          3.859            3.128    251.62  12327.25
         Mo        10.220            3.547    674.22  77634.20
         Mo        10.243            3.547    674.22  77634.20
         S          3.846            3.128    251.62  12327.25
         S          3.860            3.128    251.62  12327.25
         S          3.859            3.128    251.62  12327.25
         S          3.805            3.128    251.62  12327.25
         Mo        10.208            3.547    674.22  77634.20
         Mo        10.221            3.547    674.22  77634.20
         S          3.858            3.128    251.62  12327.25
         S          3.859            3.128    251.62  12327.25
         S          3.758            3.128    251.62  12327.25
         S          3.859            3.128    251.62  12327.25
         Mo        10.222            3.547    674.22  77634.20
         Mo        10.192            3.547    674.22  77634.20
         S          3.865            3.128    251.62  12327.25
         S          3.856            3.128    251.62  12327.25
         S          3.859            3.128    251.62  12327.25
         S          4.653            3.128    251.62  12327.25
         Mo        10.208            3.547    674.22  77634.20
         Mo        10.221            3.547    674.22  77634.20
         S          3.858            3.128    251.62  12327.25
         S          3.859            3.128    251.62  12327.25
         S          3.758            3.128    251.62  12327.25
         S          3.859            3.128    251.62  12327.25
         Mo        10.222            3.547    674.22  77634.20
         Mo        10.821            3.547    674.22  77634.20
         S          3.865            3.128    251.62  12327.25
         S          3.853            3.128    251.62  12327.25
         S          3.859            3.128    251.62  12327.25
         S          4.653            3.128    251.62  12327.25
         Mo        10.208            3.547    674.22  77634.20
         Mo        10.221            3.547    674.22  77634.20
         S          3.858            3.128    251.62  12327.25
         S          3.859            3.128    251.62  12327.25
         S          3.758            3.128    251.62  12327.25
         S          3.859            3.128    251.62  12327.25
         Mo        10.220            3.547    674.22  77634.20
         Mo        10.191            3.547    674.22  77634.20
         S          3.846            3.128    251.62  12327.25
         S          3.856            3.128    251.62  12327.25
         S          3.859            3.128    251.62  12327.25
         S          3.805            3.128    251.62  12327.25
         Mo        10.208            3.547    674.22  77634.20
         Mo        10.221            3.547    674.22  77634.20
         S          3.858            3.128    251.62  12327.25
         S          3.859            3.128    251.62  12327.25
         S          3.758            3.128    251.62  12327.25
         S          3.859            3.128    251.62  12327.25
         Mo        10.220            3.547    674.21  77634.20
         Mo        10.229            3.547    674.22  77634.20
         S          3.862            3.128    251.62  12327.25
         S          3.860            3.128    251.62  12327.25
         S          3.859            3.128    251.62  12327.25
         S          3.765            3.128    251.62  12327.25
         Mo        10.208            3.547    674.22  77634.20
         Mo        10.221            3.547    674.22  77634.20
         S          3.858            3.128    251.62  12327.25
         S          3.859            3.128    251.62  12327.25
         S          3.758            3.128    251.62  12327.25
         S          3.859            3.128    251.62  12327.25
         Mo        10.221            3.547    674.22  77634.20
         Mo        10.231            3.547    674.22  77634.20
         S          3.855            3.128    251.62  12327.25
         S          3.860            3.128    251.62  12327.25
         S          3.859            3.128    251.62  12327.25
         S          4.744            3.128    251.62  12327.25
         Mo        10.208            3.547    674.22  77634.20
         Mo        10.221            3.547    674.22  77634.20
         S          3.858            3.128    251.62  12327.25
         S          3.859            3.128    251.62  12327.25
         S          3.758            3.128    251.62  12327.25
         S          3.859            3.128    251.62  12327.25
         Mo        10.222            3.547    674.22  77634.20
         Mo        10.192            3.547    674.22  77634.20
         S          3.865            3.128    251.62  12327.25
         S          3.856            3.128    251.62  12327.25
         S          3.859            3.128    251.62  12327.25
         S          4.653            3.128    251.62  12327.25
         Mo        10.208            3.547    674.22  77634.20
         Mo        10.221            3.547    674.22  77634.20
         S          3.858            3.128    251.62  12327.25
         S          3.859            3.128    251.62  12327.25
         S          3.758            3.128    251.62  12327.25
         S          3.859            3.128    251.62  12327.25
         Mo        10.221            3.547    674.22  77634.20
         Mo        10.191            3.547    674.22  77634.20
         S          3.855            3.128    251.62  12327.25
         S          3.856            3.128    251.62  12327.25
         S          3.859            3.128    251.62  12327.25
         S          3.756            3.128    251.62  12327.25
         Mo        10.208            3.547    674.22  77634.20
         Mo        10.221            3.547    674.22  77634.20
         S          3.858            3.128    251.62  12327.25
         S          3.859            3.128    251.62  12327.25
         S          3.758            3.128    251.62  12327.25
         S          3.859            3.128    251.62  12327.25
         Mo        10.220            3.547    674.22  77634.20
         Mo        10.243            3.547    674.22  77634.20
         S          3.862            3.128    251.62  12327.25
         S          3.860            3.128    251.62  12327.25
         S          3.859            3.128    251.62  12327.25
         S          3.765            3.128    251.62  12327.25
         Mo        10.208            3.547    674.22  77634.20
         Mo        10.220            3.547    674.22  77634.20
         S          3.858            3.128    251.62  12327.25
         S          3.859            3.128    251.62  12327.25
         S          3.758            3.128    251.62  12327.25
         S          3.859            3.128    251.62  12327.25
         Mo        10.220            3.547    674.22  77634.20
         Mo        10.229            3.547    674.22  77634.20
         S          3.862            3.128    251.62  12327.25
         S          3.860            3.128    251.62  12327.25
         S          3.859            3.128    251.62  12327.25
         S          3.765            3.128    251.62  12327.25
         Mo        10.208            3.547    674.22  77634.20
         Mo        10.221            3.547    674.22  77634.20
         S          3.858            3.128    251.62  12327.25
         S          3.859            3.128    251.62  12327.25
         S          3.758            3.128    251.62  12327.25
         S          3.859            3.128    251.62  12327.25
         Mo        10.220            3.547    674.22  77634.20
         Mo        10.243            3.547    674.22  77634.20
         S          3.846            3.128    251.62  12327.25
         S          3.860            3.128    251.62  12327.25
         S          3.859            3.128    251.62  12327.25
         S          3.805            3.128    251.62  12327.25
         Mo        10.208            3.547    674.22  77634.20
         Mo        10.221            3.547    674.22  77634.20
         S          3.858            3.128    251.62  12327.25
         S          3.859            3.128    251.62  12327.25
         S          3.758            3.128    251.62  12327.25
         S          3.859            3.128    251.62  12327.25
         Mo        10.220            3.547    674.21  77634.20
         Mo        10.233            3.547    674.22  77634.20
         S          3.846            3.128    251.62  12327.25
         S          3.861            3.128    251.62  12327.25
         S          3.859            3.128    251.62  12327.25
         S          3.805            3.128    251.62  12327.25
         Pd         3.767            3.168    558.54  51175.81
         H          0.998            2.062      6.18     74.74

         Molecular C6 ( Ry / a.u.^6 ) =  13806423.52


     number of k points=     4  Gaussian smearing, width (Ry)=  0.0100
                       cart. coord. in units 2pi/alat
        k(    1) = (   0.0000000   0.0000000   0.0000000), wk =   0.5000000
        k(    2) = (   0.0000000  -0.5773499   0.0000000), wk =   0.5000000
        k(    3) = (  -0.5000000  -0.2886744   0.0000000), wk =   0.5000000
        k(    4) = (  -0.5000000  -0.8660242   0.0000000), wk =   0.5000000

     Dense  grid:  7154885 G-vectors     FFT dimensions: ( 180, 180, 512)

     Smooth grid:  3090769 G-vectors     FFT dimensions: ( 135, 135, 400)

     Estimated max dynamical RAM per process >       3.19 GB

     Estimated total dynamical RAM >     114.66 GB

     Initial potential from superposition of free atoms

     starting charge    1682.9391, renormalised to    1683.0000

     negative rho (up, down):  9.023E-04 0.000E+00
     Starting wfcs are 1163 randomized atomic wfcs
     Checking if some PAW data can be deallocated... 

     total cpu time spent up to now is      194.6 secs

     Self-consistent Calculation

     iteration #  1     ecut=    77.00 Ry     beta= 0.20
     Davidson diagonalization with overlap
     ethr =  1.00E-02,  avg # of iterations =  2.0

     Threshold (ethr) on eigenvalues was too large:
     Diagonalizing with lowered threshold

     Davidson diagonalization with overlap
     c_bands:  3 eigenvalues not converged
     ethr =  1.65E-04,  avg # of iterations = 15.8

     negative rho (up, down):  2.283E-04 0.000E+00

     total cpu time spent up to now is     2385.9 secs

     total energy              =  -32306.59482673 Ry
     estimated scf accuracy    <       6.74985962 Ry

     iteration #  2     ecut=    77.00 Ry     beta= 0.20
     Davidson diagonalization with overlap
     ethr =  4.01E-04,  avg # of iterations =  7.2

     negative rho (up, down):  1.391E-04 0.000E+00

     total cpu time spent up to now is     2835.4 secs

     total energy              =  -32305.29303581 Ry
     estimated scf accuracy    <       6.99836253 Ry

     iteration #  3     ecut=    77.00 Ry     beta= 0.20
     Davidson diagonalization with overlap
     ethr =  4.01E-04,  avg # of iterations =  7.2

     negative rho (up, down):  5.629E-05 0.000E+00

     total cpu time spent up to now is     3291.4 secs

     total energy              =  -32284.97697081 Ry
     estimated scf accuracy    <    1000.54359879 Ry

     iteration #  4     ecut=    77.00 Ry     beta= 0.20
     Davidson diagonalization with overlap
     ethr =  4.01E-04,  avg # of iterations =  3.5

     negative rho (up, down):  2.125E-05 0.000E+00

     total cpu time spent up to now is     3728.0 secs

     total energy              =  -32305.57761145 Ry
     estimated scf accuracy    <      65.77661146 Ry

     iteration #  5     ecut=    77.00 Ry     beta= 0.20
     Davidson diagonalization with overlap
     c_bands:  2 eigenvalues not converged
     c_bands:  3 eigenvalues not converged
     c_bands:  3 eigenvalues not converged
     c_bands:  2 eigenvalues not converged
     ethr =  4.01E-04,  avg # of iterations = 20.0

     negative rho (up, down):  1.186E-05 0.000E+00

     total cpu time spent up to now is     4246.2 secs

     total energy              =  -32305.43287669 Ry
     estimated scf accuracy    <      14.00102316 Ry

     iteration #  6     ecut=    77.00 Ry     beta= 0.20
     Davidson diagonalization with overlap
     ethr =  4.01E-04,  avg # of iterations =  2.0

     negative rho (up, down):  7.855E-06 0.000E+00

     total cpu time spent up to now is     4674.4 secs

     total energy              =  -32305.71657015 Ry
     estimated scf accuracy    <       0.65245348 Ry

     iteration #  7     ecut=    77.00 Ry     beta= 0.20
     Davidson diagonalization with overlap
     c_bands:  5 eigenvalues not converged
     c_bands:  2 eigenvalues not converged
     ethr =  3.88E-05,  avg # of iterations = 21.0

     negative rho (up, down):  2.127E-05 0.000E+00

     total cpu time spent up to now is     6723.2 secs

     total energy              =  -32306.54015411 Ry
     estimated scf accuracy    <       7.10880907 Ry

     iteration #  8     ecut=    77.00 Ry     beta= 0.20
     Davidson diagonalization with overlap
     c_bands:  1 eigenvalues not converged
     c_bands:  1 eigenvalues not converged
     ethr =  3.88E-05,  avg # of iterations = 15.5

     negative rho (up, down):  3.418E-05 0.000E+00

     total cpu time spent up to now is     7218.3 secs

     total energy              =  -32306.58590149 Ry
     estimated scf accuracy    <       0.86725457 Ry

     iteration #  9     ecut=    77.00 Ry     beta= 0.20
     Davidson diagonalization with overlap
     ethr =  3.88E-05,  avg # of iterations =  3.0

     negative rho (up, down):  3.713E-04 0.000E+00

     total cpu time spent up to now is     7643.8 secs

     total energy              =  -32306.48707674 Ry
     estimated scf accuracy    <       0.74265772 Ry

     iteration # 10     ecut=    77.00 Ry     beta= 0.20
     Davidson diagonalization with overlap
     ethr =  3.88E-05,  avg # of iterations =  6.0

     negative rho (up, down):  6.064E-04 0.000E+00

     total cpu time spent up to now is     8136.9 secs

     total energy              =  -32306.31053379 Ry
     estimated scf accuracy    <       6.93436647 Ry

     iteration # 11     ecut=    77.00 Ry     beta= 0.20
     Davidson diagonalization with overlap
     c_bands:  3 eigenvalues not converged
     ethr =  3.88E-05,  avg # of iterations = 10.0

     negative rho (up, down):  6.973E-04 0.000E+00

     total cpu time spent up to now is     8734.9 secs

     total energy              =  -32306.61524621 Ry
     estimated scf accuracy    <       0.17871410 Ry

     iteration # 12     ecut=    77.00 Ry     beta= 0.20
     Davidson diagonalization with overlap
     c_bands:  1 eigenvalues not converged
     c_bands:  1 eigenvalues not converged
     c_bands:  5 eigenvalues not converged
     ethr =  1.06E-05,  avg # of iterations = 60.5

     negative rho (up, down):  2.936E-04 0.000E+00

     total cpu time spent up to now is    10589.5 secs

     total energy              =  -32306.69569858 Ry
     estimated scf accuracy    <       0.22489026 Ry

     iteration # 13     ecut=    77.00 Ry     beta= 0.20
     Davidson diagonalization with overlap
     c_bands:  1 eigenvalues not converged
     ethr =  1.06E-05,  avg # of iterations =  6.2

     negative rho (up, down):  2.106E-04 0.000E+00

     total cpu time spent up to now is    11023.6 secs

     total energy              =  -32306.66462246 Ry
     estimated scf accuracy    <       0.12262003 Ry

     iteration # 14     ecut=    77.00 Ry     beta= 0.20
     Davidson diagonalization with overlap
     c_bands:  3 eigenvalues not converged
     ethr =  7.29E-06,  avg # of iterations = 16.5

     negative rho (up, down):  2.291E-04 0.000E+00

     total cpu time spent up to now is    11690.5 secs

     total energy              =  -32306.66734596 Ry
     estimated scf accuracy    <       0.05540164 Ry

     iteration # 15     ecut=    77.00 Ry     beta= 0.20
     Davidson diagonalization with overlap
     c_bands:  2 eigenvalues not converged
     c_bands:  5 eigenvalues not converged
     c_bands: 14 eigenvalues not converged
     c_bands: 19 eigenvalues not converged
     ethr =  3.29E-06,  avg # of iterations = 85.0

     negative rho (up, down):  2.997E-04 0.000E+00

     total cpu time spent up to now is    14180.3 secs

     total energy              =  -32306.71027296 Ry
     estimated scf accuracy    <       0.10321612 Ry

     iteration # 16     ecut=    77.00 Ry     beta= 0.20
     Davidson diagonalization with overlap
     c_bands:  1 eigenvalues not converged
     c_bands: 16 eigenvalues not converged
     c_bands:  6 eigenvalues not converged
     c_bands:  7 eigenvalues not converged
     ethr =  3.29E-06,  avg # of iterations = 95.0

     negative rho (up, down):  4.918E-04 0.000E+00

     total cpu time spent up to now is    16338.9 secs

     total energy              =  -32306.68753508 Ry
     estimated scf accuracy    <       0.06683268 Ry

     iteration # 17     ecut=    77.00 Ry     beta= 0.20
     Davidson diagonalization with overlap
     c_bands:  1 eigenvalues not converged
     c_bands:  5 eigenvalues not converged
     c_bands:  2 eigenvalues not converged
     c_bands:  4 eigenvalues not converged
     ethr =  3.29E-06,  avg # of iterations = 30.0

     negative rho (up, down):  6.444E-04 0.000E+00

     total cpu time spent up to now is    17132.7 secs

     total energy              =  -32306.69257404 Ry
     estimated scf accuracy    <       0.02372295 Ry

     iteration # 18     ecut=    77.00 Ry     beta= 0.20
     Davidson diagonalization with overlap
     c_bands:  1 eigenvalues not converged
     c_bands:  5 eigenvalues not converged
     c_bands:  1 eigenvalues not converged
     c_bands:  4 eigenvalues not converged
     ethr =  1.41E-06,  avg # of iterations = 35.0

     negative rho (up, down):  6.989E-04 0.000E+00

     total cpu time spent up to now is    18197.1 secs

     total energy              =  -32306.69894696 Ry
     estimated scf accuracy    <       0.02306105 Ry

     iteration # 19     ecut=    77.00 Ry     beta= 0.20
     Davidson diagonalization with overlap
     c_bands:  1 eigenvalues not converged
     c_bands:  4 eigenvalues not converged
     c_bands:  2 eigenvalues not converged
     ethr =  1.37E-06,  avg # of iterations = 15.5

     negative rho (up, down):  1.169E-03 0.000E+00

     total cpu time spent up to now is    18684.5 secs

     total energy              =  -32306.68750677 Ry
     estimated scf accuracy    <       0.01691916 Ry

     iteration # 20     ecut=    77.00 Ry     beta= 0.20
     Davidson diagonalization with overlap
     c_bands:  1 eigenvalues not converged
     c_bands:  2 eigenvalues not converged
     c_bands:  4 eigenvalues not converged
     ethr =  1.01E-06,  avg # of iterations = 75.5

     negative rho (up, down):  7.981E-04 0.000E+00

     total cpu time spent up to now is    20867.4 secs

     total energy              =  -32306.68959917 Ry
     estimated scf accuracy    <       0.03426900 Ry

     iteration # 21     ecut=    77.00 Ry     beta= 0.20
     Davidson diagonalization with overlap
     c_bands:  5 eigenvalues not converged
     c_bands:  2 eigenvalues not converged
     c_bands:  1 eigenvalues not converged
     ethr =  1.01E-06,  avg # of iterations = 24.5

     negative rho (up, down):  8.105E-04 0.000E+00

     total cpu time spent up to now is    21479.1 secs

     total energy              =  -32306.69587714 Ry
     estimated scf accuracy    <       0.00322814 Ry

     iteration # 22     ecut=    77.00 Ry     beta= 0.20
     Davidson diagonalization with overlap
     c_bands:  1 eigenvalues not converged
     ethr =  1.92E-07,  avg # of iterations = 15.0

     negative rho (up, down):  8.693E-04 0.000E+00

     total cpu time spent up to now is    22027.5 secs

     total energy              =  -32306.69584555 Ry
     estimated scf accuracy    <       0.00187243 Ry

     iteration # 23     ecut=    77.00 Ry     beta= 0.20
     Davidson diagonalization with overlap
     ethr =  1.11E-07,  avg # of iterations =  8.2

     negative rho (up, down):  9.039E-04 0.000E+00

     total cpu time spent up to now is    22686.8 secs

     total energy              =  -32306.69647968 Ry
     estimated scf accuracy    <       0.00092846 Ry

     iteration # 24     ecut=    77.00 Ry     beta= 0.20
     Davidson diagonalization with overlap
     c_bands:  1 eigenvalues not converged
     ethr =  5.52E-08,  avg # of iterations = 16.0

     negative rho (up, down):  9.005E-04 0.000E+00

     total cpu time spent up to now is    23320.9 secs

     total energy              =  -32306.69667609 Ry
     estimated scf accuracy    <       0.00027639 Ry

     iteration # 25     ecut=    77.00 Ry     beta= 0.20
     Davidson diagonalization with overlap
     c_bands:  1 eigenvalues not converged
     ethr =  1.64E-08,  avg # of iterations = 16.5

     negative rho (up, down):  8.917E-04 0.000E+00

     total cpu time spent up to now is    24434.5 secs

     total energy              =  -32306.69707197 Ry
     estimated scf accuracy    <       0.00031733 Ry

     iteration # 26     ecut=    77.00 Ry     beta= 0.20
     Davidson diagonalization with overlap
     ethr =  1.64E-08,  avg # of iterations =  1.2

     negative rho (up, down):  8.865E-04 0.000E+00

     total cpu time spent up to now is    24836.0 secs

     total energy              =  -32306.69701088 Ry
     estimated scf accuracy    <       0.00014358 Ry

     iteration # 27     ecut=    77.00 Ry     beta= 0.20
     Davidson diagonalization with overlap
     ethr =  8.53E-09,  avg # of iterations = 14.5

     negative rho (up, down):  8.782E-04 0.000E+00

     total cpu time spent up to now is    25897.7 secs

     total energy              =  -32306.69712083 Ry
     estimated scf accuracy    <       0.00038794 Ry

     iteration # 28     ecut=    77.00 Ry     beta= 0.20
     Davidson diagonalization with overlap
     ethr =  8.53E-09,  avg # of iterations =  1.0

     negative rho (up, down):  8.829E-04 0.000E+00

     total cpu time spent up to now is    26290.7 secs

     total energy              =  -32306.69706026 Ry
     estimated scf accuracy    <       0.00014711 Ry

     iteration # 29     ecut=    77.00 Ry     beta= 0.20
     Davidson diagonalization with overlap
     ethr =  8.53E-09,  avg # of iterations =  6.2

     negative rho (up, down):  8.889E-04 0.000E+00

     total cpu time spent up to now is    26747.7 secs

     total energy              =  -32306.69705154 Ry
     estimated scf accuracy    <       0.00003097 Ry

     iteration # 30     ecut=    77.00 Ry     beta= 0.20
     Davidson diagonalization with overlap
     c_bands:  3 eigenvalues not converged
     c_bands:  2 eigenvalues not converged
     c_bands:  2 eigenvalues not converged
     ethr =  1.84E-09,  avg # of iterations = 20.0

     negative rho (up, down):  8.887E-04 0.000E+00

     total cpu time spent up to now is    28101.9 secs

     total energy              =  -32306.69714649 Ry
     estimated scf accuracy    <       0.00009149 Ry

     iteration # 31     ecut=    77.00 Ry     beta= 0.20
     Davidson diagonalization with overlap
     ethr =  1.84E-09,  avg # of iterations =  1.8

     negative rho (up, down):  8.858E-04 0.000E+00

     total cpu time spent up to now is    28521.8 secs

     total energy              =  -32306.69712029 Ry
     estimated scf accuracy    <       0.00008694 Ry

     iteration # 32     ecut=    77.00 Ry     beta= 0.20
     Davidson diagonalization with overlap
     ethr =  1.84E-09,  avg # of iterations =  2.0

     negative rho (up, down):  8.834E-04 0.000E+00

     total cpu time spent up to now is    28950.6 secs

     total energy              =  -32306.69710084 Ry
     estimated scf accuracy    <       0.00004516 Ry

     iteration # 33     ecut=    77.00 Ry     beta= 0.20
     Davidson diagonalization with overlap
     ethr =  1.84E-09,  avg # of iterations = 13.8

     negative rho (up, down):  8.830E-04 0.000E+00

     total cpu time spent up to now is    29521.0 secs

     total energy              =  -32306.69710509 Ry
     estimated scf accuracy    <       0.00000637 Ry

     iteration # 34     ecut=    77.00 Ry     beta= 0.20
     Davidson diagonalization with overlap
     ethr =  3.78E-10,  avg # of iterations = 15.8

     negative rho (up, down):  8.862E-04 0.000E+00

     total cpu time spent up to now is    30769.7 secs

     total energy              =  -32306.69711710 Ry
     estimated scf accuracy    <       0.00000810 Ry

     iteration # 35     ecut=    77.00 Ry     beta= 0.20
     Davidson diagonalization with overlap
     ethr =  3.78E-10,  avg # of iterations =  2.0

     negative rho (up, down):  8.878E-04 0.000E+00

     total cpu time spent up to now is    31202.9 secs

     total energy              =  -32306.69711614 Ry
     estimated scf accuracy    <       0.00000223 Ry

     iteration # 36     ecut=    77.00 Ry     beta= 0.20
     Davidson diagonalization with overlap
     ethr =  1.33E-10,  avg # of iterations = 15.2

     negative rho (up, down):  8.884E-04 0.000E+00

     total cpu time spent up to now is    31971.4 secs

     End of self-consistent calculation

          k = 0.0000 0.0000 0.0000 (386245 PWs)   bands (ev):

   -88.7691 -66.6752 -66.6490 -66.6393 -66.6328 -66.6283 -66.6240 -66.6105
   -66.6063 -66.5973 -66.5945 -66.5918 -66.5839 -66.5739 -66.5709 -66.5651
   -66.5626 -66.4892 -66.4691 -66.4691 -66.4684 -66.4672 -66.4668 -66.4659
   -66.4633 -66.4585 -66.4484 -66.4480 -66.4478 -66.4466 -66.4464 -66.4458
   -66.4456 -66.4450 -66.4425 -66.4422 -66.4422 -66.4421 -66.4419 -66.4419
   -66.4418 -66.4372 -66.4372 -66.4372 -66.4372 -66.4372 -66.4372 -66.4208
   -66.4208 -66.4208 -66.4207 -66.4207 -66.4206 -66.4206 -66.4204 -66.4203
   -66.4158 -66.4158 -66.4158 -66.4158 -66.4158 -66.4158 -66.4158 -66.4158
   -66.4158 -54.5873 -54.5642 -54.5620 -40.9776 -40.9720 -40.9676 -40.9003
   -40.8958 -40.8917 -40.8872 -40.8791 -40.8785 -40.8403 -40.8290 -40.8166
   -40.8166 -40.8159 -40.8149 -40.8045 -40.7908 -40.7908 -40.7906 -40.7866
   -40.7866 -40.7866 -40.7791 -40.7716 -40.7673 -40.7639 -40.7603 -40.7587
   -40.7533 -40.7519 -40.7500 -40.7447 -40.7421 -40.7412 -40.7411 -40.7410
   -40.7404 -40.7402 -40.7373 -40.7332 -40.7282 -40.7264 -40.7247 -40.7198
   -40.7168 -40.7155 -40.7155 -40.7155 -40.7153 -40.7153 -40.7152 -40.7146
   -40.7119 -40.7112 -40.7112 -40.7112 -40.7112 -40.7112 -40.7112 -40.7058
   -40.7038 -40.7035 -40.6964 -40.6952 -40.6515 -40.6495 -40.6439 -40.6423
   -40.6231 -40.6188 -40.6163 -40.6147 -40.6145 -40.6144 -40.6144 -40.6138
   -40.6090 -40.6089 -40.6085 -40.6076 -40.6074 -40.6052 -40.6052 -40.6044
   -40.6020 -40.5929 -40.5892 -40.5891 -40.5891 -40.5891 -40.5890 -40.5890
   -40.5890 -40.5847 -40.5847 -40.5847 -40.5847 -40.5847 -40.5847 -40.5818
   -40.5815 -40.5815 -40.5814 -40.5813 -40.5813 -40.5812 -40.5810 -40.5798
   -40.5797 -40.5795 -40.5789 -40.5788 -40.5770 -40.5770 -40.5770 -40.5770
   -40.5770 -40.5770 -40.5675 -40.5672 -40.5672 -40.5662 -40.5661 -40.5656
   -40.5654 -40.5651 -40.5607 -40.5541 -40.5541 -40.5541 -40.5540 -40.5540
   -40.5539 -40.5496 -40.5496 -40.5496 -40.5496 -40.5496 -40.5496 -40.5449
   -40.5423 -40.5395 -40.5395 -40.5395 -40.5395 -40.5394 -40.5394 -40.5394
   -40.5391 -40.5391 -40.5350 -40.5350 -40.5350 -40.5350 -40.5350 -40.5350
   -40.5350 -40.5349 -40.5349 -40.5014 -40.5014 -40.5009 -40.4757 -40.4757
   -40.4757 -40.4712 -40.4712 -40.4712 -40.4551 -40.4543 -40.4543 -40.4539
   -40.4539 -40.4531 -40.4287 -40.4287 -40.4287 -40.4285 -40.4284 -40.4284
   -40.4241 -40.4241 -40.4241 -40.4241 -40.4241 -40.4241 -40.4065 -40.4064
   -40.3810 -40.3809 -40.3764 -40.3764 -20.3535 -19.9658 -19.8865 -19.8034
   -19.7254 -19.2717 -19.2553 -19.2133 -19.1834 -19.1782 -19.0950 -19.0803
   -19.0801 -19.0772 -19.0723 -19.0712 -19.0179 -18.9943 -18.9940 -18.9912
   -18.9857 -18.9848 -18.9170 -18.8857 -18.8851 -18.8842 -18.8820 -18.8818
   -18.8628 -18.7677 -18.6597 -18.5143 -18.5104 -18.4919 -18.4609 -18.3979
   -18.3914 -18.3524 -18.3446 -18.2886 -18.2813 -18.2761 -18.2620 -18.2605
   -18.2532 -18.2142 -18.1693 -18.1441 -18.1371 -18.1362 -18.1346 -18.1342
   -18.1256 -18.0899 -18.0895 -18.0747 -18.0573 -18.0471 -18.0435 -18.0314
   -18.0310 -18.0306 -18.0299 -18.0299 -18.0295 -17.9995 -17.9972 -17.9833
   -17.9683 -17.9674 -17.9665 -17.9580 -17.9576 -17.9556 -17.9401 -17.9372
   -17.9302 -17.9281 -17.9275 -17.9263 -17.9134 -17.9130 -17.9101 -17.8998
   -17.8957 -17.8885 -17.8845 -17.8822 -17.8806 -17.8736 -17.8733 -17.8696
   -17.8427 -17.8407 -17.8379 -17.8352 -17.8348 -17.8329 -17.8248 -17.8246
   -17.8231 -17.7612 -17.7610 -17.7599 -17.7490 -17.7474 -17.7462 -17.7456
   -17.7452 -17.7447 -17.7168 -17.7168 -17.7164 -17.6896 -17.6888 -17.6885
   -17.6884 -17.6879 -17.6877 -17.6833 -17.6833 -17.6832 -17.6418 -17.6417
   -17.6417 -17.6416 -17.6415 -17.6415 -13.0454 -11.8504 -11.8314 -11.8207
   -11.8170 -11.6408 -11.6381 -11.6375 -11.6197 -11.5249 -11.5222 -11.5215
   -11.4007 -11.3993 -11.3990 -11.3135 -11.2262 -11.2077 -11.1662 -11.1547
   -11.1377 -11.1277 -11.1266 -11.1233 -11.1122 -11.1007 -11.0847 -11.0586
   -11.0127 -11.0037 -11.0001 -10.9806 -10.9801 -10.9692 -10.9635 -10.9581
   -10.9573 -10.9543 -10.9531 -10.9480 -10.9445 -10.9374 -10.9271 -10.9089
   -10.8996 -10.8795 -10.8773 -10.8560 -10.8503 -10.8496 -10.8422 -10.8350
   -10.8274 -10.8009 -10.7987 -10.7901 -10.7634 -10.7629 -10.7607 -10.7602
   -10.7582 -10.7575 -10.7333 -10.7123 -10.7094 -10.7046 -10.7007 -10.6939
   -10.6918 -10.6917 -10.6839 -10.6834 -10.6824 -10.6817 -10.6809 -10.6806
   -10.6430 -10.6316 -10.6307 -10.6303 -10.6303 -10.6302 -10.6301 -10.6239
   -10.6238 -10.5942 -10.5813 -10.5812 -10.5811 -10.5811 -10.5810 -10.5809
   -10.5061 -10.5059 -10.4980 -10.4594 -10.4521 -10.4502 -10.4477 -10.4461
   -10.4299 -10.2842 -10.2703 -10.0588 -10.0330 -10.0183  -9.8698  -9.8688
    -9.8556  -9.7974  -9.7605  -9.7569  -9.7508  -9.7368  -9.7206  -9.6997
    -9.6640  -9.6568  -9.6565  -9.6367  -9.6348  -9.6339  -9.6331  -9.6293
    -9.6264  -9.6143  -9.6124  -9.6018  -9.5994  -9.5968  -9.5937  -9.5912
    -9.5909  -9.5853  -9.5778  -9.5770  -9.5629  -9.5544  -9.5498  -9.4982
    -9.4935  -9.4914  -9.4913  -9.4893  -9.4890  -9.4861  -9.4852  -9.4844
    -9.4405  -9.4310  -9.4137  -9.3901  -9.3881  -9.3832  -9.3795  -9.3788
    -9.3786  -9.3786  -9.3785  -9.3785  -9.3779  -9.3759  -9.3725  -9.3665
    -9.3616  -9.3559  -9.2531  -9.2513  -9.2509  -9.2410  -9.2396  -9.2310
    -9.2247  -9.2245  -9.2152  -9.2122  -9.2035  -9.1993  -9.1459  -9.1269
    -9.1115  -9.1092  -9.1067  -9.1006  -9.1003  -9.0836  -9.0735  -9.0517
    -9.0340  -9.0278  -9.0276  -9.0270  -9.0270  -9.0267  -9.0257  -9.0123
    -9.0070  -8.9997  -8.9716  -8.9466  -8.9185  -8.9098  -8.8933  -8.8622
    -8.8616  -8.8306  -8.8303  -8.8299  -8.7981  -8.7980  -8.7977  -8.7798
    -8.7751  -8.7718  -8.7658  -8.7637  -8.7616  -8.7597  -8.7596  -8.7596
    -8.6807  -8.6708  -8.6688  -8.6654  -8.6645  -8.6628  -8.6518  -8.6430
    -8.6409  -8.6321  -8.6310  -8.6164  -8.5935  -8.5313  -8.5284  -8.5265
    -8.5263  -8.5242  -8.5222  -8.4697  -8.4526  -8.4393  -8.4392  -8.4389
    -8.4388  -8.4377  -8.4374  -8.3843  -8.3654  -8.3551  -8.3268  -8.3071
    -8.2824  -8.2681  -8.2262  -8.2262  -8.2025  -8.2025  -8.1951  -8.1951
    -8.1948  -8.1300  -8.1285  -8.1270  -8.1269  -8.1266  -8.1260  -8.0991
    -8.0979  -8.0971  -8.0970  -8.0969  -8.0967  -8.0735  -8.0632  -8.0626
    -8.0625  -8.0625  -8.0624  -8.0612  -8.0434  -7.8422  -7.7766  -7.7606
    -7.7339  -7.6907  -7.6862  -7.6697  -7.6159  -7.6055  -7.5970  -7.5944
    -7.5904  -7.5821  -7.5707  -7.5486  -7.5461  -7.5384  -7.5162  -7.5139
    -7.4953  -7.4944  -7.4944  -7.4669  -7.4508  -7.4466  -7.4383  -7.4311
    -7.4289  -7.4155  -7.3876  -7.3861  -7.3856  -7.3854  -7.3852  -7.3841
    -7.3802  -7.3565  -7.3561  -7.3561  -7.3560  -7.3559  -7.3555  -7.3499
    -7.3452  -7.3279  -7.3245  -7.3245  -7.3244  -7.3244  -7.3243  -7.3243
    -7.3088  -7.3035  -7.3029  -7.2993  -7.2963  -7.2958  -7.2898  -7.2794
    -7.2708  -7.2225  -7.2075  -7.1893  -7.1866  -7.1850  -7.1760  -7.1514
    -7.1498  -7.1495  -7.1489  -7.1475  -7.1475  -7.1046  -7.1046  -7.0870
    -7.0790  -7.0790  -7.0551  -7.0551  -7.0470  -7.0300  -7.0167  -6.9923
    -6.9681  -6.9672  -6.9570  -6.8888  -6.7847  -6.7843  -6.7640  -6.7608
    -6.7292  -6.7238  -6.7150  -6.6921  -6.6752  -6.6398  -6.6294  -6.6270
    -6.6205  -6.6038  -6.6023  -6.5756  -6.5665  -6.5642  -6.5499  -6.5452
    -6.5430  -6.5329  -6.4800  -6.4661  -6.4637  -6.4627  -6.4469  -6.4311
    -6.4295  -6.4287  -6.4277  -6.4273  -6.4249  -6.3742  -6.3723  -6.3693
    -6.3687  -6.3685  -6.3684  -6.3678  -6.3672  -6.3542  -6.3513  -6.3506
    -6.3373  -6.3373  -6.3373  -6.3372  -6.3372  -6.3372  -6.3284  -6.3274
    -6.2997  -6.2983  -6.2982  -6.2528  -6.2509  -6.2505  -6.2472  -6.2425
    -6.1803  -6.1793  -6.1786  -6.1781  -6.1746  -6.1737  -6.1471  -6.1386
    -6.1385  -6.1378  -6.1369  -6.1361  -6.1359  -6.0944  -6.0943  -6.0942
    -6.0941  -6.0939  -6.0939  -5.8746  -5.7866  -5.7556  -5.5518  -5.2305
    -5.0182  -4.1967  -3.9662  -3.8284  -3.8059  -3.7685  -3.7527  -3.7464
    -3.7363  -3.7344  -3.7287  -3.7257  -3.7218  -3.6423  -3.6401  -3.6257
    -3.6123  -3.5923  -3.5884  -3.5837  -3.5819  -3.5781  -3.5762  -3.5755
    -3.5747  -3.5224  -3.4882  -3.4436  -3.4410  -3.4383  -3.4291  -3.4230
    -3.4177  -3.4170  -3.4023  -3.4010  -3.3884  -3.3868  -3.3825  -3.3801
    -3.3752  -3.3653  -3.3541  -3.3479  -3.3407  -3.3371  -3.3040  -3.3029
    -3.2991  -3.2989  -3.2945  -3.2944  -3.2938  -3.2932  -3.2927  -3.2691
    -3.2691  -3.2689  -3.2455  -3.2454  -3.2454  -3.2241  -3.2237  -3.2197
    -3.2191  -3.2176  -3.2161  -3.2129  -3.2098  -3.2092  -3.2084  -3.2069
    -3.2056  -3.1663  -3.1549  -3.1356  -3.1350  -3.1342  -3.1339  -3.1336
    -3.1334  -3.1153  -3.1001  -3.0912  -3.0848  -3.0472  -3.0199  -3.0119
    -2.9924  -2.9837  -2.9743  -2.9718  -2.9711  -2.9628  -2.9599  -2.9558
    -2.9518  -2.9318  -2.9099  -2.8957  -2.8873  -2.8792  -2.8660  -2.8574
    -2.8557  -2.8552  -2.8539  -2.8525  -2.8520  -2.8510  -2.8506  -2.8448
    -2.8424  -2.8415  -2.8382  -2.8337  -2.8307  -2.8269  -2.8242  -2.7973
    -2.7969  -2.7811  -2.7810  -2.7809  -2.7807  -2.7806  -2.7803  -2.7723
    -2.7718  -2.7529  -2.7523  -2.7518  -2.7474  -2.7426  -2.6711  -2.6643
    -2.6561  -2.6561  -2.6559  -2.6465  -2.6424  -2.6417  -2.6415  -2.6414
    -2.6413  -2.6397  -2.6366  -2.6343  -2.6319  -2.6203  -2.6194  -2.5499
    -2.5497  -2.5268  -2.5219  -2.5150  -2.5082  -2.5020  -2.5014  -2.4856
    -2.4855  -2.4552  -2.4483  -2.4369  -2.4320  -2.4293  -2.4289  -2.3365
    -2.2748  -2.2730

          k = 0.0000-0.5773 0.0000 (386352 PWs)   bands (ev):

   -88.7691 -66.6751 -66.6488 -66.6407 -66.6330 -66.6262 -66.6247 -66.6118
   -66.6051 -66.5969 -66.5944 -66.5924 -66.5842 -66.5731 -66.5709 -66.5664
   -66.5619 -66.4837 -66.4822 -66.4725 -66.4718 -66.4577 -66.4574 -66.4572
   -66.4570 -66.4569 -66.4568 -66.4533 -66.4523 -66.4523 -66.4515 -66.4480
   -66.4465 -66.4465 -66.4464 -66.4456 -66.4451 -66.4418 -66.4416 -66.4416
   -66.4406 -66.4315 -66.4314 -66.4313 -66.4312 -66.4270 -66.4268 -66.4265
   -66.4265 -66.4265 -66.4265 -66.4221 -66.4220 -66.4208 -66.4207 -66.4207
   -66.4204 -66.4162 -66.4162 -66.4158 -66.4158 -66.4158 -66.4158 -66.4113
   -66.4113 -54.5873 -54.5642 -54.5620 -40.9579 -40.9492 -40.9350 -40.9327
   -40.9161 -40.9020 -40.8890 -40.8755 -40.8512 -40.8464 -40.8426 -40.8375
   -40.8271 -40.8233 -40.8091 -40.7995 -40.7862 -40.7849 -40.7840 -40.7837
   -40.7768 -40.7719 -40.7664 -40.7652 -40.7592 -40.7592 -40.7591 -40.7589
   -40.7586 -40.7574 -40.7549 -40.7549 -40.7549 -40.7549 -40.7537 -40.7459
   -40.7456 -40.7411 -40.7323 -40.7323 -40.7322 -40.7281 -40.7281 -40.7264
   -40.7202 -40.7202 -40.7198 -40.7179 -40.7160 -40.7160 -40.7119 -40.7088
   -40.7082 -40.7035 -40.7013 -40.6986 -40.6954 -40.6951 -40.6950 -40.6949
   -40.6925 -40.6828 -40.6749 -40.6696 -40.6696 -40.6695 -40.6695 -40.6684
   -40.6653 -40.6653 -40.6653 -40.6653 -40.6519 -40.6475 -40.6422 -40.6381
   -40.6380 -40.6366 -40.6301 -40.6270 -40.6266 -40.6225 -40.6169 -40.6159
   -40.6154 -40.6109 -40.6108 -40.6066 -40.6066 -40.6013 -40.6013 -40.6012
   -40.5969 -40.5969 -40.5905 -40.5900 -40.5900 -40.5876 -40.5869 -40.5869
   -40.5863 -40.5857 -40.5857 -40.5809 -40.5789 -40.5770 -40.5684 -40.5672
   -40.5662 -40.5656 -40.5655 -40.5650 -40.5640 -40.5605 -40.5605 -40.5603
   -40.5603 -40.5574 -40.5561 -40.5560 -40.5560 -40.5560 -40.5558 -40.5520
   -40.5517 -40.5516 -40.5473 -40.5473 -40.5398 -40.5398 -40.5395 -40.5394
   -40.5394 -40.5391 -40.5358 -40.5354 -40.5354 -40.5350 -40.5350 -40.5350
   -40.5350 -40.5347 -40.5337 -40.5335 -40.5307 -40.5307 -40.5263 -40.5263
   -40.5089 -40.5089 -40.5088 -40.5087 -40.5044 -40.5044 -40.5044 -40.5044
   -40.4999 -40.4997 -40.4995 -40.4995 -40.4883 -40.4866 -40.4741 -40.4741
   -40.4740 -40.4740 -40.4696 -40.4696 -40.4696 -40.4696 -40.4690 -40.4675
   -40.4620 -40.4619 -40.4575 -40.4575 -40.4512 -40.4510 -40.4427 -40.4426
   -40.4381 -40.4381 -40.4256 -40.4256 -40.4213 -40.4211 -40.4211 -40.4196
   -40.3950 -40.3949 -40.3904 -40.3904 -20.3155 -19.8310 -19.7324 -19.7053
   -19.6591 -19.6094 -19.5809 -19.4980 -19.4946 -19.4125 -19.3001 -19.2721
   -19.2346 -19.1818 -19.1574 -19.0725 -19.0680 -18.7971 -18.7682 -18.7539
   -18.6853 -18.6761 -18.6011 -18.5751 -18.5735 -18.5698 -18.5586 -18.5514
   -18.5395 -18.5188 -18.5146 -18.4986 -18.4869 -18.4867 -18.4769 -18.4325
   -18.4116 -18.3993 -18.3985 -18.3956 -18.3935 -18.3892 -18.3729 -18.3570
   -18.3460 -18.3208 -18.3109 -18.2700 -18.2591 -18.2572 -18.2548 -18.2501
   -18.2205 -18.2144 -18.2026 -18.1782 -18.1698 -18.1678 -18.1215 -18.1175
   -18.0985 -18.0976 -18.0945 -18.0672 -18.0507 -18.0451 -18.0323 -18.0321
   -18.0309 -18.0288 -17.9879 -17.9810 -17.9517 -17.9476 -17.9361 -17.9354
   -17.9341 -17.9330 -17.9296 -17.9291 -17.9270 -17.9259 -17.9199 -17.9141
   -17.8923 -17.8902 -17.8819 -17.8751 -17.8522 -17.8496 -17.8491 -17.8490
   -17.8487 -17.8477 -17.8411 -17.8400 -17.8344 -17.8307 -17.8290 -17.8273
   -17.7822 -17.7818 -17.7754 -17.7673 -17.7553 -17.7532 -17.7528 -17.7526
   -17.7034 -17.7025 -17.7022 -17.7021 -17.6687 -17.6681 -17.6621 -17.6620
   -17.6619 -17.6618 -17.6465 -17.6462 -17.6253 -17.6246 -17.6004 -17.6002
   -17.5755 -17.5755 -17.5562 -17.5562 -13.0417 -11.6354 -11.6005 -11.5965
   -11.5814 -11.5436 -11.4607 -11.4487 -11.4037 -11.3849 -11.3702 -11.3480
   -11.3432 -11.3410 -11.3289 -11.3162 -11.3048 -11.2869 -11.2707 -11.2388
   -11.2309 -11.2202 -11.2186 -11.2150 -11.1840 -11.1810 -11.1658 -11.1250
   -11.1158 -11.1145 -11.1110 -11.1093 -11.1060 -11.1025 -11.0908 -11.0814
   -11.0700 -11.0579 -11.0556 -11.0484 -11.0442 -11.0414 -11.0391 -11.0120
   -11.0054 -10.9921 -10.9856 -10.9724 -10.9665 -10.9612 -10.9509 -10.9292
   -10.9231 -10.8938 -10.8820 -10.8342 -10.8069 -10.8057 -10.8019 -10.7954
   -10.7794 -10.7691 -10.7678 -10.7236 -10.7018 -10.7013 -10.6946 -10.6939
   -10.6746 -10.6701 -10.6695 -10.6677 -10.6572 -10.6556 -10.6534 -10.6528
   -10.6496 -10.6332 -10.6331 -10.6320 -10.6317 -10.6310 -10.6285 -10.5809
   -10.5808 -10.5805 -10.5804 -10.5343 -10.4758 -10.4000 -10.3975 -10.3828
   -10.3646 -10.3365 -10.3260 -10.2603 -10.2442 -10.1256 -10.1231 -10.1156
   -10.1036 -10.0741 -10.0519  -9.9810  -9.9737  -9.9707  -9.9686  -9.9532
    -9.9518  -9.9331  -9.9102  -9.9041  -9.9034  -9.8973  -9.8813  -9.8785
    -9.8694  -9.8354  -9.8194  -9.8144  -9.8032  -9.8013  -9.7972  -9.7958
    -9.7645  -9.7432  -9.7394  -9.7310  -9.7266  -9.7175  -9.6946  -9.6896
    -9.6541  -9.6481  -9.6438  -9.6338  -9.6144  -9.6117  -9.5886  -9.5784
    -9.5718  -9.5639  -9.5211  -9.5189  -9.5071  -9.4989  -9.4973  -9.4908
    -9.4680  -9.4405  -9.4345  -9.4338  -9.4181  -9.4135  -9.4106  -9.4072
    -9.3702  -9.3599  -9.3457  -9.3430  -9.3329  -9.3246  -9.3196  -9.3054
    -9.3035  -9.3021  -9.2996  -9.2972  -9.2569  -9.2447  -9.2349  -9.2186
    -9.1984  -9.1854  -9.1613  -9.1508  -9.1132  -9.1089  -9.1025  -9.0976
    -9.0837  -9.0705  -9.0319  -9.0227  -9.0010  -8.9917  -8.9851  -8.9761
    -8.9682  -8.9501  -8.9445  -8.9369  -8.9296  -8.9252  -8.9210  -8.9194
    -8.9116  -8.8880  -8.8725  -8.8636  -8.8407  -8.8227  -8.8152  -8.8141
    -8.8120  -8.8090  -8.8075  -8.7992  -8.7660  -8.7594  -8.7565  -8.7515
    -8.7366  -8.7335  -8.7332  -8.7331  -8.7318  -8.7303  -8.7283  -8.7264
    -8.7260  -8.7251  -8.7030  -8.7014  -8.6798  -8.6788  -8.6519  -8.6438
    -8.6435  -8.6414  -8.6360  -8.6354  -8.6320  -8.6118  -8.6117  -8.6106
    -8.5826  -8.5743  -8.5742  -8.5722  -8.5628  -8.5547  -8.5207  -8.5093
    -8.5085  -8.4997  -8.4223  -8.3536  -8.3484  -8.3284  -8.3075  -8.2889
    -8.2675  -8.2092  -8.1987  -8.1953  -8.1518  -8.1495  -8.0874  -8.0582
    -7.9845  -7.9826  -7.9662  -7.9608  -7.9607  -7.9468  -7.9467  -7.9283
    -7.9269  -7.9195  -7.8735  -7.8569  -7.8163  -7.8131  -7.8062  -7.7920
    -7.7866  -7.7826  -7.7749  -7.7737  -7.7593  -7.7487  -7.7294  -7.7216
    -7.6924  -7.6877  -7.6767  -7.6745  -7.6676  -7.6667  -7.6603  -7.6431
    -7.6418  -7.6407  -7.6405  -7.6387  -7.6381  -7.6345  -7.6225  -7.6201
    -7.6179  -7.6142  -7.6131  -7.6130  -7.6118  -7.6100  -7.5977  -7.5977
    -7.5813  -7.5806  -7.5805  -7.5802  -7.5536  -7.5375  -7.5374  -7.5373
    -7.5366  -7.5115  -7.5106  -7.5060  -7.5048  -7.5036  -7.5017  -7.4933
    -7.4922  -7.4850  -7.4827  -7.4787  -7.4602  -7.4595  -7.4327  -7.4325
    -7.4308  -7.4188  -7.4135  -7.4116  -7.4084  -7.4048  -7.4047  -7.3539
    -7.3184  -7.3091  -7.3075  -7.3056  -7.2872  -7.2724  -7.2686  -7.2377
    -7.1352  -7.0988  -7.0749  -7.0316  -7.0269  -7.0170  -7.0160  -6.9980
    -6.9891  -6.9625  -6.9607  -6.9553  -6.9492  -6.9312  -6.9175  -6.9075
    -6.8733  -6.8707  -6.8673  -6.8671  -6.8599  -6.8434  -6.8245  -6.8205
    -6.8162  -6.7673  -6.7635  -6.7479  -6.7388  -6.7275  -6.7097  -6.7033
    -6.7012  -6.6923  -6.6770  -6.6751  -6.6569  -6.6501  -6.6354  -6.6166
    -6.5947  -6.5570  -6.5503  -6.5307  -6.5183  -6.4707  -6.4692  -6.4681
    -6.4621  -6.4614  -6.4614  -6.4610  -6.4336  -6.4336  -6.4335  -6.4335
    -6.4166  -6.4166  -6.4166  -6.4165  -6.4146  -6.4015  -6.3653  -6.3177
    -6.2986  -6.2900  -6.2793  -6.2682  -6.2045  -6.2010  -6.1642  -6.1610
    -6.1603  -6.1588  -6.1484  -6.1304  -6.1304  -6.1090  -6.1090  -6.1060
    -6.1025  -6.1016  -6.1009  -6.0966  -6.0457  -6.0454  -6.0451  -6.0451
    -6.0079  -5.9804  -5.8823  -5.8357  -5.8307  -5.7841  -5.7780  -5.7597
    -5.7388  -5.7001  -5.6906  -5.6874  -5.6611  -5.5507  -5.5335  -5.4424
    -5.4414  -4.1930  -4.0525  -4.0155  -3.9981  -3.9175  -3.9066  -3.8568
    -3.8540  -3.8449  -3.8177  -3.8161  -3.8098  -3.7274  -3.7142  -3.6898
    -3.6893  -3.6627  -3.6626  -3.6542  -3.6389  -3.6389  -3.6227  -3.5996
    -3.5827  -3.5741  -3.5613  -3.5368  -3.5317  -3.5301  -3.5228  -3.5185
    -3.5016  -3.4661  -3.4454  -3.4208  -3.4154  -3.4109  -3.4099  -3.3925
    -3.3908  -3.3867  -3.3690  -3.3502  -3.3467  -3.3458  -3.3423  -3.3372
    -3.3348  -3.3296  -3.3233  -3.3128  -3.3081  -3.3031  -3.3018  -3.2932
    -3.2930  -3.2901  -3.2877  -3.2634  -3.2542  -3.2463  -3.2387  -3.2370
    -3.2250  -3.2022  -3.2004  -3.2000  -3.1993  -3.1991  -3.1945  -3.1801
    -3.1697  -3.1663  -3.1638  -3.1190  -3.1120  -3.1113  -3.1110  -3.1089
    -3.1077  -3.1067  -3.1043  -3.0868  -3.0697  -3.0673  -3.0510  -3.0501
    -3.0486  -3.0480  -3.0474  -3.0450  -3.0425  -3.0369  -3.0205  -3.0107
    -3.0053  -2.9957  -2.9957  -2.9820  -2.9721  -2.9714  -2.9660  -2.9598
    -2.9577  -2.9492  -2.9474  -2.9328  -2.9254  -2.8964  -2.8891  -2.8788
    -2.8734  -2.8703  -2.8645  -2.8628  -2.8622  -2.8552  -2.8535  -2.8497
    -2.8483  -2.8477  -2.8467  -2.8456  -2.8380  -2.8347  -2.8345  -2.8190
    -2.8119  -2.7943  -2.7941  -2.7879  -2.7834  -2.7745  -2.7707  -2.7706
    -2.7692  -2.7681  -2.7666  -2.7282  -2.7256  -2.6710  -2.6542  -2.6490
    -2.6483  -2.6377  -2.6354  -2.6201  -2.6129  -2.6058  -2.5844  -2.5690
    -2.4917  -2.4718  -2.4458  -2.4440  -2.4243  -2.4114  -2.4102  -2.4090
    -2.3998  -2.3902  -2.3890  -2.3850  -2.3485  -2.3407  -2.3359  -2.3001
    -2.2529  -2.2440

          k =-0.5000-0.2887 0.0000 (386352 PWs)   bands (ev):

   -88.7691 -66.6751 -66.6488 -66.6407 -66.6330 -66.6262 -66.6247 -66.6118
   -66.6051 -66.5969 -66.5944 -66.5924 -66.5842 -66.5731 -66.5709 -66.5664
   -66.5619 -66.4837 -66.4822 -66.4725 -66.4718 -66.4577 -66.4574 -66.4572
   -66.4570 -66.4569 -66.4568 -66.4533 -66.4523 -66.4523 -66.4515 -66.4480
   -66.4465 -66.4465 -66.4464 -66.4456 -66.4451 -66.4418 -66.4416 -66.4416
   -66.4406 -66.4315 -66.4314 -66.4312 -66.4312 -66.4270 -66.4268 -66.4265
   -66.4265 -66.4265 -66.4265 -66.4221 -66.4220 -66.4208 -66.4207 -66.4207
   -66.4204 -66.4162 -66.4162 -66.4158 -66.4158 -66.4158 -66.4158 -66.4113
   -66.4113 -54.5873 -54.5642 -54.5620 -40.9579 -40.9493 -40.9350 -40.9327
   -40.9161 -40.9020 -40.8890 -40.8755 -40.8512 -40.8464 -40.8426 -40.8375
   -40.8271 -40.8234 -40.8091 -40.7995 -40.7862 -40.7849 -40.7840 -40.7837
   -40.7768 -40.7719 -40.7664 -40.7652 -40.7592 -40.7592 -40.7591 -40.7589
   -40.7586 -40.7574 -40.7549 -40.7549 -40.7549 -40.7549 -40.7537 -40.7459
   -40.7456 -40.7411 -40.7323 -40.7323 -40.7322 -40.7281 -40.7281 -40.7264
   -40.7202 -40.7202 -40.7198 -40.7178 -40.7160 -40.7160 -40.7119 -40.7088
   -40.7082 -40.7035 -40.7013 -40.6987 -40.6954 -40.6952 -40.6950 -40.6949
   -40.6925 -40.6828 -40.6749 -40.6696 -40.6696 -40.6695 -40.6695 -40.6684
   -40.6653 -40.6653 -40.6653 -40.6653 -40.6519 -40.6474 -40.6422 -40.6381
   -40.6380 -40.6366 -40.6300 -40.6270 -40.6267 -40.6225 -40.6169 -40.6159
   -40.6154 -40.6109 -40.6108 -40.6066 -40.6066 -40.6013 -40.6012 -40.6012
   -40.5969 -40.5969 -40.5906 -40.5900 -40.5900 -40.5876 -40.5869 -40.5869
   -40.5863 -40.5857 -40.5857 -40.5809 -40.5789 -40.5770 -40.5684 -40.5673
   -40.5662 -40.5656 -40.5655 -40.5650 -40.5640 -40.5605 -40.5605 -40.5603
   -40.5603 -40.5574 -40.5561 -40.5560 -40.5560 -40.5560 -40.5558 -40.5520
   -40.5517 -40.5516 -40.5473 -40.5473 -40.5398 -40.5397 -40.5395 -40.5394
   -40.5394 -40.5391 -40.5358 -40.5354 -40.5354 -40.5350 -40.5350 -40.5350
   -40.5350 -40.5347 -40.5337 -40.5335 -40.5307 -40.5307 -40.5263 -40.5263
   -40.5089 -40.5089 -40.5088 -40.5087 -40.5044 -40.5044 -40.5044 -40.5044
   -40.4999 -40.4997 -40.4995 -40.4995 -40.4883 -40.4866 -40.4741 -40.4741
   -40.4741 -40.4740 -40.4696 -40.4696 -40.4696 -40.4696 -40.4690 -40.4675
   -40.4620 -40.4619 -40.4575 -40.4575 -40.4512 -40.4510 -40.4427 -40.4425
   -40.4381 -40.4381 -40.4256 -40.4256 -40.4213 -40.4211 -40.4211 -40.4196
   -40.3950 -40.3949 -40.3904 -40.3904 -20.3154 -19.8310 -19.7324 -19.7053
   -19.6591 -19.6094 -19.5809 -19.4980 -19.4946 -19.4125 -19.3001 -19.2721
   -19.2346 -19.1818 -19.1574 -19.0725 -19.0680 -18.7971 -18.7682 -18.7538
   -18.6853 -18.6761 -18.6011 -18.5751 -18.5735 -18.5698 -18.5586 -18.5514
   -18.5395 -18.5188 -18.5146 -18.4986 -18.4869 -18.4867 -18.4769 -18.4325
   -18.4116 -18.3993 -18.3985 -18.3956 -18.3935 -18.3892 -18.3729 -18.3570
   -18.3460 -18.3208 -18.3109 -18.2700 -18.2591 -18.2572 -18.2548 -18.2501
   -18.2205 -18.2144 -18.2026 -18.1782 -18.1698 -18.1678 -18.1215 -18.1175
   -18.0985 -18.0976 -18.0945 -18.0672 -18.0507 -18.0451 -18.0323 -18.0321
   -18.0309 -18.0288 -17.9879 -17.9810 -17.9516 -17.9476 -17.9361 -17.9354
   -17.9341 -17.9330 -17.9296 -17.9291 -17.9270 -17.9259 -17.9199 -17.9141
   -17.8923 -17.8902 -17.8819 -17.8751 -17.8522 -17.8496 -17.8491 -17.8490
   -17.8487 -17.8477 -17.8411 -17.8400 -17.8344 -17.8307 -17.8290 -17.8273
   -17.7822 -17.7818 -17.7754 -17.7673 -17.7553 -17.7532 -17.7528 -17.7526
   -17.7034 -17.7025 -17.7022 -17.7021 -17.6687 -17.6681 -17.6621 -17.6620
   -17.6619 -17.6618 -17.6465 -17.6462 -17.6253 -17.6246 -17.6004 -17.6002
   -17.5755 -17.5755 -17.5562 -17.5562 -13.0417 -11.6354 -11.6005 -11.5965
   -11.5814 -11.5436 -11.4607 -11.4487 -11.4037 -11.3849 -11.3702 -11.3480
   -11.3432 -11.3409 -11.3289 -11.3163 -11.3048 -11.2869 -11.2707 -11.2388
   -11.2310 -11.2202 -11.2186 -11.2150 -11.1840 -11.1810 -11.1658 -11.1250
   -11.1158 -11.1145 -11.1110 -11.1093 -11.1060 -11.1025 -11.0907 -11.0814
   -11.0700 -11.0579 -11.0556 -11.0484 -11.0442 -11.0414 -11.0391 -11.0119
   -11.0054 -10.9921 -10.9856 -10.9724 -10.9665 -10.9612 -10.9509 -10.9292
   -10.9231 -10.8938 -10.8820 -10.8342 -10.8069 -10.8057 -10.8019 -10.7954
   -10.7794 -10.7691 -10.7678 -10.7236 -10.7018 -10.7013 -10.6946 -10.6939
   -10.6746 -10.6701 -10.6695 -10.6677 -10.6572 -10.6556 -10.6534 -10.6528
   -10.6496 -10.6332 -10.6331 -10.6320 -10.6317 -10.6310 -10.6285 -10.5809
   -10.5808 -10.5805 -10.5804 -10.5343 -10.4758 -10.4000 -10.3975 -10.3827
   -10.3646 -10.3365 -10.3260 -10.2603 -10.2442 -10.1256 -10.1231 -10.1156
   -10.1036 -10.0741 -10.0519  -9.9810  -9.9737  -9.9707  -9.9686  -9.9532
    -9.9518  -9.9331  -9.9102  -9.9041  -9.9034  -9.8973  -9.8814  -9.8785
    -9.8694  -9.8355  -9.8194  -9.8144  -9.8032  -9.8013  -9.7972  -9.7958
    -9.7645  -9.7432  -9.7394  -9.7310  -9.7266  -9.7175  -9.6946  -9.6896
    -9.6541  -9.6481  -9.6438  -9.6338  -9.6144  -9.6117  -9.5886  -9.5784
    -9.5718  -9.5638  -9.5211  -9.5189  -9.5071  -9.4989  -9.4973  -9.4908
    -9.4680  -9.4405  -9.4345  -9.4338  -9.4181  -9.4135  -9.4106  -9.4072
    -9.3702  -9.3599  -9.3457  -9.3430  -9.3329  -9.3246  -9.3196  -9.3054
    -9.3035  -9.3021  -9.2996  -9.2972  -9.2569  -9.2447  -9.2349  -9.2186
    -9.1985  -9.1854  -9.1613  -9.1508  -9.1132  -9.1089  -9.1025  -9.0976
    -9.0837  -9.0705  -9.0319  -9.0227  -9.0010  -8.9917  -8.9851  -8.9761
    -8.9682  -8.9501  -8.9445  -8.9370  -8.9296  -8.9252  -8.9210  -8.9194
    -8.9116  -8.8880  -8.8725  -8.8636  -8.8407  -8.8227  -8.8152  -8.8141
    -8.8120  -8.8090  -8.8075  -8.7992  -8.7660  -8.7594  -8.7565  -8.7515
    -8.7366  -8.7335  -8.7332  -8.7331  -8.7318  -8.7303  -8.7283  -8.7264
    -8.7260  -8.7251  -8.7030  -8.7014  -8.6798  -8.6788  -8.6519  -8.6438
    -8.6435  -8.6414  -8.6359  -8.6354  -8.6320  -8.6118  -8.6117  -8.6106
    -8.5826  -8.5743  -8.5742  -8.5722  -8.5628  -8.5547  -8.5207  -8.5093
    -8.5085  -8.4997  -8.4223  -8.3536  -8.3484  -8.3284  -8.3075  -8.2889
    -8.2675  -8.2092  -8.1988  -8.1952  -8.1518  -8.1495  -8.0874  -8.0582
    -7.9845  -7.9826  -7.9662  -7.9608  -7.9607  -7.9468  -7.9468  -7.9283
    -7.9269  -7.9195  -7.8734  -7.8569  -7.8163  -7.8131  -7.8062  -7.7920
    -7.7866  -7.7826  -7.7749  -7.7737  -7.7593  -7.7487  -7.7294  -7.7216
    -7.6924  -7.6877  -7.6767  -7.6745  -7.6676  -7.6667  -7.6603  -7.6430
    -7.6419  -7.6407  -7.6405  -7.6387  -7.6381  -7.6345  -7.6225  -7.6201
    -7.6179  -7.6142  -7.6131  -7.6130  -7.6118  -7.6100  -7.5977  -7.5977
    -7.5813  -7.5806  -7.5805  -7.5803  -7.5536  -7.5374  -7.5374  -7.5373
    -7.5366  -7.5115  -7.5106  -7.5060  -7.5048  -7.5036  -7.5017  -7.4933
    -7.4922  -7.4850  -7.4827  -7.4787  -7.4602  -7.4595  -7.4327  -7.4324
    -7.4308  -7.4188  -7.4135  -7.4116  -7.4084  -7.4048  -7.4047  -7.3539
    -7.3184  -7.3090  -7.3075  -7.3057  -7.2872  -7.2724  -7.2686  -7.2377
    -7.1352  -7.0988  -7.0749  -7.0316  -7.0270  -7.0170  -7.0160  -6.9980
    -6.9891  -6.9625  -6.9607  -6.9553  -6.9492  -6.9312  -6.9175  -6.9075
    -6.8733  -6.8707  -6.8673  -6.8670  -6.8599  -6.8434  -6.8245  -6.8205
    -6.8162  -6.7673  -6.7635  -6.7479  -6.7388  -6.7275  -6.7097  -6.7032
    -6.7012  -6.6923  -6.6770  -6.6751  -6.6569  -6.6501  -6.6354  -6.6166
    -6.5947  -6.5570  -6.5503  -6.5307  -6.5183  -6.4707  -6.4692  -6.4681
    -6.4621  -6.4614  -6.4613  -6.4610  -6.4336  -6.4336  -6.4335  -6.4335
    -6.4166  -6.4166  -6.4166  -6.4166  -6.4146  -6.4015  -6.3653  -6.3177
    -6.2986  -6.2900  -6.2793  -6.2683  -6.2045  -6.2010  -6.1642  -6.1611
    -6.1603  -6.1588  -6.1483  -6.1304  -6.1304  -6.1090  -6.1090  -6.1060
    -6.1025  -6.1016  -6.1009  -6.0966  -6.0457  -6.0454  -6.0451  -6.0451
    -6.0079  -5.9805  -5.8823  -5.8357  -5.8307  -5.7841  -5.7780  -5.7597
    -5.7388  -5.7001  -5.6906  -5.6874  -5.6610  -5.5507  -5.5335  -5.4424
    -5.4414  -4.1930  -4.0525  -4.0155  -3.9981  -3.9175  -3.9067  -3.8568
    -3.8540  -3.8449  -3.8177  -3.8161  -3.8098  -3.7274  -3.7142  -3.6898
    -3.6894  -3.6627  -3.6626  -3.6542  -3.6390  -3.6389  -3.6227  -3.5996
    -3.5827  -3.5741  -3.5613  -3.5368  -3.5318  -3.5302  -3.5228  -3.5186
    -3.5016  -3.4661  -3.4454  -3.4208  -3.4154  -3.4109  -3.4100  -3.3925
    -3.3908  -3.3868  -3.3691  -3.3503  -3.3467  -3.3459  -3.3423  -3.3373
    -3.3348  -3.3296  -3.3233  -3.3129  -3.3082  -3.3032  -3.3018  -3.2932
    -3.2930  -3.2901  -3.2879  -3.2636  -3.2544  -3.2464  -3.2387  -3.2371
    -3.2250  -3.2022  -3.2004  -3.2000  -3.1992  -3.1991  -3.1945  -3.1800
    -3.1697  -3.1664  -3.1638  -3.1190  -3.1120  -3.1113  -3.1110  -3.1089
    -3.1077  -3.1067  -3.1043  -3.0868  -3.0698  -3.0674  -3.0512  -3.0504
    -3.0487  -3.0480  -3.0475  -3.0450  -3.0425  -3.0370  -3.0205  -3.0107
    -3.0053  -2.9958  -2.9957  -2.9820  -2.9722  -2.9714  -2.9660  -2.9599
    -2.9578  -2.9492  -2.9474  -2.9328  -2.9254  -2.8964  -2.8892  -2.8788
    -2.8734  -2.8703  -2.8647  -2.8629  -2.8622  -2.8551  -2.8535  -2.8497
    -2.8483  -2.8477  -2.8467  -2.8456  -2.8380  -2.8347  -2.8345  -2.8190
    -2.8119  -2.7944  -2.7941  -2.7878  -2.7833  -2.7744  -2.7706  -2.7706
    -2.7692  -2.7680  -2.7664  -2.7284  -2.7262  -2.6709  -2.6529  -2.6488
    -2.6479  -2.6376  -2.6352  -2.6199  -2.6128  -2.6058  -2.5844  -2.5689
    -2.4912  -2.4721  -2.4483  -2.4463  -2.4223  -2.4099  -2.4077  -2.4055
    -2.4013  -2.3980  -2.3924  -2.3823  -2.3621  -2.3480  -2.3393  -2.3340
    -2.2994  -2.2463

          k =-0.5000-0.8660 0.0000 (386352 PWs)   bands (ev):

   -88.7691 -66.6751 -66.6490 -66.6395 -66.6341 -66.6266 -66.6238 -66.6133
   -66.6035 -66.5965 -66.5946 -66.5926 -66.5846 -66.5735 -66.5711 -66.5653
   -66.5624 -66.4835 -66.4824 -66.4726 -66.4716 -66.4580 -66.4572 -66.4572
   -66.4571 -66.4570 -66.4569 -66.4532 -66.4523 -66.4523 -66.4517 -66.4477
   -66.4465 -66.4464 -66.4462 -66.4460 -66.4453 -66.4419 -66.4416 -66.4416
   -66.4405 -66.4315 -66.4314 -66.4313 -66.4313 -66.4270 -66.4269 -66.4265
[...]
     atom  162 type  2   force =    -0.00000067    0.00000021    0.00009744
     atom  163 type  1   force =    -0.00000220   -0.00000263    0.00000066
     atom  164 type  1   force =     0.00008495    0.00004267   -0.00244355
     atom  165 type  2   force =    -0.00000025   -0.00000052   -0.00015835
     atom  166 type  2   force =    -0.00000673   -0.00000738    0.00004407
     atom  167 type  2   force =    -0.00000019    0.00000054   -0.00009577
     atom  168 type  2   force =    -0.00016919    0.00001147   -0.00432641
     atom  169 type  1   force =    -0.00000004   -0.00000002    0.00255979
     atom  170 type  1   force =    -0.00000026   -0.00000015    0.00001492
     atom  171 type  2   force =    -0.00000004   -0.00000002   -0.00003302
     atom  172 type  2   force =    -0.00000000   -0.00000000    0.00017156
     atom  173 type  2   force =    -0.00000000   -0.00000000    0.00441520
     atom  174 type  2   force =    -0.00000031   -0.00000069    0.00009748
     atom  175 type  1   force =     0.00000784   -0.00000108   -0.00000859
     atom  176 type  1   force =    -0.00005502   -0.00001852   -0.00242279
     atom  177 type  2   force =     0.00000401    0.00000723   -0.00011298
     atom  178 type  2   force =    -0.00000316   -0.00000141    0.00004055
     atom  179 type  2   force =    -0.00000064   -0.00000004   -0.00009491
     atom  180 type  2   force =    -0.00037045   -0.00019254   -0.00424407
     atom  181 type  1   force =    -0.00000003   -0.00000003    0.00255979
     atom  182 type  1   force =    -0.00000015   -0.00000015    0.00001460
     atom  183 type  2   force =    -0.00000001   -0.00000001   -0.00003306
     atom  184 type  2   force =     0.00000001    0.00000001    0.00017155
     atom  185 type  2   force =     0.00000002    0.00000001    0.00441521
     atom  186 type  2   force =    -0.00000013   -0.00000032    0.00009679
     atom  187 type  1   force =     0.00000531    0.00000980   -0.00000326
     atom  188 type  1   force =    -0.00008772   -0.00004492   -0.00243796
     atom  189 type  2   force =     0.00000632   -0.00000092   -0.00011755
     atom  190 type  2   force =     0.00001450    0.00001187    0.00003512
     atom  191 type  2   force =     0.00000086   -0.00000014   -0.00009621
     atom  192 type  2   force =    -0.00017984   -0.00022198   -0.00431441
     atom  193 type  3   force =     0.00028950   -0.00016727    0.00184406
     atom  194 type  4   force =    -0.00016932    0.00009775   -0.00137781

     Total force =     0.003042     Total SCF correction =     0.000252
     Energy error            =      2.0E-05 Ry
     Gradient error          =      9.9E-04 Ry/Bohr

     bfgs converged in   9 scf cycles and   8 bfgs steps
     (criteria: energy <  1.0E-04 Ry, force <  1.0E-03 Ry/Bohr)

     End of BFGS Geometry Optimization

     Final energy             =  -32306.6996999048 Ry

     File ./outdir/pwscf.bfgs deleted, as requested
Begin final coordinates

ATOMIC_POSITIONS (angstrom)
Mo            0.0000119917        1.8193638619       -9.1672481230    0   0   0
Mo            1.5756136568        0.9097075315       -3.0554901653    0   0   0
S             0.0000188998        1.8193822938       -4.6232556019    0   0   0
S             1.5756321638        0.9096773839       -7.6014065489    0   0   0
S             1.5756326175        0.9096785128      -10.7330757790    0   0   0
S             0.0000189190        1.8193860094       -1.4877129945    0   0   0
Mo           -0.0003312829        1.8193811007        3.0560415302
Mo            1.5665035038        0.9031844040        9.1586911592
S            -0.0022642435        1.8202930816        7.5862827533
S             1.5759782089        0.9100862175        4.6227213643
S             1.5757996802        0.9102523110        1.4881011361
S            -0.0097625994        1.8007907251       10.7345357802
Mo           -1.5756053507        4.5484193819       -9.1672481230    0   0   0
Mo            0.0000378379        3.6387394919       -3.0554952701    0   0   0
S            -1.5755913433        4.5484363582       -4.6232494962    0   0   0
S             0.0000148214        3.6387329039       -7.6014065489    0   0   0
S             0.0000152751        3.6387340328      -10.7330757790    0   0   0
S            -1.5755906502        4.5484413613       -1.4877305502    0   0   0
Mo           -1.5753299157        4.5486614702        3.0563339551
Mo           -0.0170971856        3.6217135834        9.1715178980
S            -1.5747769784        4.5500576271        7.5936156643
S             0.0010153375        3.6393297431        4.6234970961
S             0.0004476736        3.6388643589        1.4882427773
S            -1.5808948973        4.5485608675       10.7373528551
Mo           -3.1512226931        7.2774749019       -9.1672481230    0   0   0
Mo           -1.5755910988        6.3678216792       -3.0555115988    0   0   0
S            -3.1512162438        7.2774954350       -4.6232578178    0   0   0
S            -1.5756025210        6.3677884239       -7.6014065489    0   0   0
S            -1.5756020673        6.3677895528      -10.7330757790    0   0   0
S            -3.1512127704        7.2774877076       -1.4877200710    0   0   0
Mo           -3.1506247198        7.2776112270        3.0559927164
Mo           -1.5896115609        6.3679957607        9.1691956769
S            -3.1521736774        7.2746102880        7.5869346574
S            -1.5749312358        6.3680819666        4.6242529814
S            -1.5754499467        6.3676607980        1.4878656124
S            -3.1669357398        7.2817253994       10.7313862330
Mo           -4.7268400355       10.0065304219       -9.1672481230    0   0   0
Mo           -3.1512405618        9.0968403586       -3.0554816746    0   0   0
S            -4.7268341792       10.0065523623       -4.6232463762    0   0   0
S            -3.1512198634        9.0968439439       -7.6014065489    0   0   0
S            -3.1512194097        9.0968450728      -10.7330757790    0   0   0
S            -4.7268370797       10.0065537885       -1.4877176751    0   0   0
Mo           -4.7267766056       10.0065225737        3.0557663392
Mo           -3.1522326459        9.0974799220        9.1561404180
S            -4.7265803639       10.0064324441        7.5841648275
S            -3.1511184273        9.0968151622        4.6234338415
S            -3.1510915124        9.0968003508        1.4877624851
S            -4.7243090977       10.0051183763       10.7293057020
Mo            3.1512517547        1.8193638619       -9.1672481230    0   0   0
Mo            4.7269020221        0.9097289540       -3.0554823951    0   0   0
S             3.1512612351        1.8193882564       -4.6232320683    0   0   0
S             4.7268719268        0.9096773839       -7.6014065489    0   0   0
S             4.7268723805        0.9096785128      -10.7330757790    0   0   0
S             3.1512592485        1.8193890201       -1.4877261251    0   0   0
Mo            3.1518651486        1.8203883495        3.0557182984
Mo            4.7265180019        0.9109529719        9.1570405272
S             3.1473349792        1.8297737454        7.5947799058
S             4.7270332301        0.9098972250        4.6242175110
S             4.7267962914        0.9094249565        1.4880635969
S             3.1490745715        1.7879841100       10.7372077351
Mo            1.5756344123        4.5484193819       -9.1672481230    0   0   0
Mo            3.1512756394        3.6387769522       -3.0554814834    0   0   0
S             1.5756504879        4.5484423799       -4.6232390542    0   0   0
S             3.1512545844        3.6387329039       -7.6014065489    0   0   0
S             3.1512550381        3.6387340328      -10.7330757790    0   0   0
S             1.5756466253        4.5484431864       -1.4877251801    0   0   0
Mo            1.5766888836        4.5489864660        3.0555662484
Mo            3.1646321333        3.6304195546        9.1831601862
S             1.5799043898        4.5665630295        7.6458723674
S             3.1512393295        3.6394879202        4.6252736867
S             3.1520829528        3.6393640492        1.4873033187
S             1.5565461697        4.4370394697       10.7969056299
Mo            0.0000170699        7.2774749019       -9.1672481230    0   0   0
Mo            1.5756764447        6.3678236689       -3.0554877708    0   0   0
S             0.0000381981        7.2774979204       -4.6232454413    0   0   0
S             1.5756372420        6.3677884239       -7.6014065489    0   0   0
S             1.5756376957        6.3677895528      -10.7330757790    0   0   0
S             0.0000328088        7.2774946042       -1.4877307940    0   0   0
Mo           -0.0000444836        7.2775399522        3.0558364844
Mo            1.5767774631        6.3671899466        9.2298692301
S             0.0242421732        7.2635422784        7.6375872032
S             1.5757698823        6.3677428551        4.6248934582
S             1.5754305263        6.3679348098        1.4876146011
S            -0.0948477686        7.3323010703       10.7871113473
Mo           -1.5756002725       10.0065304219       -9.1672481230    0   0   0
Mo            0.0000873425        9.0968676911       -3.0554912329    0   0   0
S            -1.5755883952       10.0065504530       -4.6232240150    0   0   0
S             0.0000198996        9.0968439439       -7.6014065489    0   0   0
S             0.0000203533        9.0968450728      -10.7330757790    0   0   0
S            -1.5755859047       10.0065492576       -1.4877362381    0   0   0
Mo           -1.5753926349       10.0059858931        3.0559920171
Mo           -0.0071146381        9.1089521816        9.1691947118
S            -1.5735483843       10.0088635573        7.5869348761
S             0.0001283082        9.0961600201        4.6242540086
S             0.0002294509        9.0968187325        1.4878658996
S            -1.5870891872       10.0180886173       10.7313856988
Mo            6.3024915177        1.8193638619       -9.1672481230    0   0   0
Mo            7.8781001445        0.9096521684       -3.0554919963    0   0   0
S             6.3025008696        1.8193826232       -4.6232480596    0   0   0
S             7.8781116898        0.9096773839       -7.6014065489    0   0   0
S             7.8781121435        0.9096785128      -10.7330757790    0   0   0
S             6.3025042007        1.8193849068       -1.4877147524    0   0   0
Mo            6.3019165191        1.8200974924        3.0554571840
Mo            7.8871742395        0.9062673391        9.1634035098
S             6.3084374870        1.8267898398        7.5952569679
S             7.8778046866        0.9099743388        4.6227797176
S             7.8779841692        0.9097884385        1.4880795355
S             6.3091350706        1.8024674736       10.7343423732
Mo            4.7268741753        4.5484193819       -9.1672481230    0   0   0
Mo            6.3024679138        3.6387501714       -3.0554895197    0   0   0
S             4.7268748770        4.5484386753       -4.6232519432    0   0   0
S             6.3024943474        3.6387329039       -7.6014065489    0   0   0
S             6.3024948011        3.6387340328      -10.7330757790    0   0   0
S             4.7268770533        4.5484432419       -1.4877137856    0   0   0
Mo            4.7266248258        4.5485924884        3.0570643393
Mo            6.3006182184        3.6398700319        9.1720078162
S             4.7259442975        4.5490090268        7.5842299551
S             6.3020639055        3.6390118733        4.6244486151
S             6.3015444586        3.6393099201        1.4872604274
S             4.7338682628        4.5444453842       10.6997763020
Mo            3.1512568329        7.2774749019       -9.1672481230    0   0   0
Mo            4.7268384135        6.3678043337       -3.0554959052    0   0   0
S             3.1512606125        7.2774972547       -4.6232589675    0   0   0
S             4.7268770050        6.3677884239       -7.6014065489    0   0   0
S             4.7268774587        6.3677895528      -10.7330757790    0   0   0
S             3.1512629079        7.2774963749       -1.4877081835    0   0   0
Mo            3.1513186775        7.2763224719        3.0555650437
Mo            4.7408151063        6.3604464846        9.1831574616
S             3.1377274471        7.2647855546        7.6458763581
S             4.7262423373        6.3674686957        4.6252703526
S             4.7267711005        6.3667957434        1.4873067554
S             3.2382144570        7.3497712906       10.7968914497
Mo            1.5756394905       10.0065304219       -9.1672481230    0   0   0
Mo            3.1512330605        9.0968514907       -3.0554878870    0   0   0
S             1.5756499830       10.0065443759       -4.6232632674    0   0   0
S             3.1512596626        9.0968439439       -7.6014065489    0   0   0
S             3.1512601163        9.0968450728      -10.7330757790    0   0   0
S             1.5756503041       10.0065459699       -1.4877044377    0   0   0
Mo            1.5755925080       10.0062143385        3.0563329214
Mo            3.1574959277        9.1202496192        9.1715135605
S             1.5746833455       10.0050717382        7.5936198197
S             3.1512690752        9.0957232968        4.6234927545
S             3.1513870593        9.0964475068        1.4882462398
S             1.5729233617       10.0111169783       10.7373417599
Mo            9.4537312807        1.8193638619       -9.1672481230    0   0   0
Mo           11.0293863460        0.9096952246       -3.0554894007    0   0   0
S             9.4537395970        1.8193770750       -4.6232328036    0   0   0
S            11.0293514528        0.9096773839       -7.6014065489    0   0   0
S            11.0293519066        0.9096785128      -10.7330757790    0   0   0
S             9.4537393632        1.8193794783       -1.4877366147    0   0   0
Mo            9.4541039738        1.8191756873        3.0557522955
Mo           11.0300839516        0.9093012328        9.1558999444
S             9.4543421024        1.8190603178        7.5880863453
S            11.0291828653        0.9098011435        4.6246788383
S            11.0294605842        0.9096449680        1.4874054753
S             9.4601226665        1.8157227923       10.7319798206
Mo            7.8781139383        4.5484193819       -9.1672481230    0   0   0
Mo            9.4537539161        3.6387607911       -3.0554933032    0   0   0
S             7.8781175448        4.5484378232       -4.6232366318    0   0   0
S             9.4537341104        3.6387329039       -7.6014065489    0   0   0
S             9.4537345641        3.6387340328      -10.7330757790    0   0   0
S             7.8781194018        4.5484411585       -1.4877377057    0   0   0
Mo            7.8772158860        4.5485937199        3.0554553694
Mo            9.4612612381        3.6326667866        9.1634049141
S             7.8746980304        4.5396302276        7.5952558699
S             9.4533487132        3.6388934950        4.6227786569
S             9.4536029887        3.6388307384        1.4880785417
S             7.8961106326        4.5511897889       10.7343424730
Mo            6.3024965959        7.2774749019       -9.1672481230    0   0   0
Mo            7.8781361655        6.3678242352       -3.0555014130    0   0   0
S             6.3024973331        7.2774953556       -4.6232392528    0   0   0
S             7.8781167680        6.3677884239       -7.6014065489    0   0   0
S             7.8781172217        6.3677895528      -10.7330757790    0   0   0
S             6.3024989866        7.2774929744       -1.4877349119    0   0   0
Mo            6.3019417195        7.2764744088        3.0557162057
Mo            7.8768759804        6.3675352502        9.1570390253
S             6.2915657317        7.2757385908        7.5947821684
S             7.8780312556        6.3675821528        4.6242151240
S             7.8783241252        6.3680227056        1.4880649952
S             6.3286250102        7.2951263233       10.7371977852
Mo            4.7268792535       10.0065304219       -9.1672481230    0   0   0
Mo            6.3025111524        9.0968738021       -3.0554915260    0   0   0
S             4.7268840634       10.0065452125       -4.6232380477    0   0   0
S             6.3024994256        9.0968439439       -7.6014065489    0   0   0
S             6.3024998793        9.0968450728      -10.7330757790    0   0   0
S             4.7268847312       10.0065459141       -1.4877283294    0   0   0
Mo            4.7267172508       10.0068602606        3.0560394735
Mo            6.3035998972        9.1080683253        9.1586881426
S             4.7249819808       10.0081128043        7.5862832010
S             6.3023431831        9.0963824781        4.6227178058
S             6.3021132251        9.0964568244        1.4881037860
S             4.7381215905       10.0243542810       10.7345299172
Pd            1.5824613211        6.3638935235       12.1089018139
H             4.7239596769        4.5502208426       12.1034676603
End final coordinates



     Writing all to output data dir ./outdir/pwscf.save/
 
     init_run     :    190.79s CPU    194.26s WALL (       1 calls)
     electrons    :  88796.43s CPU  89687.79s WALL (       9 calls)
     update_pot   :     46.45s CPU     47.08s WALL (       8 calls)
     forces       :   1082.29s CPU   1108.85s WALL (       9 calls)
     force_dftd3  :      6.88s CPU      7.35s WALL (       9 calls)

     Called by init_run:
     wfcinit      :    165.56s CPU    167.61s WALL (       1 calls)
     potinit      :      2.44s CPU      2.51s WALL (       1 calls)
     hinit0       :     16.04s CPU     16.07s WALL (       1 calls)

     Called by electrons:
     c_bands      :  80014.47s CPU  80536.33s WALL (     127 calls)
     sum_band     :   8262.16s CPU   8474.73s WALL (     127 calls)
     v_of_rho     :     62.50s CPU     63.94s WALL (     127 calls)
     newd         :    339.01s CPU    503.08s WALL (     127 calls)
     PAW_pot      :     90.54s CPU     90.58s WALL (     135 calls)
     mix_rho      :     15.72s CPU     15.75s WALL (     127 calls)
     energy_dftd3 :      3.18s CPU      3.19s WALL (       9 calls)

     Called by c_bands:
     init_us_2    :    313.25s CPU    313.56s WALL (    1088 calls)
     init_us_2:cp :    313.24s CPU    313.56s WALL (    1088 calls)
     cegterg      :  78958.42s CPU  79463.15s WALL (     567 calls)

     Called by *egterg:
     cdiaghg      :   5266.24s CPU   5282.42s WALL (    7840 calls)
     h_psi        :  41953.15s CPU  42100.90s WALL (    7912 calls)
     s_psi        :   8814.98s CPU   8847.79s WALL (    7912 calls)
     g_psi        :     72.96s CPU     72.98s WALL (    7341 calls)

     Called by h_psi:
     h_psi:calbec :   8922.23s CPU   8923.89s WALL (    7912 calls)
     vloc_psi     :  24077.19s CPU  24115.74s WALL (    7912 calls)
     add_vuspsi   :   8870.54s CPU   8904.50s WALL (    7912 calls)

     General routines
     calbec       :  12412.01s CPU  12414.24s WALL (    8596 calls)
     fft          :     58.43s CPU     59.62s WALL (    1749 calls)
     ffts         :      3.20s CPU      3.27s WALL (     254 calls)
     fftw         :  19638.90s CPU  19670.03s WALL ( 3777574 calls)
     interpolate  :      6.54s CPU      6.60s WALL (     127 calls)
 
     Parallel routines
 
     PWSCF        :   1d 1h 7m CPU   1d 1h23m WALL

 
   This run was terminated on:   5:20:15  30Aug2023            

=------------------------------------------------------------------------------=
   JOB DONE.
=------------------------------------------------------------------------------=
Application 11110896 resources: utime ~3256336s, stime ~34494s, Rss ~3499772, inblocks ~0, outblocks ~52903992
