
     Program PWSCF v.7.3 starts on 12Mar2024 at  5:19: 1 

     This program is part of the open-source Quantum ESPRESSO suite
     for quantum simulation of materials; please cite
         "P. Giannozzi et al., J. Phys.:Condens. Matter 21 395502 (2009);
         "P. Giannozzi et al., J. Phys.:Condens. Matter 29 465901 (2017);
         "P. Giannozzi et al., J. Chem. Phys. 152 154105 (2020);
          URL http://www.quantum-espresso.org", 
     in publications or presentations arising from this work. More details at
     http://www.quantum-espresso.org/quote

     Parallel version (MPI & OpenMP), running on      36 processor cores
     Number of MPI processes:                36
     Threads/MPI process:                     1

     MPI processes distributed on     1 nodes
     559329 MiB available memory on the printing compute node when the environment starts
 
     Waiting for input...
     Reading input from standard input
Warning: card &CELL ignored
Warning: card / ignored

     Current dimensions of program PWSCF are:
     Max number of different atomic species (ntypx) = 10
     Max number of k-points (npk) =  40000
     Max angular momentum in pseudopotentials (lmaxx) =  4
     file Mo.pbe-spn-kjpaw_psl.1.0.0.UPF: wavefunction(s)  4S 4D renormalized
     file S.pbe-n-kjpaw_psl.1.0.0.UPF: wavefunction(s)  3S 3P renormalized
     file Pt.pbe-spfn-kjpaw_psl.1.0.0.UPF: wavefunction(s)  5P 4F renormalized
     file Pd.pbe-spn-kjpaw_psl.1.0.0.UPF: wavefunction(s)  4S 5S 4D renormalized
 
     R & G space division:  proc/nbgrp/npool/nimage =      36
     Subspace diagonalization in iterative solution of the eigenvalue problem:
     one sub-group per band group will be used
     scalapack distributed-memory algorithm (size of sub-group:  6*  6 procs)

 
     Parallelization info
     --------------------
     sticks:   dense  smooth     PW     G-vecs:    dense   smooth      PW
     Min         585     334     89               198743    85850   11735
     Max         586     335     90               198750    85861   11748
     Sum       21073   12049   3205              7154885  3090769  422587
 
     Using Slab Decomposition
 


     bravais-lattice index     =            0
     lattice parameter (alat)  =      23.8199  a.u.
     unit-cell volume          =   33861.0370 (a.u.)^3
     number of atoms/cell      =          194
     number of atomic types    =            4
     number of electrons       =      1714.00
     number of Kohn-Sham states=         1028
     kinetic-energy cutoff     =      77.0000  Ry
     charge density cutoff     =     539.0000  Ry
     scf convergence threshold =      1.0E-06
     mixing beta               =       0.2000
     number of iterations used =            8  plain     mixing
     energy convergence thresh.=      1.0E-04
     force convergence thresh. =      1.0E-03
     Exchange-correlation= SLA  PW   PBX  PBC
                           (   1   4   3   4   0   0   0)
     nstep                     =         1000


     Effective Screening Medium Method
     =================================
     Boundary Conditions: Vacuum-Slab-Vacuum
     total charge in unit cell        =   0.0000
     grid points for fit at edges     =        4 
 

     celldm(1)=  23.819920  celldm(2)=   0.000000  celldm(3)=   0.000000
     celldm(4)=   0.000000  celldm(5)=   0.000000  celldm(6)=   0.000000

     crystal axes: (cart. coord. in units of alat)
               a(1) = (   1.000000   0.000000   0.000000 )  
               a(2) = (  -0.499999   0.866026   0.000000 )  
               a(3) = (   0.000000   0.000000   2.893000 )  

     reciprocal axes: (cart. coord. in units 2 pi/alat)
               b(1) = (  1.000000  0.577349  0.000000 )  
               b(2) = (  0.000000  1.154700  0.000000 )  
               b(3) = (  0.000000  0.000000  0.345662 )  


     PseudoPot. # 1 for Mo read from file:
     ./pseudo/Mo.pbe-spn-kjpaw_psl.1.0.0.UPF
     MD5 check sum: 317bf72632116215fd98f72de1686f13
     Pseudo is Projector augmented-wave + core cor, Zval = 14.0
     Generated using 'atomic' code by A. Dal Corso  v.7.2
     Shape of augmentation charge: PSQ
     Using radial grid of 1229 points,  6 beta functions with: 
                l(1) =   0
                l(2) =   0
                l(3) =   1
                l(4) =   1
                l(5) =   2
                l(6) =   2
     Q(r) pseudized with 0 coefficients 


     PseudoPot. # 2 for S  read from file:
     ./pseudo/S.pbe-n-kjpaw_psl.1.0.0.UPF
     MD5 check sum: 8b7b5302570d38d5e87fed6a1065abda
     Pseudo is Projector augmented-wave + core cor, Zval =  6.0
     Generated using 'atomic' code by A. Dal Corso  v.7.2
     Shape of augmentation charge: PSQ
     Using radial grid of 1151 points,  6 beta functions with: 
                l(1) =   0
                l(2) =   0
                l(3) =   1
                l(4) =   1
                l(5) =   2
                l(6) =   2
     Q(r) pseudized with 0 coefficients 


     PseudoPot. # 3 for Pt read from file:
     ./pseudo/Pt.pbe-spfn-kjpaw_psl.1.0.0.UPF
     MD5 check sum: 620096ebf4e6ebacc94de60fd67efcb5
     Pseudo is Projector augmented-wave + core cor, Zval = 32.0
     Generated using 'atomic' code by A. Dal Corso  v.7.2
     Shape of augmentation charge: PSQ
     Using radial grid of 1277 points,  8 beta functions with: 
                l(1) =   0
                l(2) =   0
                l(3) =   1
                l(4) =   1
                l(5) =   2
                l(6) =   2
                l(7) =   3
                l(8) =   3
     Q(r) pseudized with 0 coefficients 


     PseudoPot. # 4 for Pd read from file:
     ./pseudo/Pd.pbe-spn-kjpaw_psl.1.0.0.UPF
     MD5 check sum: a60571a671f2502b8a6a4569d20a6edb
     Pseudo is Projector augmented-wave + core cor, Zval = 18.0
     Generated using 'atomic' code by A. Dal Corso  v.7.2
     Shape of augmentation charge: PSQ
     Using radial grid of 1235 points,  6 beta functions with: 
                l(1) =   0
                l(2) =   0
                l(3) =   1
                l(4) =   1
                l(5) =   2
                l(6) =   2
     Q(r) pseudized with 0 coefficients 


     atomic species   valence    mass     pseudopotential
     Mo               14.00    95.95000     Mo( 1.00)
     S                 6.00    32.06000     S ( 1.00)
     Pt               32.00   195.08400     Pt( 1.00)
     Pd               18.00   106.42000     Pd( 1.00)

     No symmetry found



   Cartesian axes

     site n.     atom                  positions (alat units)
         1        Mo     tau(   1) = (   0.0000010   0.1443372  -0.7272732  )
         2        Mo     tau(   2) = (   0.1249995   0.0721706  -0.2424038  )
         3        S      tau(   3) = (   0.0000015   0.1443386  -0.3667807  )
         4        S      tau(   4) = (   0.1250010   0.0721682  -0.6030489  )
         5        S      tau(   5) = (   0.1250010   0.0721683  -0.8514963  )
         6        S      tau(   6) = (   0.0000015   0.1443389  -0.1180260  )
         7        Mo     tau(   7) = (   0.0000014   0.1443616   0.2424356  )
         8        Mo     tau(   8) = (   0.1250042   0.0720311   0.7263989  )
         9        S      tau(   9) = (   0.0000639   0.1447004   0.6020022  )
        10        S      tau(  10) = (   0.1250030   0.0721650   0.3667578  )
        11        S      tau(  11) = (   0.1250031   0.0721991   0.1180453  )
        12        S      tau(  12) = (  -0.0005532   0.1426765   0.8513101  )
        13        Mo     tau(  13) = (  -0.1249989   0.3608437  -0.7272732  )
        14        Mo     tau(  14) = (   0.0000030   0.2886752  -0.2424042  )
        15        S      tau(  15) = (  -0.1249977   0.3608450  -0.3667802  )
        16        S      tau(  16) = (   0.0000012   0.2886747  -0.6030489  )
        17        S      tau(  17) = (   0.0000012   0.2886748  -0.8514963  )
        18        S      tau(  18) = (  -0.1249977   0.3608454  -0.1180274  )
        19        Mo     tau(  19) = (  -0.1249758   0.3608563   0.2424461  )
        20        Mo     tau(  20) = (  -0.0009250   0.2875651   0.7279418  )
        21        S      tau(  21) = (  -0.1248723   0.3609173   0.6030853  )
        22        S      tau(  22) = (   0.0000474   0.2887247   0.3668317  )
        23        S      tau(  23) = (   0.0000000   0.2886879   0.1180554  )
        24        S      tau(  24) = (  -0.1255989   0.3604976   0.8519229  )
        25        Mo     tau(  25) = (  -0.2499987   0.5773502  -0.7272732  )
        26        Mo     tau(  26) = (  -0.1249977   0.5051839  -0.2424055  )
        27        S      tau(  27) = (  -0.2499981   0.5773518  -0.3667809  )
        28        S      tau(  28) = (  -0.1249986   0.5051812  -0.6030489  )
        29        S      tau(  29) = (  -0.1249986   0.5051813  -0.8514963  )
        30        S      tau(  30) = (  -0.2499979   0.5773512  -0.1180266  )
        31        Mo     tau(  31) = (  -0.2499765   0.5773372   0.2424355  )
        32        Mo     tau(  32) = (  -0.1264232   0.5049348   0.7279418  )
        33        S      tau(  33) = (  -0.2496528   0.5772237   0.6020023  )
        34        S      tau(  34) = (  -0.1249318   0.5051954   0.3668318  )
        35        S      tau(  35) = (  -0.1249873   0.5051727   0.1180553  )
        36        S      tau(  36) = (  -0.2517142   0.5777014   0.8513102  )
        37        Mo     tau(  37) = (  -0.3749985   0.7938567  -0.7272732  )
        38        Mo     tau(  38) = (  -0.2500001   0.7216874  -0.2424031  )
        39        S      tau(  39) = (  -0.3749980   0.7938584  -0.3667800  )
        40        S      tau(  40) = (  -0.2499984   0.7216877  -0.6030489  )
        41        S      tau(  41) = (  -0.2499984   0.7216878  -0.8514963  )
        42        S      tau(  42) = (  -0.3749982   0.7938585  -0.1180264  )
        43        Mo     tau(  43) = (  -0.3749961   0.7938572   0.2423820  )
        44        Mo     tau(  44) = (  -0.2501160   0.7217599   0.7263989  )
        45        S      tau(  45) = (  -0.3749948   0.7938592   0.6019084  )
        46        S      tau(  46) = (  -0.2499995   0.7216903   0.3667578  )
        47        S      tau(  47) = (  -0.2499699   0.7216732   0.1180452  )
        48        S      tau(  48) = (  -0.3749951   0.7938590   0.8508262  )
        49        Mo     tau(  49) = (   0.2500010   0.1443372  -0.7272732  )
        50        Mo     tau(  50) = (   0.3750034   0.0721723  -0.2424032  )
        51        S      tau(  51) = (   0.2500017   0.1443391  -0.3667788  )
        52        S      tau(  52) = (   0.3750010   0.0721682  -0.6030489  )
        53        S      tau(  53) = (   0.3750010   0.0721683  -0.8514963  )
        54        S      tau(  54) = (   0.2500016   0.1443391  -0.1180271  )
        55        Mo     tau(  55) = (   0.2500050   0.1443618   0.2424356  )
        56        Mo     tau(  56) = (   0.3749291   0.0721273   0.7261578  )
        57        S      tau(  57) = (   0.2499446   0.1447002   0.6020022  )
        58        S      tau(  58) = (   0.3750312   0.0721852   0.3667808  )
        59        S      tau(  59) = (   0.3749943   0.0721639   0.1180502  )
        60        S      tau(  60) = (   0.2505615   0.1426764   0.8513103  )
        61        Mo     tau(  61) = (   0.1250012   0.3608437  -0.7272732  )
        62        Mo     tau(  62) = (   0.2500029   0.2886782  -0.2424031  )
        63        S      tau(  63) = (   0.1250024   0.3608455  -0.3667794  )
        64        S      tau(  64) = (   0.2500012   0.2886747  -0.6030489  )
        65        S      tau(  65) = (   0.2500012   0.2886748  -0.8514963  )
        66        S      tau(  66) = (   0.1250021   0.3608455  -0.1180270  )
        67        Mo     tau(  67) = (   0.1250036   0.3608788   0.2424134  )
        68        Mo     tau(  68) = (   0.2509342   0.2875650   0.7279417  )
        69        S      tau(  69) = (   0.1250047   0.3631022   0.6070003  )
        70        S      tau(  70) = (   0.2499595   0.2887248   0.3668321  )
        71        S      tau(  71) = (   0.2500069   0.2886879   0.1180551  )
        72        S      tau(  72) = (   0.1250048   0.3485809   0.8580653  )
        73        Mo     tau(  73) = (   0.0000014   0.5773502  -0.7272732  )
        74        Mo     tau(  74) = (   0.1250045   0.5051840  -0.2424036  )
        75        S      tau(  75) = (   0.0000030   0.5773520  -0.3667799  )
        76        S      tau(  76) = (   0.1250014   0.5051812  -0.6030489  )
        77        S      tau(  77) = (   0.1250014   0.5051813  -0.8514963  )
        78        S      tau(  78) = (   0.0000026   0.5773517  -0.1180274  )
        79        Mo     tau(  79) = (   0.0000336   0.5773337   0.2424134  )
        80        Mo     tau(  80) = (   0.1250049   0.5051837   0.7323431  )
        81        S      tau(  81) = (   0.0019589   0.5762246   0.6070004  )
        82        S      tau(  82) = (   0.1250038   0.5051820   0.3668453  )
        83        S      tau(  83) = (   0.1250038   0.5051819   0.1180162  )
        84        S      tau(  84) = (  -0.0106172   0.5834855   0.8580649  )
        85        Mo     tau(  85) = (  -0.1249984   0.7938567  -0.7272732  )
        86        Mo     tau(  86) = (   0.0000069   0.7216896  -0.2424039  )
        87        S      tau(  87) = (  -0.1249975   0.7938582  -0.3667782  )
        88        S      tau(  88) = (   0.0000016   0.7216877  -0.6030489  )
        89        S      tau(  89) = (   0.0000016   0.7216878  -0.8514963  )
        90        S      tau(  90) = (  -0.1249973   0.7938582  -0.1180279  )
        91        Mo     tau(  91) = (  -0.1249742   0.7938470   0.2424356  )
        92        Mo     tau(  92) = (  -0.0004933   0.7230516   0.7279416  )
        93        S      tau(  93) = (  -0.1247124   0.7936270   0.6020023  )
        94        S      tau(  94) = (   0.0000246   0.7216257   0.3668322  )
        95        S      tau(  95) = (   0.0000165   0.7216852   0.1180552  )
        96        S      tau(  96) = (  -0.1261568   0.7951731   0.8513104  )
        97        Mo     tau(  97) = (   0.5000010   0.1443372  -0.7272732  )
        98        Mo     tau(  98) = (   0.6250001   0.0721662  -0.2424040  )
        99        S      tau(  99) = (   0.5000017   0.1443386  -0.3667801  )
       100        S      tau( 100) = (   0.6250010   0.0721682  -0.6030489  )
       101        S      tau( 101) = (   0.6250010   0.0721683  -0.8514963  )
       102        S      tau( 102) = (   0.5000020   0.1443388  -0.1180261  )
       103        Mo     tau( 103) = (   0.5000076   0.1443402   0.2423934  )
       104        Mo     tau( 104) = (   0.6250040   0.0723531   0.7270557  )
       105        S      tau( 105) = (   0.5002419   0.1444767   0.6022126  )
       106        S      tau( 106) = (   0.6250031   0.0721699   0.3667634  )
       107        S      tau( 107) = (   0.6250031   0.0721381   0.1180360  )
       108        S      tau( 108) = (   0.4998195   0.1442328   0.8511552  )
       109        Mo     tau( 109) = (   0.3750012   0.3608437  -0.7272732  )
       110        Mo     tau( 110) = (   0.4999991   0.2886761  -0.2424038  )
       111        S      tau( 111) = (   0.3750012   0.3608452  -0.3667804  )
       112        S      tau( 112) = (   0.5000012   0.2886747  -0.6030489  )
       113        S      tau( 113) = (   0.5000012   0.2886748  -0.8514963  )
       114        S      tau( 114) = (   0.3750014   0.3608455  -0.1180261  )
       115        Mo     tau( 115) = (   0.3749823   0.3608562   0.2424462  )
       116        Mo     tau( 116) = (   0.5001624   0.2885857   0.7270558  )
       117        S      tau( 117) = (   0.3748813   0.3609171   0.6030850  )
       118        S      tau( 118) = (   0.5000041   0.2886750   0.3667632  )
       119        S      tau( 119) = (   0.4999767   0.2886908   0.1180361  )
       120        S      tau( 120) = (   0.3756080   0.3604978   0.8519227  )
       121        Mo     tau( 121) = (   0.2500014   0.5773502  -0.7272732  )
       122        Mo     tau( 122) = (   0.3749983   0.5051825  -0.2424043  )
       123        S      tau( 123) = (   0.2500017   0.5773519  -0.3667810  )
       124        S      tau( 124) = (   0.3750014   0.5051812  -0.6030489  )
       125        S      tau( 125) = (   0.3750014   0.5051813  -0.8514963  )
       126        S      tau( 126) = (   0.2500018   0.5773519  -0.1180256  )
       127        Mo     tau( 127) = (   0.2499737   0.5773335   0.2424135  )
       128        Mo     tau( 128) = (   0.3764328   0.5049349   0.7279416  )
       129        S      tau( 129) = (   0.2480514   0.5762247   0.6070002  )
       130        S      tau( 130) = (   0.3749389   0.5051953   0.3668317  )
       131        S      tau( 131) = (   0.3749944   0.5051727   0.1180554  )
       132        S      tau( 132) = (   0.2606253   0.5834843   0.8580650  )
       133        Mo     tau( 133) = (   0.1250016   0.7938567  -0.7272732  )
       134        Mo     tau( 134) = (   0.2499995   0.7216883  -0.2424036  )
       135        S      tau( 135) = (   0.1250024   0.7938578  -0.3667813  )
       136        S      tau( 136) = (   0.2500016   0.7216877  -0.6030489  )
       137        S      tau( 137) = (   0.2500016   0.7216878  -0.8514963  )
       138        S      tau( 138) = (   0.1250024   0.7938579  -0.1180253  )
       139        Mo     tau( 139) = (   0.1250038   0.7938330   0.2424463  )
       140        Mo     tau( 140) = (   0.2505035   0.7230514   0.7279415  )
       141        S      tau( 141) = (   0.1250048   0.7937168   0.6030849  )
       142        S      tau( 142) = (   0.2499835   0.7216255   0.3668318  )
       143        S      tau( 143) = (   0.2499914   0.7216850   0.1180556  )
       144        S      tau( 144) = (   0.1250053   0.7945558   0.8519227  )
       145        Mo     tau( 145) = (   0.7500010   0.1443372  -0.7272732  )
       146        Mo     tau( 146) = (   0.8750038   0.0721696  -0.2424038  )
       147        S      tau( 147) = (   0.7500016   0.1443382  -0.3667789  )
       148        S      tau( 148) = (   0.8750010   0.0721682  -0.6030489  )
       149        S      tau( 149) = (   0.8750010   0.0721683  -0.8514963  )
       150        S      tau( 150) = (   0.7500016   0.1443384  -0.1180279  )
       151        Mo     tau( 151) = (   0.7499988   0.1443404   0.2423934  )
       152        Mo     tau( 152) = (   0.8750792   0.0721276   0.7261574  )
       153        S      tau( 153) = (   0.7497661   0.1444769   0.6022124  )
       154        S      tau( 154) = (   0.8749753   0.0721851   0.3667807  )
       155        S      tau( 155) = (   0.8750121   0.0721637   0.1180502  )
       156        S      tau( 156) = (   0.7501887   0.1442327   0.8511550  )
       157        Mo     tau( 157) = (   0.6250012   0.3608437  -0.7272732  )
       158        Mo     tau( 158) = (   0.7500028   0.2886769  -0.2424041  )
       159        S      tau( 159) = (   0.6250015   0.3608451  -0.3667792  )
       160        S      tau( 160) = (   0.7500012   0.2886747  -0.6030489  )
       161        S      tau( 161) = (   0.7500012   0.2886748  -0.8514963  )
       162        S      tau( 162) = (   0.6250016   0.3608454  -0.1180280  )
       163        Mo     tau( 163) = (   0.6250035   0.3608392   0.2423934  )
       164        Mo     tau( 164) = (   0.7498463   0.2885859   0.7270559  )
       165        S      tau( 165) = (   0.6250044   0.3605709   0.6022125  )
       166        S      tau( 166) = (   0.7500026   0.2886750   0.3667635  )
       167        S      tau( 167) = (   0.7500299   0.2886908   0.1180357  )
       168        S      tau( 168) = (   0.6250043   0.3610591   0.8511551  )
       169        Mo     tau( 169) = (   0.5000014   0.5773502  -0.7272732  )
       170        Mo     tau( 170) = (   0.6250029   0.5051841  -0.2424047  )
       171        S      tau( 171) = (   0.5000014   0.5773518  -0.3667794  )
       172        S      tau( 172) = (   0.6250014   0.5051812  -0.6030489  )
       173        S      tau( 173) = (   0.6250014   0.5051813  -0.8514963  )
       174        S      tau( 174) = (   0.5000016   0.5773516  -0.1180277  )
       175        Mo     tau( 175) = (   0.4999838   0.5773372   0.2424356  )
       176        Mo     tau( 176) = (   0.6250048   0.5052701   0.7261575  )
       177        S      tau( 177) = (   0.4996630   0.5772238   0.6020019  )
       178        S      tau( 178) = (   0.6250037   0.5051496   0.3667806  )
       179        S      tau( 179) = (   0.6250036   0.5051921   0.1180503  )
       180        S      tau( 180) = (   0.5017240   0.5777016   0.8513099  )
       181        Mo     tau( 181) = (   0.3750016   0.7938567  -0.7272732  )
       182        Mo     tau( 182) = (   0.5000025   0.7216901  -0.2424039  )
       183        S      tau( 183) = (   0.3750019   0.7938578  -0.3667793  )
       184        S      tau( 184) = (   0.5000016   0.7216877  -0.6030489  )
       185        S      tau( 185) = (   0.5000016   0.7216878  -0.8514963  )
       186        S      tau( 186) = (   0.3750020   0.7938579  -0.1180272  )
       187        Mo     tau( 187) = (   0.3749825   0.7938468   0.2424356  )
       188        Mo     tau( 188) = (   0.5001261   0.7217601   0.7263985  )
       189        S      tau( 189) = (   0.3747228   0.7936274   0.6020018  )
       190        S      tau( 190) = (   0.5000073   0.7216903   0.3667579  )
       191        S      tau( 191) = (   0.4999777   0.7216732   0.1180450  )
       192        S      tau( 192) = (   0.3761670   0.7951734   0.8513099  )
       193        Pt     tau( 193) = (   0.1250041   0.5051825   0.9498857  )
       194        Pd     tau( 194) = (   0.1250302   0.5050393   1.1481989  )

     --------------------------------------------
     DFT-D3 Dispersion Correction (3-body terms):
     --------------------------------------------
       Reference C6 values for interpolation: 

         atom   Coordination number   C6
         S          0.000           268.01
         S          0.995           261.99
         S          1.990           251.62
         Mo         0.000          1691.79
         Mo         1.942          1004.01
         Mo        11.056           674.22
         Pd         0.000          1217.01
         Pd         1.863           573.90
         Pd         5.710           531.75
         Pt         0.000           782.29
         Pt         1.919           692.72
         Pt         6.667           673.75

       Values used:

         atom   Coordination number  R0_AB[au]  C6      C8
         Mo        10.208            3.547    674.22  77634.20
         Mo        10.221            3.547    674.22  77634.20
         S          3.858            3.128    251.62  12327.25
         S          3.859            3.128    251.62  12327.25
         S          3.758            3.128    251.62  12327.25
         S          3.859            3.128    251.62  12327.25
         Mo        10.220            3.547    674.22  77634.20
         Mo        10.236            3.547    674.22  77634.20
         S          3.844            3.128    251.62  12327.25
         S          3.861            3.128    251.62  12327.25
         S          3.859            3.128    251.62  12327.25
         S          3.828            3.128    251.62  12327.25
         Mo        10.208            3.547    674.22  77634.20
         Mo        10.221            3.547    674.22  77634.20
         S          3.858            3.128    251.62  12327.25
         S          3.859            3.128    251.62  12327.25
         S          3.758            3.128    251.62  12327.25
         S          3.859            3.128    251.62  12327.25
         Mo        10.221            3.547    674.22  77634.20
         Mo        10.192            3.547    674.22  77634.20
         S          3.857            3.128    251.62  12327.25
         S          3.855            3.128    251.62  12327.25
         S          3.859            3.128    251.62  12327.25
         S          3.758            3.128    251.62  12327.25
         Mo        10.208            3.547    674.22  77634.20
         Mo        10.221            3.547    674.22  77634.20
         S          3.858            3.128    251.62  12327.25
         S          3.859            3.128    251.62  12327.25
         S          3.758            3.128    251.62  12327.25
         S          3.859            3.128    251.62  12327.25
         Mo        10.220            3.547    674.22  77634.20
         Mo        10.192            3.547    674.22  77634.20
         S          3.844            3.128    251.62  12327.25
         S          3.855            3.128    251.62  12327.25
         S          3.859            3.128    251.62  12327.25
         S          3.828            3.128    251.62  12327.25
         Mo        10.208            3.547    674.22  77634.20
         Mo        10.221            3.547    674.22  77634.20
         S          3.858            3.128    251.62  12327.25
         S          3.859            3.128    251.62  12327.25
         S          3.758            3.128    251.62  12327.25
         S          3.859            3.128    251.62  12327.25
         Mo        10.219            3.547    674.22  77634.20
         Mo        10.236            3.547    674.22  77634.20
         S          3.852            3.128    251.62  12327.25
         S          3.861            3.128    251.62  12327.25
         S          3.859            3.128    251.62  12327.25
         S          3.792            3.128    251.62  12327.25
         Mo        10.208            3.547    674.22  77634.20
         Mo        10.221            3.547    674.22  77634.20
         S          3.858            3.128    251.62  12327.25
         S          3.859            3.128    251.62  12327.25
         S          3.758            3.128    251.62  12327.25
         S          3.859            3.128    251.62  12327.25
         Mo        10.220            3.547    674.21  77634.20
         Mo        10.250            3.547    674.22  77634.20
         S          3.844            3.128    251.62  12327.25
         S          3.860            3.128    251.62  12327.25
         S          3.859            3.128    251.62  12327.25
         S          3.828            3.128    251.62  12327.25
         Mo        10.208            3.547    674.21  77634.20
         Mo        10.221            3.547    674.22  77634.20
         S          3.858            3.128    251.62  12327.25
         S          3.859            3.128    251.62  12327.25
         S          3.758            3.128    251.62  12327.25
         S          3.859            3.128    251.62  12327.25
         Mo        10.222            3.547    674.22  77634.20
         Mo        10.192            3.547    674.22  77634.20
         S          3.865            3.128    251.62  12327.25
         S          3.855            3.128    251.62  12327.25
         S          3.859            3.128    251.62  12327.25
         S          4.665            3.128    251.62  12327.25
         Mo        10.208            3.547    674.22  77634.20
         Mo        10.221            3.547    674.22  77634.20
         S          3.858            3.128    251.62  12327.25
         S          3.859            3.128    251.62  12327.25
         S          3.758            3.128    251.62  12327.25
         S          3.859            3.128    251.62  12327.25
         Mo        10.222            3.547    674.22  77634.20
         Mo        10.910            3.547    674.22  77634.20
         S          3.865            3.128    251.62  12327.25
         S          3.851            3.128    251.62  12327.25
         S          3.859            3.128    251.62  12327.25
         S          4.665            3.128    251.62  12327.25
         Mo        10.208            3.547    674.21  77634.20
         Mo        10.221            3.547    674.22  77634.20
         S          3.858            3.128    251.62  12327.25
         S          3.859            3.128    251.62  12327.25
         S          3.758            3.128    251.62  12327.25
         S          3.859            3.128    251.62  12327.25
         Mo        10.220            3.547    674.22  77634.20
         Mo        10.192            3.547    674.22  77634.20
         S          3.844            3.128    251.62  12327.25
         S          3.855            3.128    251.62  12327.25
         S          3.859            3.128    251.62  12327.25
         S          3.828            3.128    251.62  12327.25
         Mo        10.208            3.547    674.22  77634.20
         Mo        10.221            3.547    674.22  77634.20
         S          3.858            3.128    251.62  12327.25
         S          3.859            3.128    251.62  12327.25
         S          3.758            3.128    251.62  12327.25
         S          3.859            3.128    251.62  12327.25
         Mo        10.220            3.547    674.22  77634.20
         Mo        10.236            3.547    674.22  77634.20
         S          3.860            3.128    251.62  12327.25
         S          3.860            3.128    251.62  12327.25
         S          3.859            3.128    251.62  12327.25
         S          3.768            3.128    251.62  12327.25
         Mo        10.208            3.547    674.22  77634.20
         Mo        10.221            3.547    674.22  77634.20
         S          3.858            3.128    251.62  12327.25
         S          3.859            3.128    251.62  12327.25
         S          3.758            3.128    251.62  12327.25
         S          3.859            3.128    251.62  12327.25
         Mo        10.221            3.547    674.22  77634.20
         Mo        10.236            3.547    674.22  77634.20
         S          3.857            3.128    251.62  12327.25
         S          3.860            3.128    251.62  12327.25
         S          3.859            3.128    251.62  12327.25
         S          3.758            3.128    251.62  12327.25
         Mo        10.208            3.547    674.22  77634.20
         Mo        10.221            3.547    674.22  77634.20
         S          3.858            3.128    251.62  12327.25
         S          3.859            3.128    251.62  12327.25
         S          3.758            3.128    251.62  12327.25
         S          3.859            3.128    251.62  12327.25
         Mo        10.222            3.547    674.22  77634.20
         Mo        10.192            3.547    674.22  77634.20
         S          3.865            3.128    251.62  12327.25
         S          3.855            3.128    251.62  12327.25
         S          3.859            3.128    251.62  12327.25
         S          4.665            3.128    251.62  12327.25
         Mo        10.208            3.547    674.22  77634.20
         Mo        10.221            3.547    674.22  77634.20
         S          3.858            3.128    251.62  12327.25
         S          3.859            3.128    251.62  12327.25
         S          3.758            3.128    251.62  12327.25
         S          3.859            3.128    251.62  12327.25
         Mo        10.221            3.547    674.22  77634.20
         Mo        10.192            3.547    674.22  77634.20
         S          3.857            3.128    251.62  12327.25
         S          3.855            3.128    251.62  12327.25
         S          3.859            3.128    251.62  12327.25
         S          3.758            3.128    251.62  12327.25
         Mo        10.208            3.547    674.22  77634.20
         Mo        10.221            3.547    674.22  77634.20
         S          3.858            3.128    251.62  12327.25
         S          3.859            3.128    251.62  12327.25
         S          3.758            3.128    251.62  12327.25
         S          3.859            3.128    251.62  12327.25
         Mo        10.220            3.547    674.22  77634.20
         Mo        10.250            3.547    674.22  77634.20
         S          3.860            3.128    251.62  12327.25
         S          3.860            3.128    251.62  12327.25
         S          3.859            3.128    251.62  12327.25
         S          3.768            3.128    251.62  12327.25
         Mo        10.208            3.547    674.22  77634.20
         Mo        10.220            3.547    674.22  77634.20
         S          3.858            3.128    251.62  12327.25
         S          3.859            3.128    251.62  12327.25
         S          3.758            3.128    251.62  12327.25
         S          3.859            3.128    251.62  12327.25
         Mo        10.220            3.547    674.22  77634.20
         Mo        10.236            3.547    674.22  77634.20
         S          3.860            3.128    251.62  12327.25
         S          3.860            3.128    251.62  12327.25
         S          3.859            3.128    251.62  12327.25
         S          3.768            3.128    251.62  12327.25
         Mo        10.208            3.547    674.21  77634.20
         Mo        10.221            3.547    674.22  77634.20
         S          3.858            3.128    251.62  12327.25
         S          3.859            3.128    251.62  12327.25
         S          3.758            3.128    251.62  12327.25
         S          3.859            3.128    251.62  12327.25
         Mo        10.220            3.547    674.22  77634.20
         Mo        10.250            3.547    674.22  77634.20
         S          3.844            3.128    251.62  12327.25
         S          3.860            3.128    251.62  12327.25
         S          3.859            3.128    251.62  12327.25
         S          3.828            3.128    251.62  12327.25
         Mo        10.208            3.547    674.21  77634.20
         Mo        10.221            3.547    674.22  77634.20
         S          3.858            3.128    251.62  12327.25
         S          3.859            3.128    251.62  12327.25
         S          3.758            3.128    251.62  12327.25
         S          3.859            3.128    251.62  12327.25
         Mo        10.220            3.547    674.22  77634.20
         Mo        10.236            3.547    674.22  77634.20
         S          3.844            3.128    251.62  12327.25
         S          3.861            3.128    251.62  12327.25
         S          3.859            3.128    251.62  12327.25
         S          3.828            3.128    251.62  12327.25
         Pt         4.967            3.168    673.75  70061.90
         Pd         0.968            3.168    775.04  71011.54

         Molecular C6 ( Ry / a.u.^6 ) =  14010337.59


     number of k points=     4  Gaussian smearing, width (Ry)=  0.0100
                       cart. coord. in units 2pi/alat
        k(    1) = (   0.0000000   0.0000000   0.0000000), wk =   0.5000000
        k(    2) = (   0.0000000  -0.5773499   0.0000000), wk =   0.5000000
        k(    3) = (  -0.5000000  -0.2886744   0.0000000), wk =   0.5000000
        k(    4) = (  -0.5000000  -0.8660242   0.0000000), wk =   0.5000000

     Dense  grid:  7154885 G-vectors     FFT dimensions: ( 180, 180, 512)

     Smooth grid:  3090769 G-vectors     FFT dimensions: ( 135, 135, 400)

     Estimated max dynamical RAM per process >       4.31 GB

     Estimated total dynamical RAM >     155.10 GB

     Initial potential from superposition of free atoms

     starting charge    1713.9389, renormalised to    1714.0000

     negative rho (up, down):  8.052E-04 0.000E+00
     Starting wfcs are 1179 randomized atomic wfcs
     Checking if some PAW data can be deallocated... 

     total cpu time spent up to now is      180.6 secs

     Self-consistent Calculation

     iteration #  1     ecut=    77.00 Ry     beta= 0.20
     Davidson diagonalization with overlap
     ethr =  1.00E-02,  avg # of iterations =  2.0

     Threshold (ethr) on eigenvalues was too large:
     Diagonalizing with lowered threshold

     Davidson diagonalization with overlap
     ethr =  1.66E-04,  avg # of iterations = 17.0

     negative rho (up, down):  2.344E-04 0.000E+00

     total cpu time spent up to now is     2220.4 secs

     total energy              =  -33980.19468599 Ry
     estimated scf accuracy    <       6.63667190 Ry

     iteration #  2     ecut=    77.00 Ry     beta= 0.20
     Davidson diagonalization with overlap
     ethr =  3.87E-04,  avg # of iterations =  8.0

     negative rho (up, down):  3.333E-05 0.000E+00

     total cpu time spent up to now is     2651.7 secs

     total energy              =  -33978.94306809 Ry
     estimated scf accuracy    <       3.46439284 Ry

     iteration #  3     ecut=    77.00 Ry     beta= 0.20
     Davidson diagonalization with overlap
     ethr =  2.02E-04,  avg # of iterations = 10.0

     negative rho (up, down):  1.881E-05 0.000E+00

     total cpu time spent up to now is     3128.5 secs

     total energy              =  -33978.74208793 Ry
     estimated scf accuracy    <       2.55327420 Ry

     iteration #  4     ecut=    77.00 Ry     beta= 0.20
     Davidson diagonalization with overlap
     ethr =  1.49E-04,  avg # of iterations = 10.2

     negative rho (up, down):  2.440E-05 0.000E+00

     total cpu time spent up to now is     3600.3 secs

     total energy              =  -33975.35746847 Ry
     estimated scf accuracy    <     280.05673299 Ry

     iteration #  5     ecut=    77.00 Ry     beta= 0.20
     Davidson diagonalization with overlap
     ethr =  1.49E-04,  avg # of iterations = 10.0

     negative rho (up, down):  2.152E-05 0.000E+00

     total cpu time spent up to now is     4053.3 secs

     total energy              =  -33979.36394946 Ry
     estimated scf accuracy    <       1.49806820 Ry

     iteration #  6     ecut=    77.00 Ry     beta= 0.20
     Davidson diagonalization with overlap
     ethr =  8.74E-05,  avg # of iterations = 11.5

     negative rho (up, down):  1.668E-05 0.000E+00

     total cpu time spent up to now is     4564.3 secs

     total energy              =  -33979.65309026 Ry
     estimated scf accuracy    <       0.42838252 Ry

     iteration #  7     ecut=    77.00 Ry     beta= 0.20
     Davidson diagonalization with overlap
     c_bands:  1 eigenvalues not converged
     ethr =  2.50E-05,  avg # of iterations = 19.5

     negative rho (up, down):  2.822E-05 0.000E+00

     total cpu time spent up to now is     6167.0 secs

     total energy              =  -33980.16859837 Ry
     estimated scf accuracy    <       0.61982518 Ry

     iteration #  8     ecut=    77.00 Ry     beta= 0.20
     Davidson diagonalization with overlap
     ethr =  2.50E-05,  avg # of iterations =  1.5

     negative rho (up, down):  2.709E-05 0.000E+00

     total cpu time spent up to now is     6558.2 secs

     total energy              =  -33980.20748578 Ry
     estimated scf accuracy    <       0.36350532 Ry

     iteration #  9     ecut=    77.00 Ry     beta= 0.20
     Davidson diagonalization with overlap
     ethr =  2.12E-05,  avg # of iterations =  1.0

     negative rho (up, down):  2.704E-05 0.000E+00

     total cpu time spent up to now is     6931.5 secs

     total energy              =  -33980.09120987 Ry
     estimated scf accuracy    <       0.37733171 Ry

     iteration # 10     ecut=    77.00 Ry     beta= 0.20
     Davidson diagonalization with overlap
     ethr =  2.12E-05,  avg # of iterations =  5.5

     negative rho (up, down):  2.208E-05 0.000E+00

     total cpu time spent up to now is     7398.4 secs

     total energy              =  -33980.14989848 Ry
     estimated scf accuracy    <       0.26712455 Ry

     iteration # 11     ecut=    77.00 Ry     beta= 0.20
     Davidson diagonalization with overlap
     ethr =  1.56E-05,  avg # of iterations =  2.0

     negative rho (up, down):  3.723E-05 0.000E+00

     total cpu time spent up to now is     7808.7 secs

     total energy              =  -33980.12935029 Ry
     estimated scf accuracy    <       0.13495588 Ry

     iteration # 12     ecut=    77.00 Ry     beta= 0.20
     Davidson diagonalization with overlap
     c_bands:  4 eigenvalues not converged
     c_bands:  3 eigenvalues not converged
     ethr =  7.87E-06,  avg # of iterations = 42.2

     negative rho (up, down):  7.007E-05 0.000E+00

     total cpu time spent up to now is     9122.5 secs

     total energy              =  -33980.20054793 Ry
     estimated scf accuracy    <       0.18765036 Ry

     iteration # 13     ecut=    77.00 Ry     beta= 0.20
     Davidson diagonalization with overlap
     c_bands:  1 eigenvalues not converged
     ethr =  7.87E-06,  avg # of iterations =  8.0

     negative rho (up, down):  3.120E-04 0.000E+00

     total cpu time spent up to now is     9572.4 secs

     total energy              =  -33980.13977419 Ry
     estimated scf accuracy    <       0.25944470 Ry

     iteration # 14     ecut=    77.00 Ry     beta= 0.20
     Davidson diagonalization with overlap
     ethr =  7.87E-06,  avg # of iterations =  1.5

     negative rho (up, down):  4.531E-04 0.000E+00

     total cpu time spent up to now is     9962.4 secs

     total energy              =  -33980.18852045 Ry
     estimated scf accuracy    <       0.02738620 Ry

     iteration # 15     ecut=    77.00 Ry     beta= 0.20
     Davidson diagonalization with overlap
     c_bands:  5 eigenvalues not converged
     c_bands: 12 eigenvalues not converged
     c_bands:  4 eigenvalues not converged
     c_bands:  9 eigenvalues not converged
     ethr =  1.60E-06,  avg # of iterations = 95.0

     negative rho (up, down):  2.376E-04 0.000E+00

     total cpu time spent up to now is    12636.4 secs

     total energy              =  -33980.18916047 Ry
     estimated scf accuracy    <       0.05052142 Ry

     iteration # 16     ecut=    77.00 Ry     beta= 0.20
     Davidson diagonalization with overlap
     c_bands:  1 eigenvalues not converged
     c_bands:  5 eigenvalues not converged
     c_bands:  3 eigenvalues not converged
     c_bands:  2 eigenvalues not converged
     ethr =  1.60E-06,  avg # of iterations = 30.0

     negative rho (up, down):  2.319E-04 0.000E+00

     total cpu time spent up to now is    13475.7 secs

     total energy              =  -33980.19550307 Ry
     estimated scf accuracy    <       0.00521131 Ry

     iteration # 17     ecut=    77.00 Ry     beta= 0.20
     Davidson diagonalization with overlap
     ethr =  3.04E-07,  avg # of iterations = 17.5

     negative rho (up, down):  3.371E-04 0.000E+00

     total cpu time spent up to now is    14506.2 secs

     total energy              =  -33980.20077598 Ry
     estimated scf accuracy    <       0.00496468 Ry

     iteration # 18     ecut=    77.00 Ry     beta= 0.20
     Davidson diagonalization with overlap
     ethr =  2.90E-07,  avg # of iterations =  4.5

     negative rho (up, down):  5.607E-04 0.000E+00

     total cpu time spent up to now is    14924.2 secs

     total energy              =  -33980.20057441 Ry
     estimated scf accuracy    <       0.00139412 Ry

     iteration # 19     ecut=    77.00 Ry     beta= 0.20
     Davidson diagonalization with overlap
     ethr =  8.13E-08,  avg # of iterations = 14.5

     negative rho (up, down):  6.123E-04 0.000E+00

     total cpu time spent up to now is    15940.5 secs

     total energy              =  -33980.20151786 Ry
     estimated scf accuracy    <       0.00270029 Ry

     iteration # 20     ecut=    77.00 Ry     beta= 0.20
     Davidson diagonalization with overlap
     ethr =  8.13E-08,  avg # of iterations =  1.2

     negative rho (up, down):  6.724E-04 0.000E+00

     total cpu time spent up to now is    16321.3 secs

     total energy              =  -33980.20067897 Ry
     estimated scf accuracy    <       0.00144200 Ry

     iteration # 21     ecut=    77.00 Ry     beta= 0.20
     Davidson diagonalization with overlap
     ethr =  8.13E-08,  avg # of iterations =  7.0

     negative rho (up, down):  7.149E-04 0.000E+00

     total cpu time spent up to now is    17008.4 secs

     total energy              =  -33980.20131065 Ry
     estimated scf accuracy    <       0.00018023 Ry

     iteration # 22     ecut=    77.00 Ry     beta= 0.20
     Davidson diagonalization with overlap
     ethr =  1.05E-08,  avg # of iterations = 12.8

     negative rho (up, down):  7.318E-04 0.000E+00

     total cpu time spent up to now is    18043.7 secs

     total energy              =  -33980.20138023 Ry
     estimated scf accuracy    <       0.00028934 Ry

     iteration # 23     ecut=    77.00 Ry     beta= 0.20
     Davidson diagonalization with overlap
     ethr =  1.05E-08,  avg # of iterations =  3.8

     negative rho (up, down):  7.587E-04 0.000E+00

     total cpu time spent up to now is    18463.8 secs

     total energy              =  -33980.20136194 Ry
     estimated scf accuracy    <       0.00007521 Ry

     iteration # 24     ecut=    77.00 Ry     beta= 0.20
     Davidson diagonalization with overlap
     ethr =  4.39E-09,  avg # of iterations = 13.8

     negative rho (up, down):  7.726E-04 0.000E+00

     total cpu time spent up to now is    19144.2 secs

     total energy              =  -33980.20138979 Ry
     estimated scf accuracy    <       0.00000902 Ry

     iteration # 25     ecut=    77.00 Ry     beta= 0.20
     Davidson diagonalization with overlap
     c_bands:  5 eigenvalues not converged
     ethr =  5.26E-10,  avg # of iterations = 19.5

     negative rho (up, down):  7.739E-04 0.000E+00

     total cpu time spent up to now is    21452.2 secs

     total energy              =  -33980.20141478 Ry
     estimated scf accuracy    <       0.00003403 Ry

     iteration # 26     ecut=    77.00 Ry     beta= 0.20
     Davidson diagonalization with overlap
     ethr =  5.26E-10,  avg # of iterations =  5.0

     negative rho (up, down):  7.769E-04 0.000E+00

     total cpu time spent up to now is    22080.6 secs

     total energy              =  -33980.20141285 Ry
     estimated scf accuracy    <       0.00000544 Ry

     iteration # 27     ecut=    77.00 Ry     beta= 0.20
     Davidson diagonalization with overlap
     ethr =  3.17E-10,  avg # of iterations = 11.8

     negative rho (up, down):  7.798E-04 0.000E+00

     total cpu time spent up to now is    23096.6 secs

     total energy              =  -33980.20141670 Ry
     estimated scf accuracy    <       0.00000545 Ry

     iteration # 28     ecut=    77.00 Ry     beta= 0.20
     Davidson diagonalization with overlap
     ethr =  3.17E-10,  avg # of iterations =  1.0

     negative rho (up, down):  7.857E-04 0.000E+00

     total cpu time spent up to now is    23467.4 secs

     total energy              =  -33980.20141092 Ry
     estimated scf accuracy    <       0.00000307 Ry

     iteration # 29     ecut=    77.00 Ry     beta= 0.20
     Davidson diagonalization with overlap
     ethr =  1.79E-10,  avg # of iterations =  6.0

     negative rho (up, down):  7.887E-04 0.000E+00

     total cpu time spent up to now is    24140.8 secs

     End of self-consistent calculation

          k = 0.0000 0.0000 0.0000 (386245 PWs)   bands (ev):

  -103.0933 -87.3605 -71.4296 -71.4116 -71.4116 -71.3839 -71.3838 -71.3710
   -71.3605 -66.5494 -66.5467 -66.5281 -66.5281 -66.5281 -66.5281 -66.5281
   -66.5281 -66.5254 -66.5254 -66.5254 -66.5254 -66.5254 -66.5254 -66.5231
   -66.5067 -66.5067 -66.5067 -66.5067 -66.5066 -66.5066 -66.5066 -66.5066
   -66.5066 -66.5040 -66.5040 -66.5040 -66.5040 -66.5040 -66.5040 -66.5040
   -66.5040 -66.5040 -66.5021 -66.5020 -66.5020 -66.5016 -66.5016 -66.5015
   -66.4808 -66.4808 -66.4807 -66.4806 -66.4805 -66.4805 -66.4804 -66.4798
   -66.4798 -66.4783 -66.4662 -66.4593 -66.4593 -66.4521 -66.4521 -66.4427
   -66.4427 -66.4413 -66.4142 -66.4072 -66.4072 -66.3977 -66.3977 -66.3943
   -66.3633 -57.3804 -57.2503 -57.2502 -53.4299 -53.0470 -53.0469 -40.8774
   -40.8774 -40.8774 -40.8740 -40.8740 -40.8740 -40.8504 -40.8504 -40.8501
   -40.8021 -40.8021 -40.8021 -40.8021 -40.8021 -40.8021 -40.7987 -40.7986
   -40.7986 -40.7986 -40.7986 -40.7986 -40.7953 -40.7953 -40.7944 -40.7752
   -40.7752 -40.7750 -40.7748 -40.7748 -40.7748 -40.7250 -40.7249 -40.7149
   -40.7149 -40.7097 -40.7065 -40.6931 -40.6931 -40.6832 -40.6756 -40.6756
   -40.6756 -40.6756 -40.6756 -40.6756 -40.6723 -40.6723 -40.6723 -40.6723
   -40.6723 -40.6723 -40.6680 -40.6680 -40.6680 -40.6680 -40.6680 -40.6680
   -40.6648 -40.6648 -40.6648 -40.6648 -40.6648 -40.6648 -40.6489 -40.6488
   -40.6488 -40.6485 -40.6485 -40.6485 -40.6418 -40.6416 -40.6416 -40.6413
   -40.6413 -40.6413 -40.6405 -40.6405 -40.6405 -40.6405 -40.6405 -40.6405
   -40.6401 -40.6373 -40.6373 -40.6373 -40.6373 -40.6373 -40.6373 -40.6260
   -40.6260 -40.6260 -40.6260 -40.6260 -40.6260 -40.6259 -40.6259 -40.6259
   -40.6229 -40.6229 -40.6229 -40.6229 -40.6229 -40.6229 -40.6228 -40.6228
   -40.6228 -40.6138 -40.6138 -40.6138 -40.6135 -40.6134 -40.6134 -40.6081
   -40.6029 -40.6022 -40.6022 -40.5998 -40.5998 -40.5997 -40.5997 -40.5995
   -40.5995 -40.5993 -40.5990 -40.5990 -40.5981 -40.5981 -40.5893 -40.5893
   -40.5885 -40.5802 -40.5802 -40.5723 -40.5653 -40.5650 -40.5650 -40.5621
   -40.5621 -40.5621 -40.5605 -40.5589 -40.5589 -40.5589 -40.5499 -40.5499
   -40.5498 -40.5424 -40.5385 -40.5385 -40.5367 -40.5366 -40.5353 -40.5353
   -40.5352 -40.5327 -40.5277 -40.5277 -40.5149 -40.5149 -40.5149 -40.5149
   -40.5149 -40.5149 -40.5118 -40.5118 -40.5118 -40.5118 -40.5118 -40.5118
   -40.4884 -40.4884 -40.4884 -40.4880 -40.4879 -40.4879 -40.4788 -40.4757
   -40.4757 -40.4673 -40.4673 -40.4642 -40.4642 -40.4405 -40.4405 -40.4244
   -40.4238 -40.4238 -40.4142 -40.4142 -40.4111 -40.3512 -40.3512 -20.0319
   -19.9628 -19.8769 -19.7914 -19.1882 -19.1683 -19.1683 -19.1588 -19.1584
   -19.1584 -19.1455 -19.1323 -19.1322 -19.0852 -19.0834 -19.0834 -19.0502
   -19.0453 -19.0453 -18.9987 -18.9976 -18.9976 -18.9555 -18.9534 -18.9534
   -18.9223 -18.9219 -18.9219 -18.7967 -18.6747 -18.5345 -18.4609 -18.4609
   -18.4292 -18.3814 -18.3759 -18.3758 -18.3758 -18.3427 -18.3427 -18.3131
   -18.2618 -18.2602 -18.2602 -18.2103 -18.2103 -18.1896 -18.1532 -18.1509
   -18.1509 -18.1136 -18.1135 -18.0961 -18.0757 -18.0732 -18.0732 -18.0376
   -18.0376 -18.0365 -18.0365 -18.0364 -18.0363 -18.0317 -18.0317 -17.9939
   -17.9936 -17.9936 -17.9929 -17.9917 -17.9917 -17.9910 -17.9870 -17.9870
   -17.9541 -17.9541 -17.9539 -17.9485 -17.9423 -17.9422 -17.9422 -17.9332
   -17.9332 -17.9143 -17.9122 -17.9122 -17.8981 -17.8875 -17.8864 -17.8864
   -17.8752 -17.8752 -17.8720 -17.8389 -17.8388 -17.8285 -17.8242 -17.8242
   -17.8205 -17.8190 -17.8188 -17.8188 -17.7942 -17.7942 -17.7889 -17.7775
   -17.7775 -17.7678 -17.7658 -17.7658 -17.7650 -17.7642 -17.7634 -17.7634
   -17.7406 -17.7405 -17.7295 -17.7271 -17.7271 -17.7271 -17.7253 -17.7252
   -17.7218 -17.6956 -17.6956 -17.6895 -17.6832 -17.6795 -17.6795 -11.9251
   -11.8674 -11.7307 -11.7307 -11.7164 -11.6582 -11.6582 -11.6386 -11.5881
   -11.5567 -11.5566 -11.4767 -11.4618 -11.4618 -11.3367 -11.2039 -11.1743
   -11.1742 -11.1454 -11.1441 -11.1440 -11.1299 -11.1268 -11.1267 -11.0455
   -11.0440 -11.0440 -11.0430 -11.0430 -11.0420 -10.9988 -10.9688 -10.9657
   -10.9657 -10.9633 -10.9605 -10.9605 -10.9541 -10.9517 -10.9517 -10.9406
   -10.9406 -10.9324 -10.8882 -10.8780 -10.8780 -10.8709 -10.8708 -10.8519
   -10.8286 -10.8286 -10.8204 -10.7962 -10.7962 -10.7772 -10.7676 -10.7676
   -10.7621 -10.7611 -10.7611 -10.7546 -10.7510 -10.7456 -10.7456 -10.7293
   -10.7293 -10.7269 -10.7074 -10.7074 -10.7056 -10.7049 -10.7015 -10.7015
   -10.6985 -10.6960 -10.6959 -10.6895 -10.6895 -10.6781 -10.6780 -10.6758
   -10.6663 -10.6567 -10.6567 -10.6533 -10.6475 -10.6475 -10.6226 -10.6200
   -10.6200 -10.6196 -10.5662 -10.5662 -10.5653 -10.5107 -10.4854 -10.4854
   -10.4762 -10.4762 -10.4756 -10.3190 -10.3190 -10.1062 -10.0667 -10.0666
    -9.9057  -9.8510  -9.8510  -9.8442  -9.7366  -9.7134  -9.7134  -9.7065
    -9.7064  -9.7064  -9.6931  -9.6802  -9.6802  -9.6791  -9.6791  -9.6773
    -9.6763  -9.6616  -9.6616  -9.6488  -9.6435  -9.6435  -9.6180  -9.6167
    -9.6166  -9.5639  -9.5326  -9.5315  -9.5308  -9.5308  -9.5304  -9.5304
    -9.5283  -9.5265  -9.5257  -9.5257  -9.5230  -9.5229  -9.5027  -9.5027
    -9.4849  -9.4716  -9.4716  -9.4667  -9.4667  -9.4666  -9.4656  -9.4607
    -9.4607  -9.4251  -9.4173  -9.4173  -9.4155  -9.4103  -9.4103  -9.3846
    -9.3846  -9.3538  -9.3434  -9.3434  -9.3423  -9.2625  -9.2625  -9.2547
    -9.2420  -9.2419  -9.2306  -9.2306  -9.2233  -9.2144  -9.1968  -9.1963
    -9.1963  -9.1602  -9.1601  -9.1519  -9.1283  -9.1283  -9.1169  -9.1015
    -9.1014  -9.1012  -9.0862  -9.0862  -9.0694  -9.0410  -9.0281  -9.0206
    -9.0206  -9.0010  -9.0010  -8.9804  -8.9804  -8.9778  -8.9055  -8.9007
    -8.9007  -8.8997  -8.8648  -8.8648  -8.8647  -8.8387  -8.8386  -8.8350
    -8.8345  -8.8345  -8.8242  -8.8219  -8.8219  -8.7941  -8.7760  -8.7760
    -8.7573  -8.7444  -8.7444  -8.7428  -8.7422  -8.7422  -8.7402  -8.7301
    -8.7301  -8.6451  -8.6451  -8.6428  -8.6410  -8.6410  -8.6283  -8.5933
    -8.5683  -8.5683  -8.5614  -8.5614  -8.5387  -8.5386  -8.5047  -8.5047
    -8.4987  -8.4987  -8.4859  -8.4750  -8.3805  -8.3289  -8.3289  -8.2917
    -8.2917  -8.2807  -8.2807  -8.2574  -8.2574  -8.1989  -8.1989  -8.1963
    -8.1962  -8.1962  -8.1962  -8.1939  -8.1939  -8.1672  -8.1661  -8.1661
    -8.1649  -8.1626  -8.1625  -8.1480  -8.1448  -8.1448  -8.1385  -8.1330
    -8.1330  -8.1208  -8.1192  -8.1192  -8.0853  -7.9355  -7.9355  -7.9093
    -7.7756  -7.7730  -7.7729  -7.6961  -7.6853  -7.6853  -7.6137  -7.6033
    -7.6033  -7.5557  -7.5556  -7.5481  -7.5422  -7.5422  -7.5336  -7.5242
    -7.5236  -7.5236  -7.5165  -7.5165  -7.4583  -7.4555  -7.4555  -7.4552
    -7.4547  -7.4547  -7.4546  -7.4424  -7.4424  -7.4262  -7.4262  -7.4248
    -7.4239  -7.4232  -7.4220  -7.4220  -7.4164  -7.4164  -7.4003  -7.3975
    -7.3944  -7.3943  -7.3928  -7.3928  -7.3607  -7.3391  -7.3357  -7.3357
    -7.3327  -7.3220  -7.3109  -7.3109  -7.3077  -7.3077  -7.3074  -7.3045
    -7.3045  -7.3041  -7.2787  -7.2387  -7.2387  -7.2115  -7.2115  -7.2009
    -7.1990  -7.1925  -7.1925  -7.1810  -7.1810  -7.1769  -7.1721  -7.1721
    -7.1699  -7.1600  -7.1600  -7.1478  -7.1478  -7.1232  -7.1232  -7.0495
    -7.0494  -7.0032  -6.9913  -6.9912  -6.9631  -6.9444  -6.9443  -6.7867
    -6.7866  -6.7861  -6.7529  -6.7529  -6.7393  -6.7031  -6.6996  -6.6995
    -6.6524  -6.6352  -6.6244  -6.6244  -6.5883  -6.5883  -6.5695  -6.5416
    -6.5415  -6.5190  -6.5139  -6.5135  -6.5135  -6.5076  -6.5021  -6.5020
    -6.4520  -6.4520  -6.4446  -6.4397  -6.4397  -6.4356  -6.4246  -6.4246
    -6.4227  -6.4210  -6.4210  -6.4201  -6.4178  -6.4178  -6.4155  -6.4044
    -6.4044  -6.3867  -6.3819  -6.3819  -6.3768  -6.3693  -6.3644  -6.3644
    -6.3364  -6.3317  -6.3317  -6.3023  -6.3022  -6.3012  -6.2508  -6.2507
    -6.2506  -6.2503  -6.2500  -6.2499  -6.2226  -6.2225  -6.2083  -6.2070
    -6.2057  -6.2057  -6.1999  -6.1999  -6.1757  -6.1734  -6.1718  -6.1717
    -6.1673  -6.1672  -6.1311  -6.1196  -6.1195  -6.1187  -6.1127  -6.0221
    -6.0218  -5.6441  -5.5529  -5.5529  -5.3640  -5.1768  -5.1024  -5.1022
    -5.0453  -4.8370  -3.7542  -3.7542  -3.7524  -3.7489  -3.7489  -3.7417
    -3.7293  -3.7292  -3.7283  -3.7276  -3.7276  -3.7216  -3.5879  -3.5879
    -3.5817  -3.5778  -3.5778  -3.5732  -3.5713  -3.5712  -3.5707  -3.5644
    -3.5644  -3.5091  -3.4035  -3.4034  -3.3982  -3.3946  -3.3946  -3.3839
    -3.3825  -3.3825  -3.3813  -3.3810  -3.3810  -3.3806  -3.3613  -3.3613
    -3.3613  -3.3528  -3.3528  -3.3483  -3.3444  -3.3444  -3.3393  -3.3393
    -3.3393  -3.3294  -3.3183  -3.3183  -3.3179  -3.3115  -3.3088  -3.3087
    -3.2984  -3.2984  -3.2738  -3.2667  -3.2667  -3.2641  -3.2590  -3.2472
    -3.2471  -3.2420  -3.2380  -3.2379  -3.2319  -3.2319  -3.2293  -3.2198
    -3.2198  -3.1984  -3.1940  -3.1766  -3.1750  -3.1750  -3.1343  -3.1343
    -3.1210  -3.1210  -3.1090  -3.0932  -3.0931  -3.0305  -2.9691  -2.9690
    -2.9644  -2.9639  -2.9632  -2.9605  -2.9491  -2.9491  -2.9464  -2.8927
    -2.8927  -2.8815  -2.8815  -2.8782  -2.8779  -2.8772  -2.8771  -2.8690
    -2.8649  -2.8647  -2.8633  -2.8633  -2.8588  -2.8587  -2.8563  -2.8482
    -2.8482  -2.8409  -2.8408  -2.8376  -2.8376  -2.8342  -2.8302  -2.8288
    -2.8284  -2.8141  -2.7904  -2.7903  -2.7615  -2.7615  -2.7567  -2.7322
    -2.7321  -2.7319  -2.7318  -2.7316  -2.7315  -2.7285  -2.7281  -2.7130
    -2.7123  -2.7010  -2.6957  -2.6956  -2.6889  -2.6887  -2.6818  -2.6739
    -2.6372  -2.6371  -2.6370  -2.6288  -2.6288  -2.6180  -2.6180  -2.6032
    -2.5714  -2.5713  -2.5402  -2.5401  -2.5255  -2.5225  -2.5196  -2.5187
    -2.5009  -2.5007  -2.4748  -2.4504  -2.4502  -2.4353  -2.4351  -2.4287
    -2.3276  -2.3156  -2.3151  -2.3044

          k = 0.0000-0.5773 0.0000 (386352 PWs)   bands (ev):

  -103.0933 -87.3605 -71.4296 -71.4116 -71.4116 -71.3839 -71.3838 -71.3710
   -71.3605 -66.5431 -66.5431 -66.5405 -66.5404 -66.5325 -66.5325 -66.5298
   -66.5298 -66.5174 -66.5174 -66.5174 -66.5174 -66.5170 -66.5168 -66.5147
   -66.5147 -66.5147 -66.5147 -66.5129 -66.5129 -66.5103 -66.5102 -66.5066
   -66.5066 -66.5066 -66.5066 -66.5063 -66.5062 -66.5040 -66.5040 -66.5040
   -66.5040 -66.5022 -66.5022 -66.4995 -66.4995 -66.4913 -66.4913 -66.4910
   -66.4910 -66.4869 -66.4865 -66.4806 -66.4806 -66.4805 -66.4800 -66.4760
   -66.4759 -66.4754 -66.4720 -66.4601 -66.4560 -66.4518 -66.4506 -66.4434
   -66.4432 -66.4419 -66.4139 -66.4070 -66.4069 -66.3987 -66.3981 -66.3935
   -66.3633 -57.3804 -57.2503 -57.2502 -53.4299 -53.0470 -53.0469 -40.8458
   -40.8458 -40.8458 -40.8458 -40.8423 -40.8423 -40.8423 -40.8423 -40.8190
   -40.8190 -40.8189 -40.8188 -40.8187 -40.8183 -40.8155 -40.8155 -40.8069
   -40.8069 -40.8035 -40.8035 -40.7920 -40.7918 -40.7798 -40.7798 -40.7796
   -40.7664 -40.7608 -40.7561 -40.7561 -40.7561 -40.7561 -40.7528 -40.7528
   -40.7528 -40.7528 -40.7450 -40.7435 -40.7376 -40.7292 -40.7291 -40.7291
   -40.7291 -40.7204 -40.6994 -40.6976 -40.6975 -40.6943 -40.6943 -40.6878
   -40.6877 -40.6845 -40.6845 -40.6767 -40.6767 -40.6735 -40.6735 -40.6711
   -40.6709 -40.6707 -40.6649 -40.6611 -40.6609 -40.6608 -40.6502 -40.6501
   -40.6470 -40.6470 -40.6470 -40.6470 -40.6439 -40.6439 -40.6439 -40.6439
   -40.6383 -40.6383 -40.6355 -40.6351 -40.6351 -40.6317 -40.6263 -40.6263
   -40.6259 -40.6259 -40.6259 -40.6259 -40.6253 -40.6230 -40.6230 -40.6228
   -40.6228 -40.6228 -40.6228 -40.6207 -40.6206 -40.6204 -40.6204 -40.6173
   -40.6173 -40.6142 -40.6142 -40.6119 -40.6117 -40.6055 -40.6018 -40.5996
   -40.5996 -40.5996 -40.5994 -40.5994 -40.5991 -40.5953 -40.5953 -40.5953
   -40.5953 -40.5921 -40.5921 -40.5921 -40.5921 -40.5911 -40.5908 -40.5908
   -40.5906 -40.5815 -40.5811 -40.5795 -40.5716 -40.5686 -40.5686 -40.5683
   -40.5681 -40.5680 -40.5648 -40.5605 -40.5605 -40.5605 -40.5605 -40.5573
   -40.5573 -40.5573 -40.5573 -40.5539 -40.5499 -40.5483 -40.5483 -40.5452
   -40.5452 -40.5422 -40.5400 -40.5377 -40.5375 -40.5370 -40.5337 -40.5337
   -40.5336 -40.5336 -40.5294 -40.5290 -40.5290 -40.5259 -40.5258 -40.5217
   -40.5213 -40.5145 -40.5138 -40.5120 -40.5120 -40.5101 -40.5089 -40.5089
   -40.5026 -40.5024 -40.5020 -40.4852 -40.4852 -40.4813 -40.4813 -40.4810
   -40.4782 -40.4782 -40.4682 -40.4674 -40.4613 -40.4547 -40.4543 -40.4484
   -40.4476 -40.4371 -40.4316 -40.4174 -40.3963 -40.3748 -40.3557 -19.7973
   -19.7929 -19.7449 -19.7163 -19.6574 -19.6275 -19.5645 -19.5478 -19.3570
   -19.3568 -19.2950 -19.2941 -19.2173 -19.2161 -19.1343 -19.1335 -18.7551
   -18.7210 -18.6877 -18.6640 -18.6428 -18.6402 -18.6372 -18.6357 -18.6285
   -18.5736 -18.5723 -18.5627 -18.5570 -18.5282 -18.5132 -18.4990 -18.4814
   -18.4787 -18.4748 -18.4605 -18.4544 -18.4300 -18.4238 -18.4021 -18.3893
   -18.3891 -18.3639 -18.3608 -18.3523 -18.3321 -18.3185 -18.3109 -18.2936
   -18.2679 -18.2617 -18.2449 -18.2395 -18.2046 -18.1843 -18.1588 -18.1395
   -18.1343 -18.1284 -18.1258 -18.0896 -18.0846 -18.0466 -18.0323 -18.0222
   -18.0157 -18.0157 -18.0156 -18.0154 -18.0137 -18.0035 -17.9916 -17.9743
   -17.9739 -17.9710 -17.9706 -17.9668 -17.9519 -17.9470 -17.9402 -17.9372
   -17.9313 -17.9295 -17.9288 -17.9188 -17.9146 -17.9059 -17.8926 -17.8864
   -17.8839 -17.8827 -17.8780 -17.8779 -17.8759 -17.8410 -17.8370 -17.8301
   -17.8249 -17.8236 -17.8227 -17.7903 -17.7817 -17.7766 -17.7759 -17.7539
   -17.7490 -17.7454 -17.7451 -17.7375 -17.7375 -17.7225 -17.7159 -17.7145
   -17.7134 -17.7044 -17.7039 -17.6893 -17.6891 -17.6717 -17.6697 -17.6635
   -17.6512 -17.6479 -17.6463 -17.6375 -17.6359 -17.6006 -17.5925 -11.7868
   -11.6226 -11.6158 -11.4919 -11.4653 -11.4227 -11.4221 -11.4148 -11.4069
   -11.3926 -11.3889 -11.3788 -11.3666 -11.3336 -11.3288 -11.2989 -11.2982
   -11.2871 -11.2588 -11.2363 -11.2294 -11.2229 -11.2222 -11.2024 -11.1919
   -11.1765 -11.1745 -11.1741 -11.1603 -11.1581 -11.1420 -11.1369 -11.1235
   -11.1110 -11.1024 -11.0912 -11.0789 -11.0744 -11.0740 -11.0736 -11.0725
   -11.0592 -11.0486 -11.0396 -11.0082 -11.0018 -10.9677 -10.9552 -10.9478
   -10.9463 -10.8985 -10.8663 -10.8566 -10.8370 -10.8273 -10.8023 -10.8010
   -10.7870 -10.7791 -10.7705 -10.7622 -10.7491 -10.7347 -10.7292 -10.7274
   -10.7266 -10.7265 -10.7264 -10.7251 -10.7165 -10.7090 -10.7024 -10.7000
   -10.6934 -10.6923 -10.6920 -10.6899 -10.6895 -10.6840 -10.6836 -10.6777
   -10.6655 -10.6629 -10.6626 -10.6599 -10.6244 -10.4867 -10.4732 -10.4424
   -10.4391 -10.4365 -10.4177 -10.3783 -10.3603 -10.2908 -10.2595 -10.1644
   -10.1354 -10.0585 -10.0496 -10.0428 -10.0416 -10.0167 -10.0062  -9.9824
    -9.9793  -9.9614  -9.9606  -9.9568  -9.9462  -9.9365  -9.9291  -9.9207
    -9.9096  -9.8957  -9.8932  -9.8528  -9.8407  -9.8206  -9.8147  -9.8103
    -9.8070  -9.8070  -9.7963  -9.7922  -9.7592  -9.7572  -9.7436  -9.7413
    -9.7009  -9.6890  -9.6874  -9.6725  -9.6640  -9.6499  -9.6430  -9.6316
    -9.6141  -9.6027  -9.5823  -9.5801  -9.5626  -9.5555  -9.5448  -9.5187
    -9.5171  -9.5074  -9.4776  -9.4766  -9.4457  -9.4404  -9.4398  -9.4307
    -9.4303  -9.4160  -9.4130  -9.3975  -9.3964  -9.3840  -9.3778  -9.3733
    -9.3621  -9.3583  -9.3579  -9.3304  -9.3237  -9.3182  -9.3132  -9.2679
    -9.2440  -9.1900  -9.1879  -9.1607  -9.1465  -9.1456  -9.1141  -9.1081
    -9.0967  -9.0869  -9.0733  -9.0727  -9.0590  -9.0431  -9.0421  -9.0297
    -9.0146  -9.0024  -8.9877  -8.9661  -8.9450  -8.9438  -8.9330  -8.9270
    -8.9206  -8.9187  -8.9115  -8.8886  -8.8806  -8.8712  -8.8584  -8.8536
    -8.8419  -8.8408  -8.8260  -8.8233  -8.8139  -8.7969  -8.7949  -8.7888
    -8.7882  -8.7866  -8.7790  -8.7730  -8.7714  -8.7686  -8.7657  -8.7641
    -8.7503  -8.7488  -8.7432  -8.7384  -8.7251  -8.7250  -8.7138  -8.7136
    -8.7002  -8.6894  -8.6893  -8.6886  -8.6830  -8.6807  -8.6798  -8.6718
    -8.6553  -8.6448  -8.6421  -8.6278  -8.6257  -8.6190  -8.5965  -8.5887
    -8.5478  -8.5428  -8.5031  -8.4631  -8.4313  -8.4249  -8.4157  -8.4114
    -8.3535  -8.3412  -8.2724  -8.2598  -8.2364  -8.1685  -8.1582  -8.1138
    -8.0500  -8.0500  -8.0352  -8.0351  -8.0139  -8.0120  -7.9991  -7.9807
    -7.9636  -7.9275  -7.9060  -7.8855  -7.8833  -7.8808  -7.8081  -7.7773
    -7.7516  -7.7507  -7.7492  -7.7488  -7.7214  -7.7206  -7.7188  -7.7173
    -7.7027  -7.7026  -7.7022  -7.6965  -7.6961  -7.6872  -7.6871  -7.6849
    -7.6835  -7.6822  -7.6820  -7.6818  -7.6798  -7.6760  -7.6735  -7.6676
    -7.6657  -7.6580  -7.6498  -7.6486  -7.6476  -7.6428  -7.6290  -7.6260
    -7.6226  -7.6196  -7.6116  -7.6061  -7.6016  -7.5983  -7.5917  -7.5905
    -7.5902  -7.5888  -7.5826  -7.5741  -7.5676  -7.5575  -7.5408  -7.5284
    -7.5283  -7.5164  -7.5091  -7.5026  -7.5023  -7.5017  -7.4983  -7.4983
    -7.4885  -7.4812  -7.4686  -7.4663  -7.4592  -7.4450  -7.4395  -7.4392
    -7.4294  -7.4266  -7.3661  -7.3572  -7.3559  -7.3490  -7.3304  -7.3125
    -7.1938  -7.1279  -7.1152  -7.0876  -7.0851  -7.0830  -7.0807  -7.0555
    -7.0477  -7.0333  -7.0197  -7.0171  -7.0080  -6.9931  -6.9920  -6.9745
    -6.9433  -6.9421  -6.9236  -6.9212  -6.9165  -6.8972  -6.8941  -6.8751
    -6.8544  -6.8297  -6.8281  -6.8130  -6.8021  -6.7824  -6.7788  -6.7755
    -6.7692  -6.7647  -6.7460  -6.7338  -6.7133  -6.6639  -6.6608  -6.6496
    -6.6195  -6.6037  -6.5835  -6.5677  -6.5386  -6.5283  -6.5250  -6.5250
    -6.5244  -6.5192  -6.5123  -6.5056  -6.5054  -6.5054  -6.5044  -6.4975
    -6.4869  -6.4865  -6.4830  -6.4820  -6.4688  -6.4330  -6.4059  -6.4036
    -6.3814  -6.3645  -6.3129  -6.3064  -6.2527  -6.2378  -6.2370  -6.2367
    -6.2314  -6.2011  -6.1984  -6.1920  -6.1895  -6.1830  -6.1773  -6.1760
    -6.1755  -6.1697  -6.1541  -6.1363  -6.1321  -6.1293  -6.1293  -6.1209
    -6.1033  -6.0957  -6.0772  -6.0735  -6.0696  -6.0358  -5.9072  -5.9070
    -5.8476  -5.8450  -5.7929  -5.7875  -5.7834  -5.7457  -5.7441  -5.7307
    -5.6024  -5.5725  -5.5539  -5.5536  -5.5074  -5.4924  -5.1900  -5.0932
    -5.0891  -4.8330  -3.9937  -3.9921  -3.9868  -3.9808  -3.8397  -3.8322
    -3.8102  -3.8064  -3.7925  -3.7712  -3.7575  -3.7575  -3.7329  -3.7328
    -3.7113  -3.7113  -3.6847  -3.6672  -3.6539  -3.6495  -3.5756  -3.5756
    -3.5702  -3.5379  -3.5079  -3.5077  -3.5068  -3.5065  -3.4946  -3.4725
    -3.4644  -3.4642  -3.4197  -3.4177  -3.4144  -3.4140  -3.4104  -3.4048
    -3.3839  -3.3817  -3.3782  -3.3766  -3.3759  -3.3716  -3.3715  -3.3560
    -3.3311  -3.3257  -3.3189  -3.3184  -3.3124  -3.3088  -3.3020  -3.2929
    -3.2504  -3.2477  -3.2471  -3.2456  -3.2436  -3.2382  -3.2329  -3.2250
    -3.2022  -3.2004  -3.1968  -3.1942  -3.1908  -3.1902  -3.1898  -3.1876
    -3.1777  -3.1665  -3.1416  -3.1389  -3.1359  -3.1300  -3.1281  -3.1274
    -3.1208  -3.1164  -3.1020  -3.0985  -3.0951  -3.0842  -3.0836  -3.0759
    -3.0727  -3.0600  -3.0587  -3.0522  -3.0475  -3.0309  -3.0169  -3.0110
    -3.0018  -2.9836  -2.9741  -2.9724  -2.9661  -2.9542  -2.9513  -2.9356
    -2.9355  -2.9332  -2.9307  -2.9294  -2.9292  -2.9283  -2.9122  -2.9109
    -2.9070  -2.9051  -2.8998  -2.8820  -2.8776  -2.8733  -2.8677  -2.8672
    -2.8645  -2.8625  -2.8618  -2.8614  -2.8550  -2.8539  -2.8528  -2.8483
    -2.8464  -2.8334  -2.8173  -2.8167  -2.8075  -2.7965  -2.7906  -2.7785
    -2.7717  -2.7695  -2.7666  -2.7626  -2.7507  -2.7239  -2.6942  -2.6811
    -2.6781  -2.6726  -2.6231  -2.6133  -2.6005  -2.5956  -2.5198  -2.5183
    -2.4889  -2.4717  -2.4658  -2.4645  -2.4468  -2.4418  -2.4303  -2.4203
    -2.4178  -2.4149  -2.4003  -2.3663  -2.3066  -2.3058  -2.2978  -2.2935
    -2.2871  -2.2826  -2.2611  -2.2577

          k =-0.5000-0.2887 0.0000 (386352 PWs)   bands (ev):

  -103.0933 -87.3605 -71.4296 -71.4116 -71.4116 -71.3839 -71.3838 -71.3710
   -71.3605 -66.5431 -66.5431 -66.5405 -66.5404 -66.5325 -66.5325 -66.5298
   -66.5298 -66.5174 -66.5174 -66.5174 -66.5174 -66.5170 -66.5168 -66.5147
   -66.5147 -66.5147 -66.5147 -66.5129 -66.5129 -66.5103 -66.5102 -66.5067
   -66.5066 -66.5066 -66.5066 -66.5063 -66.5062 -66.5040 -66.5040 -66.5040
   -66.5040 -66.5022 -66.5022 -66.4995 -66.4995 -66.4913 -66.4913 -66.4910
   -66.4910 -66.4869 -66.4865 -66.4806 -66.4806 -66.4805 -66.4800 -66.4760
   -66.4759 -66.4754 -66.4720 -66.4601 -66.4559 -66.4518 -66.4506 -66.4434
   -66.4432 -66.4419 -66.4139 -66.4070 -66.4068 -66.3987 -66.3981 -66.3935
   -66.3633 -57.3804 -57.2503 -57.2502 -53.4299 -53.0470 -53.0469 -40.8458
   -40.8458 -40.8458 -40.8458 -40.8424 -40.8423 -40.8423 -40.8423 -40.8190
   -40.8190 -40.8189 -40.8188 -40.8187 -40.8183 -40.8155 -40.8155 -40.8069
   -40.8069 -40.8035 -40.8035 -40.7920 -40.7918 -40.7798 -40.7798 -40.7796
   -40.7663 -40.7608 -40.7561 -40.7561 -40.7561 -40.7561 -40.7528 -40.7528
   -40.7528 -40.7528 -40.7450 -40.7435 -40.7376 -40.7292 -40.7291 -40.7291
   -40.7291 -40.7204 -40.6994 -40.6976 -40.6975 -40.6943 -40.6943 -40.6878
   -40.6877 -40.6845 -40.6845 -40.6767 -40.6767 -40.6735 -40.6735 -40.6711
   -40.6709 -40.6707 -40.6649 -40.6611 -40.6609 -40.6608 -40.6502 -40.6501
   -40.6470 -40.6470 -40.6470 -40.6470 -40.6439 -40.6439 -40.6439 -40.6439
   -40.6383 -40.6383 -40.6355 -40.6351 -40.6351 -40.6317 -40.6263 -40.6263
   -40.6260 -40.6259 -40.6259 -40.6259 -40.6253 -40.6230 -40.6230 -40.6228
   -40.6228 -40.6228 -40.6228 -40.6207 -40.6206 -40.6204 -40.6204 -40.6173
   -40.6173 -40.6142 -40.6142 -40.6119 -40.6117 -40.6055 -40.6018 -40.5996
   -40.5996 -40.5996 -40.5994 -40.5994 -40.5991 -40.5953 -40.5953 -40.5953
   -40.5953 -40.5921 -40.5921 -40.5921 -40.5921 -40.5911 -40.5908 -40.5908
   -40.5906 -40.5815 -40.5811 -40.5795 -40.5717 -40.5686 -40.5686 -40.5683
   -40.5681 -40.5680 -40.5647 -40.5605 -40.5605 -40.5605 -40.5605 -40.5573
   -40.5573 -40.5573 -40.5573 -40.5539 -40.5499 -40.5483 -40.5483 -40.5452
   -40.5452 -40.5422 -40.5400 -40.5377 -40.5375 -40.5370 -40.5337 -40.5337
   -40.5336 -40.5336 -40.5294 -40.5290 -40.5290 -40.5259 -40.5258 -40.5217
   -40.5213 -40.5145 -40.5138 -40.5120 -40.5120 -40.5101 -40.5089 -40.5089
   -40.5026 -40.5024 -40.5020 -40.4852 -40.4852 -40.4813 -40.4813 -40.4810
   -40.4782 -40.4782 -40.4682 -40.4674 -40.4613 -40.4547 -40.4543 -40.4484
   -40.4476 -40.4371 -40.4316 -40.4174 -40.3963 -40.3748 -40.3557 -19.7973
   -19.7929 -19.7449 -19.7163 -19.6574 -19.6275 -19.5645 -19.5478 -19.3570
   -19.3568 -19.2950 -19.2941 -19.2173 -19.2161 -19.1343 -19.1335 -18.7551
   -18.7210 -18.6877 -18.6640 -18.6428 -18.6402 -18.6372 -18.6357 -18.6285
   -18.5736 -18.5723 -18.5627 -18.5570 -18.5282 -18.5132 -18.4990 -18.4814
   -18.4787 -18.4748 -18.4605 -18.4544 -18.4300 -18.4238 -18.4021 -18.3893
   -18.3891 -18.3639 -18.3608 -18.3523 -18.3321 -18.3185 -18.3108 -18.2936
   -18.2679 -18.2617 -18.2449 -18.2395 -18.2046 -18.1843 -18.1588 -18.1395
   -18.1342 -18.1283 -18.1259 -18.0896 -18.0846 -18.0466 -18.0323 -18.0222
   -18.0157 -18.0156 -18.0156 -18.0154 -18.0137 -18.0035 -17.9916 -17.9743
   -17.9739 -17.9710 -17.9706 -17.9668 -17.9520 -17.9470 -17.9402 -17.9372
   -17.9313 -17.9295 -17.9288 -17.9188 -17.9145 -17.9058 -17.8926 -17.8864
   -17.8839 -17.8827 -17.8779 -17.8779 -17.8759 -17.8410 -17.8370 -17.8301
   -17.8249 -17.8236 -17.8227 -17.7903 -17.7817 -17.7766 -17.7759 -17.7539
   -17.7491 -17.7454 -17.7451 -17.7375 -17.7375 -17.7225 -17.7159 -17.7145
   -17.7134 -17.7044 -17.7039 -17.6893 -17.6891 -17.6717 -17.6697 -17.6635
   -17.6512 -17.6479 -17.6463 -17.6374 -17.6359 -17.6006 -17.5925 -11.7868
   -11.6226 -11.6158 -11.4919 -11.4653 -11.4227 -11.4221 -11.4148 -11.4069
   -11.3926 -11.3889 -11.3788 -11.3666 -11.3336 -11.3288 -11.2989 -11.2982
   -11.2871 -11.2588 -11.2363 -11.2294 -11.2229 -11.2222 -11.2025 -11.1919
   -11.1765 -11.1745 -11.1741 -11.1603 -11.1581 -11.1420 -11.1369 -11.1235
   -11.1110 -11.1024 -11.0912 -11.0789 -11.0744 -11.0740 -11.0736 -11.0725
   -11.0592 -11.0486 -11.0396 -11.0082 -11.0018 -10.9677 -10.9552 -10.9478
   -10.9463 -10.8985 -10.8663 -10.8566 -10.8370 -10.8273 -10.8023 -10.8010
   -10.7871 -10.7791 -10.7705 -10.7622 -10.7491 -10.7347 -10.7292 -10.7274
   -10.7266 -10.7265 -10.7264 -10.7251 -10.7165 -10.7090 -10.7024 -10.7000
   -10.6934 -10.6923 -10.6920 -10.6899 -10.6895 -10.6840 -10.6836 -10.6777
   -10.6655 -10.6629 -10.6626 -10.6599 -10.6244 -10.4867 -10.4732 -10.4424
   -10.4391 -10.4365 -10.4177 -10.3783 -10.3603 -10.2908 -10.2595 -10.1644
   -10.1354 -10.0585 -10.0496 -10.0428 -10.0416 -10.0167 -10.0061  -9.9824
    -9.9793  -9.9614  -9.9606  -9.9568  -9.9462  -9.9365  -9.9291  -9.9207
    -9.9096  -9.8957  -9.8932  -9.8528  -9.8407  -9.8205  -9.8147  -9.8103
    -9.8071  -9.8070  -9.7963  -9.7922  -9.7592  -9.7572  -9.7436  -9.7414
    -9.7009  -9.6890  -9.6874  -9.6725  -9.6640  -9.6499  -9.6430  -9.6316
    -9.6141  -9.6027  -9.5823  -9.5801  -9.5626  -9.5555  -9.5448  -9.5187
    -9.5171  -9.5074  -9.4776  -9.4766  -9.4457  -9.4404  -9.4398  -9.4307
    -9.4303  -9.4160  -9.4130  -9.3975  -9.3964  -9.3840  -9.3778  -9.3733
    -9.3620  -9.3583  -9.3579  -9.3304  -9.3237  -9.3182  -9.3132  -9.2679
    -9.2440  -9.1900  -9.1879  -9.1607  -9.1465  -9.1456  -9.1141  -9.1081
    -9.0967  -9.0869  -9.0733  -9.0727  -9.0590  -9.0431  -9.0421  -9.0297
    -9.0146  -9.0024  -8.9877  -8.9661  -8.9450  -8.9438  -8.9330  -8.9270
    -8.9206  -8.9187  -8.9115  -8.8886  -8.8806  -8.8712  -8.8584  -8.8536
    -8.8419  -8.8408  -8.8260  -8.8233  -8.8139  -8.7969  -8.7949  -8.7888
    -8.7881  -8.7866  -8.7790  -8.7730  -8.7714  -8.7686  -8.7657  -8.7641
    -8.7503  -8.7489  -8.7432  -8.7384  -8.7251  -8.7250  -8.7138  -8.7136
    -8.7002  -8.6894  -8.6893  -8.6886  -8.6830  -8.6807  -8.6798  -8.6718
    -8.6553  -8.6448  -8.6421  -8.6278  -8.6257  -8.6190  -8.5965  -8.5887
    -8.5478  -8.5428  -8.5031  -8.4631  -8.4313  -8.4249  -8.4157  -8.4114
    -8.3535  -8.3413  -8.2724  -8.2598  -8.2363  -8.1685  -8.1582  -8.1138
    -8.0501  -8.0500  -8.0352  -8.0351  -8.0139  -8.0120  -7.9991  -7.9807
    -7.9636  -7.9275  -7.9059  -7.8856  -7.8832  -7.8808  -7.8081  -7.7772
    -7.7516  -7.7507  -7.7492  -7.7488  -7.7215  -7.7205  -7.7189  -7.7173
    -7.7027  -7.7026  -7.7022  -7.6965  -7.6961  -7.6872  -7.6871  -7.6849
    -7.6835  -7.6821  -7.6820  -7.6818  -7.6799  -7.6761  -7.6735  -7.6676
    -7.6657  -7.6580  -7.6498  -7.6486  -7.6476  -7.6428  -7.6290  -7.6260
    -7.6226  -7.6196  -7.6116  -7.6061  -7.6016  -7.5983  -7.5917  -7.5905
    -7.5902  -7.5888  -7.5826  -7.5741  -7.5676  -7.5575  -7.5408  -7.5284
    -7.5283  -7.5164  -7.5091  -7.5026  -7.5023  -7.5017  -7.4983  -7.4983
    -7.4885  -7.4812  -7.4686  -7.4663  -7.4592  -7.4451  -7.4395  -7.4392
    -7.4294  -7.4266  -7.3661  -7.3571  -7.3559  -7.3491  -7.3304  -7.3125
    -7.1938  -7.1279  -7.1153  -7.0876  -7.0851  -7.0830  -7.0808  -7.0554
    -7.0477  -7.0333  -7.0197  -7.0172  -7.0080  -6.9931  -6.9920  -6.9745
    -6.9433  -6.9422  -6.9236  -6.9212  -6.9165  -6.8972  -6.8941  -6.8751
    -6.8544  -6.8297  -6.8281  -6.8130  -6.8021  -6.7825  -6.7788  -6.7755
    -6.7692  -6.7647  -6.7460  -6.7338  -6.7133  -6.6639  -6.6609  -6.6496
    -6.6194  -6.6038  -6.5835  -6.5677  -6.5386  -6.5283  -6.5250  -6.5250
    -6.5244  -6.5192  -6.5122  -6.5056  -6.5055  -6.5054  -6.5044  -6.4975
    -6.4869  -6.4865  -6.4830  -6.4820  -6.4688  -6.4330  -6.4059  -6.4037
    -6.3814  -6.3645  -6.3128  -6.3064  -6.2527  -6.2378  -6.2371  -6.2366
    -6.2313  -6.2010  -6.1984  -6.1919  -6.1895  -6.1829  -6.1773  -6.1760
    -6.1755  -6.1697  -6.1541  -6.1363  -6.1321  -6.1293  -6.1292  -6.1209
    -6.1032  -6.0957  -6.0772  -6.0734  -6.0695  -6.0360  -5.9073  -5.9070
    -5.8476  -5.8450  -5.7930  -5.7875  -5.7834  -5.7457  -5.7441  -5.7307
    -5.6024  -5.5725  -5.5539  -5.5536  -5.5074  -5.4924  -5.1900  -5.0931
    -5.0892  -4.8330  -3.9938  -3.9921  -3.9868  -3.9808  -3.8397  -3.8322
    -3.8102  -3.8065  -3.7925  -3.7712  -3.7575  -3.7575  -3.7328  -3.7328
    -3.7113  -3.7112  -3.6847  -3.6672  -3.6539  -3.6495  -3.5756  -3.5755
    -3.5702  -3.5379  -3.5078  -3.5077  -3.5068  -3.5066  -3.4946  -3.4724
    -3.4644  -3.4642  -3.4197  -3.4176  -3.4143  -3.4139  -3.4105  -3.4047
    -3.3838  -3.3817  -3.3781  -3.3766  -3.3758  -3.3715  -3.3714  -3.3560
    -3.3311  -3.3257  -3.3190  -3.3184  -3.3124  -3.3087  -3.3021  -3.2929
    -3.2504  -3.2476  -3.2471  -3.2456  -3.2435  -3.2381  -3.2328  -3.2250
    -3.2021  -3.2004  -3.1967  -3.1941  -3.1907  -3.1902  -3.1897  -3.1876
    -3.1776  -3.1664  -3.1416  -3.1389  -3.1360  -3.1300  -3.1282  -3.1274
    -3.1208  -3.1165  -3.1020  -3.0987  -3.0951  -3.0841  -3.0836  -3.0760
    -3.0727  -3.0601  -3.0588  -3.0522  -3.0475  -3.0309  -3.0169  -3.0111
    -3.0019  -2.9835  -2.9742  -2.9725  -2.9660  -2.9542  -2.9513  -2.9355
    -2.9354  -2.9332  -2.9310  -2.9299  -2.9294  -2.9286  -2.9122  -2.9109
    -2.9071  -2.9054  -2.8998  -2.8819  -2.8776  -2.8733  -2.8676  -2.8672
    -2.8646  -2.8625  -2.8618  -2.8614  -2.8551  -2.8537  -2.8528  -2.8482
    -2.8463  -2.8333  -2.8173  -2.8167  -2.8076  -2.7965  -2.7906  -2.7785
    -2.7718  -2.7697  -2.7666  -2.7623  -2.7521  -2.7244  -2.6939  -2.6803
    -2.6774  -2.6723  -2.6229  -2.6131  -2.6002  -2.5953  -2.5193  -2.5182
    -2.4839  -2.4715  -2.4676  -2.4620  -2.4467  -2.4405  -2.4323  -2.4200
    -2.4176  -2.4149  -2.3997  -2.3655  -2.3060  -2.3028  -2.2977  -2.2909
    -2.2906  -2.2882  -2.2438  -2.2102

          k =-0.5000-0.8660 0.0000 (386352 PWs)   bands (ev):

  -103.0933 -87.3605 -71.4296 -71.4116 -71.4116 -71.3839 -71.3838 -71.3710
   -71.3605 -66.5431 -66.5431 -66.5405 -66.5404 -66.5325 -66.5325 -66.5298
   -66.5298 -66.5174 -66.5174 -66.5174 -66.5174 -66.5170 -66.5168 -66.5147
   -66.5147 -66.5147 -66.5147 -66.5129 -66.5129 -66.5103 -66.5102 -66.5066
   -66.5066 -66.5066 -66.5066 -66.5063 -66.5062 -66.5040 -66.5040 -66.5040
   -66.5040 -66.5022 -66.5022 -66.4995 -66.4995 -66.4913 -66.4913 -66.4910
   -66.4910 -66.4869 -66.4865 -66.4806 -66.4806 -66.4805 -66.4800 -66.4760
   -66.4759 -66.4754 -66.4720 -66.4601 -66.4560 -66.4518 -66.4506 -66.4434
   -66.4432 -66.4419 -66.4139 -66.4070 -66.4069 -66.3987 -66.3981 -66.3935
   -66.3633 -57.3804 -57.2503 -57.2502 -53.4299 -53.0470 -53.0469 -40.8458
   -40.8458 -40.8458 -40.8458 -40.8423 -40.8423 -40.8423 -40.8423 -40.8190
   -40.8190 -40.8189 -40.8188 -40.8187 -40.8183 -40.8155 -40.8155 -40.8069
   -40.8069 -40.8035 -40.8035 -40.7920 -40.7918 -40.7798 -40.7798 -40.7796
   -40.7663 -40.7608 -40.7561 -40.7561 -40.7561 -40.7561 -40.7528 -40.7528
   -40.7528 -40.7528 -40.7450 -40.7435 -40.7376 -40.7292 -40.7291 -40.7291
   -40.7291 -40.7204 -40.6994 -40.6976 -40.6975 -40.6943 -40.6943 -40.6878
   -40.6878 -40.6845 -40.6845 -40.6767 -40.6767 -40.6735 -40.6735 -40.6711
   -40.6709 -40.6707 -40.6649 -40.6611 -40.6609 -40.6608 -40.6502 -40.6501
   -40.6470 -40.6470 -40.6470 -40.6470 -40.6439 -40.6439 -40.6439 -40.6439
   -40.6383 -40.6383 -40.6355 -40.6352 -40.6351 -40.6317 -40.6263 -40.6263
   -40.6259 -40.6259 -40.6259 -40.6259 -40.6253 -40.6230 -40.6230 -40.6228
   -40.6228 -40.6228 -40.6228 -40.6207 -40.6206 -40.6204 -40.6204 -40.6173
   -40.6173 -40.6142 -40.6142 -40.6119 -40.6117 -40.6055 -40.6018 -40.5996
   -40.5996 -40.5996 -40.5994 -40.5994 -40.5991 -40.5953 -40.5953 -40.5953
   -40.5953 -40.5921 -40.5921 -40.5921 -40.5921 -40.5911 -40.5908 -40.5908
   -40.5906 -40.5815 -40.5811 -40.5795 -40.5717 -40.5686 -40.5686 -40.5683
   -40.5681 -40.5680 -40.5648 -40.5605 -40.5605 -40.5605 -40.5605 -40.5573
   -40.5573 -40.5573 -40.5573 -40.5539 -40.5499 -40.5483 -40.5483 -40.5452
   -40.5452 -40.5422 -40.5400 -40.5377 -40.5375 -40.5370 -40.5337 -40.5337
   -40.5336 -40.5336 -40.5294 -40.5290 -40.5290 -40.5259 -40.5258 -40.5217
   -40.5213 -40.5145 -40.5138 -40.5120 -40.5120 -40.5101 -40.5089 -40.5089
   -40.5026 -40.5024 -40.5020 -40.4852 -40.4852 -40.4813 -40.4813 -40.4810
   -40.4782 -40.4782 -40.4682 -40.4674 -40.4613 -40.4547 -40.4543 -40.4484
   -40.4476 -40.4371 -40.4316 -40.4174 -40.3963 -40.3748 -40.3557 -19.7973
   -19.7929 -19.7449 -19.7163 -19.6574 -19.6275 -19.5645 -19.5478 -19.3570
   -19.3568 -19.2950 -19.2941 -19.2173 -19.2161 -19.1343 -19.1335 -18.7551
   -18.7210 -18.6877 -18.6640 -18.6428 -18.6402 -18.6372 -18.6357 -18.6285
   -18.5736 -18.5723 -18.5627 -18.5570 -18.5282 -18.5132 -18.4990 -18.4814
   -18.4787 -18.4748 -18.4605 -18.4544 -18.4300 -18.4238 -18.4021 -18.3893
   -18.3891 -18.3639 -18.3608 -18.3523 -18.3321 -18.3185 -18.3108 -18.2936
   -18.2679 -18.2617 -18.2449 -18.2395 -18.2046 -18.1843 -18.1588 -18.1395
   -18.1342 -18.1284 -18.1258 -18.0896 -18.0846 -18.0466 -18.0323 -18.0222
   -18.0157 -18.0157 -18.0156 -18.0154 -18.0137 -18.0035 -17.9916 -17.9743
   -17.9739 -17.9710 -17.9706 -17.9668 -17.9519 -17.9470 -17.9402 -17.9372
   -17.9313 -17.9295 -17.9288 -17.9189 -17.9145 -17.9059 -17.8926 -17.8864
   -17.8839 -17.8827 -17.8780 -17.8779 -17.8759 -17.8409 -17.8370 -17.8301
   -17.8249 -17.8236 -17.8227 -17.7903 -17.7817 -17.7766 -17.7759 -17.7540
   -17.7490 -17.7454 -17.7451 -17.7375 -17.7375 -17.7225 -17.7159 -17.7145
[...]
     atom  170 type  1   force =    -0.00001270   -0.00001398   -0.00001576
     atom  171 type  2   force =    -0.00000386    0.00000011    0.00004705
     atom  172 type  2   force =    -0.00000043    0.00000049    0.00160245
     atom  173 type  2   force =    -0.00000056   -0.00000006   -0.00236474
     atom  174 type  2   force =    -0.00000376   -0.00000155   -0.00003050
     atom  175 type  1   force =     0.00000463    0.00000186   -0.00002318
     atom  176 type  1   force =     0.00000008    0.00003253   -0.00006023
     atom  177 type  2   force =    -0.00011900   -0.00003865    0.00002752
     atom  178 type  2   force =    -0.00000014    0.00000443    0.00000764
     atom  179 type  2   force =     0.00000016    0.00000163   -0.00001577
     atom  180 type  2   force =     0.00012336    0.00000220    0.00003970
     atom  181 type  1   force =     0.00000107   -0.00000010    0.00069854
     atom  182 type  1   force =    -0.00001008   -0.00000972   -0.00002402
     atom  183 type  2   force =    -0.00000222   -0.00000109    0.00004744
     atom  184 type  2   force =    -0.00000047    0.00000047    0.00160257
     atom  185 type  2   force =    -0.00000073   -0.00000009   -0.00236474
     atom  186 type  2   force =    -0.00000265   -0.00000204   -0.00002780
     atom  187 type  1   force =     0.00000457    0.00000272   -0.00002358
     atom  188 type  1   force =    -0.00004305   -0.00002420    0.00002172
     atom  189 type  2   force =    -0.00009306   -0.00008315    0.00002742
     atom  190 type  2   force =     0.00000155    0.00000112    0.00001032
     atom  191 type  2   force =    -0.00000342   -0.00000148   -0.00001528
     atom  192 type  2   force =     0.00006338    0.00010606    0.00003990
     atom  193 type  3   force =    -0.00000164   -0.00000061    0.00065355
     atom  194 type  4   force =     0.00000266   -0.00001454    0.00007887

     Total force =     0.001949     Total SCF correction =     0.000461
     SCF correction compared to forces is large: reduce conv_thr to get better values
     Energy error            =      3.1E-06 Ry
     Gradient error          =      7.2E-04 Ry/Bohr

     bfgs converged in  13 scf cycles and  12 bfgs steps
     (criteria: energy <  1.0E-04 Ry, force <  1.0E-03 Ry/Bohr)

     End of BFGS Geometry Optimization

     Final energy             =  -33980.2048881589 Ry

     File ./outdir/pwscf.bfgs deleted, as requested
Begin final coordinates

ATOMIC_POSITIONS (angstrom)
Mo               0.0000119917        1.8193638619       -9.1672481230    0   0   0
Mo               1.5756136568        0.9097075315       -3.0554901653    0   0   0
S                0.0000188998        1.8193822938       -4.6232556019    0   0   0
S                1.5756321638        0.9096773839       -7.6014065489    0   0   0
S                1.5756326175        0.9096785128      -10.7330757790    0   0   0
S                0.0000189190        1.8193860094       -1.4877129945    0   0   0
Mo               0.0000338460        1.8195592568        3.0558029833
Mo               1.5756717446        0.9074541873        9.1559002673
S                0.0003709692        1.8213289448        7.5874065145
S                1.5756597191        0.9097752331        4.6230812423
S                1.5756590235        0.9098465912        1.4881602937
S               -0.0038139266        1.8003471559       10.7311694973
Mo              -1.5756053507        4.5484193819       -9.1672481230    0   0   0
Mo               0.0000378379        3.6387394919       -3.0554952701    0   0   0
S               -1.5755913433        4.5484363582       -4.6232494962    0   0   0
S                0.0000148214        3.6387329039       -7.6014065489    0   0   0
S                0.0000152751        3.6387340328      -10.7330757790    0   0   0
S               -1.5755906502        4.5484413613       -1.4877305502    0   0   0
Mo              -1.5753939946        4.5485345396        3.0560342271
Mo              -0.0088484968        3.6244297455        9.1707376257
S               -1.5748889983        4.5488382901        7.5977450434
S                0.0005047030        3.6391599575        4.6238374988
S               -0.0000274813        3.6388171266        1.4882161421
S               -1.5808336980        4.5454221208       10.7328008493
Mo              -3.1512226931        7.2774749019       -9.1672481230    0   0   0
Mo              -1.5755910988        6.3678216792       -3.0555115988    0   0   0
S               -3.1512162438        7.2774954350       -4.6232578178    0   0   0
S               -1.5756025210        6.3677884239       -7.6014065489    0   0   0
S               -1.5756020673        6.3677895528      -10.7330757790    0   0   0
S               -3.1512127704        7.2774877076       -1.4877200710    0   0   0
Mo              -3.1510355190        7.2773861979        3.0558015919
Mo              -1.5924247241        6.3672970842        9.1707221161
S               -3.1493543951        7.2768132242        7.5873959076
S               -1.5749833689        6.3679917720        4.6238363969
S               -1.5755450266        6.3677019283        1.4882156525
S               -3.1696048439        7.2836837116       10.7311632260
Mo              -4.7268400355       10.0065304219       -9.1672481230    0   0   0
Mo              -3.1512405618        9.0968403586       -3.0554816746    0   0   0
S               -4.7268341792       10.0065523623       -4.6232463762    0   0   0
S               -3.1512198634        9.0968439439       -7.6014065489    0   0   0
S               -3.1512194097        9.0968450728      -10.7330757790    0   0   0
S               -4.7268370797       10.0065537885       -1.4877176751    0   0   0
Mo              -4.7268102510       10.0065390375        3.0554858171
Mo              -3.1531331630        9.0980046379        9.1558895519
S               -4.7267976468       10.0065659446        7.5864435796
S               -3.1511148352        9.0968103921        4.6230804289
S               -3.1510538526        9.0967748856        1.4881592662
S               -4.7267973816       10.0065564656       10.7250662184
Mo               3.1512517547        1.8193638619       -9.1672481230    0   0   0
Mo               4.7269020221        0.9097289540       -3.0554823951    0   0   0
S                3.1512612351        1.8193882564       -4.6232320683    0   0   0
S                4.7268719268        0.9096773839       -7.6014065489    0   0   0
S                4.7268723805        0.9096785128      -10.7330757790    0   0   0
S                3.1512592485        1.8193890201       -1.4877261251    0   0   0
Mo               3.1512854273        1.8195579909        3.0558017670
Mo               4.7249834773        0.9085994898        9.1546858833
S                3.1509746267        1.8213296591        7.5874095802
S                4.7270645612        0.9097836023        4.6233821907
S                4.7268961908        0.9096869040        1.4882484413
S                3.1551573014        1.8003444199       10.7311735836
Mo               1.5756344123        4.5484193819       -9.1672481230    0   0   0
Mo               3.1512756394        3.6387769522       -3.0554814834    0   0   0
S                1.5756504879        4.5484423799       -4.6232390542    0   0   0
S                3.1512545844        3.6387329039       -7.6014065489    0   0   0
S                3.1512550381        3.6387340328      -10.7330757790    0   0   0
S                1.5756466253        4.5484431864       -1.4877251801    0   0   0
Mo               1.5756622057        4.5487610328        3.0554439394
Mo               3.1601934726        3.6244283436        9.1707440995
S                1.5756755301        4.5721194604        7.6402007582
S                3.1508176662        3.6391584095        4.6238383155
S                3.1513508049        3.6388170598        1.4882167951
S                1.5756703092        4.4208140174       10.7994352398
Mo               0.0000170699        7.2774749019       -9.1672481230    0   0   0
Mo               1.5756764447        6.3678236689       -3.0554877708    0   0   0
S                0.0000381981        7.2774979204       -4.6232454413    0   0   0
S                1.5756372420        6.3677884239       -7.6014065489    0   0   0
S                1.5756376957        6.3677895528      -10.7330757790    0   0   0
S                0.0000328088        7.2774946042       -1.4877307940    0   0   0
Mo               0.0003342487        7.2773184000        3.0554431223
Mo               1.5756790945        6.3678339943        9.2176749096
S                0.0205600841        7.2656731728        7.6401786324
S                1.5756646348        6.3677987082        4.6232896213
S                1.5756658079        6.3677997646        1.4875960628
S               -0.1105082318        7.3413698336       10.7994339823
Mo              -1.5756002725       10.0065304219       -9.1672481230    0   0   0
Mo               0.0000873425        9.0968676911       -3.0554912329    0   0   0
S               -1.5755883952       10.0065504530       -4.6232240150    0   0   0
S                0.0000198996        9.0968439439       -7.6014065489    0   0   0
S                0.0000203533        9.0968450728      -10.7330757790    0   0   0
S               -1.5755859047       10.0065492576       -1.4877362381    0   0   0
Mo              -1.5754077885       10.0064528847        3.0558011693
Mo              -0.0079120963        9.1117595461        9.1707030168
S               -1.5740547129       10.0053332965        7.5873907728
S                0.0001757781        9.0962460897        4.6238377299
S                0.0001469902        9.0968777905        1.4882167004
S               -1.5901153873       10.0194266611       10.7311585249
Mo               6.3024915177        1.8193638619       -9.1672481230    0   0   0
Mo               7.8781001445        0.9096521684       -3.0554919963    0   0   0
S                6.3025008696        1.8193826232       -4.6232480596    0   0   0
S                7.8781116898        0.9096773839       -7.6014065489    0   0   0
S                7.8781121435        0.9096785128      -10.7330757790    0   0   0
S                6.3025042007        1.8193849068       -1.4877147524    0   0   0
Mo               6.3025593855        1.8193967038        3.0556689515
Mo               7.8781503541        0.9115149053        9.1622481524
S                6.3045928920        1.8205928593        7.5914474358
S                7.8781383951        0.9096130063        4.6233491406
S                7.8781389764        0.9095297107        1.4882367939
S                6.3007240512        1.8183491970       10.7280748279
Mo               4.7268741753        4.5484193819       -9.1672481230    0   0   0
Mo               6.3024679138        3.6387501714       -3.0554895197    0   0   0
S                4.7268748770        4.5484386753       -4.6232519432    0   0   0
S                6.3024943474        3.6387329039       -7.6014065489    0   0   0
S                6.3024948011        3.6387340328      -10.7330757790    0   0   0
S                4.7268770533        4.5484432419       -1.4877137856    0   0   0
Mo               4.7267184501        4.5485344202        3.0560367338
Mo               6.3040897567        3.6378669147        9.1622589934
S                4.7262363354        4.5488390057        7.5977506470
S                6.3024565996        3.6387810798        4.6233490489
S                6.3023840305        3.6388228156        1.4882367855
S                4.7321824755        4.5454216807       10.7328044478
Mo               3.1512568329        7.2774749019       -9.1672481230    0   0   0
Mo               4.7268384135        6.3678043337       -3.0554959052    0   0   0
S                3.1512606125        7.2774972547       -4.6232589675    0   0   0
S                4.7268770050        6.3677884239       -7.6014065489    0   0   0
S                4.7268774587        6.3677895528      -10.7330757790    0   0   0
S                3.1512629079        7.2774963749       -1.4877081835    0   0   0
Mo               3.1509979019        7.2773186181        3.0554464612
Mo               4.7437820664        6.3672973644        9.1707287550
S                3.1307995101        7.2656743167        7.6401808278
S                4.7263142265        6.3679919083        4.6238395031
S                4.7268754627        6.3677022088        1.4882181631
S                3.2618670098        7.3413762993       10.7994334567
Mo               1.5756394905       10.0065304219       -9.1672481230    0   0   0
Mo               3.1512330605        9.0968514907       -3.0554878870    0   0   0
S                1.5756499830       10.0065443759       -4.6232632674    0   0   0
S                3.1512596626        9.0968439439       -7.6014065489    0   0   0
S                3.1512601163        9.0968450728      -10.7330757790    0   0   0
S                1.5756503041       10.0065459699       -1.4877044377    0   0   0
Mo               1.5756689191       10.0063284851        3.0560381236
Mo               3.1592722664        9.1117637216        9.1707031321
S                1.5756808698       10.0057959150        7.5977263761
S                3.1511600268        9.0962467442        4.6238395795
S                3.1511903491        9.0968779011        1.4882191179
S                1.5756806643       10.0126406885       10.7327844039
Mo               9.4537312807        1.8193638619       -9.1672481230    0   0   0
Mo              11.0293863460        0.9096952246       -3.0554894007    0   0   0
S                9.4537395970        1.8193770750       -4.6232328036    0   0   0
S               11.0293514528        0.9096773839       -7.6014065489    0   0   0
S               11.0293519066        0.9096785128      -10.7330757790    0   0   0
S                9.4537393632        1.8193794783       -1.4877366147    0   0   0
Mo               9.4537182107        1.8193970885        3.0556685004
Mo              11.0313186426        0.9086004372        9.1546832180
S                9.4517076913        1.8205919268        7.5914439496
S               11.0292131992        0.9097848194        4.6233833019
S               11.0293796804        0.9096862790        1.4882503167
S                9.4555795176        1.8183501046       10.7280723924
Mo               7.8781139383        4.5484193819       -9.1672481230    0   0   0
Mo               9.4537539161        3.6387607911       -3.0554933032    0   0   0
S                7.8781175448        4.5484378232       -4.6232366318    0   0   0
S                9.4537341104        3.6387329039       -7.6014065489    0   0   0
S                9.4537345641        3.6387340328      -10.7330757790    0   0   0
S                7.8781194018        4.5484411585       -1.4877377057    0   0   0
Mo               7.8781420124        4.5483814780        3.0556683814
Mo               9.4522160600        3.6378663697        9.1622557583
S                7.8781525287        4.5460608667        7.5914489624
S                9.4538267176        3.6387812020        4.6233497642
S                9.4538967208        3.6388208809        1.4882342068
S                7.8781557132        4.5505399317       10.7280747841
Mo               6.3024965959        7.2774749019       -9.1672481230    0   0   0
Mo               7.8781361655        6.3678242352       -3.0555014130    0   0   0
S                6.3024973331        7.2774953556       -4.6232392528    0   0   0
S                7.8781167680        6.3677884239       -7.6014065489    0   0   0
S                7.8781172217        6.3677895528      -10.7330757790    0   0   0
S                6.3024989866        7.2774929744       -1.4877349119    0   0   0
Mo               6.3023680030        7.2773855302        3.0558031047
Mo               7.8781581055        6.3700442606        9.1546835182
S                6.3007109054        7.2768122071        7.5873985769
S                7.8781462390        6.3676064638        4.6233832481
S                7.8781434741        6.3677999994        1.4882487015
S                6.3209667982        7.2836846678       10.7311645280
Mo               4.7268792535       10.0065304219       -9.1672481230    0   0   0
Mo               6.3025111524        9.0968738021       -3.0554915260    0   0   0
S                4.7268840634       10.0065452125       -4.6232380477    0   0   0
S                6.3024994256        9.0968439439       -7.6014065489    0   0   0
S                6.3024998793        9.0968450728      -10.7330757790    0   0   0
S                4.7268847312       10.0065459141       -1.4877283294    0   0   0
Mo               4.7267450730       10.0064529193        3.0558040465
Mo               6.3044960096        9.0980047435        9.1558907794
S                4.7254184123       10.0053327664        7.5873901630
S                6.3024536021        9.0968102425        4.6230825692
S                6.3023893933        9.0967734344        1.4881613281
S                4.7414795799       10.0194298959       10.7311559433
Pt               1.5756971564        6.3677850998       12.0036345467
Pd               1.5760708366        6.3656430933       14.5995812898
End final coordinates



     Writing all to output data dir ./outdir/pwscf.save/ :
     XML data file, charge density, pseudopotentials, collected wavefunctions
 
     init_run     :    176.77s CPU    179.86s WALL (       1 calls)
     electrons    : 110716.34s CPU 112128.32s WALL (      13 calls)
     update_pot   :     20.31s CPU     20.93s WALL (      12 calls)
     forces       :   1695.89s CPU   1725.14s WALL (      13 calls)
     force_dftd3  :      8.68s CPU      9.05s WALL (      13 calls)

     Called by init_run:
     wfcinit      :    153.01s CPU    154.65s WALL (       1 calls)
     potinit      :      1.29s CPU      1.41s WALL (       1 calls)
     hinit0       :     12.69s CPU     12.77s WALL (       1 calls)

     Called by electrons:
     c_bands      :  97124.46s CPU  98052.83s WALL (     190 calls)
     sum_band     :  12146.82s CPU  12397.45s WALL (     190 calls)
     v_of_rho     :     69.17s CPU     77.56s WALL (     192 calls)
     newd         :   1219.47s CPU   1447.38s WALL (     192 calls)
     PAW_pot      :    174.70s CPU    176.40s WALL (     204 calls)
     mix_rho      :     19.66s CPU     22.36s WALL (     190 calls)
     energy_dftd3 :      4.98s CPU      5.01s WALL (      13 calls)

     Called by c_bands:
     init_us_2    :    409.75s CPU    411.84s WALL (    1624 calls)
     init_us_2:cp :    409.73s CPU    411.82s WALL (    1624 calls)
     cegterg      :  95320.77s CPU  96237.96s WALL (     784 calls)

     Called by *egterg:
     cdiaghg      :   5804.07s CPU   6006.88s WALL (    9481 calls)
     h_psi        :  48892.20s CPU  49199.41s WALL (    9577 calls)
     s_psi        :  11578.78s CPU  11647.53s WALL (    9577 calls)
     g_psi        :     82.97s CPU     83.31s WALL (    8789 calls)

     Called by h_psi:
     h_psi:calbec :  11088.56s CPU  11125.11s WALL (    9577 calls)
     vloc_psi     :  25968.98s CPU  26097.92s WALL (    9577 calls)
     add_vuspsi   :  11637.36s CPU  11707.66s WALL (    9577 calls)

     General routines
     calbec       :  16031.02s CPU  16083.37s WALL (   10593 calls)
     fft          :     50.60s CPU     57.87s WALL (    2636 calls)
     ffts         :      3.43s CPU      3.65s WALL (     382 calls)
     fftw         :  19720.15s CPU  19819.69s WALL ( 5160668 calls)
     interpolate  :      5.98s CPU      6.54s WALL (     192 calls)
 
     Parallel routines
 
     PWSCF        :   1d 7h25m CPU   1d 7h50m WALL

 
   This run was terminated on:  13: 9:37  13Mar2024            

=------------------------------------------------------------------------------=
   JOB DONE.
=------------------------------------------------------------------------------=
