
     Program PWSCF v.7.3 starts on 24Apr2024 at 10:30:11 

     This program is part of the open-source Quantum ESPRESSO suite
     for quantum simulation of materials; please cite
         "P. Giannozzi et al., J. Phys.:Condens. Matter 21 395502 (2009);
         "P. Giannozzi et al., J. Phys.:Condens. Matter 29 465901 (2017);
         "P. Giannozzi et al., J. Chem. Phys. 152 154105 (2020);
          URL http://www.quantum-espresso.org", 
     in publications or presentations arising from this work. More details at
     http://www.quantum-espresso.org/quote

     Parallel version (MPI & OpenMP), running on      36 processor cores
     Number of MPI processes:                36
     Threads/MPI process:                     1

     MPI processes distributed on     1 nodes
     553842 MiB available memory on the printing compute node when the environment starts
 
     Waiting for input...
     Reading input from standard input
Warning: card &CELL ignored
Warning: card / ignored

     Current dimensions of program PWSCF are:
     Max number of different atomic species (ntypx) = 10
     Max number of k-points (npk) =  40000
     Max angular momentum in pseudopotentials (lmaxx) =  4
     file Mo.pbe-spn-kjpaw_psl.1.0.0.UPF: wavefunction(s)  4S 4D renormalized
     file S.pbe-n-kjpaw_psl.1.0.0.UPF: wavefunction(s)  3S 3P renormalized
     file Pt.pbe-spfn-kjpaw_psl.1.0.0.UPF: wavefunction(s)  5P 4F renormalized
     file Pd.pbe-spn-kjpaw_psl.1.0.0.UPF: wavefunction(s)  4S 5S 4D renormalized
 
     R & G space division:  proc/nbgrp/npool/nimage =      36
     Subspace diagonalization in iterative solution of the eigenvalue problem:
     one sub-group per band group will be used
     scalapack distributed-memory algorithm (size of sub-group:  6*  6 procs)

 
     Parallelization info
     --------------------
     sticks:   dense  smooth     PW     G-vecs:    dense   smooth      PW
     Min         585     334     89               198743    85850   11735
     Max         586     335     90               198750    85861   11748
     Sum       21073   12049   3205              7154885  3090769  422587
 
     Using Slab Decomposition
 


     bravais-lattice index     =            0
     lattice parameter (alat)  =      23.8199  a.u.
     unit-cell volume          =   33861.0370 (a.u.)^3
     number of atoms/cell      =          195
     number of atomic types    =            4
     number of electrons       =      1746.00
     number of Kohn-Sham states=         1048
     kinetic-energy cutoff     =      77.0000  Ry
     charge density cutoff     =     539.0000  Ry
     scf convergence threshold =      1.0E-06
     mixing beta               =       0.2000
     number of iterations used =            8  plain     mixing
     energy convergence thresh.=      1.0E-04
     force convergence thresh. =      1.0E-03
     Exchange-correlation= SLA  PW   PBX  PBC
                           (   1   4   3   4   0   0   0)
     nstep                     =         1000


     Effective Screening Medium Method
     =================================
     Boundary Conditions: Vacuum-Slab-Vacuum
     total charge in unit cell        =   0.0000
     grid points for fit at edges     =        4 
 

     celldm(1)=  23.819920  celldm(2)=   0.000000  celldm(3)=   0.000000
     celldm(4)=   0.000000  celldm(5)=   0.000000  celldm(6)=   0.000000

     crystal axes: (cart. coord. in units of alat)
               a(1) = (   1.000000   0.000000   0.000000 )  
               a(2) = (  -0.499999   0.866026   0.000000 )  
               a(3) = (   0.000000   0.000000   2.893000 )  

     reciprocal axes: (cart. coord. in units 2 pi/alat)
               b(1) = (  1.000000  0.577349  0.000000 )  
               b(2) = (  0.000000  1.154700  0.000000 )  
               b(3) = (  0.000000  0.000000  0.345662 )  


     PseudoPot. # 1 for Mo read from file:
     ./pseudo/Mo.pbe-spn-kjpaw_psl.1.0.0.UPF
     MD5 check sum: 317bf72632116215fd98f72de1686f13
     Pseudo is Projector augmented-wave + core cor, Zval = 14.0
     Generated using 'atomic' code by A. Dal Corso  v.7.2
     Shape of augmentation charge: PSQ
     Using radial grid of 1229 points,  6 beta functions with: 
                l(1) =   0
                l(2) =   0
                l(3) =   1
                l(4) =   1
                l(5) =   2
                l(6) =   2
     Q(r) pseudized with 0 coefficients 


     PseudoPot. # 2 for S  read from file:
     ./pseudo/S.pbe-n-kjpaw_psl.1.0.0.UPF
     MD5 check sum: 8b7b5302570d38d5e87fed6a1065abda
     Pseudo is Projector augmented-wave + core cor, Zval =  6.0
     Generated using 'atomic' code by A. Dal Corso  v.7.2
     Shape of augmentation charge: PSQ
     Using radial grid of 1151 points,  6 beta functions with: 
                l(1) =   0
                l(2) =   0
                l(3) =   1
                l(4) =   1
                l(5) =   2
                l(6) =   2
     Q(r) pseudized with 0 coefficients 


     PseudoPot. # 3 for Pt read from file:
     ./pseudo/Pt.pbe-spfn-kjpaw_psl.1.0.0.UPF
     MD5 check sum: 620096ebf4e6ebacc94de60fd67efcb5
     Pseudo is Projector augmented-wave + core cor, Zval = 32.0
     Generated using 'atomic' code by A. Dal Corso  v.7.2
     Shape of augmentation charge: PSQ
     Using radial grid of 1277 points,  8 beta functions with: 
                l(1) =   0
                l(2) =   0
                l(3) =   1
                l(4) =   1
                l(5) =   2
                l(6) =   2
                l(7) =   3
                l(8) =   3
     Q(r) pseudized with 0 coefficients 


     PseudoPot. # 4 for Pd read from file:
     ./pseudo/Pd.pbe-spn-kjpaw_psl.1.0.0.UPF
     MD5 check sum: a60571a671f2502b8a6a4569d20a6edb
     Pseudo is Projector augmented-wave + core cor, Zval = 18.0
     Generated using 'atomic' code by A. Dal Corso  v.7.2
     Shape of augmentation charge: PSQ
     Using radial grid of 1235 points,  6 beta functions with: 
                l(1) =   0
                l(2) =   0
                l(3) =   1
                l(4) =   1
                l(5) =   2
                l(6) =   2
     Q(r) pseudized with 0 coefficients 


     atomic species   valence    mass     pseudopotential
     Mo               14.00    95.95000     Mo( 1.00)
     S                 6.00    32.06000     S ( 1.00)
     Pt               32.00   195.08400     Pt( 1.00)
     Pd               18.00   106.42000     Pd( 1.00)

     No symmetry found



   Cartesian axes

     site n.     atom                  positions (alat units)
         1        Mo     tau(   1) = (   0.0000010   0.1443372  -0.7272732  )
         2        Mo     tau(   2) = (   0.1249995   0.0721706  -0.2424038  )
         3        S      tau(   3) = (   0.0000015   0.1443386  -0.3667807  )
         4        S      tau(   4) = (   0.1250010   0.0721682  -0.6030489  )
         5        S      tau(   5) = (   0.1250010   0.0721683  -0.8514963  )
         6        S      tau(   6) = (   0.0000015   0.1443389  -0.1180260  )
         7        Mo     tau(   7) = (   0.0000165   0.1443639   0.2424458  )
         8        Mo     tau(   8) = (   0.1250235   0.0717246   0.7263406  )
         9        S      tau(   9) = (   0.0005369   0.1448386   0.6015218  )
        10        S      tau(  10) = (   0.1249954   0.0721618   0.3668135  )
        11        S      tau(  11) = (   0.1250195   0.0721779   0.1180823  )
        12        S      tau(  12) = (  -0.0003270   0.1431025   0.8512079  )
        13        Mo     tau(  13) = (  -0.1249989   0.3608437  -0.7272732  )
        14        Mo     tau(  14) = (   0.0000030   0.2886752  -0.2424042  )
        15        S      tau(  15) = (  -0.1249977   0.3608450  -0.3667802  )
        16        S      tau(  16) = (   0.0000012   0.2886747  -0.6030489  )
        17        S      tau(  17) = (   0.0000012   0.2886748  -0.8514963  )
        18        S      tau(  18) = (  -0.1249977   0.3608454  -0.1180274  )
        19        Mo     tau(  19) = (  -0.1249838   0.3608611   0.2424564  )
        20        Mo     tau(  20) = (  -0.0010112   0.2875499   0.7275042  )
        21        S      tau(  21) = (  -0.1249589   0.3614723   0.6028911  )
        22        S      tau(  22) = (   0.0000229   0.2887164   0.3668462  )
        23        S      tau(  23) = (   0.0000319   0.2887039   0.1180849  )
        24        S      tau(  24) = (  -0.1254179   0.3601432   0.8519775  )
        25        Mo     tau(  25) = (  -0.2499987   0.5773502  -0.7272732  )
        26        Mo     tau(  26) = (  -0.1249977   0.5051839  -0.2424055  )
        27        S      tau(  27) = (  -0.2499981   0.5773518  -0.3667809  )
        28        S      tau(  28) = (  -0.1249986   0.5051812  -0.6030489  )
        29        S      tau(  29) = (  -0.1249986   0.5051813  -0.8514963  )
        30        S      tau(  30) = (  -0.2499979   0.5773512  -0.1180266  )
        31        Mo     tau(  31) = (  -0.2499892   0.5773423   0.2424725  )
        32        Mo     tau(  32) = (  -0.1256606   0.5052028   0.7286154  )
        33        S      tau(  33) = (  -0.2498226   0.5768374   0.6031862  )
        34        S      tau(  34) = (  -0.1249521   0.5051863   0.3668519  )
        35        S      tau(  35) = (  -0.1249975   0.5051799   0.1180722  )
        36        S      tau(  36) = (  -0.2499767   0.5778459   0.8528940  )
        37        Mo     tau(  37) = (  -0.3749985   0.7938567  -0.7272732  )
        38        Mo     tau(  38) = (  -0.2500001   0.7216874  -0.2424031  )
        39        S      tau(  39) = (  -0.3749980   0.7938584  -0.3667800  )
        40        S      tau(  40) = (  -0.2499984   0.7216877  -0.6030489  )
        41        S      tau(  41) = (  -0.2499984   0.7216878  -0.8514963  )
        42        S      tau(  42) = (  -0.3749982   0.7938585  -0.1180264  )
        43        Mo     tau(  43) = (  -0.3749918   0.7938447   0.2424454  )
        44        Mo     tau(  44) = (  -0.2499337   0.7214685   0.7273252  )
        45        S      tau(  45) = (  -0.3749119   0.7930997   0.6024017  )
        46        S      tau(  46) = (  -0.2499835   0.7216794   0.3668152  )
        47        S      tau(  47) = (  -0.2499982   0.7216718   0.1180690  )
        48        S      tau(  48) = (  -0.3745581   0.7945239   0.8516564  )
        49        Mo     tau(  49) = (   0.2500010   0.1443372  -0.7272732  )
        50        Mo     tau(  50) = (   0.3750034   0.0721723  -0.2424032  )
        51        S      tau(  51) = (   0.2500017   0.1443391  -0.3667788  )
        52        S      tau(  52) = (   0.3750010   0.0721682  -0.6030489  )
        53        S      tau(  53) = (   0.3750010   0.0721683  -0.8514963  )
        54        S      tau(  54) = (   0.2500016   0.1443391  -0.1180271  )
        55        Mo     tau(  55) = (   0.2500049   0.1443558   0.2424800  )
        56        Mo     tau(  56) = (   0.3750695   0.0717200   0.7264262  )
        57        S      tau(  57) = (   0.2500704   0.1440362   0.6019475  )
        58        S      tau(  58) = (   0.3750099   0.0721483   0.3668106  )
        59        S      tau(  59) = (   0.3749948   0.0721851   0.1180824  )
        60        S      tau(  60) = (   0.2500131   0.1413211   0.8516135  )
        61        Mo     tau(  61) = (   0.1250012   0.3608437  -0.7272732  )
        62        Mo     tau(  62) = (   0.2500029   0.2886782  -0.2424031  )
        63        S      tau(  63) = (   0.1250024   0.3608455  -0.3667794  )
        64        S      tau(  64) = (   0.2500012   0.2886747  -0.6030489  )
        65        S      tau(  65) = (   0.2500012   0.2886748  -0.8514963  )
        66        S      tau(  66) = (   0.1250021   0.3608455  -0.1180270  )
        67        Mo     tau(  67) = (   0.1250220   0.3608739   0.2424909  )
        68        Mo     tau(  68) = (   0.2500516   0.2862417   0.7284634  )
        69        S      tau(  69) = (   0.1251493   0.3619302   0.6061672  )
        70        S      tau(  70) = (   0.2500021   0.2887137   0.3669053  )
        71        S      tau(  71) = (   0.2500084   0.2886924   0.1181099  )
        72        S      tau(  72) = (   0.1241634   0.3514816   0.8558063  )
        73        Mo     tau(  73) = (   0.0000014   0.5773502  -0.7272732  )
        74        Mo     tau(  74) = (   0.1250045   0.5051840  -0.2424036  )
        75        S      tau(  75) = (   0.0000030   0.5773520  -0.3667799  )
        76        S      tau(  76) = (   0.1250014   0.5051812  -0.6030489  )
        77        S      tau(  77) = (   0.1250014   0.5051813  -0.8514963  )
        78        S      tau(  78) = (   0.0000026   0.5773517  -0.1180274  )
        79        Mo     tau(  79) = (   0.0000298   0.5773239   0.2424318  )
        80        Mo     tau(  80) = (   0.1235562   0.5053489   0.7306566  )
        81        S      tau(  81) = (   0.0009343   0.5763644   0.6059345  )
        82        S      tau(  82) = (   0.1250078   0.5051967   0.3669171  )
        83        S      tau(  83) = (   0.1250403   0.5051743   0.1180834  )
        84        S      tau(  84) = (  -0.0065880   0.5806588   0.8588888  )
        85        Mo     tau(  85) = (  -0.1249984   0.7938567  -0.7272732  )
        86        Mo     tau(  86) = (   0.0000069   0.7216896  -0.2424039  )
        87        S      tau(  87) = (  -0.1249975   0.7938582  -0.3667782  )
        88        S      tau(  88) = (   0.0000016   0.7216877  -0.6030489  )
        89        S      tau(  89) = (   0.0000016   0.7216878  -0.8514963  )
        90        S      tau(  90) = (  -0.1249973   0.7938582  -0.1180279  )
        91        Mo     tau(  91) = (  -0.1249912   0.7938418   0.2424335  )
        92        Mo     tau(  92) = (  -0.0002856   0.7221962   0.7280430  )
        93        S      tau(  93) = (  -0.1248457   0.7930650   0.6025902  )
        94        S      tau(  94) = (  -0.0000060   0.7216208   0.3667980  )
        95        S      tau(  95) = (   0.0000209   0.7216773   0.1180639  )
        96        S      tau(  96) = (  -0.1254320   0.7945446   0.8518225  )
        97        Mo     tau(  97) = (   0.5000010   0.1443372  -0.7272732  )
        98        Mo     tau(  98) = (   0.6250001   0.0721662  -0.2424040  )
        99        S      tau(  99) = (   0.5000017   0.1443386  -0.3667801  )
       100        S      tau( 100) = (   0.6250010   0.0721682  -0.6030489  )
       101        S      tau( 101) = (   0.6250010   0.0721683  -0.8514963  )
       102        S      tau( 102) = (   0.5000020   0.1443388  -0.1180261  )
       103        Mo     tau( 103) = (   0.4999955   0.1443611   0.2424567  )
       104        Mo     tau( 104) = (   0.6246463   0.0728119   0.7256413  )
       105        S      tau( 105) = (   0.4995556   0.1446831   0.6015045  )
       106        S      tau( 106) = (   0.6250311   0.0722157   0.3667721  )
       107        S      tau( 107) = (   0.6249808   0.0721636   0.1180639  )
       108        S      tau( 108) = (   0.5004658   0.1432308   0.8511310  )
       109        Mo     tau( 109) = (   0.3750012   0.3608437  -0.7272732  )
       110        Mo     tau( 110) = (   0.4999991   0.2886761  -0.2424038  )
       111        S      tau( 111) = (   0.3750012   0.3608452  -0.3667804  )
       112        S      tau( 112) = (   0.5000012   0.2886747  -0.6030489  )
       113        S      tau( 113) = (   0.5000012   0.2886748  -0.8514963  )
       114        S      tau( 114) = (   0.3750014   0.3608455  -0.1180261  )
       115        Mo     tau( 115) = (   0.3749911   0.3608734   0.2424983  )
       116        Mo     tau( 116) = (   0.5011245   0.2875246   0.7272611  )
       117        S      tau( 117) = (   0.3748808   0.3618865   0.6059605  )
       118        S      tau( 118) = (   0.4999884   0.2887132   0.3668588  )
       119        S      tau( 119) = (   0.4999854   0.2887028   0.1180988  )
       120        S      tau( 120) = (   0.3760770   0.3514537   0.8556312  )
       121        Mo     tau( 121) = (   0.2500014   0.5773502  -0.7272732  )
       122        Mo     tau( 122) = (   0.3749983   0.5051825  -0.2424043  )
       123        S      tau( 123) = (   0.2500017   0.5773519  -0.3667810  )
       124        S      tau( 124) = (   0.3750014   0.5051812  -0.6030489  )
       125        S      tau( 125) = (   0.3750014   0.5051813  -0.8514963  )
       126        S      tau( 126) = (   0.2500018   0.5773519  -0.1180256  )
       127        Mo     tau( 127) = (   0.2500077   0.5773382   0.2424971  )
       128        Mo     tau( 128) = (   0.3766993   0.5053238   0.7304272  )
       129        S      tau( 129) = (   0.2500029   0.5764488   0.6074621  )
       130        S      tau( 130) = (   0.3750022   0.5051973   0.3669226  )
       131        S      tau( 131) = (   0.3749796   0.5051747   0.1180897  )
       132        S      tau( 132) = (   0.2502086   0.5906803   0.8517598  )
       133        Mo     tau( 133) = (   0.1250016   0.7938567  -0.7272732  )
       134        Mo     tau( 134) = (   0.2499995   0.7216883  -0.2424036  )
       135        S      tau( 135) = (   0.1250024   0.7938578  -0.3667813  )
       136        S      tau( 136) = (   0.2500016   0.7216877  -0.6030489  )
       137        S      tau( 137) = (   0.2500016   0.7216878  -0.8514963  )
       138        S      tau( 138) = (   0.1250024   0.7938579  -0.1180253  )
       139        Mo     tau( 139) = (   0.1250030   0.7938506   0.2424689  )
       140        Mo     tau( 140) = (   0.2500869   0.7270239   0.7252501  )
       141        S      tau( 141) = (   0.1234110   0.7947569   0.6009716  )
       142        S      tau( 142) = (   0.2500041   0.7216753   0.3668766  )
       143        S      tau( 143) = (   0.2500092   0.7216778   0.1181077  )
       144        S      tau( 144) = (   0.1247568   0.7963642   0.8506634  )
       145        Mo     tau( 145) = (   0.7500010   0.1443372  -0.7272732  )
       146        Mo     tau( 146) = (   0.8750038   0.0721696  -0.2424038  )
       147        S      tau( 147) = (   0.7500016   0.1443382  -0.3667789  )
       148        S      tau( 148) = (   0.8750010   0.0721682  -0.6030489  )
       149        S      tau( 149) = (   0.8750010   0.0721683  -0.8514963  )
       150        S      tau( 150) = (   0.7500016   0.1443384  -0.1180279  )
       151        Mo     tau( 151) = (   0.7500056   0.1443690   0.2423906  )
       152        Mo     tau( 152) = (   0.8754762   0.0728639   0.7256129  )
       153        S      tau( 153) = (   0.7500308   0.1452012   0.6014640  )
       154        S      tau( 154) = (   0.8749862   0.0722263   0.3667681  )
       155        S      tau( 155) = (   0.8750254   0.0721591   0.1180621  )
       156        S      tau( 156) = (   0.7500441   0.1442691   0.8503988  )
       157        Mo     tau( 157) = (   0.6250012   0.3608437  -0.7272732  )
       158        Mo     tau( 158) = (   0.7500028   0.2886769  -0.2424041  )
       159        S      tau( 159) = (   0.6250015   0.3608451  -0.3667792  )
       160        S      tau( 160) = (   0.7500012   0.2886747  -0.6030489  )
       161        S      tau( 161) = (   0.7500012   0.2886748  -0.8514963  )
       162        S      tau( 162) = (   0.6250016   0.3608454  -0.1180280  )
       163        Mo     tau( 163) = (   0.6249990   0.3608612   0.2424707  )
       164        Mo     tau( 164) = (   0.7500746   0.2887820   0.7269162  )
       165        S      tau( 165) = (   0.6251905   0.3614018   0.6027475  )
       166        S      tau( 166) = (   0.7500151   0.2886908   0.3668035  )
       167        S      tau( 167) = (   0.7499992   0.2887185   0.1180565  )
       168        S      tau( 168) = (   0.6254399   0.3601689   0.8517611  )
       169        Mo     tau( 169) = (   0.5000014   0.5773502  -0.7272732  )
       170        Mo     tau( 170) = (   0.6250029   0.5051841  -0.2424047  )
       171        S      tau( 171) = (   0.5000014   0.5773518  -0.3667794  )
       172        S      tau( 172) = (   0.6250014   0.5051812  -0.6030489  )
       173        S      tau( 173) = (   0.6250014   0.5051813  -0.8514963  )
       174        S      tau( 174) = (   0.5000016   0.5773516  -0.1180277  )
       175        Mo     tau( 175) = (   0.4999861   0.5773259   0.2424414  )
       176        Mo     tau( 176) = (   0.6258514   0.5052144   0.7284022  )
       177        S      tau( 177) = (   0.4992455   0.5763364   0.6056359  )
       178        S      tau( 178) = (   0.6249791   0.5051944   0.3668559  )
       179        S      tau( 179) = (   0.6250105   0.5051778   0.1180820  )
       180        S      tau( 180) = (   0.5069392   0.5807955   0.8586037  )
       181        Mo     tau( 181) = (   0.3750016   0.7938567  -0.7272732  )
       182        Mo     tau( 182) = (   0.5000025   0.7216901  -0.2424039  )
       183        S      tau( 183) = (   0.3750019   0.7938578  -0.3667793  )
       184        S      tau( 184) = (   0.5000016   0.7216877  -0.6030489  )
       185        S      tau( 185) = (   0.5000016   0.7216878  -0.8514963  )
       186        S      tau( 186) = (   0.3750020   0.7938579  -0.1180272  )
       187        Mo     tau( 187) = (   0.3750095   0.7938535   0.2424732  )
       188        Mo     tau( 188) = (   0.5004392   0.7222160   0.7277389  )
       189        S      tau( 189) = (   0.3766340   0.7948794   0.6008559  )
       190        S      tau( 190) = (   0.5000179   0.7216263   0.3668038  )
       191        S      tau( 191) = (   0.4999965   0.7216810   0.1180753  )
       192        S      tau( 192) = (   0.3755295   0.7963504   0.8505132  )
       193        Pt     tau( 193) = (   0.1371069   0.5032381   0.9573497  )
       194        Pt     tau( 194) = (   0.3635722   0.5033563   0.9571359  )
       195        Pd     tau( 195) = (  -0.0003173   0.7221761   0.9778691  )

     --------------------------------------------
     DFT-D3 Dispersion Correction (3-body terms):
     --------------------------------------------
       Reference C6 values for interpolation: 

         atom   Coordination number   C6
         S          0.000           268.01
         S          0.995           261.99
         S          1.990           251.62
         Mo         0.000          1691.79
         Mo         1.942          1004.01
         Mo        11.056           674.22
         Pd         0.000          1217.01
         Pd         1.863           573.90
         Pd         5.710           531.75
         Pt         0.000           782.29
         Pt         1.919           692.72
         Pt         6.667           673.75

       Values used:

         atom   Coordination number  R0_AB[au]  C6      C8
         Mo        10.208            3.547    674.22  77634.20
         Mo        10.221            3.547    674.22  77634.20
         S          3.858            3.128    251.62  12327.25
         S          3.859            3.128    251.62  12327.25
         S          3.758            3.128    251.62  12327.25
         S          3.859            3.128    251.62  12327.25
         Mo        10.220            3.547    674.22  77634.20
         Mo        10.265            3.547    674.22  77634.20
         S          3.854            3.128    251.62  12327.25
         S          3.861            3.128    251.62  12327.25
         S          3.859            3.128    251.62  12327.25
         S          3.824            3.128    251.62  12327.25
         Mo        10.208            3.547    674.22  77634.20
         Mo        10.221            3.547    674.22  77634.20
         S          3.858            3.128    251.62  12327.25
         S          3.859            3.128    251.62  12327.25
         S          3.758            3.128    251.62  12327.25
         S          3.859            3.128    251.62  12327.25
         Mo        10.221            3.547    674.22  77634.20
         Mo        10.226            3.547    674.22  77634.20
         S          3.865            3.128    251.62  12327.25
         S          3.857            3.128    251.62  12327.25
         S          3.859            3.128    251.62  12327.25
         S          3.769            3.128    251.62  12327.25
         Mo        10.208            3.547    674.22  77634.20
         Mo        10.221            3.547    674.22  77634.20
         S          3.858            3.128    251.62  12327.25
         S          3.859            3.128    251.62  12327.25
         S          3.758            3.128    251.62  12327.25
         S          3.859            3.128    251.62  12327.25
         Mo        10.221            3.547    674.22  77634.20
         Mo        10.247            3.547    674.22  77634.20
         S          3.856            3.128    251.62  12327.25
         S          3.856            3.128    251.62  12327.25
         S          3.859            3.128    251.62  12327.25
         S          3.834            3.128    251.62  12327.25
         Mo        10.208            3.547    674.22  77634.20
         Mo        10.221            3.547    674.22  77634.20
         S          3.858            3.128    251.62  12327.25
         S          3.859            3.128    251.62  12327.25
         S          3.758            3.128    251.62  12327.25
         S          3.859            3.128    251.62  12327.25
         Mo        10.220            3.547    674.22  77634.20
         Mo        10.256            3.547    674.21  77634.20
         S          3.856            3.128    251.62  12327.25
         S          3.859            3.128    251.62  12327.25
         S          3.859            3.128    251.62  12327.25
         S          3.818            3.128    251.62  12327.25
         Mo        10.208            3.547    674.22  77634.20
         Mo        10.221            3.547    674.22  77634.20
         S          3.858            3.128    251.62  12327.25
         S          3.859            3.128    251.62  12327.25
         S          3.758            3.128    251.62  12327.25
         S          3.859            3.128    251.62  12327.25
         Mo        10.220            3.547    674.22  77634.20
         Mo        10.272            3.547    674.22  77634.20
         S          3.844            3.128    251.62  12327.25
         S          3.861            3.128    251.62  12327.25
         S          3.859            3.128    251.62  12327.25
         S          3.846            3.128    251.62  12327.25
         Mo        10.208            3.547    674.22  77634.20
         Mo        10.221            3.547    674.22  77634.20
         S          3.858            3.128    251.62  12327.25
         S          3.859            3.128    251.62  12327.25
         S          3.758            3.128    251.62  12327.25
         S          3.859            3.128    251.62  12327.25
         Mo        10.222            3.547    674.22  77634.20
         Mo        10.161            3.547    674.22  77634.20
         S          3.858            3.128    251.62  12327.25
         S          3.852            3.128    251.62  12327.25
         S          3.859            3.128    251.62  12327.25
         S          4.676            3.128    251.62  12327.25
         Mo        10.208            3.547    674.22  77634.20
         Mo        10.221            3.547    674.22  77634.20
         S          3.858            3.128    251.62  12327.25
         S          3.859            3.128    251.62  12327.25
         S          3.758            3.128    251.62  12327.25
         S          3.859            3.128    251.62  12327.25
         Mo        10.221            3.547    674.22  77634.20
         Mo        10.847            3.547    674.22  77634.20
         S          3.846            3.128    251.62  12327.25
         S          3.850            3.128    251.62  12327.25
         S          3.859            3.128    251.62  12327.25
         S          5.591            3.128    251.62  12327.25
         Mo        10.208            3.547    674.22  77634.20
         Mo        10.221            3.547    674.22  77634.20
         S          3.858            3.128    251.62  12327.25
         S          3.859            3.128    251.62  12327.25
         S          3.758            3.128    251.62  12327.25
         S          3.859            3.128    251.62  12327.25
         Mo        10.220            3.547    674.22  77634.20
         Mo        10.656            3.547    674.22  77634.20
         S          3.859            3.128    251.62  12327.25
         S          3.859            3.128    251.62  12327.25
         S          3.859            3.128    251.62  12327.25
         S          4.739            3.128    251.62  12327.25
         Mo        10.208            3.547    674.21  77634.20
         Mo        10.221            3.547    674.22  77634.20
         S          3.858            3.128    251.62  12327.25
         S          3.859            3.128    251.62  12327.25
         S          3.758            3.128    251.62  12327.25
         S          3.859            3.128    251.62  12327.25
         Mo        10.220            3.547    674.22  77634.20
         Mo        10.298            3.547    674.22  77634.20
         S          3.855            3.128    251.62  12327.25
         S          3.864            3.128    251.62  12327.25
         S          3.859            3.128    251.62  12327.25
         S          3.833            3.128    251.62  12327.25
         Mo        10.208            3.547    674.22  77634.20
         Mo        10.221            3.547    674.22  77634.20
         S          3.858            3.128    251.62  12327.25
         S          3.859            3.128    251.62  12327.25
         S          3.758            3.128    251.62  12327.25
         S          3.859            3.128    251.62  12327.25
         Mo        10.222            3.547    674.22  77634.20
         Mo        10.225            3.547    674.22  77634.20
         S          3.856            3.128    251.62  12327.25
         S          3.857            3.128    251.62  12327.25
         S          3.859            3.128    251.62  12327.25
         S          4.678            3.128    251.62  12327.25
         Mo        10.208            3.547    674.22  77634.20
         Mo        10.221            3.547    674.22  77634.20
         S          3.858            3.128    251.62  12327.25
         S          3.859            3.128    251.62  12327.25
         S          3.758            3.128    251.62  12327.25
         S          3.859            3.128    251.62  12327.25
         Mo        10.222            3.547    674.22  77634.20
         Mo        10.839            3.547    674.22  77634.20
         S          3.874            3.128    251.62  12327.25
         S          3.850            3.128    251.62  12327.25
         S          3.859            3.128    251.62  12327.25
         S          5.687            3.128    251.62  12327.25
         Mo        10.208            3.547    674.21  77634.20
         Mo        10.221            3.547    674.22  77634.20
         S          3.858            3.128    251.62  12327.25
         S          3.859            3.128    251.62  12327.25
         S          3.758            3.128    251.62  12327.25
         S          3.859            3.128    251.62  12327.25
         Mo        10.220            3.547    674.22  77634.20
         Mo        10.177            3.547    674.22  77634.20
         S          3.839            3.128    251.62  12327.25
         S          3.855            3.128    251.62  12327.25
         S          3.859            3.128    251.62  12327.25
         S          4.755            3.128    251.62  12327.25
         Mo        10.208            3.547    674.22  77634.20
         Mo        10.221            3.547    674.22  77634.20
         S          3.858            3.128    251.62  12327.25
         S          3.859            3.128    251.62  12327.25
         S          3.758            3.128    251.62  12327.25
         S          3.859            3.128    251.62  12327.25
         Mo        10.220            3.547    674.22  77634.20
         Mo        10.292            3.547    674.22  77634.20
         S          3.857            3.128    251.62  12327.25
         S          3.864            3.128    251.62  12327.25
         S          3.859            3.128    251.62  12327.25
         S          3.796            3.128    251.62  12327.25
         Mo        10.208            3.547    674.22  77634.20
         Mo        10.220            3.547    674.22  77634.20
         S          3.858            3.128    251.62  12327.25
         S          3.859            3.128    251.62  12327.25
         S          3.758            3.128    251.62  12327.25
         S          3.859            3.128    251.62  12327.25
         Mo        10.221            3.547    674.22  77634.20
         Mo        10.259            3.547    674.22  77634.20
         S          3.864            3.128    251.62  12327.25
         S          3.861            3.128    251.62  12327.25
         S          3.859            3.128    251.62  12327.25
         S          3.771            3.128    251.62  12327.25
         Mo        10.208            3.547    674.22  77634.20
         Mo        10.221            3.547    674.22  77634.20
         S          3.858            3.128    251.62  12327.25
         S          3.859            3.128    251.62  12327.25
         S          3.758            3.128    251.62  12327.25
         S          3.859            3.128    251.62  12327.25
         Mo        10.221            3.547    674.22  77634.20
         Mo        10.240            3.547    674.22  77634.20
         S          3.842            3.128    251.62  12327.25
         S          3.856            3.128    251.62  12327.25
         S          3.859            3.128    251.62  12327.25
         S          4.635            3.128    251.62  12327.25
         Mo        10.208            3.547    674.22  77634.20
         Mo        10.221            3.547    674.22  77634.20
         S          3.858            3.128    251.62  12327.25
         S          3.859            3.128    251.62  12327.25
         S          3.758            3.128    251.62  12327.25
         S          3.859            3.128    251.62  12327.25
         Mo        10.220            3.547    674.22  77634.20
         Mo        10.228            3.547    674.22  77634.20
         S          3.837            3.128    251.62  12327.25
         S          3.859            3.128    251.62  12327.25
         S          3.859            3.128    251.62  12327.25
         S          3.843            3.128    251.62  12327.25
         Pt         4.734            3.168    673.75  70061.90
         Pt         4.574            3.168    673.75  70061.94
         Pd         3.486            3.168    573.90  52582.69

         Molecular C6 ( Ry / a.u.^6 ) =  14177965.80


     number of k points=     4  Gaussian smearing, width (Ry)=  0.0100
                       cart. coord. in units 2pi/alat
        k(    1) = (   0.0000000   0.0000000   0.0000000), wk =   0.5000000
        k(    2) = (   0.0000000  -0.5773499   0.0000000), wk =   0.5000000
        k(    3) = (  -0.5000000  -0.2886744   0.0000000), wk =   0.5000000
        k(    4) = (  -0.5000000  -0.8660242   0.0000000), wk =   0.5000000

     Dense  grid:  7154885 G-vectors     FFT dimensions: ( 180, 180, 512)

     Smooth grid:  3090769 G-vectors     FFT dimensions: ( 135, 135, 400)

     Estimated max dynamical RAM per process >       4.33 GB

     Estimated total dynamical RAM >     155.86 GB

     Atomic positions and unit cell read from directory:
     ./outdir/pwscf.save/
     Atomic positions from file used, from input discarded
 

     The initial density is read from file :
     ./outdir/pwscf.save/charge-density


     negative rho (up, down):  9.138E-04 0.000E+00
     Cannot read wfcs: file not found
     Starting wfcs are 1196 randomized atomic wfcs
     Checking if some PAW data can be deallocated... 

     total cpu time spent up to now is      182.2 secs

     Self-consistent Calculation

     iteration #  1     ecut=    77.00 Ry     beta= 0.20
     Davidson diagonalization with overlap
     c_bands:  6 eigenvalues not converged
     c_bands: 14 eigenvalues not converged
     c_bands: 13 eigenvalues not converged
     c_bands: 19 eigenvalues not converged
     ethr =  1.00E-05,  avg # of iterations =120.0

     negative rho (up, down):  8.448E-04 0.000E+00

     total cpu time spent up to now is    11126.1 secs

     total energy              =  -35655.16565060 Ry
     estimated scf accuracy    <       3.27834012 Ry

     iteration #  2     ecut=    77.00 Ry     beta= 0.20
     Davidson diagonalization with overlap
     ethr =  1.88E-04,  avg # of iterations =  7.5

     negative rho (up, down):  8.071E-04 0.000E+00

     total cpu time spent up to now is    11573.1 secs

     total energy              =  -35655.01227530 Ry
     estimated scf accuracy    <       1.23713209 Ry

     iteration #  3     ecut=    77.00 Ry     beta= 0.20
     Davidson diagonalization with overlap
     ethr =  7.09E-05,  avg # of iterations =  8.2

     negative rho (up, down):  7.650E-04 0.000E+00

     total cpu time spent up to now is    12021.5 secs

     total energy              =  -35654.91326073 Ry
     estimated scf accuracy    <       0.59603563 Ry

     iteration #  4     ecut=    77.00 Ry     beta= 0.20
     Davidson diagonalization with overlap
     ethr =  3.41E-05,  avg # of iterations = 12.2

     negative rho (up, down):  7.539E-04 0.000E+00

     total cpu time spent up to now is    12513.8 secs

     total energy              =  -35654.96904495 Ry
     estimated scf accuracy    <       0.13309388 Ry

     iteration #  5     ecut=    77.00 Ry     beta= 0.20
     Davidson diagonalization with overlap
     c_bands:  4 eigenvalues not converged
     c_bands:  4 eigenvalues not converged
     c_bands:  1 eigenvalues not converged
     ethr =  7.62E-06,  avg # of iterations = 22.0

     negative rho (up, down):  7.426E-04 0.000E+00

     total cpu time spent up to now is    13108.5 secs

     total energy              =  -35654.93883332 Ry
     estimated scf accuracy    <       0.06199092 Ry

     iteration #  6     ecut=    77.00 Ry     beta= 0.20
     Davidson diagonalization with overlap
     c_bands:  1 eigenvalues not converged
     c_bands:  4 eigenvalues not converged
     c_bands:  1 eigenvalues not converged
     ethr =  3.55E-06,  avg # of iterations = 39.8

     negative rho (up, down):  7.435E-04 0.000E+00

     total cpu time spent up to now is    14093.3 secs

     total energy              =  -35654.94946571 Ry
     estimated scf accuracy    <       0.02153786 Ry

     iteration #  7     ecut=    77.00 Ry     beta= 0.20
     Davidson diagonalization with overlap
     c_bands:  4 eigenvalues not converged
     c_bands:  3 eigenvalues not converged
     ethr =  1.23E-06,  avg # of iterations = 15.2

     negative rho (up, down):  7.557E-04 0.000E+00

     total cpu time spent up to now is    14619.3 secs

     total energy              =  -35654.95246924 Ry
     estimated scf accuracy    <       0.00542744 Ry

     iteration #  8     ecut=    77.00 Ry     beta= 0.20
     Davidson diagonalization with overlap
     ethr =  3.11E-07,  avg # of iterations = 12.5

     negative rho (up, down):  7.889E-04 0.000E+00

     total cpu time spent up to now is    15447.8 secs

     total energy              =  -35654.95611545 Ry
     estimated scf accuracy    <       0.00422748 Ry

     iteration #  9     ecut=    77.00 Ry     beta= 0.20
     Davidson diagonalization with overlap
     ethr =  2.42E-07,  avg # of iterations =  9.5

     negative rho (up, down):  8.229E-04 0.000E+00

     total cpu time spent up to now is    15899.5 secs

     total energy              =  -35654.95614622 Ry
     estimated scf accuracy    <       0.00096168 Ry

     iteration # 10     ecut=    77.00 Ry     beta= 0.20
     Davidson diagonalization with overlap
     ethr =  5.51E-08,  avg # of iterations = 16.5

     negative rho (up, down):  8.515E-04 0.000E+00

     total cpu time spent up to now is    16775.9 secs

     total energy              =  -35654.95684040 Ry
     estimated scf accuracy    <       0.00045632 Ry

     iteration # 11     ecut=    77.00 Ry     beta= 0.20
     Davidson diagonalization with overlap
     ethr =  2.61E-08,  avg # of iterations = 10.0

     negative rho (up, down):  8.808E-04 0.000E+00

     total cpu time spent up to now is    17263.6 secs

     total energy              =  -35654.95684045 Ry
     estimated scf accuracy    <       0.00015521 Ry

     iteration # 12     ecut=    77.00 Ry     beta= 0.20
     Davidson diagonalization with overlap
     c_bands:  1 eigenvalues not converged
     ethr =  8.89E-09,  avg # of iterations = 18.2

     negative rho (up, down):  8.854E-04 0.000E+00

     total cpu time spent up to now is    18291.5 secs

     total energy              =  -35654.95703937 Ry
     estimated scf accuracy    <       0.00005128 Ry

     iteration # 13     ecut=    77.00 Ry     beta= 0.20
     Davidson diagonalization with overlap
     ethr =  2.94E-09,  avg # of iterations = 14.2

     negative rho (up, down):  8.906E-04 0.000E+00

     total cpu time spent up to now is    19089.2 secs

     total energy              =  -35654.95706632 Ry
     estimated scf accuracy    <       0.00002975 Ry

     iteration # 14     ecut=    77.00 Ry     beta= 0.20
     Davidson diagonalization with overlap
     ethr =  1.70E-09,  avg # of iterations =  8.8

     negative rho (up, down):  9.041E-04 0.000E+00

     total cpu time spent up to now is    19547.4 secs

     total energy              =  -35654.95705373 Ry
     estimated scf accuracy    <       0.00001661 Ry

     iteration # 15     ecut=    77.00 Ry     beta= 0.20
     Davidson diagonalization with overlap
     ethr =  9.51E-10,  avg # of iterations = 14.0

     negative rho (up, down):  9.075E-04 0.000E+00

     total cpu time spent up to now is    20408.2 secs

     total energy              =  -35654.95706522 Ry
     estimated scf accuracy    <       0.00000424 Ry

     iteration # 16     ecut=    77.00 Ry     beta= 0.20
     Davidson diagonalization with overlap
     c_bands:  5 eigenvalues not converged
     c_bands:  1 eigenvalues not converged
     c_bands:  1 eigenvalues not converged
     ethr =  2.43E-10,  avg # of iterations = 19.2

     negative rho (up, down):  9.082E-04 0.000E+00

     total cpu time spent up to now is    21396.0 secs

     total energy              =  -35654.95706908 Ry
     estimated scf accuracy    <       0.00000173 Ry

     iteration # 17     ecut=    77.00 Ry     beta= 0.20
     Davidson diagonalization with overlap
     ethr =  9.90E-11,  avg # of iterations = 11.2

     negative rho (up, down):  9.136E-04 0.000E+00

     total cpu time spent up to now is    22020.1 secs

     End of self-consistent calculation

          k = 0.0000 0.0000 0.0000 (386245 PWs)   bands (ev):

  -103.0116-102.0739 -88.9787 -71.3806 -71.3690 -71.3354 -71.2974 -71.2927
   -71.2761 -71.2742 -70.5017 -70.4849 -70.4459 -70.3917 -70.3779 -70.3554
   -70.3514 -66.6630 -66.6630 -66.6621 -66.6617 -66.6555 -66.6419 -66.6418
   -66.6418 -66.6417 -66.6417 -66.6417 -66.6417 -66.6417 -66.6417 -66.6417
   -66.6414 -66.6414 -66.6409 -66.6404 -66.6404 -66.6404 -66.6404 -66.6404
   -66.6404 -66.6339 -66.6300 -66.6251 -66.6232 -66.6208 -66.6204 -66.6204
   -66.6204 -66.6204 -66.6204 -66.6203 -66.6203 -66.6203 -66.6203 -66.6203
   -66.6203 -66.6203 -66.6203 -66.6202 -66.6200 -66.6200 -66.6199 -66.6190
   -66.6190 -66.6190 -66.6190 -66.6190 -66.6190 -66.6190 -66.6190 -66.6190
   -66.6189 -66.6150 -66.6077 -66.6037 -66.6010 -66.5916 -66.5823 -66.5770
   -66.5428 -57.3838 -57.2355 -57.0439 -56.5957 -56.2568 -55.9612 -54.8265
   -54.7788 -54.6954 -40.9904 -40.9904 -40.9904 -40.9904 -40.9904 -40.9902
   -40.9898 -40.9898 -40.9898 -40.9793 -40.9745 -40.9687 -40.9152 -40.9152
   -40.9151 -40.9151 -40.9151 -40.9151 -40.9151 -40.9151 -40.9150 -40.9150
   -40.9149 -40.9148 -40.9144 -40.9144 -40.9144 -40.9144 -40.9144 -40.9144
   -40.9063 -40.9018 -40.8994 -40.8895 -40.8855 -40.8798 -40.8439 -40.8226
   -40.8225 -40.8220 -40.8207 -40.8034 -40.7936 -40.7889 -40.7888 -40.7888
   -40.7888 -40.7888 -40.7887 -40.7887 -40.7887 -40.7887 -40.7887 -40.7885
   -40.7884 -40.7879 -40.7879 -40.7879 -40.7879 -40.7879 -40.7879 -40.7840
   -40.7811 -40.7810 -40.7809 -40.7809 -40.7809 -40.7809 -40.7809 -40.7808
   -40.7808 -40.7808 -40.7807 -40.7807 -40.7805 -40.7802 -40.7802 -40.7802
   -40.7802 -40.7802 -40.7802 -40.7775 -40.7753 -40.7736 -40.7708 -40.7687
   -40.7666 -40.7560 -40.7539 -40.7538 -40.7537 -40.7537 -40.7537 -40.7537
   -40.7537 -40.7537 -40.7537 -40.7536 -40.7535 -40.7534 -40.7528 -40.7528
   -40.7528 -40.7528 -40.7528 -40.7528 -40.7527 -40.7511 -40.7477 -40.7439
   -40.7409 -40.7397 -40.7393 -40.7391 -40.7390 -40.7390 -40.7390 -40.7389
   -40.7389 -40.7389 -40.7389 -40.7389 -40.7389 -40.7388 -40.7388 -40.7388
   -40.7388 -40.7387 -40.7386 -40.7384 -40.7382 -40.7382 -40.7382 -40.7382
   -40.7382 -40.7382 -40.7381 -40.7381 -40.7381 -40.7351 -40.7330 -40.7301
   -40.7279 -40.7258 -40.7171 -40.7152 -40.7081 -40.6845 -40.6754 -40.6754
   -40.6754 -40.6754 -40.6753 -40.6752 -40.6744 -40.6744 -40.6744 -40.6586
   -40.6571 -40.6466 -40.6285 -40.6283 -40.6283 -40.6283 -40.6283 -40.6283
   -40.6283 -40.6283 -40.6282 -40.6282 -40.6280 -40.6279 -40.6273 -40.6273
   -40.6273 -40.6273 -40.6273 -40.6273 -40.6134 -40.6095 -40.6085 -40.6000
   -40.5955 -40.5880 -40.5807 -40.5807 -40.5806 -40.5806 -40.5796 -40.5796
   -40.5505 -40.5449 -20.4030 -20.1464 -20.0508 -19.9397 -19.8354 -19.4187
   -19.3304 -19.3031 -19.2982 -19.2893 -19.2772 -19.2726 -19.2654 -19.2536
   -19.2476 -19.2322 -19.1924 -19.1829 -19.1756 -19.1672 -19.1625 -19.1486
   -19.0869 -19.0807 -19.0777 -19.0748 -19.0734 -19.0681 -18.9595 -18.8789
   -18.8329 -18.6799 -18.6521 -18.6033 -18.5755 -18.5538 -18.5437 -18.5193
   -18.5009 -18.4694 -18.4615 -18.4561 -18.4501 -18.4288 -18.3962 -18.3441
   -18.3340 -18.3264 -18.3246 -18.3100 -18.2884 -18.2574 -18.2439 -18.2317
   -18.2238 -18.2200 -18.2129 -18.2087 -18.2012 -18.1941 -18.1620 -18.1600
   -18.1587 -18.1581 -18.1575 -18.1562 -18.1340 -18.1274 -18.1250 -18.1227
   -18.1205 -18.1188 -18.1154 -18.1144 -18.1140 -18.0997 -18.0899 -18.0885
   -18.0864 -18.0816 -18.0744 -18.0711 -18.0699 -18.0622 -18.0538 -18.0487
   -18.0452 -18.0404 -18.0370 -18.0292 -18.0282 -18.0265 -17.9987 -17.9938
   -17.9892 -17.9855 -17.9711 -17.9616 -17.9591 -17.9558 -17.9553 -17.9365
   -17.9341 -17.9307 -17.9254 -17.9186 -17.9143 -17.9088 -17.9048 -17.9023
   -17.8986 -17.8971 -17.8950 -17.8801 -17.8797 -17.8789 -17.8716 -17.8681
   -17.8666 -17.8619 -17.8590 -17.8568 -17.8367 -17.8359 -17.8355 -17.8340
   -17.8328 -17.8313 -12.4864 -12.3499 -12.0065 -11.9782 -11.9181 -11.8422
   -11.8322 -11.8269 -11.7521 -11.7284 -11.7105 -11.7051 -11.6144 -11.5957
   -11.5929 -11.5833 -11.4681 -11.4185 -11.4075 -11.3119 -11.2852 -11.2814
   -11.2782 -11.2751 -11.2544 -11.2315 -11.2130 -11.1826 -11.1720 -11.1704
   -11.1678 -11.1650 -11.1613 -11.1532 -11.1465 -11.1248 -11.1127 -11.1046
   -11.1028 -11.1014 -11.0947 -11.0850 -11.0825 -11.0679 -11.0654 -11.0615
   -11.0448 -11.0082 -11.0027 -10.9976 -10.9914 -10.9780 -10.9777 -10.9621
   -10.9507 -10.9354 -10.9350 -10.9288 -10.9209 -10.9154 -10.9080 -10.8947
   -10.8901 -10.8833 -10.8787 -10.8733 -10.8713 -10.8692 -10.8669 -10.8645
   -10.8583 -10.8544 -10.8534 -10.8485 -10.8464 -10.8431 -10.8222 -10.8204
   -10.8175 -10.8163 -10.8126 -10.8098 -10.8086 -10.8060 -10.7965 -10.7772
   -10.7763 -10.7761 -10.7760 -10.7741 -10.7731 -10.7345 -10.7047 -10.6971
   -10.6836 -10.6519 -10.6356 -10.6307 -10.6257 -10.6222 -10.6007 -10.5359
   -10.4777 -10.3859 -10.2557 -10.2121 -10.1783 -10.1140 -10.0495 -10.0122
    -9.9612  -9.9323  -9.8973  -9.8775  -9.8601  -9.8478  -9.8468  -9.8363
    -9.8202  -9.8159  -9.8152  -9.8090  -9.8083  -9.8051  -9.8013  -9.7935
    -9.7919  -9.7883  -9.7870  -9.7853  -9.7776  -9.7588  -9.7465  -9.7291
    -9.7198  -9.6885  -9.6777  -9.6729  -9.6703  -9.6667  -9.6632  -9.6587
    -9.6578  -9.6564  -9.6563  -9.6546  -9.6514  -9.6475  -9.6160  -9.6065
    -9.5906  -9.5835  -9.5804  -9.5802  -9.5800  -9.5798  -9.5796  -9.5793
    -9.5686  -9.5620  -9.5473  -9.5468  -9.5401  -9.5259  -9.5055  -9.4887
    -9.4518  -9.4277  -9.4162  -9.4079  -9.4055  -9.3969  -9.3845  -9.3823
    -9.3750  -9.3695  -9.3609  -9.3494  -9.3436  -9.3226  -9.3004  -9.2880
    -9.2794  -9.2724  -9.2706  -9.2539  -9.2340  -9.2275  -9.2224  -9.2212
    -9.2205  -9.2178  -9.2121  -9.1967  -9.1808  -9.1753  -9.1518  -9.1469
    -9.1238  -9.1075  -9.0839  -9.0682  -9.0290  -9.0212  -9.0201  -9.0180
    -9.0050  -8.9977  -8.9871  -8.9859  -8.9779  -8.9676  -8.9562  -8.9560
    -8.9554  -8.9498  -8.9393  -8.9346  -8.9317  -8.9245  -8.8672  -8.8606
    -8.8603  -8.8598  -8.8591  -8.8587  -8.8566  -8.8065  -8.8047  -8.7947
    -8.7892  -8.7739  -8.7693  -8.7274  -8.7130  -8.7088  -8.7021  -8.6966
    -8.6907  -8.6644  -8.6352  -8.6331  -8.6305  -8.6300  -8.6283  -8.6220
    -8.5807  -8.5610  -8.5463  -8.4670  -8.4322  -8.4051  -8.4051  -8.4002
    -8.4000  -8.3938  -8.3936  -8.3843  -8.3647  -8.3397  -8.3247  -8.3146
    -8.3145  -8.3142  -8.3136  -8.3120  -8.3083  -8.2886  -8.2880  -8.2876
    -8.2865  -8.2848  -8.2822  -8.2604  -8.2597  -8.2595  -8.2591  -8.2584
    -8.2576  -8.2256  -8.1667  -8.1472  -8.0990  -8.0359  -7.9917  -7.9032
    -7.8977  -7.8940  -7.8519  -7.8412  -7.8051  -7.7968  -7.7705  -7.7382
    -7.7338  -7.7163  -7.6946  -7.6867  -7.6834  -7.6770  -7.6587  -7.6526
    -7.6469  -7.6431  -7.6372  -7.6168  -7.6124  -7.5985  -7.5915  -7.5804
    -7.5745  -7.5734  -7.5727  -7.5724  -7.5711  -7.5686  -7.5604  -7.5502
    -7.5467  -7.5459  -7.5457  -7.5429  -7.5413  -7.5351  -7.5263  -7.5215
    -7.5210  -7.5205  -7.5202  -7.5195  -7.5185  -7.5049  -7.4898  -7.4778
    -7.4715  -7.4667  -7.4588  -7.4534  -7.4481  -7.4358  -7.4249  -7.4013
    -7.3915  -7.3895  -7.3738  -7.3665  -7.3580  -7.3476  -7.3414  -7.3387
    -7.3326  -7.3310  -7.3309  -7.3197  -7.2896  -7.2890  -7.2738  -7.2720
    -7.2705  -7.2652  -7.2524  -7.2519  -7.2257  -7.2010  -7.1796  -7.1591
    -7.1566  -7.1350  -7.0802  -7.0669  -7.0508  -7.0141  -6.9726  -6.9282
    -6.9206  -6.9059  -6.8877  -6.8602  -6.8261  -6.8221  -6.8196  -6.8114
    -6.7855  -6.7780  -6.7600  -6.7370  -6.7333  -6.7258  -6.7088  -6.7052
    -6.6832  -6.6620  -6.6601  -6.6581  -6.6529  -6.6317  -6.6186  -6.6104
    -6.6060  -6.6024  -6.5915  -6.5789  -6.5631  -6.5576  -6.5540  -6.5534
    -6.5513  -6.5491  -6.5478  -6.5449  -6.5386  -6.5361  -6.5361  -6.5359
    -6.5358  -6.5356  -6.5352  -6.5260  -6.5214  -6.4887  -6.4811  -6.4800
    -6.4563  -6.4489  -6.4478  -6.4459  -6.4262  -6.4010  -6.3741  -6.3726
    -6.3704  -6.3694  -6.3687  -6.3661  -6.3419  -6.3384  -6.3329  -6.3309
    -6.3286  -6.3260  -6.3138  -6.3099  -6.3020  -6.2973  -6.2922  -6.2918
    -6.2907  -6.2885  -6.2835  -6.2783  -6.2314  -6.2212  -6.1243  -6.0880
    -5.9526  -5.8031  -5.7353  -5.6686  -5.5515  -5.4607  -5.3823  -5.2448
    -5.1822  -4.3198  -4.1756  -3.9115  -3.8975  -3.8940  -3.8822  -3.8749
    -3.8706  -3.8692  -3.8678  -3.8640  -3.8616  -3.8429  -3.8377  -3.7778
    -3.7574  -3.7485  -3.7308  -3.7274  -3.7243  -3.7179  -3.7155  -3.7094
    -3.7071  -3.6318  -3.6140  -3.5788  -3.5676  -3.5569  -3.5495  -3.5398
    -3.5270  -3.5237  -3.5140  -3.5118  -3.5099  -3.5080  -3.5066  -3.4987
    -3.4964  -3.4923  -3.4819  -3.4814  -3.4804  -3.4790  -3.4757  -3.4673
    -3.4658  -3.4641  -3.4615  -3.4574  -3.4513  -3.4472  -3.4457  -3.4433
    -3.4392  -3.4360  -3.4306  -3.4298  -3.4201  -3.4027  -3.3966  -3.3950
    -3.3928  -3.3888  -3.3840  -3.3820  -3.3773  -3.3711  -3.3631  -3.3504
    -3.3434  -3.3394  -3.3308  -3.3241  -3.3235  -3.3192  -3.3148  -3.3002
    -3.2809  -3.2542  -3.2497  -3.2372  -3.2289  -3.1599  -3.1344  -3.1190
    -3.1087  -3.1044  -3.1001  -3.0978  -3.0935  -3.0884  -3.0810  -3.0762
    -3.0480  -3.0352  -3.0283  -3.0234  -3.0159  -3.0132  -3.0125  -3.0079
    -3.0041  -3.0018  -3.0009  -3.0003  -2.9970  -2.9933  -2.9918  -2.9910
    -2.9851  -2.9807  -2.9745  -2.9725  -2.9720  -2.9706  -2.9696  -2.9694
    -2.9684  -2.9633  -2.9618  -2.9543  -2.9435  -2.9313  -2.9265  -2.9248
    -2.9140  -2.9043  -2.9005  -2.8820  -2.8448  -2.8447  -2.8446  -2.8443
    -2.8441  -2.8441  -2.8440  -2.8415  -2.8406  -2.8321  -2.8225  -2.8204
    -2.8115  -2.7897  -2.7795  -2.7745  -2.7717  -2.7625  -2.7588  -2.7323
    -2.7117  -2.7072  -2.6782  -2.6772  -2.6669  -2.6648  -2.6624  -2.6562
    -2.6550  -2.6479  -2.6225  -2.5929  -2.5867  -2.5814  -2.5765  -2.5584
    -2.4986  -2.4935  -2.4881  -2.4817  -2.4686  -2.4639  -2.4549  -2.4434

          k = 0.0000-0.5773 0.0000 (386352 PWs)   bands (ev):

  -103.0116-102.0739 -88.9787 -71.3806 -71.3690 -71.3354 -71.2974 -71.2927
   -71.2761 -71.2742 -70.5017 -70.4849 -70.4459 -70.3917 -70.3779 -70.3554
   -70.3514 -66.6610 -66.6568 -66.6568 -66.6568 -66.6567 -66.6565 -66.6555
   -66.6555 -66.6461 -66.6461 -66.6461 -66.6460 -66.6448 -66.6448 -66.6412
   -66.6365 -66.6311 -66.6311 -66.6310 -66.6310 -66.6310 -66.6310 -66.6310
   -66.6308 -66.6297 -66.6297 -66.6297 -66.6297 -66.6269 -66.6266 -66.6266
   -66.6266 -66.6265 -66.6253 -66.6253 -66.6252 -66.6231 -66.6204 -66.6204
   -66.6203 -66.6203 -66.6203 -66.6203 -66.6203 -66.6200 -66.6190 -66.6190
   -66.6190 -66.6190 -66.6189 -66.6159 -66.6159 -66.6159 -66.6158 -66.6147
   -66.6146 -66.6146 -66.6082 -66.6034 -66.6013 -66.5918 -66.5822 -66.5770
   -66.5428 -57.3838 -57.2355 -57.0439 -56.5957 -56.2568 -55.9612 -54.8265
   -54.7789 -54.6954 -40.9588 -40.9588 -40.9588 -40.9588 -40.9588 -40.9588
   -40.9587 -40.9586 -40.9583 -40.9581 -40.9581 -40.9581 -40.9581 -40.9498
   -40.9371 -40.9320 -40.9320 -40.9320 -40.9318 -40.9313 -40.9313 -40.9286
   -40.9204 -40.9199 -40.9199 -40.9199 -40.9198 -40.9192 -40.9192 -40.9107
   -40.8957 -40.8893 -40.8692 -40.8692 -40.8692 -40.8692 -40.8692 -40.8692
   -40.8691 -40.8691 -40.8685 -40.8685 -40.8685 -40.8685 -40.8547 -40.8480
   -40.8459 -40.8401 -40.8379 -40.8161 -40.8128 -40.8105 -40.8104 -40.8104
   -40.8102 -40.8098 -40.8097 -40.8010 -40.8009 -40.8009 -40.8008 -40.8001
   -40.8001 -40.7931 -40.7896 -40.7895 -40.7895 -40.7895 -40.7889 -40.7889
   -40.7808 -40.7784 -40.7738 -40.7712 -40.7660 -40.7600 -40.7600 -40.7600
   -40.7599 -40.7599 -40.7599 -40.7599 -40.7598 -40.7598 -40.7592 -40.7592
   -40.7592 -40.7592 -40.7534 -40.7513 -40.7512 -40.7512 -40.7511 -40.7505
   -40.7505 -40.7486 -40.7449 -40.7411 -40.7395 -40.7395 -40.7395 -40.7393
   -40.7391 -40.7390 -40.7389 -40.7389 -40.7389 -40.7389 -40.7388 -40.7386
   -40.7386 -40.7385 -40.7382 -40.7382 -40.7381 -40.7381 -40.7314 -40.7302
   -40.7302 -40.7302 -40.7302 -40.7295 -40.7295 -40.7278 -40.7229 -40.7156
   -40.7138 -40.7087 -40.7086 -40.7085 -40.7085 -40.7085 -40.7085 -40.7084
   -40.7082 -40.7076 -40.7076 -40.7076 -40.7076 -40.7002 -40.6968 -40.6880
   -40.6847 -40.6738 -40.6738 -40.6738 -40.6738 -40.6738 -40.6738 -40.6737
   -40.6737 -40.6728 -40.6728 -40.6728 -40.6728 -40.6680 -40.6617 -40.6616
   -40.6616 -40.6615 -40.6607 -40.6607 -40.6556 -40.6543 -40.6474 -40.6446
   -40.6424 -40.6423 -40.6423 -40.6421 -40.6414 -40.6413 -40.6412 -40.6283
   -40.6260 -40.6253 -40.6253 -40.6253 -40.6252 -40.6243 -40.6243 -40.6130
   -40.5947 -40.5946 -40.5946 -40.5945 -40.5936 -40.5936 -40.5921 -40.5876
   -40.5792 -40.5498 -20.3574 -19.9301 -19.9104 -19.8720 -19.8186 -19.7790
   -19.7107 -19.6866 -19.6407 -19.5349 -19.4733 -19.4620 -19.3878 -19.3682
   -19.2843 -19.2671 -19.2074 -18.9457 -18.8753 -18.8509 -18.8211 -18.7898
   -18.7624 -18.7601 -18.7557 -18.7521 -18.7455 -18.7171 -18.6966 -18.6908
   -18.6846 -18.6769 -18.6368 -18.6231 -18.6126 -18.5994 -18.5925 -18.5875
   -18.5836 -18.5626 -18.5510 -18.5349 -18.5247 -18.5171 -18.5072 -18.4871
   -18.4698 -18.4513 -18.4463 -18.4405 -18.4187 -18.4004 -18.3864 -18.3698
   -18.3582 -18.3240 -18.3103 -18.2950 -18.2868 -18.2730 -18.2566 -18.2267
   -18.2203 -18.2138 -18.1908 -18.1719 -18.1646 -18.1532 -18.1404 -18.1394
   -18.1368 -18.1347 -18.1266 -18.1146 -18.1109 -18.1086 -18.1065 -18.1035
   -18.1016 -18.0941 -18.0904 -18.0860 -18.0789 -18.0688 -18.0504 -18.0468
   -18.0435 -18.0413 -18.0377 -18.0365 -18.0348 -18.0290 -18.0262 -18.0177
   -17.9926 -17.9844 -17.9760 -17.9742 -17.9657 -17.9614 -17.9326 -17.9303
   -17.9255 -17.9153 -17.9061 -17.8880 -17.8864 -17.8794 -17.8755 -17.8751
   -17.8579 -17.8577 -17.8573 -17.8560 -17.8547 -17.8544 -17.8448 -17.8421
   -17.8260 -17.8213 -17.8005 -17.7964 -17.7809 -17.7755 -17.7654 -17.7613
   -17.7573 -17.7565 -12.4649 -12.2989 -11.7994 -11.7672 -11.7299 -11.6973
   -11.6373 -11.5632 -11.5598 -11.5388 -11.5363 -11.5330 -11.5211 -11.5093
   -11.5002 -11.4973 -11.4729 -11.4438 -11.4330 -11.4248 -11.4158 -11.3878
   -11.3820 -11.3731 -11.3525 -11.3430 -11.3297 -11.3155 -11.3109 -11.3032
   -11.2981 -11.2962 -11.2914 -11.2753 -11.2517 -11.2439 -11.2383 -11.2294
   -11.2214 -11.2167 -11.2078 -11.2070 -11.1966 -11.1860 -11.1828 -11.1715
   -11.1643 -11.1531 -11.1278 -11.1216 -11.1039 -11.0767 -11.0558 -11.0329
   -11.0008 -10.9973 -10.9771 -10.9594 -10.9536 -10.9431 -10.9351 -10.9218
   -10.9023 -10.8909 -10.8737 -10.8723 -10.8672 -10.8651 -10.8510 -10.8498
   -10.8485 -10.8481 -10.8451 -10.8402 -10.8363 -10.8349 -10.8304 -10.8299
   -10.8233 -10.8213 -10.8207 -10.8167 -10.7864 -10.7814 -10.7811 -10.7804
   -10.7735 -10.7282 -10.6314 -10.5943 -10.5800 -10.5676 -10.5562 -10.5434
   -10.5163 -10.4675 -10.4347 -10.3981 -10.3143 -10.2942 -10.2760 -10.2351
   -10.2013 -10.1744 -10.1630 -10.1577 -10.1489 -10.1403 -10.1186 -10.0969
   -10.0912 -10.0812 -10.0752 -10.0705 -10.0650 -10.0593 -10.0437 -10.0385
    -9.9999  -9.9861  -9.9682  -9.9646  -9.9545  -9.9463  -9.9437  -9.9354
    -9.9277  -9.9154  -9.8970  -9.8818  -9.8728  -9.8555  -9.8393  -9.8224
    -9.8175  -9.8107  -9.7962  -9.7783  -9.7740  -9.7559  -9.7370  -9.7256
    -9.7090  -9.6995  -9.6755  -9.6669  -9.6636  -9.6489  -9.6407  -9.6144
    -9.6016  -9.5980  -9.5940  -9.5859  -9.5776  -9.5596  -9.5308  -9.5295
    -9.5282  -9.5252  -9.5139  -9.5062  -9.5010  -9.4973  -9.4943  -9.4842
    -9.4724  -9.4638  -9.4277  -9.4251  -9.4186  -9.3807  -9.3639  -9.3486
    -9.3122  -9.2780  -9.2694  -9.2643  -9.2569  -9.2467  -9.2409  -9.2319
    -9.2087  -9.1964  -9.1866  -9.1790  -9.1621  -9.1496  -9.1333  -9.1277
    -9.1048  -9.1029  -9.0993  -9.0860  -9.0807  -9.0766  -9.0576  -9.0527
    -9.0229  -9.0131  -9.0024  -8.9937  -8.9838  -8.9808  -8.9763  -8.9610
    -8.9551  -8.9461  -8.9292  -8.9272  -8.9262  -8.9247  -8.9237  -8.9179
    -8.9089  -8.9069  -8.9062  -8.8985  -8.8965  -8.8872  -8.8847  -8.8778
    -8.8772  -8.8715  -8.8691  -8.8566  -8.8336  -8.8318  -8.8312  -8.8288
    -8.8221  -8.8209  -8.8017  -8.7999  -8.7997  -8.7800  -8.7734  -8.7705
    -8.7696  -8.7599  -8.7546  -8.7347  -8.6977  -8.6915  -8.6879  -8.6541
    -8.6041  -8.5440  -8.5422  -8.5133  -8.4994  -8.4763  -8.4725  -8.4266
    -8.3960  -8.3832  -8.3382  -8.3120  -8.2929  -8.2492  -8.2396  -8.1652
    -8.1652  -8.1595  -8.1565  -8.1561  -8.1451  -8.1449  -8.1317  -8.1116
    -8.0970  -8.0713  -8.0237  -8.0114  -8.0062  -7.9947  -7.9525  -7.9436
    -7.8937  -7.8820  -7.8812  -7.8726  -7.8681  -7.8600  -7.8571  -7.8517
    -7.8461  -7.8421  -7.8389  -7.8371  -7.8336  -7.8281  -7.8253  -7.8211
    -7.8194  -7.8181  -7.8088  -7.8077  -7.8052  -7.8033  -7.8023  -7.8019
    -7.7993  -7.7965  -7.7949  -7.7909  -7.7752  -7.7731  -7.7709  -7.7674
    -7.7624  -7.7576  -7.7361  -7.7347  -7.7338  -7.7332  -7.7167  -7.7042
    -7.7035  -7.7024  -7.7022  -7.6935  -7.6872  -7.6707  -7.6572  -7.6496
    -7.6470  -7.6456  -7.6405  -7.6374  -7.6353  -7.6235  -7.6225  -7.6119
    -7.6029  -7.6017  -7.6012  -7.5982  -7.5880  -7.5829  -7.5401  -7.5092
    -7.5027  -7.4957  -7.4931  -7.4741  -7.4724  -7.4647  -7.4097  -7.3492
    -7.2816  -7.2710  -7.2122  -7.2094  -7.2053  -7.2033  -7.1797  -7.1754
    -7.1659  -7.1522  -7.1454  -7.1287  -7.1192  -7.1071  -7.0910  -7.0732
    -7.0642  -7.0533  -7.0428  -7.0308  -7.0245  -7.0140  -6.9930  -6.9712
    -6.9551  -6.9527  -6.9501  -6.9372  -6.9278  -6.9108  -6.8977  -6.8951
    -6.8821  -6.8749  -6.8575  -6.8436  -6.8173  -6.7944  -6.7754  -6.7348
    -6.7289  -6.7180  -6.6774  -6.6762  -6.6640  -6.6533  -6.6491  -6.6438
    -6.6427  -6.6415  -6.6390  -6.6263  -6.6256  -6.6241  -6.6237  -6.6167
    -6.6166  -6.6163  -6.6162  -6.6100  -6.5821  -6.5635  -6.5452  -6.5262
    -6.4810  -6.4666  -6.4513  -6.4032  -6.3941  -6.3678  -6.3626  -6.3541
    -6.3523  -6.3386  -6.3269  -6.3188  -6.3157  -6.3152  -6.3106  -6.3103
    -6.3007  -6.2981  -6.2913  -6.2898  -6.2780  -6.2593  -6.2441  -6.2429
    -6.2398  -6.2334  -6.2061  -6.1842  -6.1147  -6.0776  -6.0296  -6.0247
    -5.9794  -5.9659  -5.9422  -5.9085  -5.8918  -5.8807  -5.8580  -5.8333
    -5.7767  -5.7108  -5.6893  -5.6630  -5.6257  -5.6167  -5.5800  -5.4151
    -5.2352  -4.3081  -4.2082  -4.1331  -4.1272  -4.0939  -4.0795  -3.9768
    -3.9667  -3.9616  -3.9529  -3.8970  -3.8895  -3.8799  -3.8775  -3.8680
    -3.8619  -3.8504  -3.8465  -3.8358  -3.8349  -3.8083  -3.7837  -3.7388
    -3.7213  -3.6924  -3.6694  -3.6558  -3.6420  -3.6402  -3.6339  -3.6191
    -3.6007  -3.5918  -3.5887  -3.5817  -3.5668  -3.5607  -3.5516  -3.5441
    -3.5431  -3.5238  -3.5217  -3.5203  -3.5107  -3.5092  -3.5026  -3.4971
    -3.4897  -3.4867  -3.4845  -3.4655  -3.4612  -3.4548  -3.4479  -3.4376
    -3.4251  -3.3917  -3.3882  -3.3873  -3.3823  -3.3802  -3.3747  -3.3742
    -3.3669  -3.3453  -3.3381  -3.3307  -3.3211  -3.3185  -3.3164  -3.3157
    -3.3137  -3.3071  -3.3007  -3.2870  -3.2826  -3.2765  -3.2718  -3.2638
    -3.2626  -3.2493  -3.2486  -3.2463  -3.2442  -3.2294  -3.2243  -3.2227
    -3.2125  -3.2078  -3.2042  -3.1999  -3.1978  -3.1978  -3.1953  -3.1620
    -3.1455  -3.1336  -3.1250  -3.1144  -3.1044  -3.1015  -3.0945  -3.0743
    -3.0672  -3.0622  -3.0585  -3.0569  -3.0564  -3.0561  -3.0499  -3.0459
    -3.0426  -3.0417  -3.0371  -3.0351  -3.0310  -3.0275  -3.0228  -3.0183
    -3.0107  -3.0067  -3.0031  -3.0012  -2.9938  -2.9880  -2.9832  -2.9814
    -2.9756  -2.9705  -2.9679  -2.9650  -2.9479  -2.9419  -2.9392  -2.9295
    -2.9258  -2.9185  -2.9127  -2.9054  -2.8852  -2.8771  -2.8380  -2.8323
    -2.8247  -2.8188  -2.7839  -2.7531  -2.7507  -2.7431  -2.6670  -2.6487
    -2.6331  -2.6178  -2.6112  -2.6061  -2.5890  -2.5818  -2.5704  -2.5659
    -2.5631  -2.5609  -2.5535  -2.5478  -2.5151  -2.4705  -2.4537  -2.4335
    -2.4301  -2.4247  -2.4231  -2.4209  -2.4112  -2.3965  -2.3795  -2.3778

          k =-0.5000-0.2887 0.0000 (386352 PWs)   bands (ev):

  -103.0116-102.0739 -88.9787 -71.3806 -71.3690 -71.3354 -71.2974 -71.2927
   -71.2761 -71.2742 -70.5017 -70.4849 -70.4459 -70.3917 -70.3779 -70.3554
   -70.3514 -66.6593 -66.6588 -66.6568 -66.6568 -66.6568 -66.6567 -66.6555
   -66.6555 -66.6461 -66.6461 -66.6461 -66.6461 -66.6448 -66.6448 -66.6405
   -66.6341 -66.6321 -66.6311 -66.6310 -66.6310 -66.6310 -66.6310 -66.6310
   -66.6310 -66.6308 -66.6297 -66.6297 -66.6297 -66.6297 -66.6266 -66.6266
   -66.6266 -66.6265 -66.6253 -66.6253 -66.6232 -66.6214 -66.6204 -66.6204
   -66.6204 -66.6203 -66.6203 -66.6203 -66.6203 -66.6201 -66.6190 -66.6190
   -66.6190 -66.6190 -66.6188 -66.6160 -66.6159 -66.6159 -66.6159 -66.6158
   -66.6146 -66.6146 -66.6081 -66.6040 -66.6004 -66.5922 -66.5820 -66.5770
   -66.5428 -57.3838 -57.2355 -57.0439 -56.5957 -56.2568 -55.9612 -54.8265
   -54.7789 -54.6954 -40.9588 -40.9588 -40.9588 -40.9588 -40.9588 -40.9588
   -40.9587 -40.9586 -40.9581 -40.9581 -40.9581 -40.9581 -40.9563 -40.9544
   -40.9329 -40.9320 -40.9320 -40.9319 -40.9319 -40.9313 -40.9313 -40.9257
   -40.9238 -40.9199 -40.9199 -40.9199 -40.9198 -40.9192 -40.9192 -40.9114
   -40.8987 -40.8856 -40.8692 -40.8692 -40.8692 -40.8692 -40.8692 -40.8692
   -40.8691 -40.8691 -40.8685 -40.8685 -40.8685 -40.8685 -40.8536 -40.8505
   -40.8456 -40.8419 -40.8360 -40.8216 -40.8104 -40.8104 -40.8104 -40.8103
   -40.8098 -40.8097 -40.8087 -40.8010 -40.8009 -40.8009 -40.8009 -40.8001
   -40.8001 -40.7897 -40.7896 -40.7895 -40.7895 -40.7895 -40.7889 -40.7889
   -40.7848 -40.7804 -40.7740 -40.7707 -40.7648 -40.7600 -40.7599 -40.7599
   -40.7599 -40.7599 -40.7599 -40.7599 -40.7598 -40.7592 -40.7592 -40.7592
   -40.7592 -40.7561 -40.7552 -40.7512 -40.7512 -40.7512 -40.7511 -40.7505
   -40.7505 -40.7503 -40.7431 -40.7404 -40.7395 -40.7395 -40.7394 -40.7394
   -40.7390 -40.7389 -40.7389 -40.7389 -40.7389 -40.7388 -40.7388 -40.7387
   -40.7386 -40.7386 -40.7382 -40.7382 -40.7381 -40.7381 -40.7317 -40.7302
   -40.7302 -40.7302 -40.7302 -40.7295 -40.7295 -40.7279 -40.7192 -40.7156
   -40.7141 -40.7086 -40.7086 -40.7085 -40.7085 -40.7085 -40.7085 -40.7084
   -40.7083 -40.7076 -40.7076 -40.7076 -40.7076 -40.6971 -40.6934 -40.6894
   -40.6840 -40.6811 -40.6738 -40.6738 -40.6738 -40.6738 -40.6738 -40.6737
   -40.6737 -40.6737 -40.6728 -40.6728 -40.6728 -40.6728 -40.6617 -40.6616
   -40.6616 -40.6615 -40.6607 -40.6607 -40.6584 -40.6527 -40.6471 -40.6446
   -40.6424 -40.6423 -40.6423 -40.6421 -40.6414 -40.6413 -40.6400 -40.6268
   -40.6253 -40.6253 -40.6253 -40.6252 -40.6243 -40.6243 -40.6199 -40.6198
   -40.5952 -40.5947 -40.5946 -40.5946 -40.5946 -40.5936 -40.5936 -40.5832
   -40.5740 -40.5537 -20.3558 -19.9333 -19.9105 -19.8766 -19.8191 -19.7826
   -19.7111 -19.6879 -19.6397 -19.5158 -19.4733 -19.4567 -19.3879 -19.3636
   -19.2866 -19.2653 -19.2238 -18.9506 -18.8777 -18.8395 -18.8164 -18.8133
   -18.7623 -18.7604 -18.7572 -18.7555 -18.7339 -18.7228 -18.6949 -18.6906
   -18.6840 -18.6816 -18.6361 -18.6222 -18.6108 -18.5942 -18.5937 -18.5863
   -18.5792 -18.5667 -18.5554 -18.5253 -18.5208 -18.5163 -18.5081 -18.4839
   -18.4627 -18.4494 -18.4473 -18.4401 -18.4207 -18.3955 -18.3919 -18.3683
   -18.3615 -18.3250 -18.3078 -18.3043 -18.2871 -18.2752 -18.2526 -18.2310
   -18.2243 -18.2112 -18.1890 -18.1733 -18.1628 -18.1548 -18.1413 -18.1396
   -18.1367 -18.1357 -18.1266 -18.1145 -18.1118 -18.1092 -18.1080 -18.1026
   -18.1012 -18.0960 -18.0888 -18.0858 -18.0787 -18.0690 -18.0488 -18.0483
   -18.0439 -18.0412 -18.0376 -18.0369 -18.0348 -18.0277 -18.0255 -18.0186
   -17.9872 -17.9832 -17.9787 -17.9740 -17.9679 -17.9608 -17.9308 -17.9288
   -17.9269 -17.9159 -17.9050 -17.8889 -17.8842 -17.8797 -17.8782 -17.8749
   -17.8573 -17.8571 -17.8570 -17.8559 -17.8557 -17.8547 -17.8437 -17.8411
   -17.8250 -17.8198 -17.8006 -17.7958 -17.7819 -17.7758 -17.7660 -17.7626
   -17.7573 -17.7569 -12.4667 -12.2758 -11.8150 -11.7673 -11.7506 -11.6926
   -11.6571 -11.5654 -11.5587 -11.5454 -11.5367 -11.5359 -11.5206 -11.5130
   -11.5004 -11.4943 -11.4715 -11.4455 -11.4290 -11.4216 -11.4192 -11.3911
   -11.3830 -11.3719 -11.3575 -11.3428 -11.3328 -11.3146 -11.3109 -11.3037
   -11.2982 -11.2943 -11.2921 -11.2706 -11.2542 -11.2417 -11.2385 -11.2327
   -11.2197 -11.2129 -11.2081 -11.2038 -11.1975 -11.1861 -11.1800 -11.1722
   -11.1642 -11.1497 -11.1210 -11.1121 -11.0984 -11.0704 -11.0474 -11.0276
   -10.9942 -10.9914 -10.9729 -10.9666 -10.9528 -10.9506 -10.9391 -10.9157
   -10.9126 -10.9004 -10.8748 -10.8725 -10.8672 -10.8624 -10.8530 -10.8493
   -10.8484 -10.8482 -10.8456 -10.8406 -10.8370 -10.8349 -10.8310 -10.8299
   -10.8270 -10.8217 -10.8203 -10.8182 -10.8064 -10.7815 -10.7810 -10.7806
   -10.7795 -10.7155 -10.6326 -10.5887 -10.5742 -10.5618 -10.5592 -10.5334
   -10.4961 -10.4652 -10.4292 -10.3879 -10.3167 -10.2837 -10.2782 -10.2264
   -10.2094 -10.1807 -10.1615 -10.1543 -10.1526 -10.1427 -10.1048 -10.0958
   -10.0936 -10.0842 -10.0741 -10.0720 -10.0626 -10.0505 -10.0486 -10.0427
   -10.0006  -9.9811  -9.9720  -9.9609  -9.9519  -9.9476  -9.9353  -9.9315
    -9.9291  -9.9110  -9.9013  -9.8899  -9.8747  -9.8554  -9.8346  -9.8280
    -9.8153  -9.8091  -9.7907  -9.7800  -9.7708  -9.7496  -9.7411  -9.7340
    -9.7118  -9.6974  -9.6839  -9.6703  -9.6621  -9.6564  -9.6380  -9.6187
    -9.6082  -9.6048  -9.5925  -9.5825  -9.5798  -9.5611  -9.5340  -9.5317
    -9.5293  -9.5247  -9.5112  -9.5109  -9.5015  -9.4979  -9.4960  -9.4910
    -9.4740  -9.4656  -9.4355  -9.4294  -9.4197  -9.3848  -9.3711  -9.3506
    -9.3026  -9.2810  -9.2694  -9.2649  -9.2524  -9.2461  -9.2434  -9.2193
    -9.2131  -9.1934  -9.1856  -9.1799  -9.1554  -9.1541  -9.1360  -9.1265
    -9.1120  -9.1037  -9.0959  -9.0843  -9.0783  -9.0731  -9.0634  -9.0507
    -9.0265  -9.0098  -9.0027  -8.9968  -8.9906  -8.9832  -8.9760  -8.9685
    -8.9503  -8.9447  -8.9304  -8.9280  -8.9267  -8.9253  -8.9232  -8.9165
    -8.9105  -8.9066  -8.9062  -8.8971  -8.8964  -8.8928  -8.8838  -8.8780
    -8.8777  -8.8755  -8.8677  -8.8551  -8.8455  -8.8315  -8.8296  -8.8280
    -8.8232  -8.8230  -8.8158  -8.8013  -8.7987  -8.7749  -8.7707  -8.7697
    -8.7662  -8.7593  -8.7499  -8.7122  -8.6962  -8.6941  -8.6855  -8.6657
    -8.5863  -8.5612  -8.5431  -8.5391  -8.5003  -8.4767  -8.4628  -8.4197
    -8.3928  -8.3805  -8.3323  -8.3273  -8.3061  -8.2387  -8.1787  -8.1726
    -8.1652  -8.1649  -8.1563  -8.1556  -8.1450  -8.1446  -8.1311  -8.1086
    -8.0879  -8.0871  -8.0429  -8.0090  -8.0058  -7.9813  -7.9487  -7.9266
    -7.9056  -7.8841  -7.8780  -7.8754  -7.8684  -7.8651  -7.8573  -7.8514
    -7.8461  -7.8434  -7.8397  -7.8334  -7.8320  -7.8262  -7.8212  -7.8201
    -7.8188  -7.8182  -7.8085  -7.8074  -7.8046  -7.8029  -7.8019  -7.8014
    -7.7983  -7.7964  -7.7941  -7.7918  -7.7790  -7.7712  -7.7696  -7.7675
    -7.7660  -7.7519  -7.7354  -7.7346  -7.7338  -7.7333  -7.7128  -7.7047
    -7.7039  -7.7031  -7.7020  -7.6891  -7.6873  -7.6763  -7.6682  -7.6474
    -7.6461  -7.6452  -7.6421  -7.6393  -7.6310  -7.6232  -7.6229  -7.6123
    -7.6041  -7.6017  -7.6008  -7.5939  -7.5920  -7.5844  -7.5419  -7.5086
    -7.5017  -7.4985  -7.4943  -7.4859  -7.4707  -7.4510  -7.4044  -7.3539
    -7.2689  -7.2545  -7.2289  -7.2083  -7.2052  -7.2043  -7.1973  -7.1616
    -7.1529  -7.1513  -7.1375  -7.1293  -7.1235  -7.1077  -7.0770  -7.0722
    -7.0621  -7.0561  -7.0402  -7.0334  -7.0164  -7.0103  -6.9918  -6.9796
    -6.9672  -6.9532  -6.9499  -6.9325  -6.9250  -6.9052  -6.8991  -6.8962
    -6.8890  -6.8784  -6.8732  -6.8395  -6.8204  -6.8001  -6.7847  -6.7767
    -6.7321  -6.7161  -6.7142  -6.6737  -6.6651  -6.6560  -6.6487  -6.6436
    -6.6434  -6.6417  -6.6372  -6.6290  -6.6259  -6.6254  -6.6244  -6.6221
    -6.6166  -6.6166  -6.6163  -6.6160  -6.5893  -6.5702  -6.5384  -6.5265
    -6.4733  -6.4602  -6.4402  -6.4076  -6.3797  -6.3638  -6.3616  -6.3546
    -6.3522  -6.3423  -6.3295  -6.3207  -6.3150  -6.3147  -6.3101  -6.3099
    -6.2998  -6.2942  -6.2921  -6.2779  -6.2605  -6.2481  -6.2443  -6.2402
    -6.2391  -6.2314  -6.2063  -6.1693  -6.1333  -6.0386  -6.0296  -6.0099
    -5.9796  -5.9633  -5.9332  -5.9119  -5.8904  -5.8841  -5.8743  -5.8310
    -5.7887  -5.7530  -5.7031  -5.6620  -5.6288  -5.6063  -5.5409  -5.4190
    -5.2391  -4.3247  -4.1755  -4.1415  -4.1317  -4.0962  -4.0731  -3.9868
    -3.9729  -3.9637  -3.9583  -3.9005  -3.8895  -3.8795  -3.8782  -3.8664
    -3.8652  -3.8497  -3.8488  -3.8357  -3.8355  -3.8062  -3.7766  -3.7488
    -3.7358  -3.6966  -3.6667  -3.6532  -3.6392  -3.6367  -3.6346  -3.6142
    -3.5941  -3.5902  -3.5875  -3.5707  -3.5634  -3.5608  -3.5560  -3.5472
    -3.5444  -3.5295  -3.5228  -3.5183  -3.5134  -3.5106  -3.5044  -3.4990
    -3.4884  -3.4850  -3.4822  -3.4687  -3.4646  -3.4527  -3.4512  -3.4334
    -3.4273  -3.3927  -3.3892  -3.3873  -3.3817  -3.3786  -3.3771  -3.3742
    -3.3674  -3.3431  -3.3381  -3.3261  -3.3198  -3.3176  -3.3154  -3.3143
    -3.3131  -3.3085  -3.2965  -3.2848  -3.2797  -3.2735  -3.2677  -3.2635
    -3.2602  -3.2522  -3.2482  -3.2446  -3.2386  -3.2303  -3.2239  -3.2215
    -3.2153  -3.2091  -3.2037  -3.1979  -3.1978  -3.1970  -3.1805  -3.1599
    -3.1368  -3.1315  -3.1248  -3.1174  -3.1095  -3.1007  -3.0954  -3.0731
    -3.0663  -3.0616  -3.0583  -3.0575  -3.0567  -3.0561  -3.0503  -3.0485
    -3.0442  -3.0385  -3.0367  -3.0296  -3.0274  -3.0260  -3.0190  -3.0148
    -3.0139  -3.0084  -3.0068  -3.0033  -2.9989  -2.9880  -2.9836  -2.9816
    -2.9800  -2.9705  -2.9673  -2.9542  -2.9498  -2.9427  -2.9342  -2.9300
    -2.9234  -2.9180  -2.9131  -2.9084  -2.8954  -2.8832  -2.8426  -2.8328
    -2.8268  -2.8197  -2.7794  -2.7695  -2.7572  -2.7335  -2.6616  -2.6473
    -2.6314  -2.6195  -2.6145  -2.6066  -2.5930  -2.5812  -2.5716  -2.5670
    -2.5652  -2.5610  -2.5574  -2.5435  -2.5266  -2.4607  -2.4506  -2.4330
    -2.4309  -2.4271  -2.4197  -2.4177  -2.4166  -2.3871  -2.3778  -2.3772

          k =-0.5000-0.8660 0.0000 (386352 PWs)   bands (ev):

  -103.0116-102.0739 -88.9787 -71.3806 -71.3690 -71.3354 -71.2974 -71.2927
   -71.2761 -71.2742 -70.5017 -70.4849 -70.4459 -70.3917 -70.3779 -70.3554
   -70.3514 -66.6601 -66.6577 -66.6569 -66.6568 -66.6568 -66.6566 -66.6555
   -66.6555 -66.6461 -66.6461 -66.6461 -66.6460 -66.6448 -66.6448 -66.6413
   -66.6361 -66.6313 -66.6311 -66.6310 -66.6310 -66.6310 -66.6310 -66.6308
   -66.6307 -66.6297 -66.6297 -66.6297 -66.6297 -66.6276 -66.6267 -66.6266
   -66.6266 -66.6264 -66.6253 -66.6253 -66.6240 -66.6219 -66.6207 -66.6203
   -66.6203 -66.6203 -66.6203 -66.6203 -66.6201 -66.6200 -66.6190 -66.6190
   -66.6190 -66.6190 -66.6188 -66.6172 -66.6159 -66.6159 -66.6159 -66.6158
   -66.6146 -66.6146 -66.6080 -66.6036 -66.6007 -66.5919 -66.5821 -66.5771
   -66.5428 -57.3838 -57.2355 -57.0439 -56.5957 -56.2569 -55.9612 -54.8265
   -54.7789 -54.6954 -40.9590 -40.9588 -40.9588 -40.9588 -40.9588 -40.9587
   -40.9587 -40.9585 -40.9581 -40.9581 -40.9581 -40.9581 -40.9561 -40.9412
   -40.9381 -40.9338 -40.9320 -40.9320 -40.9320 -40.9318 -40.9313 -40.9313
   -40.9289 -40.9199 -40.9199 -40.9199 -40.9198 -40.9192 -40.9192 -40.9129
   -40.9035 -40.8767 -40.8692 -40.8692 -40.8692 -40.8692 -40.8692 -40.8692
   -40.8691 -40.8691 -40.8685 -40.8685 -40.8685 -40.8685 -40.8594 -40.8469
   -40.8441 -40.8355 -40.8335 -40.8217 -40.8105 -40.8104 -40.8104 -40.8103
   -40.8098 -40.8097 -40.8059 -40.8010 -40.8010 -40.8009 -40.8008 -40.8001
   -40.8001 -40.7908 -40.7896 -40.7895 -40.7895 -40.7895 -40.7889 -40.7889
   -40.7889 -40.7835 -40.7734 -40.7655 -40.7636 -40.7601 -40.7601 -40.7599
   -40.7599 -40.7599 -40.7599 -40.7597 -40.7597 -40.7592 -40.7592 -40.7592
   -40.7592 -40.7591 -40.7543 -40.7523 -40.7513 -40.7512 -40.7512 -40.7511
   -40.7505 -40.7505 -40.7427 -40.7405 -40.7395 -40.7395 -40.7395 -40.7393
   -40.7392 -40.7389 -40.7389 -40.7389 -40.7389 -40.7389 -40.7387 -40.7386
   -40.7386 -40.7386 -40.7382 -40.7382 -40.7381 -40.7381 -40.7313 -40.7302
   -40.7302 -40.7302 -40.7302 -40.7295 -40.7295 -40.7277 -40.7246 -40.7154
   -40.7150 -40.7089 -40.7085 -40.7085 -40.7085 -40.7085 -40.7084 -40.7083
   -40.7082 -40.7076 -40.7076 -40.7076 -40.7076 -40.6968 -40.6911 -40.6905
   -40.6846 -40.6815 -40.6738 -40.6738 -40.6738 -40.6738 -40.6738 -40.6738
   -40.6737 -40.6736 -40.6728 -40.6728 -40.6728 -40.6728 -40.6617 -40.6616
   -40.6616 -40.6615 -40.6607 -40.6607 -40.6605 -40.6534 -40.6494 -40.6484
   -40.6424 -40.6423 -40.6423 -40.6421 -40.6414 -40.6413 -40.6330 -40.6272
   -40.6253 -40.6253 -40.6253 -40.6252 -40.6243 -40.6243 -40.6240 -40.6104
   -40.5974 -40.5947 -40.5947 -40.5947 -40.5945 -40.5936 -40.5936 -40.5783
   -40.5719 -40.5598 -20.3540 -19.9412 -19.9107 -19.8847 -19.8187 -19.7879
   -19.7076 -19.6893 -19.6064 -19.5111 -19.4733 -19.4552 -19.3901 -19.3629
   -19.2948 -19.2651 -19.2373 -18.9771 -18.8980 -18.8422 -18.8085 -18.7679
   -18.7642 -18.7601 -18.7576 -18.7388 -18.7291 -18.7145 -18.7069 -18.6869
   -18.6832 -18.6608 -18.6452 -18.6430 -18.6272 -18.5974 -18.5939 -18.5866
   -18.5771 -18.5661 -18.5627 -18.5397 -18.5234 -18.5147 -18.5095 -18.4910
   -18.4550 -18.4489 -18.4449 -18.4361 -18.4026 -18.3910 -18.3830 -18.3717
   -18.3639 -18.3295 -18.2998 -18.2926 -18.2876 -18.2644 -18.2551 -18.2279
   -18.2222 -18.2105 -18.2005 -18.1795 -18.1581 -18.1480 -18.1449 -18.1406
   -18.1364 -18.1346 -18.1324 -18.1222 -18.1105 -18.1100 -18.1081 -18.1051
   -18.1008 -18.0915 -18.0895 -18.0847 -18.0811 -18.0777 -18.0495 -18.0468
   -18.0463 -18.0426 -18.0403 -18.0352 -18.0337 -18.0323 -18.0265 -18.0184
   -17.9925 -17.9834 -17.9776 -17.9730 -17.9721 -17.9671 -17.9323 -17.9301
   -17.9264 -17.9193 -17.9007 -17.8880 -17.8839 -17.8804 -17.8757 -17.8623
   -17.8574 -17.8571 -17.8570 -17.8556 -17.8549 -17.8539 -17.8429 -17.8414
   -17.8239 -17.8208 -17.7996 -17.7965 -17.7807 -17.7764 -17.7655 -17.7628
   -17.7572 -17.7569 -12.4631 -12.2683 -11.8018 -11.7793 -11.7500 -11.7327
   -11.6523 -11.5996 -11.5600 -11.5406 -11.5368 -11.5345 -11.5305 -11.5234
   -11.5054 -11.4802 -11.4589 -11.4417 -11.4260 -11.4247 -11.4194 -11.3983
   -11.3677 -11.3605 -11.3541 -11.3403 -11.3197 -11.3123 -11.3118 -11.3085
   -11.2989 -11.2917 -11.2907 -11.2631 -11.2499 -11.2410 -11.2358 -11.2278
   -11.2211 -11.2141 -11.2058 -11.2021 -11.1888 -11.1842 -11.1812 -11.1638
   -11.1590 -11.1381 -11.1306 -11.1206 -11.0932 -11.0843 -11.0619 -11.0354
   -11.0007 -10.9971 -10.9941 -10.9631 -10.9517 -10.9505 -10.9462 -10.9330
   -10.8985 -10.8839 -10.8823 -10.8679 -10.8599 -10.8560 -10.8525 -10.8498
   -10.8492 -10.8485 -10.8469 -10.8426 -10.8372 -10.8321 -10.8308 -10.8298
   -10.8255 -10.8227 -10.8207 -10.8177 -10.7937 -10.7817 -10.7809 -10.7806
   -10.7765 -10.6893 -10.6554 -10.6014 -10.5751 -10.5697 -10.5624 -10.5421
   -10.5014 -10.4530 -10.4289 -10.3734 -10.3187 -10.2799 -10.2627 -10.2203
   -10.1948 -10.1722 -10.1696 -10.1549 -10.1460 -10.1323 -10.1234 -10.1038
   -10.0851 -10.0743 -10.0721 -10.0698 -10.0601 -10.0571 -10.0494 -10.0395
   -10.0152  -9.9791  -9.9710  -9.9707  -9.9659  -9.9384  -9.9337  -9.9287
    -9.9155  -9.9123  -9.8975  -9.8742  -9.8683  -9.8533  -9.8389  -9.8261
    -9.8220  -9.8061  -9.8010  -9.7983  -9.7507  -9.7368  -9.7310  -9.7116
    -9.7034  -9.7020  -9.6900  -9.6819  -9.6616  -9.6459  -9.6428  -9.6368
    -9.6088  -9.6040  -9.5949  -9.5778  -9.5740  -9.5717  -9.5605  -9.5302
    -9.5279  -9.5208  -9.5173  -9.5110  -9.5012  -9.4967  -9.4958  -9.4937
    -9.4806  -9.4771  -9.4605  -9.4483  -9.4345  -9.3903  -9.3692  -9.3260
    -9.3027  -9.2952  -9.2730  -9.2645  -9.2530  -9.2472  -9.2334  -9.2260
    -9.2069  -9.2054  -9.1934  -9.1689  -9.1625  -9.1571  -9.1295  -9.1227
    -9.1155  -9.1036  -9.0886  -9.0829  -9.0805  -9.0700  -9.0381  -9.0326
    -9.0314  -9.0209  -9.0074  -8.9997  -8.9874  -8.9862  -8.9746  -8.9700
    -8.9432  -8.9365  -8.9302  -8.9271  -8.9267  -8.9215  -8.9189  -8.9164
    -8.9091  -8.9065  -8.9058  -8.8997  -8.8957  -8.8948  -8.8918  -8.8818
    -8.8780  -8.8775  -8.8765  -8.8461  -8.8399  -8.8307  -8.8299  -8.8290
    -8.8238  -8.8213  -8.8183  -8.8004  -8.7997  -8.7907  -8.7709  -8.7701
    -8.7695  -8.7570  -8.7458  -8.7178  -8.6994  -8.6890  -8.6866  -8.6433
    -8.6039  -8.5517  -8.5409  -8.5358  -8.4980  -8.4793  -8.4737  -8.4544
    -8.3996  -8.3921  -8.3697  -8.3311  -8.2643  -8.2497  -8.1735  -8.1654
    -8.1653  -8.1573  -8.1569  -8.1494  -8.1458  -8.1437  -8.1360  -8.1100
    -8.0923  -8.0444  -8.0074  -8.0059  -7.9989  -7.9821  -7.9470  -7.9390
    -7.9050  -7.8978  -7.8834  -7.8769  -7.8702  -7.8675  -7.8610  -7.8532
    -7.8472  -7.8414  -7.8385  -7.8373  -7.8350  -7.8318  -7.8210  -7.8195
    -7.8183  -7.8156  -7.8140  -7.8070  -7.8057  -7.8037  -7.8016  -7.8008
    -7.7998  -7.7960  -7.7954  -7.7844  -7.7744  -7.7690  -7.7673  -7.7672
    -7.7620  -7.7351  -7.7347  -7.7341  -7.7337  -7.7113  -7.7066  -7.7047
    -7.7035  -7.7017  -7.6978  -7.6908  -7.6857  -7.6777  -7.6757  -7.6482
    -7.6471  -7.6444  -7.6417  -7.6382  -7.6375  -7.6229  -7.6222  -7.6158
    -7.6098  -7.6020  -7.6016  -7.5950  -7.5914  -7.5758  -7.5680  -7.5219
    -7.5001  -7.4985  -7.4962  -7.4846  -7.4604  -7.4341  -7.3855  -7.3407
    -7.2806  -7.2238  -7.2116  -7.2105  -7.2053  -7.2015  -7.1833  -7.1794
[...]
     atom  186 type  2   force =    -0.00001094   -0.00001296    0.00001033
     atom  187 type  1   force =    -0.00001476   -0.00003392   -0.00003054
     atom  188 type  1   force =    -0.00003652   -0.00008433    0.00004055
     atom  189 type  2   force =    -0.00011222   -0.00009963    0.00010310
     atom  190 type  2   force =    -0.00001762   -0.00002785   -0.00001947
     atom  191 type  2   force =    -0.00001608   -0.00002739   -0.00001324
     atom  192 type  2   force =    -0.00014750   -0.00008552   -0.00014649
     atom  193 type  3   force =     0.00205355    0.00249479    0.00063808
     atom  194 type  3   force =     0.00231173    0.00091142   -0.00090673
     atom  195 type  4   force =     0.00020443   -0.00022915    0.00000086

     Total force =     0.004435     Total SCF correction =     0.001168
     SCF correction compared to forces is large: reduce conv_thr to get better values
     Energy error            =      1.5E-05 Ry
     Gradient error          =      2.5E-03 Ry/Bohr

     number of scf cycles    =  89
     number of bfgs steps    =  75

     energy             old  =  -35654.9574334849 Ry
     energy             new  =  -35654.9574483163 Ry

     CASE: energy            _new < energy            _old


     WARNING: bfgs curvature condition failed, Theta= 0.846
     new trust radius        =       0.0025435747 bohr
     new conv_thr            =       0.0000000100 Ry


ATOMIC_POSITIONS (angstrom)
Mo               0.0000119917        1.8193638619       -9.1672481230    0   0   0
Mo               1.5756136568        0.9097075315       -3.0554901653    0   0   0
S                0.0000188998        1.8193822938       -4.6232556019    0   0   0
S                1.5756321638        0.9096773839       -7.6014065489    0   0   0
S                1.5756326175        0.9096785128      -10.7330757790    0   0   0
S                0.0000189190        1.8193860094       -1.4877129945    0   0   0
Mo               0.0002204765        1.8176361453        3.0567821614
Mo               1.5744028550        0.8946045005        9.1582711792
S                0.0002009773        1.7926439116        7.5792322457
S                1.5759552392        0.9078158470        4.6246397111
S                1.5760237612        0.9081638186        1.4893294368
S               -0.0041081098        1.8106705683       10.7182508715
Mo              -1.5756053507        4.5484193819       -9.1672481230    0   0   0
Mo               0.0000378379        3.6387394919       -3.0554952701    0   0   0
S               -1.5755913433        4.5484363582       -4.6232494962    0   0   0
S                0.0000148214        3.6387329039       -7.6014065489    0   0   0
S                0.0000152751        3.6387340328      -10.7330757790    0   0   0
S               -1.5755906502        4.5484413613       -1.4877305502    0   0   0
Mo              -1.5758853334        4.5470472601        3.0568219296
Mo              -0.0043674747        3.6162467468        9.1367808053
S               -1.5859354198        4.5367012920        7.5751724779
S               -0.0006543483        3.6367767134        4.6240865793
S                0.0004804912        3.6375725821        1.4895580754
S               -1.5801929630        4.5147641494       10.7164820557
Mo              -3.1512226931        7.2774749019       -9.1672481230    0   0   0
Mo              -1.5755910988        6.3678216792       -3.0555115988    0   0   0
S               -3.1512162438        7.2774954350       -4.6232578178    0   0   0
S               -1.5756025210        6.3677884239       -7.6014065489    0   0   0
S               -1.5756020673        6.3677895528      -10.7330757790    0   0   0
S               -3.1512127704        7.2774877076       -1.4877200710    0   0   0
Mo              -3.1513535144        7.2763195404        3.0573886275
Mo              -1.5994610085        6.3460295973        9.1581859036
S               -3.1686238970        7.2707732624        7.6008960250
S               -1.5759521789        6.3662897339        4.6249600436
S               -1.5756325792        6.3667147840        1.4895242291
S               -3.1402985514        7.2588080554       10.7507379212
Mo              -4.7268400355       10.0065304219       -9.1672481230    0   0   0
Mo              -3.1512405618        9.0968403586       -3.0554816746    0   0   0
S               -4.7268341792       10.0065523623       -4.6232463762    0   0   0
S               -3.1512198634        9.0968439439       -7.6014065489    0   0   0
S               -3.1512194097        9.0968450728      -10.7330757790    0   0   0
S               -4.7268370797       10.0065537885       -1.4877176751    0   0   0
Mo              -4.7265567767       10.0048496399        3.0571525033
Mo              -3.1615824155        9.0796048706        9.1870355266
S               -4.7248795701        9.9824220077        7.6025633917
S               -3.1504763029        9.0958090298        4.6251356859
S               -3.1513155584        9.0953380944        1.4891062623
S               -4.7339227010       10.0108818516       10.7461649054
Mo               3.1512517547        1.8193638619       -9.1672481230    0   0   0
Mo               4.7269020221        0.9097289540       -3.0554823951    0   0   0
S                3.1512612351        1.8193882564       -4.6232320683    0   0   0
S                4.7268719268        0.9096773839       -7.6014065489    0   0   0
S                4.7268723805        0.9096785128      -10.7330757790    0   0   0
S                3.1512592485        1.8193890201       -1.4877261251    0   0   0
Mo               3.1516526328        1.8177353950        3.0571559283
Mo               4.7213821285        0.9053363305        9.1775706056
S                3.1557389015        1.7973086519        7.5902881907
S                4.7270133656        0.9072545086        4.6248865183
S                4.7271659091        0.9086644067        1.4891662788
S                3.1352982133        1.8084816874       10.7376936476
Mo               1.5756344123        4.5484193819       -9.1672481230    0   0   0
Mo               3.1512756394        3.6387769522       -3.0554814834    0   0   0
S                1.5756504879        4.5484423799       -4.6232390542    0   0   0
S                3.1512545844        3.6387329039       -7.6014065489    0   0   0
S                3.1512550381        3.6387340328      -10.7330757790    0   0   0
S                1.5756466253        4.5484431864       -1.4877251801    0   0   0
Mo               1.5758728975        4.5470154307        3.0580180821
Mo               3.1420841443        3.6121506803        9.1596876218
S                1.5769295965        4.5003749547        7.5553181420
S                3.1526527408        3.6370869011        4.6247311009
S                3.1512760443        3.6375868690        1.4897390011
S                1.5617326987        4.5238367754       10.7064858330
Mo               0.0000170699        7.2774749019       -9.1672481230    0   0   0
Mo               1.5756764447        6.3678236689       -3.0554877708    0   0   0
S                0.0000381981        7.2774979204       -4.6232454413    0   0   0
S                1.5756372420        6.3677884239       -7.6014065489    0   0   0
S                1.5756376957        6.3677895528      -10.7330757790    0   0   0
S                0.0000328088        7.2774946042       -1.4877307940    0   0   0
Mo              -0.0000690583        7.2762218135        3.0573111577
Mo               1.5374151268        6.3203196021        9.1061390432
S               -0.0346245706        7.2960702704        7.6065998713
S                1.5752269479        6.3666815876        4.6262087207
S                1.5758995650        6.3663772469        1.4902749282
S               -0.0030696781        7.1358441060       10.7684203809
Mo              -1.5756002725       10.0065304219       -9.1672481230    0   0   0
Mo               0.0000873425        9.0968676911       -3.0554912329    0   0   0
S               -1.5755883952       10.0065504530       -4.6232240150    0   0   0
S                0.0000198996        9.0968439439       -7.6014065489    0   0   0
S                0.0000203533        9.0968450728      -10.7330757790    0   0   0
S               -1.5755859047       10.0065492576       -1.4877362381    0   0   0
Mo              -1.5754607112       10.0050424199        3.0562007469
Mo              -0.0035258849        9.0803711231        9.2166491729
S               -1.5645575395        9.9821637118        7.6449379570
S               -0.0002935394        9.0959267302        4.6241503632
S                0.0003588900        9.0952575086        1.4889150393
S               -1.6476099224       10.0379558337       10.8022953082
Mo               6.3024915177        1.8193638619       -9.1672481230    0   0   0
Mo               7.8781001445        0.9096521684       -3.0554919963    0   0   0
S                6.3025008696        1.8193826232       -4.6232480596    0   0   0
S                7.8781116898        0.9096773839       -7.6014065489    0   0   0
S                7.8781121435        0.9096785128      -10.7330757790    0   0   0
S                6.3025042007        1.8193849068       -1.4877147524    0   0   0
Mo               6.3024652724        1.8180763641        3.0574961389
Mo               7.8754140048        0.9208347228        9.1497532368
S                6.2871582237        1.8137270384        7.5891946192
S                7.8781386134        0.9081997243        4.6251251867
S                7.8779678866        0.9085556599        1.4893949901
S                6.3062001608        1.8054705689       10.7371090098
Mo               4.7268741753        4.5484193819       -9.1672481230    0   0   0
Mo               6.3024679138        3.6387501714       -3.0554895197    0   0   0
S                4.7268748770        4.5484386753       -4.6232519432    0   0   0
S                6.3024943474        3.6387329039       -7.6014065489    0   0   0
S                6.3024948011        3.6387340328      -10.7330757790    0   0   0
S                4.7268770533        4.5484432419       -1.4877137856    0   0   0
Mo               4.7272037546        4.5473891630        3.0569918290
Mo               6.3036482582        3.6180382000        9.1695610303
S                4.7282360996        4.5528346975        7.6236524361
S                6.3024959881        3.6377992893        4.6250958150
S                6.3025320486        3.6374679155        1.4894000656
S                4.7206053741        4.4561774399       10.7855800167
Mo               3.1512568329        7.2774749019       -9.1672481230    0   0   0
Mo               4.7268384135        6.3678043337       -3.0554959052    0   0   0
S                3.1512606125        7.2774972547       -4.6232589675    0   0   0
S                4.7268770050        6.3677884239       -7.6014065489    0   0   0
S                4.7268774587        6.3677895528      -10.7330757790    0   0   0
S                3.1512629079        7.2774963749       -1.4877081835    0   0   0
Mo               3.1512397135        7.2761944731        3.0581916085
Mo               4.7306762421        6.3534424832        9.1948913962
S                3.1671401758        7.2675587907        7.6136170466
S                4.7272934490        6.3664327317        4.6256010711
S                4.7264189941        6.3668718742        1.4895758191
S                3.0099424055        7.3147365238       10.6788154009
Mo               1.5756394905       10.0065304219       -9.1672481230    0   0   0
Mo               3.1512330605        9.0968514907       -3.0554878870    0   0   0
S                1.5756499830       10.0065443759       -4.6232632674    0   0   0
S                3.1512596626        9.0968439439       -7.6014065489    0   0   0
S                3.1512601163        9.0968450728      -10.7330757790    0   0   0
S                1.5756503041       10.0065459699       -1.4877044377    0   0   0
Mo               1.5755539302       10.0052512511        3.0568793348
Mo               3.1515954016        9.1209524050        9.1593126964
S                1.5420731086        9.9938930511        7.6172229283
S                3.1507665710        9.0959097186        4.6255988672
S                3.1514154500        9.0952237984        1.4898306688
S                1.6490458185       10.0803306887       10.7604452136
Mo               9.4537312807        1.8193638619       -9.1672481230    0   0   0
Mo              11.0293863460        0.9096952246       -3.0554894007    0   0   0
S                9.4537395970        1.8193770750       -4.6232328036    0   0   0
S               11.0293514528        0.9096773839       -7.6014065489    0   0   0
S               11.0293519066        0.9096785128      -10.7330757790    0   0   0
S                9.4537393632        1.8193794783       -1.4877366147    0   0   0
Mo               9.4536231893        1.8180357897        3.0568769264
Mo              11.0292068275        0.8959649282        9.1526267527
S                9.4535515871        1.8078974264        7.5771069699
S               11.0293091659        0.9081401241        4.6242359530
S               11.0294124700        0.9080188031        1.4893448129
S                9.4608629119        1.8169254852       10.7210897290
Mo               7.8781139383        4.5484193819       -9.1672481230    0   0   0
Mo               9.4537539161        3.6387607911       -3.0554933032    0   0   0
S                7.8781175448        4.5484378232       -4.6232366318    0   0   0
S                9.4537341104        3.6387329039       -7.6014065489    0   0   0
S                9.4537345641        3.6387340328      -10.7330757790    0   0   0
S                7.8781194018        4.5484411585       -1.4877377057    0   0   0
Mo               7.8779814125        4.5472909340        3.0569906701
Mo               9.4516981269        3.6235639311        9.1484954825
S                7.8694982504        4.5449609911        7.5974953016
S                9.4532243101        3.6374309587        4.6244513259
S                9.4536084163        3.6375393976        1.4891158398
S                7.8832927134        4.5237945747       10.7343562006
Mo               6.3024965959        7.2774749019       -9.1672481230    0   0   0
Mo               7.8781361655        6.3678242352       -3.0555014130    0   0   0
S                6.3024973331        7.2774953556       -4.6232392528    0   0   0
S                7.8781167680        6.3677884239       -7.6014065489    0   0   0
S                7.8781172217        6.3677895528      -10.7330757790    0   0   0
S                6.3024989866        7.2774929744       -1.4877349119    0   0   0
Mo               6.3024097664        7.2760616976        3.0569272229
Mo               7.8856335462        6.3534665745        9.1860036736
S                6.2939568453        7.2548644831        7.6392343109
S                7.8776661972        6.3665641227        4.6250073694
S                7.8781737923        6.3667223662        1.4893166841
S                6.3872463975        7.3133400686       10.8231502582
Mo               4.7268792535       10.0065304219       -9.1672481230    0   0   0
Mo               6.3025111524        9.0968738021       -3.0554915260    0   0   0
S                4.7268840634       10.0065452125       -4.6232380477    0   0   0
S                6.3024994256        9.0968439439       -7.6014065489    0   0   0
S                6.3024998793        9.0968450728      -10.7330757790    0   0   0
S                4.7268847312       10.0065459141       -1.4877283294    0   0   0
Mo               4.7269817488       10.0048326659        3.0574429289
Mo               6.3043849404        9.0894078388        9.1822721351
S                4.7395227192        9.9922985342        7.5854567928
S                6.3028942282        9.0946723252        4.6250340185
S                6.3025410675        9.0955758183        1.4894205701
S                4.7286555386       10.0043273733       10.7330961343
Pt               1.9818343472        7.0747717075       12.6151973157
Pt               4.5643032193        6.4978574020       12.0520681903
Pd               0.0508247346        9.0012048043       12.1073069303



     Writing config-only to output data dir ./outdir/pwscf.save/ :
     XML data file
     NEW-OLD atomic charge density approx. for the potential

     negative rho (up, down):  9.144E-04 0.000E+00

     total cpu time spent up to now is   253279.9 secs

     Self-consistent Calculation

     iteration #  1     ecut=    77.00 Ry     beta= 0.20
     Davidson diagonalization with overlap
     ethr =  1.00E-06,  avg # of iterations =  5.0

     Threshold (ethr) on eigenvalues was too large:
     Diagonalizing with lowered threshold

     Davidson diagonalization with overlap
     ethr =  3.71E-09,  avg # of iterations = 15.2

     negative rho (up, down):  9.144E-04 0.000E+00

     total cpu time spent up to now is   254562.7 secs

     total energy              =  -35654.95745953 Ry
     estimated scf accuracy    <       0.00000222 Ry

     iteration #  2     ecut=    77.00 Ry     beta= 0.20
     Davidson diagonalization with overlap
     ethr =  1.27E-10,  avg # of iterations = 18.2

     negative rho (up, down):  9.144E-04 0.000E+00

     total cpu time spent up to now is   255520.5 secs

     total energy              =  -35654.95746165 Ry
     estimated scf accuracy    <       0.00000199 Ry

     iteration #  3     ecut=    77.00 Ry     beta= 0.20
     Davidson diagonalization with overlap
     ethr =  1.14E-10,  avg # of iterations =  2.0

     negative rho (up, down):  9.144E-04 0.000E+00

     total cpu time spent up to now is   255936.9 secs

     total energy              =  -35654.95746095 Ry
     estimated scf accuracy    <       0.00000066 Ry

     iteration #  4     ecut=    77.00 Ry     beta= 0.20
     Davidson diagonalization with overlap
     ethr =  3.80E-11,  avg # of iterations = 13.0

     negative rho (up, down):  9.143E-04 0.000E+00

     total cpu time spent up to now is   256427.3 secs

     total energy              =  -35654.95745994 Ry
     estimated scf accuracy    <       0.00000035 Ry

     iteration #  5     ecut=    77.00 Ry     beta= 0.20
     Davidson diagonalization with overlap
     ethr =  1.99E-11,  avg # of iterations =  6.5

     negative rho (up, down):  9.143E-04 0.000E+00

     total cpu time spent up to now is   257057.2 secs

     total energy              =  -35654.95745973 Ry
     estimated scf accuracy    <       0.00000014 Ry

     iteration #  6     ecut=    77.00 Ry     beta= 0.20
     Davidson diagonalization with overlap
     ethr =  7.82E-12,  avg # of iterations =  8.0

     negative rho (up, down):  9.143E-04 0.000E+00

     total cpu time spent up to now is   257546.1 secs

     total energy              =  -35654.95745951 Ry
     estimated scf accuracy    <       0.00000006 Ry

     iteration #  7     ecut=    77.00 Ry     beta= 0.20
     Davidson diagonalization with overlap
     ethr =  3.57E-12,  avg # of iterations = 15.5

     negative rho (up, down):  9.143E-04 0.000E+00

     total cpu time spent up to now is   258219.3 secs

     total energy              =  -35654.95745946 Ry
     estimated scf accuracy    <       0.00000002 Ry

     iteration #  8     ecut=    77.00 Ry     beta= 0.20
     Davidson diagonalization with overlap
     ethr =  1.10E-12,  avg # of iterations = 10.8

     negative rho (up, down):  9.143E-04 0.000E+00

     total cpu time spent up to now is   258904.7 secs

     total energy              =  -35654.95745947 Ry
     estimated scf accuracy    <       0.00000001 Ry

     iteration #  9     ecut=    77.00 Ry     beta= 0.20
     Davidson diagonalization with overlap
     ethr =  7.67E-13,  avg # of iterations =  4.0
