
     Program PWSCF v.7.3 starts on 11Mar2024 at  5:46:53 

     This program is part of the open-source Quantum ESPRESSO suite
     for quantum simulation of materials; please cite
         "P. Giannozzi et al., J. Phys.:Condens. Matter 21 395502 (2009);
         "P. Giannozzi et al., J. Phys.:Condens. Matter 29 465901 (2017);
         "P. Giannozzi et al., J. Chem. Phys. 152 154105 (2020);
          URL http://www.quantum-espresso.org", 
     in publications or presentations arising from this work. More details at
     http://www.quantum-espresso.org/quote

     Parallel version (MPI & OpenMP), running on      36 processor cores
     Number of MPI processes:                36
     Threads/MPI process:                     1

     MPI processes distributed on     1 nodes
     555384 MiB available memory on the printing compute node when the environment starts
 
     Waiting for input...
     Reading input from standard input
Warning: card &CELL ignored
Warning: card / ignored

     Current dimensions of program PWSCF are:
     Max number of different atomic species (ntypx) = 10
     Max number of k-points (npk) =  40000
     Max angular momentum in pseudopotentials (lmaxx) =  4
     file Mo.pbe-spn-kjpaw_psl.1.0.0.UPF: wavefunction(s)  4S 4D renormalized
     file S.pbe-n-kjpaw_psl.1.0.0.UPF: wavefunction(s)  3S 3P renormalized
     file Pd.pbe-spn-kjpaw_psl.1.0.0.UPF: wavefunction(s)  4S 5S 4D renormalized
     file Pt.pbe-spfn-kjpaw_psl.1.0.0.UPF: wavefunction(s)  5P 4F renormalized
 
     R & G space division:  proc/nbgrp/npool/nimage =      36
     Subspace diagonalization in iterative solution of the eigenvalue problem:
     one sub-group per band group will be used
     scalapack distributed-memory algorithm (size of sub-group:  6*  6 procs)

 
     Parallelization info
     --------------------
     sticks:   dense  smooth     PW     G-vecs:    dense   smooth      PW
     Min         586     335     89               165416    71459    9765
     Max         587     337     90               165425    71461    9778
     Sum       21109   12085   3205              5955087  2572543  351657
 
     Using Slab Decomposition
 


     bravais-lattice index     =            0
     lattice parameter (alat)  =      23.8395  a.u.
     unit-cell volume          =   28182.8498 (a.u.)^3
     number of atoms/cell      =          146
     number of atomic types    =            4
     number of electrons       =      1298.00
     number of Kohn-Sham states=          779
     kinetic-energy cutoff     =      77.0000  Ry
     charge density cutoff     =     539.0000  Ry
     scf convergence threshold =      1.0E-06
     mixing beta               =       0.2000
     number of iterations used =            8  plain     mixing
     energy convergence thresh.=      1.0E-04
     force convergence thresh. =      1.0E-03
     Exchange-correlation= SLA  PW   PBX  PBC
                           (   1   4   3   4   0   0   0)
     nstep                     =         1000


     Effective Screening Medium Method
     =================================
     Boundary Conditions: Vacuum-Slab-Vacuum
     total charge in unit cell        =   0.0000
     grid points for fit at edges     =        4 
 

     celldm(1)=  23.839504  celldm(2)=   0.000000  celldm(3)=   0.000000
     celldm(4)=   0.000000  celldm(5)=   0.000000  celldm(6)=   0.000000

     crystal axes: (cart. coord. in units of alat)
               a(1) = (   1.000000   0.000000   0.000000 )  
               a(2) = (  -0.500001   0.866026   0.000000 )  
               a(3) = (   0.000000   0.000000   2.401941 )  

     reciprocal axes: (cart. coord. in units 2 pi/alat)
               b(1) = (  1.000000  0.577351  0.000000 )  
               b(2) = (  0.000000  1.154700  0.000000 )  
               b(3) = (  0.000000  0.000000  0.416330 )  


     PseudoPot. # 1 for Mo read from file:
     ./pseudo/Mo.pbe-spn-kjpaw_psl.1.0.0.UPF
     MD5 check sum: 317bf72632116215fd98f72de1686f13
     Pseudo is Projector augmented-wave + core cor, Zval = 14.0
     Generated using 'atomic' code by A. Dal Corso  v.7.2
     Shape of augmentation charge: PSQ
     Using radial grid of 1229 points,  6 beta functions with: 
                l(1) =   0
                l(2) =   0
                l(3) =   1
                l(4) =   1
                l(5) =   2
                l(6) =   2
     Q(r) pseudized with 0 coefficients 


     PseudoPot. # 2 for S  read from file:
     ./pseudo/S.pbe-n-kjpaw_psl.1.0.0.UPF
     MD5 check sum: 8b7b5302570d38d5e87fed6a1065abda
     Pseudo is Projector augmented-wave + core cor, Zval =  6.0
     Generated using 'atomic' code by A. Dal Corso  v.7.2
     Shape of augmentation charge: PSQ
     Using radial grid of 1151 points,  6 beta functions with: 
                l(1) =   0
                l(2) =   0
                l(3) =   1
                l(4) =   1
                l(5) =   2
                l(6) =   2
     Q(r) pseudized with 0 coefficients 


     PseudoPot. # 3 for Pd read from file:
     ./pseudo/Pd.pbe-spn-kjpaw_psl.1.0.0.UPF
     MD5 check sum: a60571a671f2502b8a6a4569d20a6edb
     Pseudo is Projector augmented-wave + core cor, Zval = 18.0
     Generated using 'atomic' code by A. Dal Corso  v.7.2
     Shape of augmentation charge: PSQ
     Using radial grid of 1235 points,  6 beta functions with: 
                l(1) =   0
                l(2) =   0
                l(3) =   1
                l(4) =   1
                l(5) =   2
                l(6) =   2
     Q(r) pseudized with 0 coefficients 


     PseudoPot. # 4 for Pt read from file:
     ./pseudo/Pt.pbe-spfn-kjpaw_psl.1.0.0.UPF
     MD5 check sum: 620096ebf4e6ebacc94de60fd67efcb5
     Pseudo is Projector augmented-wave + core cor, Zval = 32.0
     Generated using 'atomic' code by A. Dal Corso  v.7.2
     Shape of augmentation charge: PSQ
     Using radial grid of 1277 points,  8 beta functions with: 
                l(1) =   0
                l(2) =   0
                l(3) =   1
                l(4) =   1
                l(5) =   2
                l(6) =   2
                l(7) =   3
                l(8) =   3
     Q(r) pseudized with 0 coefficients 


     atomic species   valence    mass     pseudopotential
     Mo               14.00    95.95000     Mo( 1.00)
     S                 6.00    32.06000     S ( 1.00)
     Pd               18.00   106.42000     Pd( 1.00)
     Pt               32.00   195.08400     Pt( 1.00)

     No symmetry found



   Cartesian axes

     site n.     atom                  positions (alat units)
         1        Mo     tau(   1) = (   0.1244805   0.2154429   0.4826124  )
         2        Mo     tau(   2) = (   0.1250004   0.0721694  -0.4825273  )
         3        Mo     tau(   3) = (   0.0000154   0.1443583  -0.0000534  )
         4        S      tau(   4) = (   0.0000004   0.0000006  -0.6064556  )
         5        S      tau(   5) = (   0.1249822   0.0722030  -0.1241916  )
         6        S      tau(   6) = (   0.0001873   0.1444894   0.3573292  )
         7        S      tau(   7) = (   0.0000004   0.0000005  -0.3584711  )
         8        S      tau(   8) = (   0.1250220   0.0721432   0.1241096  )
         9        S      tau(   9) = (  -0.0009222   0.1433430   0.6062350  )
        10        Mo     tau(  10) = (  -0.0011812   0.4330952   0.4826123  )
        11        Mo     tau(  11) = (   0.0000001   0.2886759  -0.4825273  )
        12        Mo     tau(  12) = (  -0.1249761   0.3608493  -0.0000533  )
        13        S      tau(  13) = (  -0.1249999   0.2165071  -0.6064556  )
        14        S      tau(  14) = (   0.0000232   0.2886904  -0.1241345  )
        15        S      tau(  15) = (  -0.1247753   0.3609305   0.3573291  )
        16        S      tau(  16) = (  -0.1249998   0.2165070  -0.3584711  )
        17        S      tau(  17) = (   0.0000901   0.2887289   0.1242236  )
        18        S      tau(  18) = (  -0.1263226   0.3605428   0.6062351  )
        19        Mo     tau(  19) = (  -0.1251400   0.6495983   0.4819363  )
        20        Mo     tau(  20) = (  -0.1250002   0.5051824  -0.4825273  )
        21        Mo     tau(  21) = (  -0.2500026   0.5773383  -0.0001491  )
        22        S      tau(  22) = (  -0.2500002   0.4330136  -0.6064556  )
        23        S      tau(  23) = (  -0.1249812   0.5051509  -0.1241919  )
        24        S      tau(  24) = (  -0.2500015   0.5775831   0.3575295  )
        25        S      tau(  25) = (  -0.2500001   0.4330135  -0.3584711  )
        26        S      tau(  26) = (  -0.1250129   0.5052153   0.1241101  )
        27        S      tau(  27) = (  -0.2500018   0.5771934   0.6060379  )
        28        Mo     tau(  28) = (   0.2499987  -0.0001601   0.4819365  )
        29        Mo     tau(  29) = (  -0.2500004   0.7216889  -0.4825273  )
        30        Mo     tau(  30) = (  -0.3750135   0.7938631  -0.0001491  )
        31        S      tau(  31) = (  -0.3750004   0.6495201  -0.6064556  )
        32        S      tau(  32) = (  -0.2500026   0.7216883  -0.1242347  )
        33        S      tau(  33) = (  -0.3747997   0.7937400   0.3575295  )
        34        S      tau(  34) = (  -0.3750004   0.6495200  -0.3584711  )
        35        S      tau(  35) = (  -0.2500029   0.7216883   0.1240299  )
        36        S      tau(  36) = (  -0.3751376   0.7939346   0.6060379  )
        37        Mo     tau(  37) = (   0.3755166   0.2154425   0.4826119  )
        38        Mo     tau(  38) = (   0.3750004   0.0721694  -0.4825273  )
        39        Mo     tau(  39) = (   0.2499990   0.1443474  -0.0000968  )
        40        S      tau(  40) = (   0.2500004   0.0000006  -0.6064556  )
        41        S      tau(  41) = (   0.3750152   0.0722028  -0.1241921  )
        42        S      tau(  42) = (   0.2499983   0.1443201   0.3580593  )
        43        S      tau(  43) = (   0.2500004   0.0000005  -0.3584711  )
        44        S      tau(  44) = (   0.3749754   0.0721432   0.1241106  )
        45        S      tau(  45) = (   0.2499987   0.1437775   0.6065499  )
        46        Mo     tau(  46) = (   0.2499984   0.4330123   0.4872880  )
        47        Mo     tau(  47) = (   0.2500001   0.2886759  -0.4825273  )
        48        Mo     tau(  48) = (   0.1250277   0.3608616  -0.0000572  )
        49        S      tau(  49) = (   0.1250001   0.2165071  -0.6064556  )
        50        S      tau(  50) = (   0.2499987   0.2886898  -0.1241693  )
        51        S      tau(  51) = (   0.1266397   0.3617911   0.3615924  )
        52        S      tau(  52) = (   0.1250002   0.2165070  -0.3584711  )
        53        S      tau(  53) = (   0.2499988   0.2886671   0.1241958  )
        54        S      tau(  54) = (   0.1173054   0.3564020   0.6108885  )
        55        Mo     tau(  55) = (   0.1243363   0.6504991   0.4826116  )
        56        Mo     tau(  56) = (   0.1249998   0.5051824  -0.4825273  )
        57        Mo     tau(  57) = (   0.0000060   0.5773464  -0.0000969  )
        58        S      tau(  58) = (  -0.0000002   0.4330136  -0.6064556  )
        59        S      tau(  59) = (   0.1250101   0.5051751  -0.1241696  )
        60        S      tau(  60) = (  -0.0000165   0.5773581   0.3580590  )
        61        S      tau(  61) = (  -0.0000001   0.4330135  -0.3584711  )
        62        S      tau(  62) = (   0.1249907   0.5051868   0.1241956  )
        63        S      tau(  63) = (  -0.0004863   0.5776299   0.6065497  )
        64        Mo     tau(  64) = (   0.5000682   0.0000393   0.4813064  )
        65        Mo     tau(  65) = (  -0.0000004   0.7216889  -0.4825273  )
        66        Mo     tau(  66) = (  -0.1249919   0.7938635  -0.0001489  )
        67        S      tau(  67) = (  -0.1250004   0.6495201  -0.6064556  )
        68        S      tau(  68) = (   0.0000350   0.7216859  -0.1241920  )
        69        S      tau(  69) = (  -0.1252051   0.7937392   0.3575294  )
        70        S      tau(  70) = (  -0.1250004   0.6495200  -0.3584711  )
        71        S      tau(  71) = (  -0.0000364   0.7216812   0.1241103  )
        72        S      tau(  72) = (  -0.1248667   0.7939344   0.6060378  )
        73        Mo     tau(  73) = (   0.6250985   0.2164481   0.4814760  )
        74        Mo     tau(  74) = (   0.6250004   0.0721694  -0.4825273  )
        75        Mo     tau(  75) = (   0.4999807   0.1443583  -0.0000532  )
        76        S      tau(  76) = (   0.5000004   0.0000006  -0.6064556  )
        77        S      tau(  77) = (   0.6249710   0.0721537  -0.1241599  )
        78        S      tau(  78) = (   0.4998101   0.1444887   0.3573287  )
        79        S      tau(  79) = (   0.5000004   0.0000005  -0.3584711  )
        80        S      tau(  80) = (   0.6250072   0.0721744   0.1241160  )
        81        S      tau(  81) = (   0.5009199   0.1433424   0.6062338  )
        82        Mo     tau(  82) = (   0.5011786   0.4330950   0.4826115  )
        83        Mo     tau(  83) = (   0.5000001   0.2886759  -0.4825273  )
        84        Mo     tau(  84) = (   0.3749686   0.3608615  -0.0000573  )
        85        S      tau(  85) = (   0.3750001   0.2165071  -0.6064556  )
        86        S      tau(  86) = (   0.4999725   0.2886900  -0.1241349  )
        87        S      tau(  87) = (   0.3733572   0.3617909   0.3615920  )
        88        S      tau(  88) = (   0.3750002   0.2165070  -0.3584711  )
        89        S      tau(  89) = (   0.4999057   0.2887288   0.1242238  )
        90        S      tau(  90) = (   0.3826919   0.3564018   0.6108876  )
        91        Mo     tau(  91) = (   0.3756598   0.6504996   0.4826113  )
        92        Mo     tau(  92) = (   0.3749998   0.5051824  -0.4825273  )
        93        Mo     tau(  93) = (   0.2499978   0.5773166  -0.0000576  )
        94        S      tau(  94) = (   0.2499998   0.4330136  -0.6064556  )
        95        S      tau(  95) = (   0.3749857   0.5051746  -0.1241697  )
        96        S      tau(  96) = (   0.2499981   0.5754545   0.3615919  )
        97        S      tau(  97) = (   0.2499999   0.4330135  -0.3584711  )
        98        S      tau(  98) = (   0.3750048   0.5051860   0.1241960  )
        99        S      tau(  99) = (   0.2499983   0.5862331   0.6108872  )
       100        Mo     tau( 100) = (   0.7499988   0.0001148   0.4814756  )
       101        Mo     tau( 101) = (   0.2499996   0.7216889  -0.4825273  )
       102        Mo     tau( 102) = (   0.1250062   0.7938321  -0.0000534  )
       103        S      tau( 103) = (   0.1249996   0.6495201  -0.6064556  )
       104        S      tau( 104) = (   0.2499971   0.7216593  -0.1241350  )
       105        S      tau( 105) = (   0.1250350   0.7936175   0.3573284  )
       106        S      tau( 106) = (   0.1249996   0.6495200  -0.3584711  )
       107        S      tau( 107) = (   0.2499972   0.7215818   0.1242234  )
       108        S      tau( 108) = (   0.1245975   0.7951515   0.6062336  )
       109        Mo     tau( 109) = (  -0.1251006   0.2164484   0.4814769  )
       110        Mo     tau( 110) = (   0.8750004   0.0721694  -0.4825273  )
       111        Mo     tau( 111) = (   0.7499976   0.1443379  -0.0001196  )
       112        S      tau( 112) = (   0.7500004   0.0000006  -0.6064556  )
       113        S      tau( 113) = (   0.8750246   0.0721533  -0.1241599  )
       114        S      tau( 114) = (   0.7499994   0.1443376   0.3572937  )
       115        S      tau( 115) = (   0.7500004   0.0000005  -0.3584711  )
       116        S      tau( 116) = (   0.8749884   0.0721739   0.1241157  )
       117        S      tau( 117) = (   0.7499987   0.1443370   0.6058240  )
       118        Mo     tau( 118) = (  -0.2500010   0.4329316   0.4813070  )
       119        Mo     tau( 119) = (   0.7500001   0.2886759  -0.4825273  )
       120        Mo     tau( 120) = (   0.6249710   0.3608493  -0.0000534  )
       121        S      tau( 121) = (   0.6250001   0.2165071  -0.6064556  )
       122        S      tau( 122) = (   0.7499973   0.2887067  -0.1241600  )
       123        S      tau( 123) = (   0.6247737   0.3609305   0.3573287  )
       124        S      tau( 124) = (   0.6250002   0.2165070  -0.3584711  )
       125        S      tau( 125) = (   0.7499971   0.2886649   0.1241160  )
       126        S      tau( 126) = (   0.6263203   0.3605423   0.6062340  )
       127        Mo     tau( 127) = (  -0.3748636   0.6495986   0.4819361  )
       128        Mo     tau( 128) = (   0.6249998   0.5051824  -0.4825273  )
       129        Mo     tau( 129) = (   0.4999891   0.5773453  -0.0000967  )
       130        S      tau( 130) = (   0.4999998   0.4330136  -0.6064556  )
       131        S      tau( 131) = (   0.6249761   0.5051506  -0.1241920  )
       132        S      tau( 132) = (   0.5000130   0.5773585   0.3580587  )
       133        S      tau( 133) = (   0.4999999   0.4330135  -0.3584711  )
       134        S      tau( 134) = (   0.6250081   0.5052147   0.1241104  )
       135        S      tau( 135) = (   0.5004826   0.5776298   0.6065487  )
       136        Mo     tau( 136) = (  -0.0000706   0.0000401   0.4813070  )
       137        Mo     tau( 137) = (   0.4999996   0.7216889  -0.4825273  )
       138        Mo     tau( 138) = (   0.3749881   0.7938314  -0.0000535  )
       139        S      tau( 139) = (   0.3749996   0.6495201  -0.6064556  )
       140        S      tau( 140) = (   0.4999594   0.7216844  -0.1241918  )
       141        S      tau( 141) = (   0.3749610   0.7936184   0.3573285  )
       142        S      tau( 142) = (   0.3749996   0.6495200  -0.3584711  )
       143        S      tau( 143) = (   0.5000310   0.7216802   0.1241101  )
       144        S      tau( 144) = (   0.3753979   0.7951517   0.6062337  )
       145        Pd     tau( 145) = (   0.2499985   0.4330123   0.7148096  )
       146        Pt     tau( 146) = (  -0.0011890   0.4331241   0.7254670  )

     --------------------------------------------
     DFT-D3 Dispersion Correction (3-body terms):
     --------------------------------------------
       Reference C6 values for interpolation: 

         atom   Coordination number   C6
         S          0.000           268.01
         S          0.995           261.99
         S          1.990           251.62
         Mo         0.000          1691.79
         Mo         1.942          1004.01
         Mo        11.056           674.22
         Pd         0.000          1217.01
         Pd         1.863           573.90
         Pd         5.710           531.75
         Pt         0.000           782.29
         Pt         1.919           692.72
         Pt         6.667           673.75

       Values used:

         atom   Coordination number  R0_AB[au]  C6      C8
         Mo        10.183            3.547    674.22  77634.20
         Mo        10.189            3.547    674.22  77634.20
         Mo        10.201            3.547    674.22  77634.20
         S          3.753            3.128    251.62  12327.25
         S          3.858            3.128    251.62  12327.25
         S          3.848            3.128    251.62  12327.25
         S          3.859            3.128    251.62  12327.25
         S          3.860            3.128    251.62  12327.25
         S          3.810            3.128    251.62  12327.25
         Mo        10.779            3.547    674.22  77634.20
         Mo        10.189            3.547    674.22  77634.20
         Mo        10.201            3.547    674.22  77634.20
         S          3.753            3.128    251.62  12327.25
         S          3.859            3.128    251.62  12327.25
         S          3.849            3.128    251.62  12327.25
         S          3.858            3.128    251.62  12327.25
         S          3.855            3.128    251.62  12327.25
         S          4.763            3.128    251.62  12327.25
         Mo        10.219            3.547    674.22  77634.20
         Mo        10.189            3.547    674.22  77634.20
         Mo        10.200            3.547    674.22  77634.20
         S          3.753            3.128    251.62  12327.25
         S          3.858            3.128    251.62  12327.25
         S          3.862            3.128    251.62  12327.25
         S          3.859            3.128    251.62  12327.25
         S          3.860            3.128    251.62  12327.25
         S          3.771            3.128    251.62  12327.25
         Mo        10.209            3.547    674.22  77634.20
         Mo        10.189            3.547    674.22  77634.20
         Mo        10.200            3.547    674.22  77634.20
         S          3.753            3.128    251.62  12327.25
         S          3.858            3.128    251.62  12327.25
         S          3.862            3.128    251.62  12327.25
         S          3.859            3.128    251.62  12327.25
         S          3.862            3.128    251.62  12327.25
         S          3.759            3.128    251.62  12327.25
         Mo        10.173            3.547    674.22  77634.20
         Mo        10.189            3.547    674.22  77634.20
         Mo        10.202            3.547    674.22  77634.20
         S          3.753            3.128    251.62  12327.25
         S          3.858            3.128    251.62  12327.25
         S          3.857            3.128    251.62  12327.25
         S          3.859            3.128    251.62  12327.25
         S          3.860            3.128    251.62  12327.25
         S          3.752            3.128    251.62  12327.25
         Mo        10.821            3.547    674.22  77634.20
         Mo        10.189            3.547    674.22  77634.20
         Mo        10.202            3.547    674.22  77634.20
         S          3.753            3.128    251.62  12327.25
         S          3.859            3.128    251.62  12327.25
         S          3.867            3.128    251.62  12327.25
         S          3.859            3.128    251.62  12327.25
         S          3.853            3.128    251.62  12327.25
         S          5.626            3.128    251.62  12327.25
         Mo        10.183            3.547    674.22  77634.20
         Mo        10.189            3.547    674.22  77634.20
         Mo        10.202            3.547    674.22  77634.20
         S          3.753            3.128    251.62  12327.25
         S          3.859            3.128    251.62  12327.25
         S          3.858            3.128    251.62  12327.25
         S          3.859            3.128    251.62  12327.25
         S          3.853            3.128    251.62  12327.25
         S          4.716            3.128    251.62  12327.25
         Mo        10.223            3.547    674.22  77634.20
         Mo        10.189            3.547    674.22  77634.20
         Mo        10.200            3.547    674.22  77634.20
         S          3.753            3.128    251.62  12327.25
         S          3.858            3.128    251.62  12327.25
         S          3.862            3.128    251.62  12327.25
         S          3.859            3.128    251.62  12327.25
         S          3.860            3.128    251.62  12327.25
         S          3.760            3.128    251.62  12327.25
         Mo        10.213            3.547    674.21  77634.20
         Mo        10.189            3.547    674.22  77634.20
         Mo        10.201            3.547    674.22  77634.20
         S          3.753            3.128    251.62  12327.25
         S          3.858            3.128    251.62  12327.25
         S          3.848            3.128    251.62  12327.25
         S          3.859            3.128    251.62  12327.25
         S          3.860            3.128    251.62  12327.25
         S          3.798            3.128    251.62  12327.25
         Mo        10.173            3.547    674.22  77634.20
         Mo        10.189            3.547    674.22  77634.20
         Mo        10.202            3.547    674.22  77634.20
         S          3.753            3.128    251.62  12327.25
         S          3.859            3.128    251.62  12327.25
         S          3.866            3.128    251.62  12327.25
         S          3.859            3.128    251.62  12327.25
         S          3.855            3.128    251.62  12327.25
         S          4.646            3.128    251.62  12327.25
         Mo        10.173            3.547    674.22  77634.20
         Mo        10.189            3.547    674.22  77634.20
         Mo        10.202            3.547    674.22  77634.20
         S          3.753            3.128    251.62  12327.25
         S          3.859            3.128    251.62  12327.25
         S          3.867            3.128    251.62  12327.25
         S          3.859            3.128    251.62  12327.25
         S          3.853            3.128    251.62  12327.25
         S          4.656            3.128    251.62  12327.25
         Mo        10.213            3.547    674.22  77634.20
         Mo        10.189            3.547    674.22  77634.20
         Mo        10.201            3.547    674.22  77634.20
         S          3.753            3.128    251.62  12327.25
         S          3.859            3.128    251.62  12327.25
         S          3.848            3.128    251.62  12327.25
         S          3.859            3.128    251.62  12327.25
         S          3.855            3.128    251.62  12327.25
         S          3.799            3.128    251.62  12327.25
         Mo        10.223            3.547    674.22  77634.20
         Mo        10.189            3.547    674.22  77634.20
         Mo        10.199            3.547    674.22  77634.20
         S          3.753            3.128    251.62  12327.25
         S          3.858            3.128    251.62  12327.25
         S          3.855            3.128    251.62  12327.25
         S          3.858            3.128    251.62  12327.25
         S          3.860            3.128    251.62  12327.25
         S          3.778            3.128    251.62  12327.25
         Mo        10.233            3.547    674.22  77634.20
         Mo        10.189            3.547    674.22  77634.20
         Mo        10.201            3.547    674.22  77634.20
         S          3.753            3.128    251.62  12327.25
         S          3.858            3.128    251.62  12327.25
         S          3.848            3.128    251.62  12327.25
         S          3.858            3.128    251.62  12327.25
         S          3.860            3.128    251.62  12327.25
         S          3.799            3.128    251.62  12327.25
         Mo        10.209            3.547    674.22  77634.20
         Mo        10.189            3.547    674.22  77634.20
         Mo        10.202            3.547    674.22  77634.20
         S          3.753            3.128    251.62  12327.25
         S          3.859            3.128    251.62  12327.25
         S          3.857            3.128    251.62  12327.25
         S          3.859            3.128    251.62  12327.25
         S          3.860            3.128    251.62  12327.25
         S          3.751            3.128    251.62  12327.25
         Mo        10.223            3.547    674.22  77634.20
         Mo        10.189            3.547    674.22  77634.20
         Mo        10.201            3.547    674.22  77634.20
         S          3.753            3.128    251.62  12327.25
         S          3.858            3.128    251.62  12327.25
         S          3.848            3.128    251.62  12327.25
         S          3.859            3.128    251.62  12327.25
         S          3.860            3.128    251.62  12327.25
         S          3.798            3.128    251.62  12327.25
         Pd         4.003            3.168    531.80  48725.46
         Pt         3.864            3.168    692.72  72035.25

         Molecular C6 ( Ry / a.u.^6 ) =   7932928.32


     number of k points=     4  Gaussian smearing, width (Ry)=  0.0100
                       cart. coord. in units 2pi/alat
        k(    1) = (   0.0000000   0.0000000   0.0000000), wk =   0.5000000
        k(    2) = (   0.0000000  -0.5773499   0.0000000), wk =   0.5000000
        k(    3) = (  -0.5000000  -0.2886755   0.0000000), wk =   0.5000000
        k(    4) = (  -0.5000000  -0.8660254   0.0000000), wk =   0.5000000

     Dense  grid:  5955087 G-vectors     FFT dimensions: ( 180, 180, 432)

     Smooth grid:  2572543 G-vectors     FFT dimensions: ( 135, 135, 320)

     Estimated max dynamical RAM per process >       3.07 GB

     Estimated total dynamical RAM >     110.53 GB

     Initial potential from superposition of free atoms

     starting charge    1297.9541, renormalised to    1298.0000

     negative rho (up, down):  9.067E-04 0.000E+00
     Starting wfcs are  891 randomized atomic wfcs
     Checking if some PAW data can be deallocated... 

     total cpu time spent up to now is       97.6 secs

     Self-consistent Calculation

     iteration #  1     ecut=    77.00 Ry     beta= 0.20
     Davidson diagonalization with overlap
     ethr =  1.00E-02,  avg # of iterations =  2.0

     Threshold (ethr) on eigenvalues was too large:
     Diagonalizing with lowered threshold

     Davidson diagonalization with overlap
     ethr =  1.76E-04,  avg # of iterations = 15.0

     negative rho (up, down):  2.880E-04 0.000E+00

     total cpu time spent up to now is     1121.2 secs

     total energy              =  -26031.72806671 Ry
     estimated scf accuracy    <       4.99606622 Ry

     iteration #  2     ecut=    77.00 Ry     beta= 0.20
     Davidson diagonalization with overlap
     ethr =  3.85E-04,  avg # of iterations =  1.5

     negative rho (up, down):  4.385E-05 0.000E+00

     total cpu time spent up to now is     1327.0 secs

     total energy              =  -26030.73186357 Ry
     estimated scf accuracy    <       2.58966934 Ry

     iteration #  3     ecut=    77.00 Ry     beta= 0.20
     Davidson diagonalization with overlap
     ethr =  2.00E-04,  avg # of iterations = 14.8

     negative rho (up, down):  3.212E-05 0.000E+00

     total cpu time spent up to now is     1612.9 secs

     total energy              =  -26031.05700987 Ry
     estimated scf accuracy    <       0.70196031 Ry

     iteration #  4     ecut=    77.00 Ry     beta= 0.20
     Davidson diagonalization with overlap
     c_bands:  2 eigenvalues not converged
     ethr =  5.41E-05,  avg # of iterations = 16.5

     negative rho (up, down):  3.611E-05 0.000E+00

     total cpu time spent up to now is     2198.1 secs

     total energy              =  -26031.62287535 Ry
     estimated scf accuracy    <       0.25663775 Ry

     iteration #  5     ecut=    77.00 Ry     beta= 0.20
     Davidson diagonalization with overlap
     c_bands:  5 eigenvalues not converged
     c_bands:  5 eigenvalues not converged
     ethr =  1.98E-05,  avg # of iterations = 23.0

     negative rho (up, down):  7.842E-05 0.000E+00

     total cpu time spent up to now is     2679.1 secs

     total energy              =  -26031.73378841 Ry
     estimated scf accuracy    <       0.14788976 Ry

     iteration #  6     ecut=    77.00 Ry     beta= 0.20
     Davidson diagonalization with overlap
     c_bands:  3 eigenvalues not converged
     ethr =  1.14E-05,  avg # of iterations = 26.2

     negative rho (up, down):  2.265E-04 0.000E+00

     total cpu time spent up to now is     3100.6 secs

     total energy              =  -26031.73186741 Ry
     estimated scf accuracy    <       0.09262318 Ry

     iteration #  7     ecut=    77.00 Ry     beta= 0.20
     Davidson diagonalization with overlap
     c_bands:  4 eigenvalues not converged
     c_bands:  4 eigenvalues not converged
     ethr =  7.14E-06,  avg # of iterations = 16.0

     negative rho (up, down):  7.418E-04 0.000E+00

     total cpu time spent up to now is     3434.0 secs

     total energy              =  -26031.75947616 Ry
     estimated scf accuracy    <       0.04238627 Ry

     iteration #  8     ecut=    77.00 Ry     beta= 0.20
     Davidson diagonalization with overlap
     c_bands:  4 eigenvalues not converged
     c_bands:  1 eigenvalues not converged
     c_bands:  3 eigenvalues not converged
     c_bands:  3 eigenvalues not converged
     ethr =  3.27E-06,  avg # of iterations = 35.0

     negative rho (up, down):  5.663E-04 0.000E+00

     total cpu time spent up to now is     4082.8 secs

     total energy              =  -26031.77003977 Ry
     estimated scf accuracy    <       0.04788911 Ry

     iteration #  9     ecut=    77.00 Ry     beta= 0.20
     Davidson diagonalization with overlap
     c_bands:  2 eigenvalues not converged
     ethr =  3.27E-06,  avg # of iterations =  8.5

     negative rho (up, down):  5.224E-04 0.000E+00

     total cpu time spent up to now is     4319.3 secs

     total energy              =  -26031.77217734 Ry
     estimated scf accuracy    <       0.00609335 Ry

     iteration # 10     ecut=    77.00 Ry     beta= 0.20
     Davidson diagonalization with overlap
     c_bands:  5 eigenvalues not converged
     c_bands:  2 eigenvalues not converged
     c_bands:  1 eigenvalues not converged
     c_bands:  3 eigenvalues not converged
     ethr =  4.69E-07,  avg # of iterations = 30.0

     negative rho (up, down):  5.782E-04 0.000E+00

     total cpu time spent up to now is     5208.8 secs

     total energy              =  -26031.78634034 Ry
     estimated scf accuracy    <       0.00719076 Ry

     iteration # 11     ecut=    77.00 Ry     beta= 0.20
     Davidson diagonalization with overlap
     c_bands:  2 eigenvalues not converged
     c_bands:  1 eigenvalues not converged
     ethr =  4.69E-07,  avg # of iterations = 13.8

     negative rho (up, down):  8.156E-04 0.000E+00

     total cpu time spent up to now is     5447.0 secs

     total energy              =  -26031.78393634 Ry
     estimated scf accuracy    <       0.00376105 Ry

     iteration # 12     ecut=    77.00 Ry     beta= 0.20
     Davidson diagonalization with overlap
     ethr =  2.90E-07,  avg # of iterations = 11.5

     negative rho (up, down):  8.971E-04 0.000E+00

     total cpu time spent up to now is     5884.4 secs

     total energy              =  -26031.78700795 Ry
     estimated scf accuracy    <       0.00162135 Ry

     iteration # 13     ecut=    77.00 Ry     beta= 0.20
     Davidson diagonalization with overlap
     ethr =  1.25E-07,  avg # of iterations =  9.2

     negative rho (up, down):  8.290E-04 0.000E+00

     total cpu time spent up to now is     6169.7 secs

     total energy              =  -26031.78639456 Ry
     estimated scf accuracy    <       0.00160817 Ry

     iteration # 14     ecut=    77.00 Ry     beta= 0.20
     Davidson diagonalization with overlap
     ethr =  1.24E-07,  avg # of iterations =  5.2

     negative rho (up, down):  8.609E-04 0.000E+00

     total cpu time spent up to now is     6399.1 secs

     total energy              =  -26031.78652546 Ry
     estimated scf accuracy    <       0.00015693 Ry

     iteration # 15     ecut=    77.00 Ry     beta= 0.20
     Davidson diagonalization with overlap
     c_bands:  4 eigenvalues not converged
     c_bands:  3 eigenvalues not converged
     c_bands:  5 eigenvalues not converged
     c_bands:  1 eigenvalues not converged
     ethr =  1.21E-08,  avg # of iterations = 25.0

     negative rho (up, down):  8.629E-04 0.000E+00

     total cpu time spent up to now is     7396.2 secs

     total energy              =  -26031.78705742 Ry
     estimated scf accuracy    <       0.00011150 Ry

     iteration # 16     ecut=    77.00 Ry     beta= 0.20
     Davidson diagonalization with overlap
     ethr =  8.59E-09,  avg # of iterations =  4.0

     negative rho (up, down):  8.788E-04 0.000E+00

     total cpu time spent up to now is     7614.9 secs

     total energy              =  -26031.78701747 Ry
     estimated scf accuracy    <       0.00007935 Ry

     iteration # 17     ecut=    77.00 Ry     beta= 0.20
     Davidson diagonalization with overlap
     ethr =  6.11E-09,  avg # of iterations =  9.5

     negative rho (up, down):  9.066E-04 0.000E+00

     total cpu time spent up to now is     7865.5 secs

     total energy              =  -26031.78701190 Ry
     estimated scf accuracy    <       0.00001743 Ry

     iteration # 18     ecut=    77.00 Ry     beta= 0.20
     Davidson diagonalization with overlap
     c_bands:  1 eigenvalues not converged
     c_bands:  1 eigenvalues not converged
     ethr =  1.34E-09,  avg # of iterations = 18.2

     negative rho (up, down):  9.055E-04 0.000E+00

     total cpu time spent up to now is     8707.7 secs

     total energy              =  -26031.78704212 Ry
     estimated scf accuracy    <       0.00004228 Ry

     iteration # 19     ecut=    77.00 Ry     beta= 0.20
     Davidson diagonalization with overlap
     ethr =  1.34E-09,  avg # of iterations =  7.5

     negative rho (up, down):  9.091E-04 0.000E+00

     total cpu time spent up to now is     9053.6 secs

     total energy              =  -26031.78704963 Ry
     estimated scf accuracy    <       0.00000234 Ry

     iteration # 20     ecut=    77.00 Ry     beta= 0.20
     Davidson diagonalization with overlap
     c_bands:  1 eigenvalues not converged
     c_bands:  1 eigenvalues not converged
     c_bands:  2 eigenvalues not converged
     ethr =  1.81E-10,  avg # of iterations = 18.0

     negative rho (up, down):  9.199E-04 0.000E+00

     total cpu time spent up to now is     9733.0 secs

     total energy              =  -26031.78705008 Ry
     estimated scf accuracy    <       0.00000148 Ry

     iteration # 21     ecut=    77.00 Ry     beta= 0.20
     Davidson diagonalization with overlap
     ethr =  1.14E-10,  avg # of iterations = 10.2

     negative rho (up, down):  9.179E-04 0.000E+00

     total cpu time spent up to now is    10156.5 secs

     total energy              =  -26031.78704996 Ry
     estimated scf accuracy    <       0.00000283 Ry

     iteration # 22     ecut=    77.00 Ry     beta= 0.20
     Davidson diagonalization with overlap
     ethr =  1.14E-10,  avg # of iterations =  6.8

     negative rho (up, down):  9.194E-04 0.000E+00

     total cpu time spent up to now is    10456.4 secs

     End of self-consistent calculation

          k = 0.0000 0.0000 0.0000 (321495 PWs)   bands (ev):

  -102.3854 -88.8287 -70.7174 -70.7163 -70.6922 -70.6875 -70.6735 -70.6622
   -70.6494 -66.7275 -66.7064 -66.7064 -66.7064 -66.7064 -66.7064 -66.7064
   -66.6852 -66.6852 -66.6852 -66.6852 -66.6852 -66.6852 -66.6852 -66.6852
   -66.6852 -66.6614 -66.6408 -66.6405 -66.6404 -66.6404 -66.6401 -66.6400
   -66.6198 -66.6196 -66.6194 -66.6192 -66.6192 -66.6191 -66.6189 -66.6188
   -66.6186 -66.5888 -66.5751 -66.5707 -66.5676 -66.5609 -66.5557 -66.5540
   -66.5480 -66.5411 -66.5380 -66.5355 -66.5338 -66.5313 -66.5226 -66.5070
   -66.4961 -56.6828 -56.6027 -56.5626 -54.6524 -54.6432 -54.5699 -41.0539
   -41.0539 -41.0539 -40.9868 -40.9867 -40.9866 -40.9791 -40.9791 -40.9791
   -40.9791 -40.9791 -40.9790 -40.9122 -40.9120 -40.9119 -40.9119 -40.9118
   -40.9117 -40.9071 -40.9049 -40.8986 -40.8876 -40.8535 -40.8535 -40.8535
   -40.8535 -40.8535 -40.8535 -40.8462 -40.8462 -40.8462 -40.8461 -40.8461
   -40.8461 -40.8357 -40.8323 -40.8270 -40.8220 -40.8214 -40.8186 -40.8186
   -40.8186 -40.8186 -40.8186 -40.8186 -40.8169 -40.8153 -40.8045 -40.8045
   -40.8045 -40.8045 -40.8045 -40.8045 -40.8044 -40.8044 -40.8044 -40.7867
   -40.7866 -40.7865 -40.7864 -40.7864 -40.7863 -40.7810 -40.7808 -40.7807
   -40.7807 -40.7804 -40.7803 -40.7573 -40.7519 -40.7518 -40.7518 -40.7517
   -40.7516 -40.7515 -40.7409 -40.7409 -40.7408 -40.7396 -40.7394 -40.7392
   -40.7391 -40.7390 -40.7389 -40.7388 -40.7387 -40.7384 -40.7350 -40.7162
   -40.7130 -40.7126 -40.7113 -40.7093 -40.7060 -40.7035 -40.7007 -40.6975
   -40.6940 -40.6940 -40.6940 -40.6940 -40.6940 -40.6940 -40.6937 -40.6855
   -40.6801 -40.6787 -40.6760 -40.6752 -40.6741 -40.6740 -40.6739 -40.6703
   -40.6682 -40.6658 -40.6655 -40.6650 -40.6609 -40.6564 -40.6545 -40.6536
   -40.6516 -40.6468 -40.6467 -40.6467 -40.6275 -40.6273 -40.6272 -40.6272
   -40.6271 -40.6270 -40.5919 -40.5879 -40.5853 -40.5800 -40.5799 -40.5457
   -40.5404 -40.5385 -40.5356 -40.5336 -40.5285 -40.4888 -40.4818 -20.1759
   -20.1110 -19.9669 -19.5355 -19.3134 -19.2998 -19.2931 -19.2925 -19.2918
   -19.2853 -19.2615 -19.2365 -19.1913 -19.1845 -19.1761 -19.1401 -19.1226
   -19.1143 -19.0814 -19.0693 -19.0471 -18.9138 -18.7728 -18.6964 -18.5739
   -18.5580 -18.5412 -18.5158 -18.4985 -18.4938 -18.4709 -18.4351 -18.4198
   -18.4020 -18.3757 -18.3387 -18.3124 -18.3026 -18.2582 -18.2517 -18.2416
   -18.1991 -18.1895 -18.1878 -18.1871 -18.1870 -18.1867 -18.1867 -18.1849
   -18.1822 -18.1467 -18.1466 -18.1466 -18.1172 -18.1114 -18.1080 -18.1052
   -18.1023 -18.0994 -18.0916 -18.0746 -18.0740 -18.0701 -18.0486 -18.0232
   -18.0161 -18.0092 -18.0051 -18.0029 -17.9921 -17.9879 -17.9861 -17.9753
   -17.9631 -17.9602 -17.9599 -17.9570 -17.9554 -17.9332 -17.9259 -17.9226
   -17.9066 -17.9012 -17.8918 -17.8909 -17.8856 -17.8830 -17.8624 -17.8568
   -17.8495 -17.8281 -17.8159 -17.8105 -17.8063 -17.8011 -17.7943 -12.1497
   -11.9806 -11.9037 -11.8262 -11.8016 -11.7996 -11.7909 -11.7242 -11.7150
   -11.7078 -11.6748 -11.4554 -11.3345 -11.3176 -11.2630 -11.2520 -11.2503
   -11.2463 -11.2342 -11.2172 -11.1953 -11.1779 -11.1756 -11.1749 -11.1695
   -11.1641 -11.1628 -11.0995 -11.0869 -11.0633 -11.0491 -11.0376 -11.0320
   -11.0247 -11.0168 -11.0050 -10.9867 -10.9736 -10.9631 -10.9607 -10.9534
   -10.9485 -10.9214 -10.9154 -10.9064 -10.8910 -10.8830 -10.8808 -10.8778
   -10.8771 -10.8760 -10.8737 -10.8613 -10.8573 -10.8494 -10.8488 -10.8450
   -10.8304 -10.8294 -10.8272 -10.8262 -10.8166 -10.8154 -10.8035 -10.7698
   -10.7674 -10.7564 -10.7325 -10.7267 -10.6880 -10.6791 -10.6733 -10.6488
   -10.6436 -10.6379 -10.4943 -10.3226 -10.2586 -10.0973 -10.0947 -10.0921
   -10.0723  -9.9445  -9.9387  -9.9275  -9.8944  -9.8331  -9.8313  -9.8249
    -9.8222  -9.8195  -9.8012  -9.7887  -9.7704  -9.7546  -9.7460  -9.7415
    -9.7298  -9.7273  -9.7117  -9.6921  -9.6759  -9.6738  -9.6671  -9.6637
    -9.6618  -9.6511  -9.6349  -9.6232  -9.6215  -9.6204  -9.6196  -9.6177
    -9.6168  -9.6034  -9.5850  -9.5786  -9.5670  -9.5550  -9.5522  -9.5133
    -9.5025  -9.4856  -9.4817  -9.4777  -9.4733  -9.4324  -9.4020  -9.3860
    -9.3851  -9.3811  -9.3753  -9.3596  -9.3503  -9.3274  -9.2996  -9.2894
    -9.2666  -9.2522  -9.2451  -9.2409  -9.2341  -9.2316  -9.2225  -9.1589
    -9.1484  -9.1103  -9.0760  -9.0721  -9.0667  -9.0655  -9.0653  -9.0624
    -9.0572  -9.0502  -9.0420  -8.9988  -8.9876  -8.9871  -8.9821  -8.9602
    -8.9275  -8.9115  -8.9022  -8.8897  -8.8627  -8.8540  -8.8495  -8.8449
    -8.8435  -8.8417  -8.8355  -8.8250  -8.7997  -8.7955  -8.7861  -8.7857
    -8.7765  -8.7665  -8.7625  -8.7578  -8.7385  -8.7327  -8.6154  -8.5191
    -8.5039  -8.4765  -8.4765  -8.4041  -8.4040  -8.3667  -8.3648  -8.3645
    -8.3644  -8.3644  -8.3643  -8.3597  -8.3544  -8.3227  -8.3152  -8.2982
    -8.2943  -8.2930  -8.2866  -8.2864  -8.2860  -8.2748  -8.2454  -8.2275
    -8.1751  -8.1308  -8.0749  -7.9951  -7.9771  -7.9720  -7.9327  -7.7491
    -7.7324  -7.7268  -7.7031  -7.6678  -7.6293  -7.6292  -7.6290  -7.6289
    -7.6289  -7.6284  -7.6004  -7.5833  -7.5829  -7.5827  -7.5825  -7.5824
    -7.5820  -7.5725  -7.5662  -7.5587  -7.5565  -7.5516  -7.5487  -7.5432
    -7.5361  -7.5346  -7.5209  -7.5178  -7.5119  -7.5101  -7.5088  -7.5067
    -7.5004  -7.4962  -7.4944  -7.4856  -7.4676  -7.4656  -7.4633  -7.4623
    -7.4591  -7.4512  -7.4203  -7.3994  -7.3477  -7.3477  -7.3294  -7.3165
    -7.2916  -7.2820  -7.2778  -7.2692  -7.2525  -7.2360  -7.2240  -7.1800
    -7.1023  -7.0776  -7.0417  -7.0290  -6.9812  -6.9714  -6.9309  -6.9219
    -6.8850  -6.8725  -6.8478  -6.8442  -6.8396  -6.8178  -6.7471  -6.7238
    -6.7145  -6.7114  -6.6909  -6.6763  -6.6669  -6.6635  -6.6572  -6.6488
    -6.6200  -6.5971  -6.5875  -6.5727  -6.5703  -6.5637  -6.5605  -6.5542
    -6.5456  -6.5379  -6.5228  -6.5109  -6.5047  -6.4941  -6.4809  -6.4678
    -6.4659  -6.4639  -6.4580  -6.4161  -6.4025  -6.3957  -6.3956  -6.3956
    -6.3956  -6.3956  -6.3956  -6.3740  -6.3583  -6.3231  -6.3196  -6.3190
    -6.3177  -6.3172  -6.3153  -6.2996  -6.2854  -6.2631  -6.2344  -6.2211
    -6.1432  -6.0114  -5.8527  -5.7820  -5.5579  -5.4618  -5.3741  -5.3297
    -5.1690  -4.3168  -3.9117  -3.8814  -3.8777  -3.8753  -3.8749  -3.8558
    -3.8503  -3.8469  -3.8467  -3.8433  -3.8418  -3.8242  -3.7357  -3.6529
    -3.6462  -3.6306  -3.6269  -3.6238  -3.6155  -3.6110  -3.6101  -3.6053
    -3.6016  -3.5361  -3.5359  -3.5359  -3.5199  -3.5191  -3.5181  -3.5175
    -3.5169  -3.5162  -3.4833  -3.4688  -3.4687  -3.4684  -3.4450  -3.4278
    -3.4265  -3.4196  -3.4188  -3.4133  -3.4102  -3.4083  -3.4052  -3.4028
    -3.3999  -3.3884  -3.3837  -3.3805  -3.3717  -3.3463  -3.3253  -3.3162
    -3.3070  -3.3013  -3.2875  -3.2749  -3.2668  -3.2599  -3.2470  -3.2088
    -3.0708  -3.0702  -3.0700  -3.0650  -3.0648  -3.0636  -3.0026  -2.9986
    -2.9979  -2.9977  -2.9976  -2.9974  -2.9970  -2.9969  -2.9950  -2.9764
    -2.9761  -2.9750  -2.9609  -2.9563  -2.9421  -2.9384  -2.9324  -2.9303
    -2.9289  -2.9258  -2.9232  -2.9226  -2.9133  -2.9103  -2.9021  -2.8969
    -2.8898  -2.8640  -2.8506  -2.8407  -2.8299  -2.8252  -2.8133  -2.8086
    -2.8063  -2.7868  -2.7852  -2.7827  -2.7798  -2.7755  -2.7723  -2.7472
    -2.7391  -2.7365  -2.7058  -2.6916  -2.6746  -2.6718  -2.6666  -2.6476
    -2.6345  -2.5880  -2.5767  -2.5724  -2.5618  -2.5429  -2.5201  -2.5091
    -2.4974  -2.4945  -2.4853

          k = 0.0000-0.5773 0.0000 (321564 PWs)   bands (ev):

  -102.3854 -88.8287 -70.7174 -70.7163 -70.6922 -70.6875 -70.6735 -70.6622
   -70.6494 -66.7213 -66.7213 -66.7108 -66.7108 -66.6958 -66.6958 -66.6958
   -66.6958 -66.6914 -66.6914 -66.6852 -66.6852 -66.6852 -66.6852 -66.6808
   -66.6808 -66.6554 -66.6551 -66.6448 -66.6447 -66.6299 -66.6299 -66.6297
   -66.6296 -66.6255 -66.6252 -66.6196 -66.6192 -66.6190 -66.6189 -66.6148
   -66.6147 -66.5877 -66.5765 -66.5726 -66.5669 -66.5608 -66.5548 -66.5535
   -66.5471 -66.5411 -66.5378 -66.5364 -66.5331 -66.5327 -66.5223 -66.5070
   -66.4961 -56.6828 -56.6027 -56.5626 -54.6524 -54.6432 -54.5699 -41.0225
   -41.0225 -41.0224 -41.0224 -40.9958 -40.9958 -40.9839 -40.9839 -40.9557
   -40.9553 -40.9551 -40.9551 -40.9335 -40.9335 -40.9335 -40.9335 -40.9288
   -40.9285 -40.9168 -40.9167 -40.8910 -40.8755 -40.8755 -40.8739 -40.8665
   -40.8664 -40.8664 -40.8663 -40.8655 -40.8655 -40.8635 -40.8571 -40.8548
   -40.8548 -40.8485 -40.8438 -40.8318 -40.8253 -40.8253 -40.8253 -40.8253
   -40.8222 -40.8167 -40.8166 -40.8101 -40.8098 -40.8045 -40.8045 -40.8045
   -40.8044 -40.8044 -40.8044 -40.7986 -40.7985 -40.7958 -40.7958 -40.7893
   -40.7892 -40.7841 -40.7811 -40.7772 -40.7738 -40.7738 -40.7738 -40.7737
   -40.7712 -40.7600 -40.7600 -40.7597 -40.7597 -40.7513 -40.7510 -40.7490
   -40.7440 -40.7394 -40.7393 -40.7392 -40.7392 -40.7392 -40.7389 -40.7388
   -40.7388 -40.7376 -40.7376 -40.7304 -40.7304 -40.7272 -40.7272 -40.7247
   -40.7181 -40.7105 -40.7080 -40.7080 -40.7074 -40.7070 -40.7070 -40.7068
   -40.7067 -40.7048 -40.6952 -40.6911 -40.6911 -40.6904 -40.6840 -40.6810
   -40.6766 -40.6725 -40.6724 -40.6723 -40.6723 -40.6717 -40.6698 -40.6649
   -40.6612 -40.6607 -40.6606 -40.6605 -40.6602 -40.6540 -40.6519 -40.6474
   -40.6455 -40.6413 -40.6410 -40.6335 -40.6248 -40.6243 -40.6243 -40.6188
   -40.6096 -40.5940 -40.5937 -40.5909 -40.5838 -40.5833 -40.5800 -40.5780
   -40.5603 -40.5558 -40.5522 -40.5336 -40.5262 -40.5116 -40.4874 -20.0174
   -19.9228 -19.9066 -19.8077 -19.7476 -19.6835 -19.5005 -19.4917 -19.4496
   -19.4101 -19.3168 -19.2934 -19.0329 -18.8467 -18.7974 -18.7917 -18.7822
   -18.7792 -18.7758 -18.7615 -18.7440 -18.7057 -18.6746 -18.6539 -18.6495
   -18.6366 -18.6296 -18.5878 -18.5788 -18.5762 -18.5336 -18.5316 -18.5082
   -18.4897 -18.4621 -18.4518 -18.4390 -18.4319 -18.4042 -18.3760 -18.3417
   -18.3138 -18.3110 -18.2732 -18.2582 -18.2553 -18.2344 -18.2137 -18.1839
   -18.1673 -18.1672 -18.1671 -18.1670 -18.1609 -18.1479 -18.1386 -18.1257
   -18.1044 -18.0918 -18.0908 -18.0882 -18.0862 -18.0814 -18.0521 -18.0469
   -18.0300 -18.0255 -18.0152 -18.0078 -18.0063 -17.9879 -17.9798 -17.9727
   -17.9635 -17.9618 -17.9464 -17.9279 -17.9150 -17.9038 -17.9038 -17.8988
   -17.8964 -17.8608 -17.8500 -17.8441 -17.8439 -17.8281 -17.8275 -17.8185
   -17.8159 -17.8024 -17.7904 -17.7832 -17.7777 -17.7204 -17.7186 -12.0890
   -11.8164 -11.7184 -11.6938 -11.6109 -11.5148 -11.5145 -11.5131 -11.5113
   -11.4984 -11.4899 -11.4686 -11.4347 -11.4316 -11.4170 -11.4146 -11.4033
   -11.3742 -11.3508 -11.3424 -11.3347 -11.3329 -11.3215 -11.3071 -11.2966
   -11.2966 -11.2683 -11.2514 -11.2509 -11.2412 -11.2110 -11.1956 -11.1908
   -11.1901 -11.1551 -11.1007 -11.0341 -11.0278 -11.0168 -11.0037 -11.0001
   -10.9689 -10.9547 -10.9530 -10.9433 -10.9288 -10.9241 -10.8978 -10.8900
   -10.8808 -10.8738 -10.8709 -10.8696 -10.8688 -10.8678 -10.8662 -10.8375
   -10.8327 -10.8112 -10.8057 -10.8027 -10.7942 -10.7862 -10.7341 -10.6916
   -10.6297 -10.6146 -10.5550 -10.5305 -10.5092 -10.4253 -10.4164 -10.3885
   -10.2760 -10.2303 -10.1699 -10.1692 -10.1636 -10.1517 -10.1177 -10.1049
   -10.0859 -10.0727 -10.0198 -10.0131 -10.0070  -9.9785  -9.9753  -9.9691
    -9.9675  -9.9597  -9.9491  -9.9379  -9.9313  -9.9236  -9.9150  -9.8544
    -9.8311  -9.8212  -9.8206  -9.7919  -9.7866  -9.7755  -9.7590  -9.7534
    -9.7510  -9.7418  -9.7372  -9.7054  -9.7020  -9.6825  -9.6777  -9.6741
    -9.6525  -9.6488  -9.6372  -9.6244  -9.5804  -9.5715  -9.5681  -9.5575
    -9.5423  -9.5100  -9.5085  -9.4887  -9.4713  -9.3782  -9.3704  -9.3223
    -9.3061  -9.2706  -9.2408  -9.2375  -9.2296  -9.2013  -9.1835  -9.1768
    -9.1675  -9.1664  -9.1651  -9.1345  -9.1246  -9.1215  -9.1030  -9.0807
    -9.0728  -9.0574  -9.0559  -9.0425  -9.0305  -9.0251  -8.9995  -8.9975
    -8.9921  -8.9846  -8.9784  -8.9738  -8.9710  -8.9642  -8.9520  -8.9428
    -8.9321  -8.9208  -8.9091  -8.8974  -8.8946  -8.8925  -8.8856  -8.8792
    -8.8787  -8.8706  -8.8580  -8.8448  -8.8413  -8.8280  -8.8136  -8.8072
    -8.8020  -8.7849  -8.7777  -8.7596  -8.7418  -8.6199  -8.5877  -8.5718
    -8.5510  -8.5507  -8.4717  -8.4669  -8.4436  -8.4116  -8.3481  -8.2865
    -8.2801  -8.2329  -8.2329  -8.1973  -8.1759  -8.1612  -8.1602  -8.1208
    -8.0932  -8.0388  -7.9867  -7.9790  -7.9723  -7.9596  -7.9075  -7.8991
    -7.8982  -7.8948  -7.8863  -7.8863  -7.8854  -7.8849  -7.8806  -7.8669
    -7.8453  -7.8407  -7.8401  -7.8399  -7.8292  -7.8228  -7.8159  -7.8135
    -7.7985  -7.7965  -7.7926  -7.7841  -7.7705  -7.7692  -7.7622  -7.7588
    -7.7505  -7.7442  -7.7319  -7.7283  -7.7181  -7.7086  -7.7014  -7.7010
    -7.6978  -7.6947  -7.6821  -7.6700  -7.6634  -7.6442  -7.6316  -7.6268
    -7.6222  -7.6083  -7.5967  -7.5777  -7.5663  -7.5649  -7.5026  -7.4921
    -7.4803  -7.4080  -7.3870  -7.3069  -7.2974  -7.2786  -7.2721  -7.2595
    -7.2215  -7.2190  -7.1794  -7.1574  -7.1472  -7.1082  -7.0872  -7.0546
    -7.0483  -7.0453  -7.0341  -7.0148  -6.9945  -6.9863  -6.9809  -6.9755
    -6.9418  -6.9227  -6.8861  -6.8793  -6.8698  -6.8645  -6.8529  -6.8248
    -6.8192  -6.7654  -6.7340  -6.7034  -6.6980  -6.6979  -6.6979  -6.6967
    -6.6834  -6.6652  -6.6551  -6.6321  -6.6301  -6.6288  -6.6270  -6.6226
    -6.5962  -6.5874  -6.5641  -6.5448  -6.5167  -6.4920  -6.4723  -6.3778
    -6.3669  -6.3663  -6.3662  -6.3644  -6.3371  -6.3124  -6.3039  -6.2959
    -6.2885  -6.2856  -6.2836  -6.2800  -6.2676  -6.2303  -6.2279  -6.2110
    -6.1847  -6.1504  -6.0358  -6.0178  -6.0177  -5.9411  -5.9401  -5.8868
    -5.8118  -5.7954  -5.7015  -5.6887  -5.5886  -5.5700  -5.4368  -5.3507
    -5.2952  -4.3031  -4.0640  -4.0545  -4.0521  -4.0256  -3.9333  -3.9333
    -3.9249  -3.9013  -3.8688  -3.8682  -3.8496  -3.8088  -3.8005  -3.7965
    -3.7924  -3.7536  -3.7246  -3.6713  -3.6396  -3.6366  -3.6333  -3.6326
    -3.6188  -3.6188  -3.6091  -3.5847  -3.5724  -3.5456  -3.5405  -3.5387
    -3.5307  -3.5206  -3.5156  -3.5109  -3.5086  -3.4991  -3.4989  -3.4618
    -3.4549  -3.4340  -3.4102  -3.4078  -3.3883  -3.3872  -3.3855  -3.3852
    -3.3568  -3.3549  -3.3506  -3.3446  -3.3209  -3.3102  -3.3093  -3.3091
    -3.3087  -3.2983  -3.2901  -3.2785  -3.2694  -3.2614  -3.2464  -3.2411
    -3.2401  -3.2347  -3.2276  -3.2234  -3.2136  -3.1927  -3.1710  -3.1552
    -3.1463  -3.1379  -3.1223  -3.1065  -3.1043  -3.0705  -3.0658  -3.0654
    -3.0571  -3.0469  -3.0459  -3.0457  -3.0455  -3.0135  -3.0014  -2.9977
    -2.9959  -2.9824  -2.9760  -2.9703  -2.9585  -2.9492  -2.9489  -2.9432
    -2.9328  -2.9207  -2.9187  -2.9119  -2.8988  -2.8917  -2.8770  -2.8620
    -2.8449  -2.8372  -2.8330  -2.8320  -2.8246  -2.7675  -2.7634  -2.7414
    -2.7295  -2.6949  -2.6846  -2.6834  -2.6724  -2.6703  -2.6628  -2.6015
    -2.5979  -2.5661  -2.5434  -2.5357  -2.5214  -2.5183  -2.4926  -2.4567
    -2.4022  -2.3570  -2.3279

          k =-0.5000-0.2887 0.0000 (321564 PWs)   bands (ev):

  -102.3854 -88.8287 -70.7174 -70.7163 -70.6922 -70.6875 -70.6735 -70.6622
   -70.6494 -66.7213 -66.7213 -66.7108 -66.7108 -66.6958 -66.6958 -66.6958
   -66.6958 -66.6914 -66.6914 -66.6852 -66.6852 -66.6852 -66.6852 -66.6808
   -66.6808 -66.6553 -66.6552 -66.6448 -66.6447 -66.6299 -66.6298 -66.6298
   -66.6296 -66.6254 -66.6254 -66.6193 -66.6193 -66.6191 -66.6190 -66.6148
   -66.6147 -66.5866 -66.5806 -66.5696 -66.5649 -66.5597 -66.5571 -66.5555
   -66.5462 -66.5409 -66.5384 -66.5357 -66.5330 -66.5323 -66.5226 -66.5070
   -66.4961 -56.6828 -56.6027 -56.5626 -54.6524 -54.6432 -54.5699 -41.0225
   -41.0225 -41.0224 -41.0224 -40.9958 -40.9958 -40.9839 -40.9839 -40.9554
   -40.9554 -40.9553 -40.9552 -40.9335 -40.9335 -40.9335 -40.9335 -40.9287
   -40.9286 -40.9168 -40.9167 -40.8810 -40.8775 -40.8755 -40.8755 -40.8706
   -40.8665 -40.8664 -40.8663 -40.8663 -40.8655 -40.8655 -40.8596 -40.8548
   -40.8548 -40.8537 -40.8481 -40.8286 -40.8253 -40.8253 -40.8253 -40.8253
   -40.8167 -40.8166 -40.8130 -40.8100 -40.8099 -40.8045 -40.8045 -40.8045
   -40.8044 -40.8044 -40.8044 -40.7986 -40.7985 -40.7958 -40.7958 -40.7893
   -40.7892 -40.7818 -40.7772 -40.7754 -40.7738 -40.7738 -40.7738 -40.7737
   -40.7725 -40.7600 -40.7599 -40.7598 -40.7597 -40.7513 -40.7511 -40.7492
   -40.7434 -40.7392 -40.7392 -40.7392 -40.7392 -40.7391 -40.7391 -40.7390
   -40.7388 -40.7376 -40.7375 -40.7304 -40.7303 -40.7279 -40.7272 -40.7272
   -40.7151 -40.7134 -40.7087 -40.7080 -40.7080 -40.7070 -40.7069 -40.7068
   -40.7068 -40.7056 -40.6943 -40.6911 -40.6911 -40.6899 -40.6870 -40.6823
   -40.6788 -40.6725 -40.6724 -40.6723 -40.6723 -40.6696 -40.6663 -40.6645
   -40.6614 -40.6607 -40.6606 -40.6604 -40.6603 -40.6560 -40.6538 -40.6492
   -40.6454 -40.6412 -40.6411 -40.6264 -40.6254 -40.6244 -40.6242 -40.6200
   -40.6178 -40.5939 -40.5938 -40.5905 -40.5877 -40.5834 -40.5763 -40.5727
   -40.5611 -40.5578 -40.5520 -40.5338 -40.5170 -40.5089 -40.4958 -20.0129
   -19.9233 -19.9065 -19.8143 -19.7481 -19.6937 -19.4946 -19.4916 -19.4358
   -19.4092 -19.3136 -19.2930 -19.0378 -18.8521 -18.8207 -18.7850 -18.7806
   -18.7796 -18.7761 -18.7607 -18.7443 -18.7018 -18.6700 -18.6536 -18.6498
   -18.6411 -18.6202 -18.5887 -18.5847 -18.5777 -18.5324 -18.5319 -18.5011
   -18.4930 -18.4712 -18.4526 -18.4372 -18.4272 -18.4154 -18.3616 -18.3526
   -18.3111 -18.2915 -18.2765 -18.2616 -18.2565 -18.2258 -18.2039 -18.1938
   -18.1674 -18.1672 -18.1672 -18.1671 -18.1596 -18.1426 -18.1396 -18.1095
   -18.1081 -18.0951 -18.0906 -18.0898 -18.0846 -18.0749 -18.0695 -18.0410
   -18.0316 -18.0281 -18.0138 -18.0110 -18.0063 -17.9863 -17.9807 -17.9749
   -17.9697 -17.9616 -17.9519 -17.9210 -17.9161 -17.9075 -17.9038 -17.9038
   -17.8970 -17.8564 -17.8504 -17.8442 -17.8439 -17.8373 -17.8280 -17.8273
   -17.8157 -17.7971 -17.7861 -17.7828 -17.7691 -17.7238 -17.7138 -12.0738
   -11.7946 -11.7163 -11.6931 -11.6281 -11.5283 -11.5167 -11.5148 -11.5111
   -11.5008 -11.4907 -11.4839 -11.4800 -11.4368 -11.4177 -11.4127 -11.4059
   -11.3825 -11.3649 -11.3575 -11.3410 -11.3230 -11.3203 -11.2966 -11.2966
   -11.2840 -11.2635 -11.2509 -11.2504 -11.2216 -11.2002 -11.1944 -11.1933
   -11.1910 -11.1466 -11.0901 -11.0479 -11.0305 -11.0159 -11.0068 -10.9884
   -10.9653 -10.9544 -10.9518 -10.9469 -10.9242 -10.9187 -10.8983 -10.8883
   -10.8783 -10.8713 -10.8703 -10.8690 -10.8680 -10.8645 -10.8538 -10.8377
   -10.8334 -10.8181 -10.8069 -10.8018 -10.7993 -10.7881 -10.7680 -10.6636
   -10.6222 -10.5934 -10.5364 -10.5290 -10.4841 -10.4279 -10.4008 -10.3741
   -10.3164 -10.2755 -10.2225 -10.1739 -10.1616 -10.1549 -10.1469 -10.0962
   -10.0725 -10.0519 -10.0442  -9.9928  -9.9785  -9.9759  -9.9754  -9.9728
    -9.9673  -9.9440  -9.9399  -9.9337  -9.9324  -9.9198  -9.8954  -9.8408
    -9.8343  -9.8071  -9.8021  -9.7928  -9.7882  -9.7720  -9.7620  -9.7512
    -9.7493  -9.7405  -9.7325  -9.7140  -9.6956  -9.6866  -9.6764  -9.6590
    -9.6502  -9.6449  -9.6437  -9.5952  -9.5841  -9.5716  -9.5701  -9.5616
    -9.5470  -9.5114  -9.5091  -9.5013  -9.4775  -9.4161  -9.3706  -9.3561
    -9.3254  -9.2979  -9.2480  -9.2388  -9.2203  -9.1994  -9.1983  -9.1910
    -9.1760  -9.1663  -9.1633  -9.1481  -9.1243  -9.1103  -9.0904  -9.0834
    -9.0607  -9.0569  -9.0468  -9.0357  -9.0304  -9.0227  -9.0109  -8.9997
    -8.9919  -8.9872  -8.9760  -8.9721  -8.9705  -8.9646  -8.9575  -8.9351
    -8.9329  -8.9092  -8.8978  -8.8956  -8.8895  -8.8864  -8.8793  -8.8781
    -8.8771  -8.8700  -8.8594  -8.8537  -8.8429  -8.8351  -8.8230  -8.8054
    -8.8014  -8.7919  -8.7812  -8.7591  -8.7375  -8.6501  -8.5862  -8.5530
    -8.5512  -8.5423  -8.4722  -8.4681  -8.4624  -8.4223  -8.3837  -8.2812
    -8.2329  -8.2329  -8.2292  -8.2124  -8.1619  -8.1605  -8.1513  -8.1131
    -8.1039  -8.0144  -8.0084  -7.9726  -7.9703  -7.9181  -7.9087  -7.9067
    -7.8964  -7.8909  -7.8862  -7.8862  -7.8858  -7.8851  -7.8781  -7.8536
    -7.8503  -7.8407  -7.8399  -7.8367  -7.8336  -7.8224  -7.8158  -7.8123
    -7.7982  -7.7935  -7.7896  -7.7813  -7.7746  -7.7696  -7.7653  -7.7601
    -7.7561  -7.7450  -7.7304  -7.7269  -7.7207  -7.7087  -7.7011  -7.7009
    -7.6882  -7.6860  -7.6773  -7.6676  -7.6597  -7.6410  -7.6373  -7.6313
    -7.6244  -7.6186  -7.5930  -7.5802  -7.5646  -7.5489  -7.5347  -7.4997
    -7.4840  -7.4169  -7.3592  -7.3129  -7.2943  -7.2794  -7.2707  -7.2607
    -7.2332  -7.1910  -7.1727  -7.1508  -7.1505  -7.0989  -7.0960  -7.0727
    -7.0519  -7.0490  -7.0448  -7.0288  -6.9929  -6.9895  -6.9822  -6.9502
    -6.9427  -6.9299  -6.9201  -6.9092  -6.8773  -6.8701  -6.8571  -6.8285
    -6.7715  -6.7613  -6.7325  -6.7271  -6.7024  -6.6980  -6.6979  -6.6978
    -6.6976  -6.6732  -6.6356  -6.6324  -6.6303  -6.6279  -6.6263  -6.6043
    -6.6021  -6.5868  -6.5514  -6.5271  -6.5018  -6.4968  -6.4810  -6.4552
    -6.3681  -6.3666  -6.3662  -6.3659  -6.3511  -6.3021  -6.2997  -6.2897
    -6.2848  -6.2828  -6.2808  -6.2668  -6.2456  -6.2418  -6.2226  -6.2100
    -6.1840  -6.0347  -6.0178  -6.0178  -5.9782  -5.9462  -5.9383  -5.9285
    -5.8720  -5.7886  -5.6953  -5.6884  -5.6232  -5.5674  -5.4404  -5.3621
    -5.3029  -4.3155  -4.0640  -4.0569  -4.0534  -4.0269  -3.9332  -3.9332
    -3.9183  -3.8977  -3.8684  -3.8681  -3.8463  -3.8148  -3.8074  -3.8010
    -3.7914  -3.7573  -3.7195  -3.6642  -3.6394  -3.6351  -3.6338  -3.6326
    -3.6190  -3.6188  -3.6154  -3.5858  -3.5785  -3.5436  -3.5417  -3.5395
    -3.5355  -3.5163  -3.5124  -3.5076  -3.5053  -3.5021  -3.5002  -3.4561
    -3.4506  -3.4214  -3.4110  -3.3947  -3.3907  -3.3874  -3.3859  -3.3818
    -3.3573  -3.3537  -3.3505  -3.3462  -3.3265  -3.3122  -3.3098  -3.3092
    -3.3088  -3.3070  -3.2844  -3.2753  -3.2689  -3.2652  -3.2485  -3.2374
    -3.2361  -3.2330  -3.2315  -3.2218  -3.2154  -3.1844  -3.1596  -3.1522
    -3.1464  -3.1346  -3.1168  -3.1060  -3.1043  -3.0702  -3.0682  -3.0655
    -3.0641  -3.0464  -3.0462  -3.0460  -3.0457  -3.0108  -3.0019  -2.9976
    -2.9968  -2.9819  -2.9714  -2.9637  -2.9591  -2.9521  -2.9505  -2.9437
    -2.9340  -2.9196  -2.9155  -2.9092  -2.8993  -2.8903  -2.8734  -2.8618
    -2.8525  -2.8446  -2.8378  -2.8326  -2.8278  -2.7697  -2.7619  -2.7406
    -2.7332  -2.7005  -2.6872  -2.6829  -2.6805  -2.6666  -2.6618  -2.6031
    -2.5979  -2.5768  -2.5445  -2.5308  -2.5220  -2.5187  -2.4981  -2.4383
    -2.4052  -2.3570  -2.3095

          k =-0.5000-0.8660 0.0000 (321564 PWs)   bands (ev):

  -102.3854 -88.8287 -70.7174 -70.7163 -70.6922 -70.6875 -70.6735 -70.6622
   -70.6494 -66.7213 -66.7213 -66.7108 -66.7108 -66.6958 -66.6958 -66.6958
   -66.6958 -66.6914 -66.6914 -66.6852 -66.6852 -66.6852 -66.6852 -66.6808
   -66.6808 -66.6555 -66.6551 -66.6448 -66.6447 -66.6299 -66.6298 -66.6298
   -66.6296 -66.6256 -66.6252 -66.6195 -66.6195 -66.6190 -66.6187 -66.6148
   -66.6147 -66.5867 -66.5805 -66.5693 -66.5645 -66.5615 -66.5570 -66.5544
   -66.5465 -66.5397 -66.5385 -66.5361 -66.5352 -66.5306 -66.5227 -66.5071
   -66.4961 -56.6828 -56.6027 -56.5626 -54.6524 -54.6432 -54.5699 -41.0225
   -41.0225 -41.0225 -41.0224 -40.9958 -40.9958 -40.9839 -40.9839 -40.9556
   -40.9555 -40.9551 -40.9550 -40.9335 -40.9335 -40.9335 -40.9335 -40.9289
   -40.9285 -40.9168 -40.9167 -40.8831 -40.8755 -40.8755 -40.8733 -40.8677
   -40.8665 -40.8664 -40.8663 -40.8663 -40.8655 -40.8655 -40.8648 -40.8548
   -40.8548 -40.8545 -40.8473 -40.8304 -40.8253 -40.8253 -40.8253 -40.8253
   -40.8167 -40.8166 -40.8116 -40.8101 -40.8097 -40.8045 -40.8045 -40.8044
   -40.8044 -40.8044 -40.8044 -40.7986 -40.7985 -40.7958 -40.7958 -40.7893
   -40.7892 -40.7851 -40.7759 -40.7738 -40.7738 -40.7738 -40.7737 -40.7726
   -40.7720 -40.7600 -40.7599 -40.7598 -40.7597 -40.7514 -40.7512 -40.7510
   -40.7393 -40.7392 -40.7392 -40.7392 -40.7392 -40.7392 -40.7388 -40.7386
   -40.7376 -40.7375 -40.7372 -40.7327 -40.7304 -40.7303 -40.7272 -40.7272
   -40.7184 -40.7131 -40.7082 -40.7080 -40.7080 -40.7072 -40.7070 -40.7068
   -40.7065 -40.6991 -40.6957 -40.6911 -40.6911 -40.6903 -40.6873 -40.6854
   -40.6742 -40.6733 -40.6725 -40.6724 -40.6723 -40.6723 -40.6686 -40.6636
   -40.6607 -40.6606 -40.6606 -40.6601 -40.6585 -40.6553 -40.6543 -40.6505
   -40.6456 -40.6414 -40.6409 -40.6273 -40.6261 -40.6244 -40.6242 -40.6204
   -40.6162 -40.5941 -40.5936 -40.5911 -40.5854 -40.5819 -40.5786 -40.5741
   -40.5624 -40.5585 -40.5486 -40.5304 -40.5200 -40.5112 -40.4941 -20.0133
   -19.9233 -19.9065 -19.8129 -19.7481 -19.6918 -19.5007 -19.4900 -19.4507
   -19.3974 -19.3171 -19.2838 -19.0317 -18.8758 -18.8036 -18.7858 -18.7806
   -18.7795 -18.7760 -18.7570 -18.7474 -18.7033 -18.6716 -18.6564 -18.6441
   -18.6417 -18.6217 -18.5886 -18.5843 -18.5766 -18.5334 -18.5314 -18.5084
   -18.4945 -18.4637 -18.4459 -18.4359 -18.4322 -18.4152 -18.3523 -18.3443
   -18.3323 -18.2897 -18.2717 -18.2623 -18.2548 -18.2242 -18.2150 -18.1831
   -18.1690 -18.1673 -18.1671 -18.1671 -18.1663 -18.1429 -18.1402 -18.1141
   -18.1062 -18.0951 -18.0912 -18.0897 -18.0851 -18.0773 -18.0659 -18.0395
   -18.0312 -18.0214 -18.0178 -18.0115 -18.0049 -17.9862 -17.9819 -17.9764
   -17.9688 -17.9609 -17.9504 -17.9223 -17.9190 -17.9053 -17.9038 -17.9038
   -17.8963 -17.8558 -17.8539 -17.8440 -17.8438 -17.8345 -17.8277 -17.8273
   -17.8117 -17.7983 -17.7861 -17.7825 -17.7712 -17.7244 -17.7140 -12.0697
   -11.8115 -11.7209 -11.6994 -11.6202 -11.5170 -11.5154 -11.5124 -11.5112
   -11.4987 -11.4889 -11.4803 -11.4548 -11.4312 -11.4223 -11.4157 -11.4090
   -11.3801 -11.3615 -11.3523 -11.3442 -11.3230 -11.3215 -11.2969 -11.2966
   -11.2964 -11.2771 -11.2509 -11.2506 -11.2342 -11.1999 -11.1982 -11.1921
   -11.1906 -11.1509 -11.0882 -11.0443 -11.0260 -11.0126 -11.0086 -10.9986
   -10.9610 -10.9581 -10.9503 -10.9426 -10.9389 -10.9115 -10.8991 -10.8894
   -10.8761 -10.8704 -10.8698 -10.8690 -10.8667 -10.8611 -10.8555 -10.8378
   -10.8223 -10.8197 -10.8087 -10.8017 -10.7986 -10.7862 -10.7714 -10.6449
   -10.6329 -10.6144 -10.5361 -10.5300 -10.4855 -10.4217 -10.4113 -10.3777
   -10.2972 -10.2507 -10.2110 -10.1710 -10.1580 -10.1560 -10.1489 -10.1022
   -10.0702 -10.0578 -10.0465 -10.0036  -9.9806  -9.9788  -9.9752  -9.9727
    -9.9641  -9.9568  -9.9408  -9.9349  -9.9316  -9.9201  -9.8994  -9.8474
    -9.8279  -9.8034  -9.7998  -9.7921  -9.7912  -9.7708  -9.7662  -9.7513
    -9.7487  -9.7381  -9.7343  -9.7102  -9.6982  -9.6865  -9.6732  -9.6620
    -9.6522  -9.6491  -9.6376  -9.5946  -9.5844  -9.5721  -9.5689  -9.5592
    -9.5540  -9.5104  -9.5090  -9.5043  -9.4699  -9.4037  -9.3679  -9.3534
    -9.3357  -9.3009  -9.2491  -9.2332  -9.2175  -9.2075  -9.2004  -9.1833
    -9.1747  -9.1694  -9.1637  -9.1479  -9.1232  -9.1137  -9.0956  -9.0845
    -9.0683  -9.0646  -9.0536  -9.0392  -9.0263  -9.0160  -9.0093  -8.9984
    -8.9936  -8.9872  -8.9814  -8.9712  -8.9711  -8.9650  -8.9546  -8.9355
    -8.9265  -8.9083  -8.8976  -8.8950  -8.8947  -8.8830  -8.8795  -8.8789
    -8.8769  -8.8668  -8.8564  -8.8504  -8.8419  -8.8289  -8.8234  -8.8057
    -8.8018  -8.7916  -8.7800  -8.7584  -8.7425  -8.6635  -8.5716  -8.5525
    -8.5509  -8.5329  -8.4724  -8.4701  -8.4619  -8.4103  -8.3794  -8.3027
    -8.2336  -8.2329  -8.2329  -8.2152  -8.1614  -8.1608  -8.1535  -8.1094
    -8.0920  -8.0578  -7.9889  -7.9728  -7.9697  -7.9276  -7.9070  -7.9027
    -7.8958  -7.8919  -7.8863  -7.8862  -7.8862  -7.8815  -7.8775  -7.8615
    -7.8480  -7.8403  -7.8398  -7.8380  -7.8341  -7.8184  -7.8159  -7.8090
    -7.7998  -7.7919  -7.7885  -7.7810  -7.7738  -7.7679  -7.7659  -7.7591
    -7.7575  -7.7415  -7.7318  -7.7247  -7.7212  -7.7065  -7.7010  -7.7009
    -7.6916  -7.6889  -7.6761  -7.6649  -7.6547  -7.6458  -7.6366  -7.6310
    -7.6179  -7.6153  -7.5910  -7.5817  -7.5603  -7.5502  -7.5277  -7.5015
    -7.4838  -7.4143  -7.3486  -7.3110  -7.2927  -7.2826  -7.2665  -7.2591
    -7.2437  -7.1991  -7.1729  -7.1570  -7.1524  -7.1004  -7.0936  -7.0718
    -7.0587  -7.0489  -7.0479  -7.0342  -6.9933  -6.9874  -6.9792  -6.9603
    -6.9420  -6.9308  -6.9162  -6.9103  -6.8772  -6.8685  -6.8601  -6.8160
    -6.7762  -6.7643  -6.7458  -6.7173  -6.7041  -6.6980  -6.6979  -6.6978
    -6.6976  -6.6598  -6.6440  -6.6378  -6.6301  -6.6285  -6.6274  -6.6122
    -6.5966  -6.5867  -6.5403  -6.5267  -6.4904  -6.4800  -6.4702  -6.4475
    -6.3809  -6.3665  -6.3663  -6.3657  -6.3641  -6.3076  -6.3021  -6.2885
    -6.2876  -6.2838  -6.2809  -6.2739  -6.2520  -6.2428  -6.2368  -6.1956
    -6.1791  -6.0646  -6.0178  -6.0178  -5.9561  -5.9433  -5.9336  -5.9252
    -5.8603  -5.7863  -5.6996  -5.6898  -5.6142  -5.5839  -5.4359  -5.3652
    -5.3007  -4.3340  -4.0646  -4.0567  -4.0534  -4.0306  -3.9333  -3.9332
    -3.9158  -3.8961  -3.8686  -3.8684  -3.8451  -3.8132  -3.8066  -3.8005
    -3.7914  -3.7598  -3.7173  -3.6602  -3.6415  -3.6356  -3.6332  -3.6306
    -3.6189  -3.6187  -3.6104  -3.5855  -3.5813  -3.5490  -3.5397  -3.5388
    -3.5273  -3.5168  -3.5144  -3.5095  -3.5039  -3.5005  -3.4968  -3.4493
    -3.4392  -3.4297  -3.4131  -3.3952  -3.3894  -3.3860  -3.3858  -3.3736
    -3.3577  -3.3540  -3.3454  -3.3421  -3.3353  -3.3118  -3.3093  -3.3093
    -3.3087  -3.3078  -3.2806  -3.2744  -3.2697  -3.2650  -3.2550  -3.2423
    -3.2412  -3.2315  -3.2259  -3.2174  -3.2166  -3.1906  -3.1699  -3.1524
    -3.1462  -3.1397  -3.1063  -3.1060  -3.1047  -3.0727  -3.0672  -3.0649
    -3.0633  -3.0464  -3.0460  -3.0458  -3.0457  -3.0113  -3.0024  -2.9975
    -2.9966  -2.9833  -2.9685  -2.9593  -2.9562  -2.9519  -2.9505  -2.9350
    -2.9277  -2.9248  -2.9168  -2.9109  -2.9008  -2.8899  -2.8744  -2.8603
    -2.8568  -2.8446  -2.8364  -2.8337  -2.8306  -2.7669  -2.7665  -2.7393
    -2.7341  -2.6955  -2.6899  -2.6837  -2.6820  -2.6667  -2.6643  -2.6029
    -2.5995  -2.5762  -2.5494  -2.5325  -2.5260  -2.5230  -2.5058  -2.4628
    -2.4043  -2.3726  -2.3247

     the Fermi energy is    -4.7591 ev

!    total energy              =  -26031.78704974 Ry
     total all-electron energy =   -512284.356677 Ry
     estimated scf accuracy    <       0.00000010 Ry
     smearing contrib. (-TS)   =      -0.00000033 Ry
     internal energy E=F+TS    =  -26031.78704941 Ry

     The total energy is F=E-TS. E is the sum of the following terms:
     one-electron contribution =  492049.92585426 Ry
     hartree contribution      = -246168.52083247 Ry
     xc contribution           =   -1534.64260789 Ry
     ewald contribution        = -254185.76776862 Ry
     DFT-D3 Dispersion         =      -4.02097358 Ry
     one-center paw contrib.   =  -16188.76072113 Ry

     convergence has been achieved in  22 iterations

     negative rho (up, down):  9.194E-04 0.000E+00

     Forces acting on atoms (cartesian axes, Ry/au):

     atom    1 type  1   force =     0.00371640   -0.00434465    0.00264058
     atom    2 type  1   force =     0.00000454    0.00000036    0.00188645
     atom    3 type  1   force =    -0.00001513   -0.00006385    0.00001189
     atom    4 type  2   force =     0.00000291   -0.00000101   -0.00316413
     atom    5 type  2   force =     0.00000585    0.00000472    0.00007898
     atom    6 type  2   force =    -0.00029054   -0.00120172   -0.00147436
     atom    7 type  2   force =     0.00000535   -0.00000283    0.00138579
     atom    8 type  2   force =     0.00001022   -0.00003927   -0.00010805
     atom    9 type  2   force =    -0.00027479    0.00029493   -0.00260016
     atom   10 type  1   force =    -0.00036972   -0.00087131   -0.03490571
     atom   11 type  1   force =     0.00000242   -0.00001015    0.00187935
     atom   12 type  1   force =     0.00000409   -0.00001767   -0.00001699
     atom   13 type  2   force =     0.00000259   -0.00000194   -0.00316632
     atom   14 type  2   force =    -0.00001837   -0.00002484    0.00009352
     atom   15 type  2   force =     0.00077048    0.00065252    0.00402549
     atom   16 type  2   force =     0.00000292   -0.00000331    0.00140289
     atom   17 type  2   force =    -0.00004903   -0.00004677   -0.00010443
     atom   18 type  2   force =    -0.02514902   -0.01152722    0.02021114
     atom   19 type  1   force =    -0.00227619    0.00296442   -0.00325066
     atom   20 type  1   force =    -0.00000341   -0.00000826    0.00187926
     atom   21 type  1   force =    -0.00005089    0.00003997   -0.00000478
     atom   22 type  2   force =     0.00000000   -0.00000100   -0.00316846
     atom   23 type  2   force =     0.00000169    0.00000825    0.00008435
     atom   24 type  2   force =    -0.00089168    0.00035208   -0.00122312
     atom   25 type  2   force =    -0.00000232    0.00000126    0.00138589
     atom   26 type  2   force =    -0.00002766    0.00002613   -0.00004256
     atom   27 type  2   force =     0.00111077   -0.00041828   -0.00145008
     atom   28 type  1   force =     0.00014251    0.00045634    0.00070295
     atom   29 type  1   force =     0.00000150    0.00001173    0.00188598
     atom   30 type  1   force =     0.00006240    0.00001756   -0.00006642
     atom   31 type  2   force =     0.00000101    0.00000151   -0.00316843
     atom   32 type  2   force =     0.00000048    0.00000356    0.00005025
     atom   33 type  2   force =    -0.00001898    0.00010057   -0.00028108
     atom   34 type  2   force =    -0.00000287    0.00000225    0.00139472
     atom   35 type  2   force =    -0.00001819    0.00000853   -0.00010090
     atom   36 type  2   force =     0.00052683   -0.00000687   -0.00017582
     atom   37 type  1   force =    -0.00162136    0.00076577    0.00066022
     atom   38 type  1   force =    -0.00000037   -0.00000194    0.00188057
     atom   39 type  1   force =     0.00001199   -0.00003903   -0.00000790
     atom   40 type  2   force =     0.00000365    0.00000005   -0.00316473
     atom   41 type  2   force =    -0.00001316    0.00000231    0.00007829
     atom   42 type  2   force =    -0.00074521    0.00062432   -0.00011247
     atom   43 type  2   force =     0.00000119    0.00000487    0.00139191
     atom   44 type  2   force =    -0.00000638   -0.00000663   -0.00011963
     atom   45 type  2   force =     0.00013536    0.00025830    0.00012180
     atom   46 type  1   force =     0.00270289    0.00052011    0.00145231
     atom   47 type  1   force =    -0.00000078   -0.00001474    0.00187794
     atom   48 type  1   force =    -0.00001577   -0.00001206   -0.00001745
     atom   49 type  2   force =     0.00000582   -0.00000104   -0.00316321
     atom   50 type  2   force =    -0.00000059    0.00000501    0.00010745
     atom   51 type  2   force =    -0.00074224    0.00072853    0.00364200
     atom   52 type  2   force =     0.00000408    0.00000189    0.00138537
     atom   53 type  2   force =     0.00000885    0.00002006   -0.00008402
     atom   54 type  2   force =     0.03217723   -0.01322056    0.00607626
     atom   55 type  1   force =     0.00245158    0.00490769   -0.00125834
     atom   56 type  1   force =    -0.00000051   -0.00000901    0.00187585
     atom   57 type  1   force =     0.00001238   -0.00002120   -0.00001951
     atom   58 type  2   force =     0.00000350   -0.00000338   -0.00316735
     atom   59 type  2   force =     0.00001622   -0.00000831    0.00009954
     atom   60 type  2   force =     0.00065166   -0.00032013    0.00422517
     atom   61 type  2   force =     0.00000706   -0.00000454    0.00139041
     atom   62 type  2   force =     0.00003421   -0.00000512   -0.00007149
     atom   63 type  2   force =    -0.00261782    0.02515321    0.02018949
     atom   64 type  1   force =    -0.00033975   -0.00070612    0.00040291
     atom   65 type  1   force =    -0.00000499    0.00001420    0.00188131
     atom   66 type  1   force =    -0.00006535    0.00002235   -0.00003532
     atom   67 type  2   force =    -0.00000059    0.00000466   -0.00316689
     atom   68 type  2   force =    -0.00000426   -0.00000701    0.00009027
     atom   69 type  2   force =     0.00001615    0.00011305    0.00002119
     atom   70 type  2   force =     0.00000229    0.00000402    0.00139486
     atom   71 type  2   force =    -0.00001481    0.00000039   -0.00004985
     atom   72 type  2   force =     0.00004900    0.00016139    0.00061232
     atom   73 type  1   force =     0.00048679    0.00060349    0.00000608
     atom   74 type  1   force =    -0.00000692    0.00001021    0.00188239
     atom   75 type  1   force =    -0.00000500   -0.00001751   -0.00003327
     atom   76 type  2   force =    -0.00000284    0.00000115   -0.00316434
     atom   77 type  2   force =     0.00004783    0.00002427    0.00011685
     atom   78 type  2   force =    -0.00003796   -0.00004528   -0.00000014
     atom   79 type  2   force =    -0.00000448   -0.00000048    0.00138307
     atom   80 type  2   force =    -0.00003995   -0.00001586   -0.00004702
     atom   81 type  2   force =     0.00011513   -0.00000319    0.00009619
     atom   82 type  1   force =    -0.00055043   -0.00011989    0.00042633
     atom   83 type  1   force =     0.00000824   -0.00001095    0.00188684
     atom   84 type  1   force =     0.00003348   -0.00000105   -0.00000577
     atom   85 type  2   force =    -0.00000069   -0.00000226   -0.00316658
     atom   86 type  2   force =     0.00001853   -0.00001318    0.00008479
     atom   87 type  2   force =    -0.00009016    0.00038893    0.00016521
     atom   88 type  2   force =    -0.00000105    0.00000558    0.00139105
     atom   89 type  2   force =     0.00003572   -0.00002731   -0.00010203
     atom   90 type  2   force =     0.00092774    0.00105828    0.00236466
     atom   91 type  1   force =     0.00064856   -0.00055268    0.00047918
     atom   92 type  1   force =     0.00000648   -0.00001430    0.00187778
     atom   93 type  1   force =     0.00004864    0.00002612    0.00002069
     atom   94 type  2   force =     0.00000355   -0.00000469   -0.00316911
     atom   95 type  2   force =    -0.00001074   -0.00000285    0.00008449
     atom   96 type  2   force =     0.00098654    0.00098159   -0.00088362
     atom   97 type  2   force =     0.00000473   -0.00000366    0.00139210
     atom   98 type  2   force =     0.00000341    0.00000098   -0.00011048
     atom   99 type  2   force =     0.00176011   -0.00248168   -0.00593352
     atom  100 type  1   force =    -0.00010976    0.00027841    0.00052343
     atom  101 type  1   force =     0.00000021    0.00001255    0.00188025
     atom  102 type  1   force =     0.00003309    0.00005032   -0.00000550
     atom  103 type  2   force =     0.00000306    0.00000000   -0.00317041
     atom  104 type  2   force =     0.00000683    0.00002374    0.00007740
     atom  105 type  2   force =     0.00014222   -0.00043840   -0.00002679
     atom  106 type  2   force =     0.00000857    0.00000004    0.00139490
     atom  107 type  2   force =     0.00001368    0.00006454   -0.00011892
     atom  108 type  2   force =     0.00024695    0.00056688    0.00002688
     atom  109 type  1   force =    -0.00210022   -0.00340194   -0.00136376
     atom  110 type  1   force =     0.00000545    0.00000002    0.00188104
     atom  111 type  1   force =     0.00001030   -0.00005536    0.00013080
     atom  112 type  2   force =     0.00000157   -0.00000328   -0.00316448
     atom  113 type  2   force =    -0.00003898    0.00002488    0.00011245
     atom  114 type  2   force =     0.00039338   -0.00013001   -0.00039747
     atom  115 type  2   force =     0.00000110   -0.00000299    0.00140274
     atom  116 type  2   force =     0.00003628   -0.00003814   -0.00003463
     atom  117 type  2   force =    -0.00029658   -0.00029829    0.00052166
     atom  118 type  1   force =    -0.00418283    0.00039726   -0.00333338
     atom  119 type  1   force =    -0.00000769   -0.00000718    0.00188705
     atom  120 type  1   force =    -0.00001493    0.00002424   -0.00000581
     atom  121 type  2   force =    -0.00000338   -0.00000167   -0.00316316
     atom  122 type  2   force =     0.00000484   -0.00005204    0.00012913
     atom  123 type  2   force =     0.00005779    0.00035174    0.00008584
     atom  124 type  2   force =    -0.00000430    0.00000176    0.00139661
     atom  125 type  2   force =     0.00000162    0.00004468    0.00002532
     atom  126 type  2   force =    -0.00029736   -0.00036394    0.00101977
     atom  127 type  1   force =    -0.00052516    0.00022859    0.00072135
     atom  128 type  1   force =     0.00000007   -0.00000526    0.00188106
     atom  129 type  1   force =    -0.00000741   -0.00005101   -0.00005008
     atom  130 type  2   force =    -0.00000155   -0.00000054   -0.00316799
     atom  131 type  2   force =    -0.00000341    0.00000684    0.00006659
     atom  132 type  2   force =    -0.00062232   -0.00036976   -0.00007524
     atom  133 type  2   force =    -0.00000623   -0.00000590    0.00139011
     atom  134 type  2   force =    -0.00000734    0.00002313   -0.00011787
     atom  135 type  2   force =    -0.00037855   -0.00055396   -0.00001441
     atom  136 type  1   force =     0.00024373    0.00001335    0.00066732
     atom  137 type  1   force =     0.00000774    0.00001201    0.00188084
     atom  138 type  1   force =    -0.00002363    0.00004274   -0.00006159
     atom  139 type  2   force =     0.00000242   -0.00000157   -0.00316936
     atom  140 type  2   force =     0.00000117   -0.00000183    0.00008454
     atom  141 type  2   force =    -0.00012686    0.00014587    0.00012607
     atom  142 type  2   force =    -0.00000392   -0.00000203    0.00139489
     atom  143 type  2   force =     0.00001811   -0.00000037   -0.00010945
     atom  144 type  2   force =    -0.00079022    0.00018156   -0.00014098
     atom  145 type  3   force =    -0.02118556   -0.00330233    0.00021561
     atom  146 type  4   force =     0.01609543    0.00152177   -0.01566036

     Total force =     0.077091     Total SCF correction =     0.000886

     BFGS Geometry Optimization
     Energy error            =      0.0E+00 Ry
[...]
     atom   70 type  2   force =     0.00000503   -0.00000550    0.00149671
     atom   71 type  2   force =     0.00002113    0.00001233   -0.00000084
     atom   72 type  2   force =     0.00007334    0.00012993   -0.00005317
     atom   73 type  1   force =    -0.00004411   -0.00003048   -0.00002170
     atom   74 type  1   force =    -0.00000025   -0.00000214    0.00190052
     atom   75 type  1   force =    -0.00000576    0.00000146    0.00004568
     atom   76 type  2   force =    -0.00000049   -0.00000080   -0.00327967
     atom   77 type  2   force =    -0.00003712    0.00003975   -0.00000934
     atom   78 type  2   force =    -0.00000554    0.00013752   -0.00034352
     atom   79 type  2   force =     0.00000166    0.00000031    0.00150009
     atom   80 type  2   force =     0.00003539   -0.00002798   -0.00001203
     atom   81 type  2   force =    -0.00000982   -0.00002749   -0.00003087
     atom   82 type  1   force =    -0.00008508   -0.00010258    0.00013274
     atom   83 type  1   force =    -0.00000188    0.00000134    0.00189673
     atom   84 type  1   force =     0.00000509    0.00000151    0.00000346
     atom   85 type  2   force =    -0.00000030   -0.00000081   -0.00327943
     atom   86 type  2   force =     0.00000292   -0.00003615    0.00000049
     atom   87 type  2   force =    -0.00004442    0.00005884   -0.00000586
     atom   88 type  2   force =    -0.00000082    0.00000809    0.00150141
     atom   89 type  2   force =    -0.00000722    0.00002878    0.00001395
     atom   90 type  2   force =    -0.00020884   -0.00012535    0.00030485
     atom   91 type  1   force =    -0.00000105    0.00001771   -0.00021090
     atom   92 type  1   force =    -0.00000214   -0.00000157    0.00189510
     atom   93 type  1   force =    -0.00000205   -0.00000823   -0.00003074
     atom   94 type  2   force =    -0.00000028   -0.00000064   -0.00327953
     atom   95 type  2   force =     0.00000975   -0.00000147   -0.00001675
     atom   96 type  2   force =    -0.00021224   -0.00007500    0.00014761
     atom   97 type  2   force =    -0.00000296   -0.00000273    0.00148661
     atom   98 type  2   force =    -0.00001275    0.00001247   -0.00000314
     atom   99 type  2   force =     0.00010082    0.00007293    0.00013205
     atom  100 type  1   force =     0.00005748   -0.00002266   -0.00000237
     atom  101 type  1   force =    -0.00000152   -0.00000140    0.00189648
     atom  102 type  1   force =     0.00000218   -0.00000153   -0.00003771
     atom  103 type  2   force =    -0.00000046   -0.00000048   -0.00327920
     atom  104 type  2   force =     0.00001990   -0.00001545   -0.00002986
     atom  105 type  2   force =    -0.00004882   -0.00015081    0.00001791
     atom  106 type  2   force =     0.00000104   -0.00000841    0.00148662
     atom  107 type  2   force =    -0.00001392   -0.00001094   -0.00003138
     atom  108 type  2   force =    -0.00015821    0.00008322   -0.00006150
     atom  109 type  1   force =     0.00001373   -0.00011394    0.00008985
     atom  110 type  1   force =    -0.00000114   -0.00000058    0.00190030
     atom  111 type  1   force =     0.00000556   -0.00000544   -0.00001431
     atom  112 type  2   force =    -0.00000035   -0.00000082   -0.00327974
     atom  113 type  2   force =     0.00001910   -0.00000337   -0.00001219
     atom  114 type  2   force =     0.00008435    0.00008902    0.00018094
     atom  115 type  2   force =     0.00000172   -0.00000220    0.00149703
     atom  116 type  2   force =     0.00001024    0.00001856   -0.00000889
     atom  117 type  2   force =    -0.00016142   -0.00002227    0.00008677
     atom  118 type  1   force =    -0.00016349   -0.00004318   -0.00001177
     atom  119 type  1   force =    -0.00000014   -0.00000020    0.00189768
     atom  120 type  1   force =    -0.00000584    0.00000033    0.00000218
     atom  121 type  2   force =    -0.00000039   -0.00000076   -0.00327924
     atom  122 type  2   force =    -0.00001633   -0.00000033   -0.00000371
     atom  123 type  2   force =     0.00005047   -0.00010279    0.00009582
     atom  124 type  2   force =    -0.00000054    0.00000040    0.00151331
     atom  125 type  2   force =    -0.00000615   -0.00001707   -0.00001288
     atom  126 type  2   force =     0.00000331   -0.00018294    0.00011497
     atom  127 type  1   force =     0.00009314   -0.00011481   -0.00002172
     atom  128 type  1   force =    -0.00000170   -0.00000136    0.00189815
     atom  129 type  1   force =    -0.00000481    0.00000265   -0.00001101
     atom  130 type  2   force =    -0.00000023   -0.00000048   -0.00327951
     atom  131 type  2   force =     0.00000601    0.00000487   -0.00000207
     atom  132 type  2   force =     0.00018751   -0.00012514   -0.00014431
     atom  133 type  2   force =    -0.00000623   -0.00000026    0.00148625
     atom  134 type  2   force =     0.00000969    0.00000533   -0.00000867
     atom  135 type  2   force =    -0.00010125    0.00012732   -0.00022650
     atom  136 type  1   force =     0.00005915    0.00015168   -0.00018000
     atom  137 type  1   force =    -0.00000165   -0.00000056    0.00189983
     atom  138 type  1   force =    -0.00000148    0.00000209   -0.00001430
     atom  139 type  2   force =    -0.00000040   -0.00000057   -0.00327847
     atom  140 type  2   force =    -0.00001100    0.00000148   -0.00002561
     atom  141 type  2   force =     0.00020947    0.00030486   -0.00031338
     atom  142 type  2   force =    -0.00000778   -0.00000352    0.00149669
     atom  143 type  2   force =    -0.00001087   -0.00000520   -0.00001533
     atom  144 type  2   force =     0.00024700   -0.00012856   -0.00022168
     atom  145 type  3   force =    -0.00038565   -0.00016030   -0.00082040
     atom  146 type  4   force =     0.00018777   -0.00012062    0.00092155

     Total force =     0.002663     Total SCF correction =     0.000656
     SCF correction compared to forces is large: reduce conv_thr to get better values
     Energy error            =      1.3E-05 Ry
     Gradient error          =      9.7E-04 Ry/Bohr

     bfgs converged in  19 scf cycles and  18 bfgs steps
     (criteria: energy <  1.0E-04 Ry, force <  1.0E-03 Ry/Bohr)

     End of BFGS Geometry Optimization

     Final energy             =  -26031.8089341707 Ry

     File ./outdir/pwscf.bfgs deleted, as requested
Begin final coordinates

ATOMIC_POSITIONS (angstrom)
Mo               1.5761973329        2.6785967117        6.0631256968
Mo               1.5769197498        0.9104407117       -6.0872367793    0   0   0
Mo              -0.0001782847        1.8210796203       -0.0004332612
S                0.0000044503        0.0000077495       -7.6506323570    0   0   0
S                1.5766605625        0.9112060245       -1.5665907095
S               -0.0138700965        1.8115442643        4.4950260604
S                0.0000053241        0.0000068460       -4.5222282367    0   0   0
S                1.5770564003        0.9099275797        1.5656570066
S               -0.0049468564        1.7960188504        7.6368730094
Mo              -0.0098739688        5.4608357567        6.1316384398
Mo               0.0000011799        3.6417399547       -6.0872367793    0   0   0
Mo              -1.5766384447        4.5524286613       -0.0001771830
S               -1.5769141197        2.7313069925       -7.6506323570    0   0   0
S               -0.0000262132        3.6418786625       -1.5656405657
S               -1.5586381383        4.5676096786        4.5561161557
S               -1.5769132459        2.7313060890       -4.5222282367    0   0   0
S                0.0003066598        3.6421993215        1.5679034049
S               -1.6723720709        4.5001584219        7.7323285504
Mo              -1.5898966095        8.2069784667        6.0838905354
Mo              -1.5769173901        6.3730391977       -6.0872367793    0   0   0
Mo              -3.1538130846        7.2832439140       -0.0018568774
S               -3.1538326896        5.4626062355       -7.6506323570    0   0   0
S               -1.5766811214        6.3724783389       -1.5666162616
S               -3.1545891919        7.2784503592        4.5141844114
S               -3.1538318159        5.4626053320       -4.5222282367    0   0   0
S               -1.5769986933        6.3735813596        1.5666089160
S               -3.1593401810        7.2901294519        7.6505663631
Mo               3.1574211018       -0.0066234721        6.0599360533
Mo              -3.1538359601        9.1043384407       -6.0872367793    0   0   0
Mo              -4.7307885642       10.0148129377       -0.0022236742
S               -4.7307512596        8.1939054785       -7.6506323570    0   0   0
S               -3.1537880871        9.1041770374       -1.5675351825
S               -4.7318451410       10.0049874678        4.4985179845
S               -4.7307503859        8.1939045750       -4.5222282367    0   0   0
S               -3.1539678482        9.1041149284        1.5646129250
S               -4.7303272024       10.0160553390        7.6335877527
Mo               4.7348190470        2.7249307713        6.0852358126
Mo               4.7307503218        0.9104407117       -6.0872367793    0   0   0
Mo               3.1538202872        1.8210979972       -0.0009386878
S                3.1538350223        0.0000077495       -7.6506323570    0   0   0
S                4.7306996024        0.9106734606       -1.5668790965
S                3.1666024335        1.8136863307        4.4937131265
S                3.1538358961        0.0000068460       -4.5222282367    0   0   0
S                4.7311232550        0.9097068703        1.5647918486
S                3.1587677570        1.7918581112        7.6367599280
Mo               3.1732071603        5.4608478721        6.1274734530
Mo               3.1538317519        3.6417399547       -6.0872367793    0   0   0
Mo               1.5767298994        4.5524294847       -0.0002013311
S                1.5769164523        2.7313069925       -7.6506323570    0   0   0
S                3.1534369407        3.6420876150       -1.5659433348
S                1.5743357261        4.5653887605        4.5768318595
S                1.5769173261        2.7313060890       -4.5222282367    0   0   0
S                3.1532700014        3.6421393954        1.5672849809
S                1.6153879887        4.3996323028        7.6827279629
Mo               1.5800033898        8.2222218923        6.0924469191
Mo               1.5769131819        6.3730391977       -6.0872367793    0   0   0
Mo               0.0000924118        7.2829461695       -0.0011282966
S               -0.0000021176        5.4626062355       -7.6506323570    0   0   0
S                1.5768869078        6.3726095609       -1.5664151179
S                0.0019618086        7.2653171415        4.5591491403
S               -0.0000012439        5.4626053320       -4.5222282367    0   0   0
S                1.5766905247        6.3731815125        1.5672625690
S               -0.0070841355        7.4174398252        7.7120636665
Mo               6.3076453812        0.0041451900        6.0693675979
Mo              -0.0000053881        9.1043384407       -6.0872367793    0   0   0
Mo              -1.5767158581       10.0143455349       -0.0019902832
S               -1.5769206876        8.1939054785       -7.6506323570    0   0   0
S                0.0005726117        9.1038944651       -1.5666228205
S               -1.5715314771       10.0085171237        4.4988021967
S               -1.5769198139        8.1939045750       -4.5222282367    0   0   0
S               -0.0004096584        9.1030471234        1.5660907144
S               -1.5835841472       10.0307069775        7.6414767977
Mo               7.8846239052        2.7332207009        6.0769518848
Mo               7.8845808939        0.9104407117       -6.0872367793    0   0   0
Mo               6.3076151890        1.8210753240       -0.0012517868
S                6.3076655943        0.0000077495       -7.6506323570    0   0   0
S                7.8848255382        0.9103375308       -1.5660171109
S                6.3062589461        1.8278053843        4.5088896346
S                6.3076664681        0.0000068460       -4.5222282367    0   0   0
S                7.8840801498        0.9106007108        1.5662484441
S                6.3130618631        1.8135116730        7.6466518962
Mo               6.3160527666        5.4610211601        6.0893160536
Mo               6.3076623239        3.6417399547       -6.0872367793    0   0   0
Mo               4.7303189728        4.5523361344       -0.0005003329
S                4.7307470244        2.7313069925       -7.6506323570    0   0   0
S                6.3075329603        3.6422295871       -1.5659959779
S                4.7197112273        4.5619723843        4.5452488333
S                4.7307478981        2.7313060890       -4.5222282367    0   0   0
S                6.3070093795        3.6420935694        1.5668413679
S                4.8023349369        4.5178256445        7.7095874669
Mo               4.7391063659        8.2057691505        6.0818413095
Mo               4.7307437539        6.3730391977       -6.0872367793    0   0   0
Mo               3.1534909994        7.2830435068       -0.0009312369
S                3.1538284544        5.4626062355       -7.6506323570    0   0   0
S                4.7302051107        6.3726202442       -1.5666343554
S                3.1521347250        7.2701779325        4.5492481247
S                3.1538293281        5.4626053320       -4.5222282367    0   0   0
S                4.7307018584        6.3733595691        1.5663006567
S                3.1603648251        7.3739615233        7.6848632716
Mo               9.4612384773        0.0052256341        6.0663238876
Mo               3.1538251839        9.1043384407       -6.0872367793    0   0   0
Mo               1.5767666059       10.0144640398       -0.0004722756
S                1.5769098844        8.1939054785       -7.6506323570    0   0   0
S                3.1531925313        9.1040619957       -1.5663624757
S                1.5762453289       10.0171952948        4.5014479441
S                1.5769107581        8.1939045750       -4.5222282367    0   0   0
S                3.1538598730        9.1033047814        1.5663701634
S                1.5799471991       10.0494521895        7.6460548717
Mo              -1.5822734084        2.7218058067        6.0850183797
Mo              11.0384114659        0.9104407117       -6.0872367793    0   0   0
Mo               9.4613242811        1.8211883247       -0.0004102615
S                9.4614961663        0.0000077495       -7.6506323570    0   0   0
S               11.0380558928        0.9108705173       -1.5662031198
S                9.4620866246        1.8294270295        4.5052136670
S                9.4614970401        0.0000068460       -4.5222282367    0   0   0
S               11.0379612186        0.9096159382        1.5654406202
S                9.4548896740        1.8111715108        7.6455450893
Mo              -3.1648470688        5.4635214535        6.0928113556
Mo               9.4614928959        3.6417399547       -6.0872367793    0   0   0
Mo               7.8845594076        4.5523530742       -0.0003523325
S                7.8845775964        2.7313069925       -7.6506323570    0   0   0
S                9.4616734153        3.6419790782       -1.5656040412
S                7.8857308634        4.5581788175        4.5142211673
S                7.8845784701        2.7313060890       -4.5222282367    0   0   0
S                9.4621173670        3.6426489984        1.5673251366
S                7.8817824507        4.5458682967        7.6584215961
Mo              -4.7315742015        8.1928332641        6.0765891055
Mo               7.8845743259        6.3730391977       -6.0872367793    0   0   0
Mo               6.3074602887        7.2832067321       -0.0019174762
S                6.3076590264        5.4626062355       -7.6506323570    0   0   0
S                7.8844909546        6.3723670132       -1.5669787435
S                6.3066288358        7.2787809427        4.5133939505
S                6.3076599001        5.4626053320       -4.5222282367    0   0   0
S                7.8844538674        6.3738389345        1.5653982798
S                6.3107064127        7.2891855788        7.6492557850
Mo              -0.0039979864       -0.0071591334        6.0631887540
Mo               6.3076557559        9.1043384407       -6.0872367793    0   0   0
Mo               4.7303385945       10.0144398633       -0.0015971133
S                4.7307404564        8.1939054785       -7.6506323570    0   0   0
S                6.3072900055        9.1042859630       -1.5673385268
S                4.7264508224       10.0084269400        4.4994743040
S                4.7307413301        8.1939045750       -4.5222282367    0   0   0
S                6.3077838136        9.1040194440        1.5646360681
S                4.7329298353       10.0280241218        7.6415607532
Pd               3.0313590800        5.4963824600        9.0888449484
Pt               0.1036043644        5.4868320463        8.9461045408
End final coordinates



     Writing all to output data dir ./outdir/pwscf.save/ :
     XML data file, charge density, pseudopotentials, collected wavefunctions
 
     init_run     :     95.01s CPU     97.13s WALL (       1 calls)
     electrons    :  83727.90s CPU  84991.20s WALL (      19 calls)
     update_pot   :     23.57s CPU     24.30s WALL (      18 calls)
     forces       :   1328.79s CPU   1357.81s WALL (      19 calls)
     force_dftd3  :      7.18s CPU      7.51s WALL (      19 calls)

     Called by init_run:
     wfcinit      :     76.40s CPU     77.37s WALL (       1 calls)
     potinit      :      1.08s CPU      1.18s WALL (       1 calls)
     hinit0       :      9.86s CPU      9.92s WALL (       1 calls)

     Called by electrons:
     c_bands      :  72749.05s CPU  73497.56s WALL (     258 calls)
     sum_band     :   9408.85s CPU   9673.50s WALL (     258 calls)
     v_of_rho     :     74.81s CPU     83.96s WALL (     264 calls)
     newd         :   1326.16s CPU   1570.88s WALL (     264 calls)
     PAW_pot      :    210.18s CPU    211.84s WALL (     282 calls)
     mix_rho      :     20.33s CPU     22.94s WALL (     258 calls)
     energy_dftd3 :      4.05s CPU      4.07s WALL (      19 calls)

     Called by c_bands:
     init_us_2    :    358.50s CPU    360.39s WALL (    2216 calls)
     init_us_2:cp :    358.48s CPU    360.38s WALL (    2216 calls)
     cegterg      :  71257.23s CPU  71999.40s WALL (    1048 calls)

     Called by *egterg:
     cdiaghg      :   3656.09s CPU   3817.85s WALL (   12264 calls)
     h_psi        :  37268.94s CPU  37507.36s WALL (   12397 calls)
     s_psi        :   7836.73s CPU   7870.48s WALL (   12397 calls)
     g_psi        :     83.20s CPU     83.56s WALL (   11345 calls)

     Called by h_psi:
     h_psi:calbec :   7564.76s CPU   7592.85s WALL (   12397 calls)
     vloc_psi     :  21654.92s CPU  21769.23s WALL (   12397 calls)
     add_vuspsi   :   7867.30s CPU   7903.18s WALL (   12397 calls)

     General routines
     calbec       :  10750.04s CPU  10788.57s WALL (   13805 calls)
     fft          :     55.00s CPU     63.08s WALL (    3634 calls)
     ffts         :      3.31s CPU      3.40s WALL (     522 calls)
     fftw         :  16305.29s CPU  16387.79s WALL ( 5685732 calls)
     interpolate  :      6.21s CPU      6.82s WALL (     264 calls)
 
     Parallel routines
 
     PWSCF        :     23h47m CPU   1d 0h 9m WALL

 
   This run was terminated on:   5:56:38  12Mar2024            

=------------------------------------------------------------------------------=
   JOB DONE.
=------------------------------------------------------------------------------=
