
     Program PWSCF v.7.3 starts on 19Mar2024 at 15:32:39 

     This program is part of the open-source Quantum ESPRESSO suite
     for quantum simulation of materials; please cite
         "P. Giannozzi et al., J. Phys.:Condens. Matter 21 395502 (2009);
         "P. Giannozzi et al., J. Phys.:Condens. Matter 29 465901 (2017);
         "P. Giannozzi et al., J. Chem. Phys. 152 154105 (2020);
          URL http://www.quantum-espresso.org", 
     in publications or presentations arising from this work. More details at
     http://www.quantum-espresso.org/quote

     Parallel version (MPI & OpenMP), running on      36 processor cores
     Number of MPI processes:                36
     Threads/MPI process:                     1

     MPI processes distributed on     1 nodes
     559179 MiB available memory on the printing compute node when the environment starts
 
     Waiting for input...
     Reading input from standard input
Warning: card &CELL ignored
Warning: card / ignored

     Current dimensions of program PWSCF are:
     Max number of different atomic species (ntypx) = 10
     Max number of k-points (npk) =  40000
     Max angular momentum in pseudopotentials (lmaxx) =  4
     file Mo.pbe-spn-kjpaw_psl.1.0.0.UPF: wavefunction(s)  4S 4D renormalized
     file S.pbe-n-kjpaw_psl.1.0.0.UPF: wavefunction(s)  3S 3P renormalized
     file Pd.pbe-spn-kjpaw_psl.1.0.0.UPF: wavefunction(s)  4S 5S 4D renormalized
     file Pt.pbe-spfn-kjpaw_psl.1.0.0.UPF: wavefunction(s)  5P 4F renormalized
 
     R & G space division:  proc/nbgrp/npool/nimage =      36
     Subspace diagonalization in iterative solution of the eigenvalue problem:
     one sub-group per band group will be used
     scalapack distributed-memory algorithm (size of sub-group:  6*  6 procs)

 
     Parallelization info
     --------------------
     sticks:   dense  smooth     PW     G-vecs:    dense   smooth      PW
     Min         585     334     89               198743    85850   11735
     Max         586     335     90               198750    85861   11748
     Sum       21073   12049   3205              7154885  3090769  422587
 
     Using Slab Decomposition
 


     bravais-lattice index     =            0
     lattice parameter (alat)  =      23.8199  a.u.
     unit-cell volume          =   33861.0370 (a.u.)^3
     number of atoms/cell      =          194
     number of atomic types    =            4
     number of electrons       =      1714.00
     number of Kohn-Sham states=         1028
     kinetic-energy cutoff     =      77.0000  Ry
     charge density cutoff     =     539.0000  Ry
     scf convergence threshold =      1.0E-06
     mixing beta               =       0.2000
     number of iterations used =            8  plain     mixing
     energy convergence thresh.=      1.0E-04
     force convergence thresh. =      1.0E-03
     Exchange-correlation= SLA  PW   PBX  PBC
                           (   1   4   3   4   0   0   0)
     nstep                     =         1000


     Effective Screening Medium Method
     =================================
     Boundary Conditions: Vacuum-Slab-Vacuum
     total charge in unit cell        =   0.0000
     grid points for fit at edges     =        4 
 

     celldm(1)=  23.819920  celldm(2)=   0.000000  celldm(3)=   0.000000
     celldm(4)=   0.000000  celldm(5)=   0.000000  celldm(6)=   0.000000

     crystal axes: (cart. coord. in units of alat)
               a(1) = (   1.000000   0.000000   0.000000 )  
               a(2) = (  -0.499999   0.866026   0.000000 )  
               a(3) = (   0.000000   0.000000   2.893000 )  

     reciprocal axes: (cart. coord. in units 2 pi/alat)
               b(1) = (  1.000000  0.577349  0.000000 )  
               b(2) = (  0.000000  1.154700  0.000000 )  
               b(3) = (  0.000000  0.000000  0.345662 )  


     PseudoPot. # 1 for Mo read from file:
     ./pseudo/Mo.pbe-spn-kjpaw_psl.1.0.0.UPF
     MD5 check sum: 317bf72632116215fd98f72de1686f13
     Pseudo is Projector augmented-wave + core cor, Zval = 14.0
     Generated using 'atomic' code by A. Dal Corso  v.7.2
     Shape of augmentation charge: PSQ
     Using radial grid of 1229 points,  6 beta functions with: 
                l(1) =   0
                l(2) =   0
                l(3) =   1
                l(4) =   1
                l(5) =   2
                l(6) =   2
     Q(r) pseudized with 0 coefficients 


     PseudoPot. # 2 for S  read from file:
     ./pseudo/S.pbe-n-kjpaw_psl.1.0.0.UPF
     MD5 check sum: 8b7b5302570d38d5e87fed6a1065abda
     Pseudo is Projector augmented-wave + core cor, Zval =  6.0
     Generated using 'atomic' code by A. Dal Corso  v.7.2
     Shape of augmentation charge: PSQ
     Using radial grid of 1151 points,  6 beta functions with: 
                l(1) =   0
                l(2) =   0
                l(3) =   1
                l(4) =   1
                l(5) =   2
                l(6) =   2
     Q(r) pseudized with 0 coefficients 


     PseudoPot. # 3 for Pd read from file:
     ./pseudo/Pd.pbe-spn-kjpaw_psl.1.0.0.UPF
     MD5 check sum: a60571a671f2502b8a6a4569d20a6edb
     Pseudo is Projector augmented-wave + core cor, Zval = 18.0
     Generated using 'atomic' code by A. Dal Corso  v.7.2
     Shape of augmentation charge: PSQ
     Using radial grid of 1235 points,  6 beta functions with: 
                l(1) =   0
                l(2) =   0
                l(3) =   1
                l(4) =   1
                l(5) =   2
                l(6) =   2
     Q(r) pseudized with 0 coefficients 


     PseudoPot. # 4 for Pt read from file:
     ./pseudo/Pt.pbe-spfn-kjpaw_psl.1.0.0.UPF
     MD5 check sum: 620096ebf4e6ebacc94de60fd67efcb5
     Pseudo is Projector augmented-wave + core cor, Zval = 32.0
     Generated using 'atomic' code by A. Dal Corso  v.7.2
     Shape of augmentation charge: PSQ
     Using radial grid of 1277 points,  8 beta functions with: 
                l(1) =   0
                l(2) =   0
                l(3) =   1
                l(4) =   1
                l(5) =   2
                l(6) =   2
                l(7) =   3
                l(8) =   3
     Q(r) pseudized with 0 coefficients 


     atomic species   valence    mass     pseudopotential
     Mo               14.00    95.95000     Mo( 1.00)
     S                 6.00    32.06000     S ( 1.00)
     Pd               18.00   106.42000     Pd( 1.00)
     Pt               32.00   195.08400     Pt( 1.00)

     No symmetry found



   Cartesian axes

     site n.     atom                  positions (alat units)
         1        Mo     tau(   1) = (   0.0000010   0.1443372  -0.7272732  )
         2        Mo     tau(   2) = (   0.1249995   0.0721706  -0.2424038  )
         3        S      tau(   3) = (   0.0000015   0.1443386  -0.3667807  )
         4        S      tau(   4) = (   0.1250010   0.0721682  -0.6030489  )
         5        S      tau(   5) = (   0.1250010   0.0721683  -0.8514963  )
         6        S      tau(   6) = (   0.0000015   0.1443389  -0.1180260  )
         7        Mo     tau(   7) = (   0.0000007   0.1443589   0.2424205  )
         8        Mo     tau(   8) = (   0.1250041   0.0720322   0.7266168  )
         9        S      tau(   9) = (   0.0000742   0.1444871   0.6020949  )
        10        S      tau(  10) = (   0.1250024   0.0721701   0.3667478  )
        11        S      tau(  11) = (   0.1250035   0.0721876   0.1180348  )
        12        S      tau(  12) = (  -0.0004118   0.1430864   0.8514340  )
        13        Mo     tau(  13) = (  -0.1249989   0.3608437  -0.7272732  )
        14        Mo     tau(  14) = (   0.0000030   0.2886752  -0.2424042  )
        15        S      tau(  15) = (  -0.1249977   0.3608450  -0.3667802  )
        16        S      tau(  16) = (   0.0000012   0.2886747  -0.6030489  )
        17        S      tau(  17) = (   0.0000012   0.2886748  -0.8514963  )
        18        S      tau(  18) = (  -0.1249977   0.3608454  -0.1180274  )
        19        Mo     tau(  19) = (  -0.1249729   0.3608584   0.2424608  )
        20        Mo     tau(  20) = (  -0.0007193   0.2876626   0.7275440  )
        21        S      tau(  21) = (  -0.1251115   0.3607789   0.6027257  )
        22        S      tau(  22) = (   0.0000621   0.2887099   0.3668377  )
        23        S      tau(  23) = (  -0.0000096   0.2886902   0.1180527  )
        24        S      tau(  24) = (  -0.1254673   0.3605734   0.8517408  )
        25        Mo     tau(  25) = (  -0.2499987   0.5773502  -0.7272732  )
        26        Mo     tau(  26) = (  -0.1249977   0.5051839  -0.2424055  )
        27        S      tau(  27) = (  -0.2499981   0.5773518  -0.3667809  )
        28        S      tau(  28) = (  -0.1249986   0.5051812  -0.6030489  )
        29        S      tau(  29) = (  -0.1249986   0.5051813  -0.8514963  )
        30        S      tau(  30) = (  -0.2499979   0.5773512  -0.1180266  )
        31        Mo     tau(  31) = (  -0.2499795   0.5773389   0.2424205  )
        32        Mo     tau(  32) = (  -0.1262356   0.5050639   0.7275441  )
        33        S      tau(  33) = (  -0.2498323   0.5773390   0.6020948  )
        34        S      tau(  34) = (  -0.1249376   0.5052159   0.3668377  )
        35        S      tau(  35) = (  -0.1249905   0.5051638   0.1180531  )
        36        S      tau(  36) = (  -0.2512883   0.5776183   0.8514340  )
        37        Mo     tau(  37) = (  -0.3749985   0.7938567  -0.7272732  )
        38        Mo     tau(  38) = (  -0.2500001   0.7216874  -0.2424031  )
        39        S      tau(  39) = (  -0.3749980   0.7938584  -0.3667800  )
        40        S      tau(  40) = (  -0.2499984   0.7216877  -0.6030489  )
        41        S      tau(  41) = (  -0.2499984   0.7216878  -0.8514963  )
        42        S      tau(  42) = (  -0.3749982   0.7938585  -0.1180264  )
        43        Mo     tau(  43) = (  -0.3749962   0.7938568   0.2423838  )
        44        Mo     tau(  44) = (  -0.2501148   0.7217588   0.7266170  )
        45        S      tau(  45) = (  -0.3749945   0.7938590   0.6021274  )
        46        S      tau(  46) = (  -0.2499958   0.7216877   0.3667488  )
        47        S      tau(  47) = (  -0.2499810   0.7216794   0.1180323  )
        48        S      tau(  48) = (  -0.3749953   0.7938585   0.8511588  )
        49        Mo     tau(  49) = (   0.2500010   0.1443372  -0.7272732  )
        50        Mo     tau(  50) = (   0.3750034   0.0721723  -0.2424032  )
        51        S      tau(  51) = (   0.2500017   0.1443391  -0.3667788  )
        52        S      tau(  52) = (   0.3750010   0.0721682  -0.6030489  )
        53        S      tau(  53) = (   0.3750010   0.0721683  -0.8514963  )
        54        S      tau(  54) = (   0.2500016   0.1443391  -0.1180271  )
        55        Mo     tau(  55) = (   0.2500054   0.1443594   0.2424211  )
        56        Mo     tau(  56) = (   0.3749279   0.0721263   0.7263991  )
        57        S      tau(  57) = (   0.2499344   0.1444864   0.6020948  )
        58        S      tau(  58) = (   0.3750316   0.0721860   0.3667597  )
        59        S      tau(  59) = (   0.3749924   0.0721644   0.1180346  )
        60        S      tau(  60) = (   0.2504199   0.1430865   0.8514340  )
        61        Mo     tau(  61) = (   0.1250012   0.3608437  -0.7272732  )
        62        Mo     tau(  62) = (   0.2500029   0.2886782  -0.2424031  )
        63        S      tau(  63) = (   0.1250024   0.3608455  -0.3667794  )
        64        S      tau(  64) = (   0.2500012   0.2886747  -0.6030489  )
        65        S      tau(  65) = (   0.2500012   0.2886748  -0.8514963  )
        66        S      tau(  66) = (   0.1250021   0.3608455  -0.1180270  )
        67        Mo     tau(  67) = (   0.1250038   0.3608653   0.2423963  )
        68        Mo     tau(  68) = (   0.2507284   0.2876625   0.7275438  )
        69        S      tau(  69) = (   0.1250046   0.3627170   0.6061948  )
        70        S      tau(  70) = (   0.2499461   0.2887116   0.3668373  )
        71        S      tau(  71) = (   0.2500171   0.2886900   0.1180543  )
        72        S      tau(  72) = (   0.1250046   0.3519103   0.8557806  )
        73        Mo     tau(  73) = (   0.0000014   0.5773502  -0.7272732  )
        74        Mo     tau(  74) = (   0.1250045   0.5051840  -0.2424036  )
        75        S      tau(  75) = (   0.0000030   0.5773520  -0.3667799  )
        76        S      tau(  76) = (   0.1250014   0.5051812  -0.6030489  )
        77        S      tau(  77) = (   0.1250014   0.5051813  -0.8514963  )
        78        S      tau(  78) = (   0.0000026   0.5773517  -0.1180274  )
        79        Mo     tau(  79) = (   0.0000222   0.5773400   0.2423964  )
        80        Mo     tau(  80) = (   0.1250047   0.5051836   0.7321380  )
        81        S      tau(  81) = (   0.0016251   0.5764170   0.6061946  )
        82        S      tau(  82) = (   0.1250047   0.5051815   0.3667777  )
        83        S      tau(  83) = (   0.1250048   0.5051819   0.1179962  )
        84        S      tau(  84) = (  -0.0077335   0.5818202   0.8557807  )
        85        Mo     tau(  85) = (  -0.1249984   0.7938567  -0.7272732  )
        86        Mo     tau(  86) = (   0.0000069   0.7216896  -0.2424039  )
        87        S      tau(  87) = (  -0.1249975   0.7938582  -0.3667782  )
        88        S      tau(  88) = (   0.0000016   0.7216877  -0.6030489  )
        89        S      tau(  89) = (   0.0000016   0.7216878  -0.8514963  )
        90        S      tau(  90) = (  -0.1249973   0.7938582  -0.1180279  )
        91        Mo     tau(  91) = (  -0.1249774   0.7938494   0.2424207  )
        92        Mo     tau(  92) = (  -0.0005116   0.7228241   0.7275438  )
        93        S      tau(  93) = (  -0.1249026   0.7937246   0.6020948  )
        94        S      tau(  94) = (   0.0000043   0.7216209   0.3668361  )
        95        S      tau(  95) = (   0.0000226   0.7216928   0.1180549  )
        96        S      tau(  96) = (  -0.1258721   0.7948451   0.8514341  )
        97        Mo     tau(  97) = (   0.5000010   0.1443372  -0.7272732  )
        98        Mo     tau(  98) = (   0.6250001   0.0721662  -0.2424040  )
        99        S      tau(  99) = (   0.5000017   0.1443386  -0.3667801  )
       100        S      tau( 100) = (   0.6250010   0.0721682  -0.6030489  )
       101        S      tau( 101) = (   0.6250010   0.0721683  -0.8514963  )
       102        S      tau( 102) = (   0.5000020   0.1443388  -0.1180261  )
       103        Mo     tau( 103) = (   0.5000075   0.1443411   0.2423793  )
       104        Mo     tau( 104) = (   0.6250042   0.0723339   0.7270464  )
       105        S      tau( 105) = (   0.5002366   0.1444733   0.6023595  )
       106        S      tau( 106) = (   0.6250029   0.0721787   0.3667562  )
       107        S      tau( 107) = (   0.6250040   0.0721260   0.1180315  )
       108        S      tau( 108) = (   0.4998752   0.1442648   0.8512770  )
       109        Mo     tau( 109) = (   0.3750012   0.3608437  -0.7272732  )
       110        Mo     tau( 110) = (   0.4999991   0.2886761  -0.2424038  )
       111        S      tau( 111) = (   0.3750012   0.3608452  -0.3667804  )
       112        S      tau( 112) = (   0.5000012   0.2886747  -0.6030489  )
       113        S      tau( 113) = (   0.5000012   0.2886748  -0.8514963  )
       114        S      tau( 114) = (   0.3750014   0.3608455  -0.1180261  )
       115        Mo     tau( 115) = (   0.3749795   0.3608597   0.2424601  )
       116        Mo     tau( 116) = (   0.5001461   0.2885951   0.7270464  )
       117        S      tau( 117) = (   0.3751205   0.3607791   0.6027254  )
       118        S      tau( 118) = (   0.5000105   0.2886721   0.3667569  )
       119        S      tau( 119) = (   0.4999655   0.2886989   0.1180297  )
       120        S      tau( 120) = (   0.3754765   0.3605739   0.8517402  )
       121        Mo     tau( 121) = (   0.2500014   0.5773502  -0.7272732  )
       122        Mo     tau( 122) = (   0.3749983   0.5051825  -0.2424043  )
       123        S      tau( 123) = (   0.2500017   0.5773519  -0.3667810  )
       124        S      tau( 124) = (   0.3750014   0.5051812  -0.6030489  )
       125        S      tau( 125) = (   0.3750014   0.5051813  -0.8514963  )
       126        S      tau( 126) = (   0.2500018   0.5773519  -0.1180256  )
       127        Mo     tau( 127) = (   0.2499863   0.5773402   0.2423965  )
       128        Mo     tau( 128) = (   0.3762454   0.5050642   0.7275433  )
       129        S      tau( 129) = (   0.2483844   0.5764169   0.6061944  )
       130        S      tau( 130) = (   0.3749442   0.5052158   0.3668400  )
       131        S      tau( 131) = (   0.3749972   0.5051650   0.1180510  )
       132        S      tau( 132) = (   0.2577438   0.5818204   0.8557797  )
       133        Mo     tau( 133) = (   0.1250016   0.7938567  -0.7272732  )
       134        Mo     tau( 134) = (   0.2499995   0.7216883  -0.2424036  )
       135        S      tau( 135) = (   0.1250024   0.7938578  -0.3667813  )
       136        S      tau( 136) = (   0.2500016   0.7216877  -0.6030489  )
       137        S      tau( 137) = (   0.2500016   0.7216878  -0.8514963  )
       138        S      tau( 138) = (   0.1250024   0.7938579  -0.1180253  )
       139        Mo     tau( 139) = (   0.1250047   0.7938294   0.2424606  )
       140        Mo     tau( 140) = (   0.2505220   0.7228241   0.7275433  )
       141        S      tau( 141) = (   0.1250053   0.7939926   0.6027252  )
       142        S      tau( 142) = (   0.2500048   0.7216200   0.3668387  )
       143        S      tau( 143) = (   0.2499864   0.7216915   0.1180524  )
       144        S      tau( 144) = (   0.1250054   0.7944033   0.8517402  )
       145        Mo     tau( 145) = (   0.7500010   0.1443372  -0.7272732  )
       146        Mo     tau( 146) = (   0.8750038   0.0721696  -0.2424038  )
       147        S      tau( 147) = (   0.7500016   0.1443382  -0.3667789  )
       148        S      tau( 148) = (   0.8750010   0.0721682  -0.6030489  )
       149        S      tau( 149) = (   0.8750010   0.0721683  -0.8514963  )
       150        S      tau( 150) = (   0.7500016   0.1443384  -0.1180279  )
       151        Mo     tau( 151) = (   0.7499986   0.1443409   0.2423802  )
       152        Mo     tau( 152) = (   0.8750804   0.0721266   0.7263988  )
       153        S      tau( 153) = (   0.7497713   0.1444738   0.6023592  )
       154        S      tau( 154) = (   0.8749758   0.0721848   0.3667595  )
       155        S      tau( 155) = (   0.8750127   0.0721632   0.1180342  )
       156        S      tau( 156) = (   0.7501331   0.1442647   0.8512770  )
       157        Mo     tau( 157) = (   0.6250012   0.3608437  -0.7272732  )
       158        Mo     tau( 158) = (   0.7500028   0.2886769  -0.2424041  )
       159        S      tau( 159) = (   0.6250015   0.3608451  -0.3667792  )
       160        S      tau( 160) = (   0.7500012   0.2886747  -0.6030489  )
       161        S      tau( 161) = (   0.7500012   0.2886748  -0.8514963  )
       162        S      tau( 162) = (   0.6250016   0.3608454  -0.1180280  )
       163        Mo     tau( 163) = (   0.6250032   0.3608391   0.2423797  )
       164        Mo     tau( 164) = (   0.7498627   0.2885951   0.7270467  )
       165        S      tau( 165) = (   0.6250046   0.3605769   0.6023590  )
       166        S      tau( 166) = (   0.7499943   0.2886711   0.3667569  )
       167        S      tau( 167) = (   0.7500399   0.2886970   0.1180318  )
       168        S      tau( 168) = (   0.6250043   0.3609947   0.8512770  )
       169        Mo     tau( 169) = (   0.5000014   0.5773502  -0.7272732  )
       170        Mo     tau( 170) = (   0.6250029   0.5051841  -0.2424047  )
       171        S      tau( 171) = (   0.5000014   0.5773518  -0.3667794  )
       172        S      tau( 172) = (   0.6250014   0.5051812  -0.6030489  )
       173        S      tau( 173) = (   0.6250014   0.5051813  -0.8514963  )
       174        S      tau( 174) = (   0.5000016   0.5773516  -0.1180277  )
       175        Mo     tau( 175) = (   0.4999855   0.5773383   0.2424207  )
       176        Mo     tau( 176) = (   0.6250049   0.5052713   0.7263986  )
       177        S      tau( 177) = (   0.4998428   0.5773389   0.6020941  )
       178        S      tau( 178) = (   0.6250030   0.5051500   0.3667588  )
       179        S      tau( 179) = (   0.6250025   0.5051935   0.1180351  )
       180        S      tau( 180) = (   0.5012979   0.5776190   0.8514332  )
       181        Mo     tau( 181) = (   0.3750016   0.7938567  -0.7272732  )
       182        Mo     tau( 182) = (   0.5000025   0.7216901  -0.2424039  )
       183        S      tau( 183) = (   0.3750019   0.7938578  -0.3667793  )
       184        S      tau( 184) = (   0.5000016   0.7216877  -0.6030489  )
       185        S      tau( 185) = (   0.5000016   0.7216878  -0.8514963  )
       186        S      tau( 186) = (   0.3750020   0.7938579  -0.1180272  )
       187        Mo     tau( 187) = (   0.3749848   0.7938487   0.2424206  )
       188        Mo     tau( 188) = (   0.5001249   0.7217591   0.7266160  )
       189        S      tau( 189) = (   0.3749125   0.7937251   0.6020942  )
       190        S      tau( 190) = (   0.5000021   0.7216868   0.3667472  )
       191        S      tau( 191) = (   0.4999874   0.7216780   0.1180346  )
       192        S      tau( 192) = (   0.3758826   0.7948451   0.8514332  )
       193        Pd     tau( 193) = (   0.1250063   0.5051842   0.9601361  )
       194        Pt     tau( 194) = (   0.7498636   0.2886166   0.9702531  )

     --------------------------------------------
     DFT-D3 Dispersion Correction (3-body terms):
     --------------------------------------------
       Reference C6 values for interpolation: 

         atom   Coordination number   C6
         S          0.000           268.01
         S          0.995           261.99
         S          1.990           251.62
         Mo         0.000          1691.79
         Mo         1.942          1004.01
         Mo        11.056           674.22
         Pd         0.000          1217.01
         Pd         1.863           573.90
         Pd         5.710           531.75
         Pt         0.000           782.29
         Pt         1.919           692.72
         Pt         6.667           673.75

       Values used:

         atom   Coordination number  R0_AB[au]  C6      C8
         Mo        10.208            3.547    674.22  77634.20
         Mo        10.221            3.547    674.22  77634.20
         S          3.858            3.128    251.62  12327.25
         S          3.859            3.128    251.62  12327.25
         S          3.758            3.128    251.62  12327.25
         S          3.859            3.128    251.62  12327.25
         Mo        10.220            3.547    674.22  77634.20
         Mo        10.234            3.547    674.22  77634.20
         S          3.847            3.128    251.62  12327.25
         S          3.861            3.128    251.62  12327.25
         S          3.859            3.128    251.62  12327.25
         S          3.817            3.128    251.62  12327.25
         Mo        10.208            3.547    674.22  77634.20
         Mo        10.221            3.547    674.22  77634.20
         S          3.858            3.128    251.62  12327.25
         S          3.859            3.128    251.62  12327.25
         S          3.758            3.128    251.62  12327.25
         S          3.859            3.128    251.62  12327.25
         Mo        10.221            3.547    674.22  77634.20
         Mo        10.202            3.547    674.22  77634.20
         S          3.856            3.128    251.62  12327.25
         S          3.856            3.128    251.62  12327.25
         S          3.859            3.128    251.62  12327.25
         S          4.725            3.128    251.62  12327.25
         Mo        10.208            3.547    674.22  77634.20
         Mo        10.221            3.547    674.22  77634.20
         S          3.858            3.128    251.62  12327.25
         S          3.859            3.128    251.62  12327.25
         S          3.758            3.128    251.62  12327.25
         S          3.859            3.128    251.62  12327.25
         Mo        10.220            3.547    674.22  77634.20
         Mo        10.202            3.547    674.22  77634.20
         S          3.847            3.128    251.62  12327.25
         S          3.856            3.128    251.62  12327.25
         S          3.859            3.128    251.62  12327.25
         S          3.817            3.128    251.62  12327.25
         Mo        10.208            3.547    674.22  77634.20
         Mo        10.221            3.547    674.22  77634.20
         S          3.858            3.128    251.62  12327.25
         S          3.859            3.128    251.62  12327.25
         S          3.758            3.128    251.62  12327.25
         S          3.859            3.128    251.62  12327.25
         Mo        10.219            3.547    674.22  77634.20
         Mo        10.234            3.547    674.22  77634.20
         S          3.856            3.128    251.62  12327.25
         S          3.861            3.128    251.62  12327.25
         S          3.859            3.128    251.62  12327.25
         S          3.782            3.128    251.62  12327.25
         Mo        10.208            3.547    674.22  77634.20
         Mo        10.221            3.547    674.22  77634.20
         S          3.858            3.128    251.62  12327.25
         S          3.859            3.128    251.62  12327.25
         S          3.758            3.128    251.62  12327.25
         S          3.859            3.128    251.62  12327.25
         Mo        10.220            3.547    674.22  77634.20
         Mo        10.244            3.547    674.22  77634.20
         S          3.847            3.128    251.62  12327.25
         S          3.860            3.128    251.62  12327.25
         S          3.859            3.128    251.62  12327.25
         S          3.805            3.128    251.62  12327.25
         Mo        10.208            3.547    674.22  77634.20
         Mo        10.221            3.547    674.22  77634.20
         S          3.858            3.128    251.62  12327.25
         S          3.859            3.128    251.62  12327.25
         S          3.758            3.128    251.62  12327.25
         S          3.859            3.128    251.62  12327.25
         Mo        10.222            3.547    674.22  77634.20
         Mo        10.191            3.547    674.22  77634.20
         S          3.865            3.128    251.62  12327.25
         S          3.856            3.128    251.62  12327.25
         S          3.859            3.128    251.62  12327.25
         S          4.654            3.128    251.62  12327.25
         Mo        10.208            3.547    674.22  77634.20
         Mo        10.221            3.547    674.22  77634.20
         S          3.858            3.128    251.62  12327.25
         S          3.859            3.128    251.62  12327.25
         S          3.758            3.128    251.62  12327.25
         S          3.859            3.128    251.62  12327.25
         Mo        10.222            3.547    674.22  77634.20
         Mo        10.821            3.547    674.22  77634.20
         S          3.865            3.128    251.62  12327.25
         S          3.853            3.128    251.62  12327.25
         S          3.859            3.128    251.62  12327.25
         S          4.654            3.128    251.62  12327.25
         Mo        10.208            3.547    674.22  77634.20
         Mo        10.221            3.547    674.22  77634.20
         S          3.858            3.128    251.62  12327.25
         S          3.859            3.128    251.62  12327.25
         S          3.758            3.128    251.62  12327.25
         S          3.859            3.128    251.62  12327.25
         Mo        10.220            3.547    674.22  77634.20
         Mo        10.191            3.547    674.22  77634.20
         S          3.847            3.128    251.62  12327.25
         S          3.856            3.128    251.62  12327.25
         S          3.859            3.128    251.62  12327.25
         S          3.805            3.128    251.62  12327.25
         Mo        10.208            3.547    674.22  77634.20
         Mo        10.221            3.547    674.22  77634.20
         S          3.858            3.128    251.62  12327.25
         S          3.859            3.128    251.62  12327.25
         S          3.758            3.128    251.62  12327.25
         S          3.859            3.128    251.62  12327.25
         Mo        10.220            3.547    674.22  77634.20
         Mo        10.240            3.547    674.22  77634.20
         S          3.862            3.128    251.62  12327.25
         S          3.860            3.128    251.62  12327.25
         S          3.859            3.128    251.62  12327.25
         S          3.777            3.128    251.62  12327.25
         Mo        10.208            3.547    674.22  77634.20
         Mo        10.221            3.547    674.22  77634.20
         S          3.858            3.128    251.62  12327.25
         S          3.859            3.128    251.62  12327.25
         S          3.758            3.128    251.62  12327.25
         S          3.859            3.128    251.62  12327.25
         Mo        10.221            3.547    674.22  77634.20
         Mo        10.240            3.547    674.22  77634.20
         S          3.855            3.128    251.62  12327.25
         S          3.860            3.128    251.62  12327.25
         S          3.859            3.128    251.62  12327.25
         S          3.757            3.128    251.62  12327.25
         Mo        10.208            3.547    674.21  77634.20
         Mo        10.221            3.547    674.22  77634.20
         S          3.858            3.128    251.62  12327.25
         S          3.859            3.128    251.62  12327.25
         S          3.758            3.128    251.62  12327.25
         S          3.859            3.128    251.62  12327.25
         Mo        10.222            3.547    674.22  77634.20
         Mo        10.191            3.547    674.22  77634.20
         S          3.865            3.128    251.62  12327.25
         S          3.856            3.128    251.62  12327.25
         S          3.859            3.128    251.62  12327.25
         S          4.653            3.128    251.62  12327.25
         Mo        10.208            3.547    674.22  77634.20
         Mo        10.221            3.547    674.22  77634.20
         S          3.858            3.128    251.62  12327.25
         S          3.859            3.128    251.62  12327.25
         S          3.758            3.128    251.62  12327.25
         S          3.859            3.128    251.62  12327.25
         Mo        10.221            3.547    674.22  77634.20
         Mo        10.191            3.547    674.22  77634.20
         S          3.855            3.128    251.62  12327.25
         S          3.856            3.128    251.62  12327.25
         S          3.859            3.128    251.62  12327.25
         S          3.757            3.128    251.62  12327.25
         Mo        10.208            3.547    674.22  77634.20
         Mo        10.221            3.547    674.21  77634.20
         S          3.858            3.128    251.62  12327.25
         S          3.859            3.128    251.62  12327.25
         S          3.758            3.128    251.62  12327.25
         S          3.859            3.128    251.62  12327.25
         Mo        10.220            3.547    674.22  77634.20
         Mo        10.254            3.547    674.22  77634.20
         S          3.863            3.128    251.62  12327.25
         S          3.860            3.128    251.62  12327.25
         S          3.859            3.128    251.62  12327.25
         S          4.732            3.128    251.62  12327.25
         Mo        10.208            3.547    674.22  77634.20
         Mo        10.220            3.547    674.22  77634.20
         S          3.858            3.128    251.62  12327.25
         S          3.859            3.128    251.62  12327.25
         S          3.758            3.128    251.62  12327.25
         S          3.859            3.128    251.62  12327.25
         Mo        10.220            3.547    674.22  77634.20
         Mo        10.834            3.547    674.22  77634.20
         S          3.863            3.128    251.62  12327.25
         S          3.860            3.128    251.62  12327.25
         S          3.859            3.128    251.62  12327.25
         S          4.732            3.128    251.62  12327.25
         Mo        10.208            3.547    674.22  77634.20
         Mo        10.221            3.547    674.22  77634.20
         S          3.858            3.128    251.62  12327.25
         S          3.859            3.128    251.62  12327.25
         S          3.758            3.128    251.62  12327.25
         S          3.859            3.128    251.62  12327.25
         Mo        10.220            3.547    674.22  77634.20
         Mo        10.254            3.547    674.22  77634.20
         S          3.847            3.128    251.62  12327.25
         S          3.860            3.128    251.62  12327.25
         S          3.859            3.128    251.62  12327.25
         S          3.806            3.128    251.62  12327.25
         Mo        10.208            3.547    674.22  77634.20
         Mo        10.221            3.547    674.22  77634.20
         S          3.858            3.128    251.62  12327.25
         S          3.859            3.128    251.62  12327.25
         S          3.758            3.128    251.62  12327.25
         S          3.859            3.128    251.62  12327.25
         Mo        10.220            3.547    674.22  77634.20
         Mo        10.234            3.547    674.22  77634.20
         S          3.847            3.128    251.62  12327.25
         S          3.861            3.128    251.62  12327.25
         S          3.859            3.128    251.62  12327.25
         S          3.806            3.128    251.62  12327.25
         Pd         3.767            3.168    558.46  51168.37
         Pt         3.625            3.168    692.72  72035.25

         Molecular C6 ( Ry / a.u.^6 ) =  13983844.84


     number of k points=     4  Gaussian smearing, width (Ry)=  0.0100
                       cart. coord. in units 2pi/alat
        k(    1) = (   0.0000000   0.0000000   0.0000000), wk =   0.5000000
        k(    2) = (   0.0000000  -0.5773499   0.0000000), wk =   0.5000000
        k(    3) = (  -0.5000000  -0.2886744   0.0000000), wk =   0.5000000
        k(    4) = (  -0.5000000  -0.8660242   0.0000000), wk =   0.5000000

     Dense  grid:  7154885 G-vectors     FFT dimensions: ( 180, 180, 512)

     Smooth grid:  3090769 G-vectors     FFT dimensions: ( 135, 135, 400)

     Estimated max dynamical RAM per process >       4.31 GB

     Estimated total dynamical RAM >     155.10 GB

     Atomic positions and unit cell read from directory:
     ./outdir/pwscf.save/
     Message from routine qexsd_readschema :
     xml data file ./outdir/pwscf.save/data-file-schema.xml not found
     Nothing found: using input atomic positions and unit cell

     Cannot read rho : file not found

     Initial potential from superposition of free atoms

     starting charge    1713.9389, renormalised to    1714.0000

     negative rho (up, down):  8.711E-04 0.000E+00
     Message from routine qexsd_readschema :
     xml data file ./outdir/pwscf.save/data-file-schema.xml not found
     Cannot read wfcs: file not found
     Starting wfcs are 1179 randomized atomic wfcs
     Checking if some PAW data can be deallocated... 

     total cpu time spent up to now is      180.9 secs

     Self-consistent Calculation

     iteration #  1     ecut=    77.00 Ry     beta= 0.20
     Davidson diagonalization with overlap
     c_bands: 12 eigenvalues not converged
     c_bands:  4 eigenvalues not converged
     ethr =  1.00E-05,  avg # of iterations = 94.8

     negative rho (up, down):  8.291E-04 0.000E+00

     total cpu time spent up to now is    10838.1 secs

     total energy              =  -33980.28889818 Ry
     estimated scf accuracy    <       8.36089635 Ry

     iteration #  2     ecut=    77.00 Ry     beta= 0.20
     Davidson diagonalization with overlap
     ethr =  4.88E-04,  avg # of iterations =  1.2

     negative rho (up, down):  8.064E-04 0.000E+00

     total cpu time spent up to now is    11220.8 secs

     total energy              =  -33979.59014216 Ry
     estimated scf accuracy    <       3.02933305 Ry

     iteration #  3     ecut=    77.00 Ry     beta= 0.20
     Davidson diagonalization with overlap
     ethr =  1.77E-04,  avg # of iterations = 10.2

     negative rho (up, down):  8.608E-04 0.000E+00

     total cpu time spent up to now is    11667.7 secs

     total energy              =  -33979.27036728 Ry
     estimated scf accuracy    <       1.14924162 Ry

     iteration #  4     ecut=    77.00 Ry     beta= 0.20
     Davidson diagonalization with overlap
     c_bands:  2 eigenvalues not converged
     c_bands:  2 eigenvalues not converged
     c_bands:  2 eigenvalues not converged
     ethr =  6.71E-05,  avg # of iterations = 19.8

     negative rho (up, down):  8.187E-04 0.000E+00

     total cpu time spent up to now is    12556.6 secs

     total energy              =  -33980.21140866 Ry
     estimated scf accuracy    <       0.60086912 Ry

     iteration #  5     ecut=    77.00 Ry     beta= 0.20
     Davidson diagonalization with overlap
     ethr =  3.51E-05,  avg # of iterations =  9.8

     negative rho (up, down):  8.078E-04 0.000E+00

     total cpu time spent up to now is    13006.7 secs

     total energy              =  -33980.20633503 Ry
     estimated scf accuracy    <       0.29925362 Ry

     iteration #  6     ecut=    77.00 Ry     beta= 0.20
     Davidson diagonalization with overlap
     c_bands:  1 eigenvalues not converged
     c_bands:  2 eigenvalues not converged
     c_bands:  4 eigenvalues not converged
     ethr =  1.75E-05,  avg # of iterations = 19.0

     negative rho (up, down):  8.233E-04 0.000E+00

     total cpu time spent up to now is    13524.1 secs

     total energy              =  -33980.17449525 Ry
     estimated scf accuracy    <       0.18957028 Ry

     iteration #  7     ecut=    77.00 Ry     beta= 0.20
     Davidson diagonalization with overlap
     c_bands:  5 eigenvalues not converged
     c_bands:  1 eigenvalues not converged
     c_bands:  3 eigenvalues not converged
     ethr =  1.11E-05,  avg # of iterations = 25.0

     negative rho (up, down):  8.825E-04 0.000E+00

     total cpu time spent up to now is    14120.2 secs

     total energy              =  -33980.17753586 Ry
     estimated scf accuracy    <       0.06642019 Ry

     iteration #  8     ecut=    77.00 Ry     beta= 0.20
     Davidson diagonalization with overlap
     c_bands:  5 eigenvalues not converged
     c_bands:  4 eigenvalues not converged
     c_bands:  3 eigenvalues not converged
     c_bands:  5 eigenvalues not converged
     ethr =  3.88E-06,  avg # of iterations = 35.0

     negative rho (up, down):  8.835E-04 0.000E+00

     total cpu time spent up to now is    15565.5 secs

     total energy              =  -33980.23836376 Ry
     estimated scf accuracy    <       0.04055409 Ry

     iteration #  9     ecut=    77.00 Ry     beta= 0.20
     Davidson diagonalization with overlap
     c_bands:  2 eigenvalues not converged
     c_bands:  2 eigenvalues not converged
     c_bands:  4 eigenvalues not converged
     c_bands:  3 eigenvalues not converged
     ethr =  2.37E-06,  avg # of iterations = 45.0

     negative rho (up, down):  8.772E-04 0.000E+00

     total cpu time spent up to now is    16734.4 secs

     total energy              =  -33980.24431410 Ry
     estimated scf accuracy    <       0.01058291 Ry

     iteration # 10     ecut=    77.00 Ry     beta= 0.20
     Davidson diagonalization with overlap
     c_bands:  3 eigenvalues not converged
     c_bands:  5 eigenvalues not converged
     ethr =  6.17E-07,  avg # of iterations = 16.8

     negative rho (up, down):  8.750E-04 0.000E+00

     total cpu time spent up to now is    17826.2 secs

     total energy              =  -33980.25458324 Ry
     estimated scf accuracy    <       0.00383628 Ry

     iteration # 11     ecut=    77.00 Ry     beta= 0.20
     Davidson diagonalization with overlap
     c_bands:  5 eigenvalues not converged
     c_bands:  3 eigenvalues not converged
     ethr =  2.24E-07,  avg # of iterations = 20.5

     negative rho (up, down):  8.878E-04 0.000E+00

     total cpu time spent up to now is    18568.8 secs

     total energy              =  -33980.25449357 Ry
     estimated scf accuracy    <       0.00304223 Ry

     iteration # 12     ecut=    77.00 Ry     beta= 0.20
     Davidson diagonalization with overlap
     c_bands:  1 eigenvalues not converged
     ethr =  1.77E-07,  avg # of iterations = 15.5

     negative rho (up, down):  8.856E-04 0.000E+00

     total cpu time spent up to now is    19529.8 secs

     total energy              =  -33980.25494780 Ry
     estimated scf accuracy    <       0.00534721 Ry

     iteration # 13     ecut=    77.00 Ry     beta= 0.20
     Davidson diagonalization with overlap
     ethr =  1.77E-07,  avg # of iterations =  7.2

     negative rho (up, down):  8.844E-04 0.000E+00

     total cpu time spent up to now is    19961.7 secs

     total energy              =  -33980.25444982 Ry
     estimated scf accuracy    <       0.00112214 Ry

     iteration # 14     ecut=    77.00 Ry     beta= 0.20
     Davidson diagonalization with overlap
     c_bands:  4 eigenvalues not converged
     ethr =  6.55E-08,  avg # of iterations = 14.8

     negative rho (up, down):  8.836E-04 0.000E+00

     total cpu time spent up to now is    20957.9 secs

     total energy              =  -33980.25565957 Ry
     estimated scf accuracy    <       0.00124387 Ry

     iteration # 15     ecut=    77.00 Ry     beta= 0.20
     Davidson diagonalization with overlap
     ethr =  6.55E-08,  avg # of iterations =  1.5

     negative rho (up, down):  8.828E-04 0.000E+00

     total cpu time spent up to now is    21346.6 secs

     total energy              =  -33980.25528343 Ry
     estimated scf accuracy    <       0.00057021 Ry

     iteration # 16     ecut=    77.00 Ry     beta= 0.20
     Davidson diagonalization with overlap
     ethr =  3.33E-08,  avg # of iterations = 14.5

     negative rho (up, down):  8.833E-04 0.000E+00

     total cpu time spent up to now is    22154.3 secs

     total energy              =  -33980.25569599 Ry
     estimated scf accuracy    <       0.00022761 Ry

     iteration # 17     ecut=    77.00 Ry     beta= 0.20
     Davidson diagonalization with overlap
     ethr =  1.33E-08,  avg # of iterations =  6.2

     negative rho (up, down):  8.829E-04 0.000E+00

     total cpu time spent up to now is    22606.0 secs

     total energy              =  -33980.25565575 Ry
     estimated scf accuracy    <       0.00013995 Ry

     iteration # 18     ecut=    77.00 Ry     beta= 0.20
     Davidson diagonalization with overlap
     ethr =  8.17E-09,  avg # of iterations = 10.5

     negative rho (up, down):  8.821E-04 0.000E+00

     total cpu time spent up to now is    23067.6 secs

     total energy              =  -33980.25565562 Ry
     estimated scf accuracy    <       0.00003156 Ry

     iteration # 19     ecut=    77.00 Ry     beta= 0.20
     Davidson diagonalization with overlap
     c_bands:  1 eigenvalues not converged
     c_bands:  2 eigenvalues not converged
     c_bands:  2 eigenvalues not converged
     ethr =  1.84E-09,  avg # of iterations = 19.5

     negative rho (up, down):  8.815E-04 0.000E+00

     total cpu time spent up to now is    24072.8 secs

     total energy              =  -33980.25569613 Ry
     estimated scf accuracy    <       0.00000299 Ry

     iteration # 20     ecut=    77.00 Ry     beta= 0.20
     Davidson diagonalization with overlap
     c_bands:  4 eigenvalues not converged
     c_bands:  2 eigenvalues not converged
     ethr =  1.74E-10,  avg # of iterations = 25.8

     negative rho (up, down):  8.810E-04 0.000E+00

     total cpu time spent up to now is    25884.2 secs

     total energy              =  -33980.25570503 Ry
     estimated scf accuracy    <       0.00000218 Ry

     iteration # 21     ecut=    77.00 Ry     beta= 0.20
     Davidson diagonalization with overlap
     c_bands:  3 eigenvalues not converged
     ethr =  1.27E-10,  avg # of iterations =  6.5

     negative rho (up, down):  8.788E-04 0.000E+00

     total cpu time spent up to now is    26312.9 secs

     total energy              =  -33980.25570446 Ry
     estimated scf accuracy    <       0.00000155 Ry

     iteration # 22     ecut=    77.00 Ry     beta= 0.20
     Davidson diagonalization with overlap
     c_bands:  4 eigenvalues not converged
     ethr =  9.05E-11,  avg # of iterations = 15.0

     negative rho (up, down):  8.770E-04 0.000E+00

     total cpu time spent up to now is    26844.9 secs

     End of self-consistent calculation

          k = 0.0000 0.0000 0.0000 (386245 PWs)   bands (ev):

  -102.2542 -88.6647 -70.5689 -70.5669 -70.5658 -70.5645 -70.5409 -70.5366
   -70.5228 -66.5853 -66.5853 -66.5840 -66.5778 -66.5644 -66.5642 -66.5641
   -66.5641 -66.5641 -66.5640 -66.5640 -66.5640 -66.5640 -66.5640 -66.5640
   -66.5638 -66.5638 -66.5627 -66.5627 -66.5627 -66.5627 -66.5627 -66.5627
   -66.5613 -66.5569 -66.5532 -66.5445 -66.5429 -66.5427 -66.5427 -66.5427
   -66.5427 -66.5427 -66.5427 -66.5426 -66.5426 -66.5426 -66.5426 -66.5426
   -66.5426 -66.5426 -66.5425 -66.5425 -66.5424 -66.5423 -66.5413 -66.5413
   -66.5413 -66.5413 -66.5413 -66.5413 -66.5413 -66.5413 -66.5413 -66.5400
   -66.5315 -66.5292 -66.5256 -66.5243 -66.5191 -66.5184 -66.5150 -66.5038
   -66.4968 -56.5151 -56.4869 -56.4778 -54.4810 -54.4605 -54.4583 -40.9127
   -40.9127 -40.9127 -40.9127 -40.9127 -40.9126 -40.9121 -40.9121 -40.9121
   -40.8948 -40.8946 -40.8905 -40.8375 -40.8374 -40.8374 -40.8374 -40.8374
   -40.8374 -40.8374 -40.8374 -40.8374 -40.8373 -40.8373 -40.8372 -40.8367
   -40.8367 -40.8367 -40.8367 -40.8367 -40.8367 -40.8238 -40.8195 -40.8178
   -40.8130 -40.8085 -40.8077 -40.7537 -40.7450 -40.7449 -40.7444 -40.7373
   -40.7233 -40.7112 -40.7111 -40.7111 -40.7111 -40.7111 -40.7111 -40.7110
   -40.7110 -40.7110 -40.7110 -40.7109 -40.7108 -40.7102 -40.7102 -40.7102
   -40.7102 -40.7102 -40.7102 -40.7041 -40.7034 -40.7033 -40.7033 -40.7033
   -40.7033 -40.7033 -40.7032 -40.7032 -40.7032 -40.7032 -40.7031 -40.7030
   -40.7026 -40.7026 -40.7026 -40.7026 -40.7026 -40.7026 -40.6989 -40.6967
   -40.6955 -40.6940 -40.6930 -40.6916 -40.6895 -40.6862 -40.6762 -40.6761
   -40.6761 -40.6760 -40.6760 -40.6760 -40.6760 -40.6760 -40.6760 -40.6759
   -40.6759 -40.6758 -40.6751 -40.6751 -40.6751 -40.6751 -40.6751 -40.6751
   -40.6745 -40.6698 -40.6651 -40.6636 -40.6627 -40.6615 -40.6614 -40.6614
   -40.6614 -40.6613 -40.6613 -40.6613 -40.6613 -40.6613 -40.6613 -40.6613
   -40.6612 -40.6612 -40.6612 -40.6612 -40.6612 -40.6611 -40.6611 -40.6610
   -40.6606 -40.6606 -40.6606 -40.6606 -40.6606 -40.6606 -40.6605 -40.6605
   -40.6605 -40.6574 -40.6554 -40.6548 -40.6505 -40.6504 -40.6475 -40.6441
   -40.6426 -40.6422 -40.6356 -40.5977 -40.5977 -40.5977 -40.5977 -40.5976
   -40.5975 -40.5967 -40.5967 -40.5967 -40.5771 -40.5770 -40.5726 -40.5507
   -40.5506 -40.5506 -40.5506 -40.5506 -40.5506 -40.5506 -40.5506 -40.5506
   -40.5505 -40.5504 -40.5503 -40.5496 -40.5496 -40.5496 -40.5496 -40.5496
   -40.5496 -40.5352 -40.5315 -40.5272 -40.5260 -40.5244 -40.5146 -40.5030
   -40.5030 -40.5029 -40.5029 -40.5019 -40.5019 -40.4779 -40.4756 -20.1090
   -20.0486 -19.9486 -19.8468 -19.4023 -19.2605 -19.2283 -19.2168 -19.2163
   -19.2094 -19.1968 -19.1895 -19.1788 -19.1675 -19.1668 -19.1484 -19.1080
   -19.0989 -19.0919 -19.0848 -19.0834 -19.0649 -19.0044 -19.0001 -18.9979
   -18.9953 -18.9949 -18.9877 -18.8699 -18.7509 -18.5936 -18.5414 -18.5178
   -18.5149 -18.4701 -18.4669 -18.4548 -18.4363 -18.4007 -18.3878 -18.3827
   -18.3691 -18.3682 -18.3440 -18.3073 -18.2689 -18.2489 -18.2473 -18.2437
   -18.2314 -18.2079 -18.1817 -18.1570 -18.1537 -18.1453 -18.1422 -18.1344
   -18.1297 -18.1158 -18.1143 -18.0834 -18.0822 -18.0808 -18.0808 -18.0788
   -18.0781 -18.0533 -18.0492 -18.0447 -18.0444 -18.0419 -18.0384 -18.0376
   -18.0361 -18.0358 -18.0215 -18.0103 -18.0093 -18.0076 -18.0034 -17.9931
   -17.9923 -17.9900 -17.9800 -17.9771 -17.9679 -17.9652 -17.9604 -17.9574
   -17.9497 -17.9480 -17.9451 -17.9100 -17.9095 -17.9044 -17.9043 -17.8897
   -17.8785 -17.8772 -17.8762 -17.8753 -17.8560 -17.8535 -17.8497 -17.8436
   -17.8394 -17.8331 -17.8276 -17.8247 -17.8237 -17.8193 -17.8186 -17.8152
   -17.8021 -17.8017 -17.8005 -17.7919 -17.7901 -17.7867 -17.7817 -17.7806
   -17.7796 -17.7584 -17.7581 -17.7572 -17.7554 -17.7548 -17.7543 -12.0503
   -11.9222 -11.8498 -11.8159 -11.7699 -11.7489 -11.7387 -11.7217 -11.6402
   -11.6258 -11.6207 -11.5331 -11.5141 -11.5124 -11.4831 -11.3392 -11.3020
   -11.2303 -11.2146 -11.2026 -11.1992 -11.1951 -11.1844 -11.1706 -11.1111
   -11.1016 -11.0953 -11.0934 -11.0889 -11.0874 -11.0780 -11.0690 -11.0653
   -11.0568 -11.0348 -11.0315 -11.0245 -11.0235 -11.0199 -11.0157 -11.0040
   -10.9958 -10.9895 -10.9859 -10.9744 -10.9415 -10.9229 -10.9181 -10.9100
   -10.9092 -10.9029 -10.8809 -10.8772 -10.8599 -10.8577 -10.8526 -10.8473
   -10.8346 -10.8205 -10.8151 -10.8128 -10.8117 -10.8063 -10.8014 -10.7976
   -10.7916 -10.7877 -10.7851 -10.7846 -10.7827 -10.7739 -10.7726 -10.7710
   -10.7656 -10.7647 -10.7612 -10.7393 -10.7377 -10.7366 -10.7360 -10.7291
   -10.7273 -10.7258 -10.7211 -10.7123 -10.6987 -10.6984 -10.6980 -10.6976
   -10.6950 -10.6940 -10.6198 -10.6191 -10.6173 -10.5706 -10.5611 -10.5507
   -10.5465 -10.5428 -10.5378 -10.3336 -10.3237 -10.2484 -10.2125 -10.1458
   -10.0909 -10.0768  -9.9795  -9.9024  -9.8669  -9.8248  -9.7998  -9.7775
    -9.7692  -9.7690  -9.7616  -9.7598  -9.7423  -9.7363  -9.7323  -9.7302
    -9.7302  -9.7290  -9.7266  -9.7196  -9.7128  -9.7117  -9.7101  -9.7046
    -9.7032  -9.6802  -9.6579  -9.6543  -9.6284  -9.5935  -9.5926  -9.5890
    -9.5888  -9.5836  -9.5826  -9.5791  -9.5783  -9.5779  -9.5779  -9.5766
    -9.5763  -9.5634  -9.5590  -9.5310  -9.5149  -9.5095  -9.5026  -9.5025
    -9.5025  -9.5019  -9.5017  -9.5014  -9.4817  -9.4812  -9.4779  -9.4706
    -9.4612  -9.4550  -9.4397  -9.4147  -9.4044  -9.3380  -9.3310  -9.3244
    -9.3174  -9.3033  -9.3018  -9.2940  -9.2938  -9.2923  -9.2860  -9.2735
    -9.2667  -9.2123  -9.2078  -9.2052  -9.1927  -9.1916  -9.1831  -9.1499
    -9.1471  -9.1460  -9.1424  -9.1422  -9.1398  -9.1273  -9.1155  -9.1013
    -9.0965  -9.0954  -9.0879  -9.0511  -9.0489  -8.9977  -8.9945  -8.9760
    -8.9586  -8.9434  -8.9419  -8.9392  -8.9233  -8.9205  -8.9096  -8.9075
    -8.9071  -8.8985  -8.8785  -8.8782  -8.8773  -8.8707  -8.8581  -8.8560
    -8.8503  -8.8434  -8.8269  -8.7827  -8.7821  -8.7820  -8.7816  -8.7816
    -8.7813  -8.7172  -8.7162  -8.7062  -8.6985  -8.6974  -8.6946  -8.6321
    -8.6318  -8.6219  -8.6173  -8.6153  -8.6135  -8.5564  -8.5561  -8.5522
    -8.5515  -8.5508  -8.5495  -8.5396  -8.4624  -8.4319  -8.3985  -8.3737
    -8.3274  -8.3274  -8.3225  -8.3223  -8.3161  -8.3159  -8.2990  -8.2744
    -8.2501  -8.2402  -8.2372  -8.2370  -8.2368  -8.2355  -8.2322  -8.2265
    -8.2205  -8.2111  -8.2106  -8.2096  -8.2082  -8.2054  -8.1966  -8.1837
    -8.1822  -8.1818  -8.1811  -8.1802  -8.1774  -8.1731  -8.0905  -8.0686
    -7.9939  -7.9778  -7.8668  -7.8203  -7.8167  -7.8166  -7.7376  -7.7283
    -7.7250  -7.6574  -7.6449  -7.6397  -7.6033  -7.6023  -7.5973  -7.5938
    -7.5817  -7.5697  -7.5678  -7.5660  -7.5632  -7.5323  -7.5287  -7.5184
    -7.5171  -7.5118  -7.5020  -7.4989  -7.4954  -7.4939  -7.4933  -7.4929
    -7.4864  -7.4840  -7.4788  -7.4674  -7.4666  -7.4664  -7.4655  -7.4632
    -7.4581  -7.4436  -7.4433  -7.4432  -7.4427  -7.4423  -7.4416  -7.4301
    -7.4281  -7.4261  -7.4106  -7.3846  -7.3831  -7.3813  -7.3781  -7.3708
    -7.3659  -7.3624  -7.3383  -7.3122  -7.3013  -7.2953  -7.2911  -7.2752
    -7.2600  -7.2561  -7.2531  -7.2530  -7.2510  -7.2453  -7.2294  -7.2253
    -7.2104  -7.2102  -7.1919  -7.1919  -7.1743  -7.1743  -7.1612  -7.1369
    -7.0963  -7.0821  -7.0708  -7.0696  -6.9955  -6.9800  -6.9377  -6.9128
    -6.8894  -6.8471  -6.8401  -6.8275  -6.8257  -6.8009  -6.7628  -6.7443
    -6.7418  -6.7410  -6.7244  -6.6976  -6.6649  -6.6624  -6.6550  -6.6540
    -6.6173  -6.6152  -6.5969  -6.5866  -6.5862  -6.5799  -6.5719  -6.5526
    -6.5488  -6.5474  -6.5349  -6.5266  -6.5216  -6.5101  -6.5092  -6.4956
    -6.4768  -6.4767  -6.4754  -6.4710  -6.4708  -6.4689  -6.4673  -6.4647
    -6.4594  -6.4584  -6.4584  -6.4581  -6.4579  -6.4578  -6.4560  -6.4291
    -6.4183  -6.4070  -6.3944  -6.3839  -6.3710  -6.3688  -6.3668  -6.3454
    -6.3068  -6.2940  -6.2937  -6.2934  -6.2930  -6.2903  -6.2818  -6.2568
    -6.2553  -6.2546  -6.2538  -6.2498  -6.2440  -6.2252  -6.2172  -6.2166
    -6.2154  -6.2144  -6.2121  -6.2117  -6.1832  -6.1740  -6.1397  -6.1169
    -5.8569  -5.7223  -5.6654  -5.6602  -5.5349  -5.4118  -5.3944  -5.2695
    -5.1102  -4.3774  -3.8628  -3.8179  -3.8125  -3.8090  -3.8045  -3.7926
    -3.7895  -3.7874  -3.7821  -3.7820  -3.7818  -3.7656  -3.7217  -3.6692
    -3.6672  -3.6514  -3.6513  -3.6399  -3.6390  -3.6338  -3.6321  -3.6291
    -3.6250  -3.5437  -3.5007  -3.4744  -3.4664  -3.4620  -3.4616  -3.4584
    -3.4443  -3.4434  -3.4330  -3.4317  -3.4296  -3.4288  -3.4284  -3.4153
    -3.4095  -3.4056  -3.4031  -3.4030  -3.4028  -3.4016  -3.3949  -3.3886
    -3.3877  -3.3859  -3.3743  -3.3722  -3.3709  -3.3699  -3.3676  -3.3627
    -3.3617  -3.3588  -3.3541  -3.3494  -3.3480  -3.3169  -3.3165  -3.3079
    -3.3052  -3.3036  -3.2991  -3.2975  -3.2972  -3.2888  -3.2810  -3.2730
    -3.2688  -3.2596  -3.2474  -3.2423  -3.2404  -3.2320  -3.2236  -3.2141
    -3.2120  -3.1756  -3.1664  -3.1550  -3.1529  -3.0417  -3.0264  -3.0254
    -3.0244  -3.0197  -3.0179  -3.0116  -3.0045  -3.0008  -2.9973  -2.9694
    -2.9450  -2.9444  -2.9354  -2.9337  -2.9320  -2.9312  -2.9307  -2.9243
    -2.9233  -2.9231  -2.9221  -2.9193  -2.9153  -2.9140  -2.9131  -2.9062
    -2.8987  -2.8976  -2.8946  -2.8925  -2.8924  -2.8897  -2.8886  -2.8885
    -2.8882  -2.8840  -2.8792  -2.8546  -2.8419  -2.8382  -2.8354  -2.8301
    -2.8292  -2.8084  -2.7994  -2.7782  -2.7661  -2.7649  -2.7647  -2.7646
    -2.7645  -2.7643  -2.7640  -2.7638  -2.7623  -2.7556  -2.7475  -2.7454
    -2.7272  -2.7053  -2.6995  -2.6954  -2.6880  -2.6826  -2.6776  -2.6296
    -2.6250  -2.5981  -2.5939  -2.5898  -2.5846  -2.5805  -2.5794  -2.5790
    -2.5757  -2.5582  -2.5359  -2.5106  -2.5103  -2.5046  -2.4952  -2.4084
    -2.3812  -2.3710  -2.3702  -2.3688

          k = 0.0000-0.5773 0.0000 (386352 PWs)   bands (ev):

  -102.2542 -88.6647 -70.5689 -70.5669 -70.5658 -70.5645 -70.5409 -70.5366
   -70.5228 -66.5791 -66.5791 -66.5791 -66.5790 -66.5778 -66.5778 -66.5764
   -66.5685 -66.5685 -66.5684 -66.5683 -66.5672 -66.5672 -66.5667 -66.5621
   -66.5569 -66.5534 -66.5534 -66.5534 -66.5534 -66.5534 -66.5533 -66.5532
   -66.5532 -66.5525 -66.5520 -66.5520 -66.5520 -66.5520 -66.5489 -66.5489
   -66.5489 -66.5488 -66.5476 -66.5476 -66.5447 -66.5427 -66.5427 -66.5426
   -66.5426 -66.5426 -66.5426 -66.5425 -66.5425 -66.5413 -66.5413 -66.5413
   -66.5413 -66.5382 -66.5382 -66.5382 -66.5381 -66.5373 -66.5369 -66.5369
   -66.5326 -66.5288 -66.5252 -66.5236 -66.5218 -66.5185 -66.5140 -66.5039
   -66.4967 -56.5151 -56.4869 -56.4778 -54.4810 -54.4605 -54.4583 -40.8812
   -40.8811 -40.8811 -40.8811 -40.8811 -40.8810 -40.8810 -40.8810 -40.8804
   -40.8804 -40.8804 -40.8804 -40.8719 -40.8703 -40.8545 -40.8543 -40.8543
   -40.8543 -40.8542 -40.8536 -40.8536 -40.8457 -40.8448 -40.8422 -40.8422
   -40.8422 -40.8421 -40.8415 -40.8415 -40.8307 -40.8190 -40.8130 -40.7915
   -40.7915 -40.7915 -40.7915 -40.7915 -40.7915 -40.7914 -40.7914 -40.7908
   -40.7908 -40.7908 -40.7908 -40.7717 -40.7688 -40.7676 -40.7668 -40.7486
   -40.7388 -40.7328 -40.7328 -40.7328 -40.7327 -40.7322 -40.7321 -40.7299
   -40.7233 -40.7233 -40.7232 -40.7232 -40.7224 -40.7224 -40.7119 -40.7119
   -40.7119 -40.7119 -40.7113 -40.7113 -40.7096 -40.7032 -40.6970 -40.6954
   -40.6901 -40.6823 -40.6823 -40.6823 -40.6823 -40.6823 -40.6823 -40.6822
   -40.6822 -40.6816 -40.6816 -40.6816 -40.6816 -40.6761 -40.6755 -40.6736
   -40.6736 -40.6735 -40.6735 -40.6729 -40.6729 -40.6680 -40.6638 -40.6618
   -40.6618 -40.6617 -40.6617 -40.6613 -40.6613 -40.6613 -40.6613 -40.6612
   -40.6612 -40.6612 -40.6611 -40.6609 -40.6609 -40.6606 -40.6606 -40.6605
   -40.6605 -40.6605 -40.6565 -40.6526 -40.6526 -40.6525 -40.6525 -40.6519
   -40.6519 -40.6508 -40.6488 -40.6436 -40.6427 -40.6368 -40.6350 -40.6309
   -40.6309 -40.6308 -40.6308 -40.6308 -40.6308 -40.6307 -40.6307 -40.6299
   -40.6299 -40.6299 -40.6299 -40.6182 -40.6156 -40.6046 -40.5984 -40.5961
   -40.5961 -40.5961 -40.5961 -40.5961 -40.5960 -40.5960 -40.5960 -40.5951
   -40.5951 -40.5951 -40.5951 -40.5840 -40.5839 -40.5839 -40.5838 -40.5830
   -40.5830 -40.5779 -40.5749 -40.5735 -40.5704 -40.5646 -40.5646 -40.5646
   -40.5645 -40.5644 -40.5637 -40.5636 -40.5504 -40.5476 -40.5476 -40.5476
   -40.5475 -40.5466 -40.5466 -40.5460 -40.5373 -40.5238 -40.5179 -40.5170
   -40.5170 -40.5169 -40.5168 -40.5159 -40.5159 -40.4980 -40.4842 -19.9206
   -19.8484 -19.8232 -19.7888 -19.7226 -19.6982 -19.6161 -19.6078 -19.4490
   -19.4175 -19.3837 -19.3668 -19.2902 -19.2787 -19.1891 -19.1851 -18.8651
   -18.8058 -18.7686 -18.7475 -18.7246 -18.6995 -18.6817 -18.6808 -18.6788
   -18.6652 -18.6461 -18.6367 -18.6099 -18.6072 -18.6004 -18.5952 -18.5521
   -18.5407 -18.5262 -18.5147 -18.5120 -18.5078 -18.4995 -18.4860 -18.4686
   -18.4426 -18.4385 -18.4360 -18.4270 -18.4019 -18.3711 -18.3675 -18.3667
   -18.3443 -18.3319 -18.3154 -18.2993 -18.2915 -18.2814 -18.2349 -18.2275
   -18.2145 -18.2050 -18.1931 -18.1722 -18.1478 -18.1378 -18.1311 -18.1062
   -18.0917 -18.0812 -18.0683 -18.0642 -18.0615 -18.0589 -18.0557 -18.0507
   -18.0337 -18.0323 -18.0311 -18.0262 -18.0236 -18.0197 -18.0174 -18.0076
   -18.0031 -17.9981 -17.9890 -17.9700 -17.9666 -17.9657 -17.9630 -17.9595
   -17.9582 -17.9554 -17.9476 -17.9452 -17.9385 -17.9072 -17.9020 -17.8963
   -17.8951 -17.8886 -17.8786 -17.8525 -17.8486 -17.8462 -17.8343 -17.8266
   -17.8079 -17.8052 -17.8004 -17.7967 -17.7836 -17.7793 -17.7792 -17.7790
   -17.7778 -17.7765 -17.7751 -17.7649 -17.7627 -17.7451 -17.7418 -17.7207
   -17.7181 -17.7014 -17.6977 -17.6870 -17.6840 -17.6795 -17.6790 -11.9591
   -11.6858 -11.6698 -11.6006 -11.5616 -11.5233 -11.4933 -11.4791 -11.4544
   -11.4537 -11.4493 -11.4444 -11.4350 -11.4172 -11.4077 -11.3744 -11.3499
   -11.3477 -11.3351 -11.3296 -11.3166 -11.2958 -11.2907 -11.2805 -11.2630
   -11.2500 -11.2338 -11.2291 -11.2261 -11.2182 -11.2164 -11.2123 -11.2007
   -11.1680 -11.1649 -11.1579 -11.1463 -11.1412 -11.1317 -11.1296 -11.1263
   -11.1213 -11.1085 -11.1054 -11.0910 -11.0832 -11.0480 -11.0458 -11.0245
   -11.0166 -10.9820 -10.9402 -10.9189 -10.9087 -10.8917 -10.8799 -10.8692
   -10.8615 -10.8562 -10.8489 -10.8339 -10.8225 -10.8135 -10.7994 -10.7885
   -10.7875 -10.7833 -10.7822 -10.7712 -10.7709 -10.7706 -10.7681 -10.7616
   -10.7569 -10.7557 -10.7531 -10.7518 -10.7509 -10.7426 -10.7421 -10.7409
   -10.7385 -10.7032 -10.7031 -10.7029 -10.7026 -10.5538 -10.5075 -10.5050
   -10.4976 -10.4785 -10.4512 -10.4194 -10.3851 -10.3705 -10.3626 -10.3141
   -10.2818 -10.2238 -10.1904 -10.1475 -10.1086 -10.0938 -10.0897 -10.0776
   -10.0632 -10.0532 -10.0456 -10.0223 -10.0138  -9.9974  -9.9936  -9.9907
    -9.9874  -9.9754  -9.9633  -9.9582  -9.9437  -9.8975  -9.8912  -9.8820
    -9.8765  -9.8671  -9.8647  -9.8529  -9.8496  -9.8164  -9.8120  -9.8082
    -9.7885  -9.7776  -9.7711  -9.7430  -9.7354  -9.7283  -9.7208  -9.7007
    -9.6946  -9.6738  -9.6554  -9.6496  -9.6435  -9.6184  -9.6081  -9.5934
    -9.5772  -9.5703  -9.5668  -9.5431  -9.5335  -9.5130  -9.5106  -9.5004
    -9.4996  -9.4866  -9.4831  -9.4502  -9.4492  -9.4397  -9.4349  -9.4311
    -9.4240  -9.4183  -9.4161  -9.4113  -9.3978  -9.3926  -9.3885  -9.3396
    -9.3173  -9.2846  -9.2714  -9.2505  -9.2088  -9.1957  -9.1855  -9.1804
    -9.1675  -9.1616  -9.1607  -9.1439  -9.1353  -9.1043  -9.1005  -9.0945
    -9.0672  -9.0470  -9.0425  -9.0395  -9.0377  -9.0158  -9.0090  -9.0037
    -8.9958  -8.9916  -8.9879  -8.9550  -8.9433  -8.9278  -8.9234  -8.9188
    -8.9047  -8.9008  -8.8987  -8.8826  -8.8628  -8.8564  -8.8539  -8.8471
    -8.8463  -8.8445  -8.8402  -8.8332  -8.8307  -8.8287  -8.8278  -8.8241
    -8.8184  -8.8149  -8.8018  -8.8000  -8.7994  -8.7984  -8.7910  -8.7849
    -8.7636  -8.7537  -8.7513  -8.7487  -8.7454  -8.7434  -8.7408  -8.7234
    -8.7186  -8.6933  -8.6923  -8.6912  -8.6839  -8.6726  -8.6717  -8.6454
    -8.6175  -8.6110  -8.6034  -8.5633  -8.5129  -8.4647  -8.4599  -8.4194
    -8.4046  -8.3843  -8.3624  -8.3163  -8.3087  -8.2720  -8.2504  -8.2263
    -8.2091  -8.1387  -8.0902  -8.0876  -8.0858  -8.0787  -8.0766  -8.0673
    -8.0664  -8.0454  -8.0252  -8.0154  -7.9772  -7.9572  -7.9285  -7.9237
    -7.8878  -7.8332  -7.8286  -7.8080  -7.8025  -7.7919  -7.7891  -7.7881
    -7.7738  -7.7702  -7.7686  -7.7647  -7.7612  -7.7582  -7.7557  -7.7506
    -7.7477  -7.7467  -7.7438  -7.7413  -7.7406  -7.7367  -7.7296  -7.7283
    -7.7261  -7.7241  -7.7235  -7.7222  -7.7184  -7.7181  -7.7122  -7.7029
    -7.6952  -7.6915  -7.6880  -7.6849  -7.6803  -7.6580  -7.6569  -7.6557
    -7.6550  -7.6443  -7.6267  -7.6262  -7.6254  -7.6242  -7.6157  -7.6059
    -7.5997  -7.5824  -7.5743  -7.5681  -7.5679  -7.5661  -7.5580  -7.5563
    -7.5519  -7.5446  -7.5427  -7.5257  -7.5239  -7.5213  -7.5204  -7.5096
    -7.5034  -7.5028  -7.4382  -7.4241  -7.4169  -7.4153  -7.4133  -7.3853
    -7.3828  -7.3069  -7.2738  -7.1612  -7.1416  -7.1345  -7.1293  -7.1242
    -7.1233  -7.1052  -7.0816  -7.0744  -7.0694  -7.0589  -7.0439  -7.0412
    -7.0193  -6.9996  -6.9893  -6.9880  -6.9791  -6.9651  -6.9405  -6.9350
    -6.9207  -6.9052  -6.8743  -6.8683  -6.8671  -6.8547  -6.8403  -6.8281
    -6.8222  -6.8191  -6.8164  -6.8055  -6.7752  -6.7549  -6.7341  -6.7181
    -6.7034  -6.6901  -6.6603  -6.6407  -6.6320  -6.6193  -6.5871  -6.5803
    -6.5706  -6.5691  -6.5658  -6.5644  -6.5635  -6.5605  -6.5500  -6.5478
    -6.5467  -6.5461  -6.5460  -6.5389  -6.5387  -6.5386  -6.5385  -6.5045
    -6.4872  -6.4526  -6.4334  -6.3883  -6.3717  -6.3226  -6.3069  -6.2836
    -6.2824  -6.2786  -6.2742  -6.2546  -6.2485  -6.2410  -6.2368  -6.2356
    -6.2325  -6.2315  -6.2272  -6.2237  -6.2109  -6.2010  -6.1912  -6.1780
    -6.1699  -6.1618  -6.1605  -6.1517  -6.1495  -5.9634  -5.9584  -5.9361
    -5.9262  -5.9048  -5.8730  -5.8616  -5.8338  -5.8106  -5.8027  -5.7216
    -5.6932  -5.6613  -5.6171  -5.5928  -5.5647  -5.5442  -5.4554  -5.3949
    -5.3498  -4.3770  -4.0556  -4.0485  -4.0456  -4.0238  -3.9067  -3.8908
    -3.8827  -3.8715  -3.8670  -3.8207  -3.8021  -3.7998  -3.7886  -3.7827
    -3.7715  -3.7658  -3.7585  -3.7568  -3.7555  -3.7107  -3.6669  -3.6417
    -3.6388  -3.5995  -3.5692  -3.5672  -3.5625  -3.5596  -3.5570  -3.5262
    -3.5120  -3.5094  -3.5025  -3.4820  -3.4768  -3.4744  -3.4707  -3.4661
    -3.4555  -3.4426  -3.4395  -3.4330  -3.4308  -3.4305  -3.4230  -3.4130
    -3.4059  -3.4040  -3.4002  -3.3890  -3.3824  -3.3759  -3.3699  -3.3460
    -3.3315  -3.3134  -3.3048  -3.3036  -3.3026  -3.3013  -3.2958  -3.2939
    -3.2851  -3.2613  -3.2484  -3.2447  -3.2431  -3.2385  -3.2372  -3.2349
    -3.2334  -3.2307  -3.2190  -3.2010  -3.2003  -3.1923  -3.1856  -3.1828
    -3.1791  -3.1725  -3.1698  -3.1667  -3.1528  -3.1453  -3.1435  -3.1300
    -3.1269  -3.1260  -3.1202  -3.1202  -3.1199  -3.1160  -3.1050  -3.0620
    -3.0596  -3.0422  -3.0313  -3.0262  -3.0207  -3.0202  -3.0175  -2.9833
    -2.9825  -2.9804  -2.9802  -2.9797  -2.9787  -2.9688  -2.9675  -2.9647
    -2.9639  -2.9608  -2.9525  -2.9482  -2.9463  -2.9403  -2.9360  -2.9329
    -2.9295  -2.9272  -2.9266  -2.9201  -2.9160  -2.9062  -2.9049  -2.9027
    -2.8969  -2.8906  -2.8882  -2.8817  -2.8709  -2.8579  -2.8502  -2.8469
    -2.8435  -2.8331  -2.8269  -2.8219  -2.8137  -2.7556  -2.7532  -2.7463
    -2.7439  -2.7023  -2.6913  -2.6727  -2.6711  -2.5735  -2.5677  -2.5553
    -2.5419  -2.5318  -2.5179  -2.5138  -2.5022  -2.4935  -2.4893  -2.4848
    -2.4832  -2.4795  -2.4746  -2.4436  -2.3680  -2.3591  -2.3526  -2.3518
    -2.3486  -2.3288  -2.3191  -2.3087

          k =-0.5000-0.2887 0.0000 (386352 PWs)   bands (ev):

  -102.2542 -88.6647 -70.5689 -70.5669 -70.5658 -70.5645 -70.5409 -70.5366
   -70.5228 -66.5791 -66.5791 -66.5791 -66.5790 -66.5778 -66.5778 -66.5762
   -66.5685 -66.5685 -66.5684 -66.5683 -66.5676 -66.5672 -66.5672 -66.5613
   -66.5573 -66.5535 -66.5534 -66.5534 -66.5534 -66.5534 -66.5534 -66.5531
   -66.5531 -66.5520 -66.5520 -66.5520 -66.5520 -66.5518 -66.5489 -66.5489
   -66.5489 -66.5488 -66.5476 -66.5476 -66.5442 -66.5428 -66.5427 -66.5427
   -66.5426 -66.5426 -66.5426 -66.5425 -66.5423 -66.5413 -66.5413 -66.5413
   -66.5413 -66.5384 -66.5382 -66.5382 -66.5382 -66.5381 -66.5369 -66.5369
   -66.5319 -66.5305 -66.5249 -66.5241 -66.5191 -66.5186 -66.5151 -66.5040
   -66.4966 -56.5151 -56.4869 -56.4778 -54.4810 -54.4605 -54.4583 -40.8812
   -40.8811 -40.8811 -40.8811 -40.8811 -40.8811 -40.8810 -40.8808 -40.8804
   -40.8804 -40.8804 -40.8804 -40.8671 -40.8627 -40.8596 -40.8570 -40.8543
   -40.8543 -40.8543 -40.8542 -40.8536 -40.8536 -40.8459 -40.8422 -40.8422
   -40.8422 -40.8421 -40.8415 -40.8415 -40.8324 -40.8194 -40.8076 -40.7916
   -40.7915 -40.7915 -40.7915 -40.7915 -40.7915 -40.7915 -40.7914 -40.7908
   -40.7908 -40.7908 -40.7908 -40.7709 -40.7683 -40.7664 -40.7646 -40.7483
   -40.7400 -40.7328 -40.7328 -40.7327 -40.7327 -40.7322 -40.7321 -40.7279
   -40.7233 -40.7233 -40.7232 -40.7232 -40.7224 -40.7224 -40.7119 -40.7119
   -40.7119 -40.7119 -40.7113 -40.7113 -40.7078 -40.7054 -40.7035 -40.6961
   -40.6824 -40.6824 -40.6823 -40.6823 -40.6823 -40.6823 -40.6822 -40.6821
   -40.6821 -40.6816 -40.6816 -40.6816 -40.6816 -40.6777 -40.6736 -40.6736
   -40.6736 -40.6735 -40.6735 -40.6729 -40.6729 -40.6714 -40.6656 -40.6618
   -40.6618 -40.6618 -40.6617 -40.6614 -40.6613 -40.6613 -40.6613 -40.6612
   -40.6612 -40.6611 -40.6610 -40.6609 -40.6609 -40.6606 -40.6606 -40.6605
   -40.6605 -40.6590 -40.6554 -40.6526 -40.6526 -40.6525 -40.6525 -40.6519
   -40.6519 -40.6515 -40.6471 -40.6461 -40.6437 -40.6357 -40.6344 -40.6310
   -40.6309 -40.6309 -40.6308 -40.6308 -40.6308 -40.6307 -40.6305 -40.6299
   -40.6299 -40.6299 -40.6299 -40.6161 -40.6151 -40.6076 -40.6034 -40.5961
   -40.5961 -40.5961 -40.5961 -40.5961 -40.5961 -40.5960 -40.5960 -40.5951
   -40.5951 -40.5951 -40.5951 -40.5840 -40.5839 -40.5839 -40.5838 -40.5830
   -40.5830 -40.5772 -40.5745 -40.5724 -40.5705 -40.5647 -40.5647 -40.5646
   -40.5644 -40.5637 -40.5636 -40.5600 -40.5545 -40.5480 -40.5476 -40.5476
   -40.5476 -40.5475 -40.5466 -40.5466 -40.5356 -40.5203 -40.5172 -40.5170
   -40.5170 -40.5169 -40.5168 -40.5159 -40.5159 -40.4931 -40.4907 -19.9140
   -19.8514 -19.8225 -19.7951 -19.7224 -19.7033 -19.6164 -19.6093 -19.4396
   -19.4164 -19.3813 -19.3653 -19.2885 -19.2775 -19.1886 -19.1846 -18.8711
   -18.8285 -18.7943 -18.7474 -18.7197 -18.6884 -18.6819 -18.6808 -18.6798
   -18.6460 -18.6335 -18.6328 -18.6079 -18.6065 -18.6000 -18.5695 -18.5563
   -18.5552 -18.5247 -18.5157 -18.5153 -18.5078 -18.4961 -18.4861 -18.4733
   -18.4548 -18.4462 -18.4344 -18.4284 -18.4093 -18.3703 -18.3688 -18.3654
   -18.3572 -18.3245 -18.3082 -18.2930 -18.2859 -18.2825 -18.2354 -18.2159
   -18.2118 -18.2074 -18.1802 -18.1597 -18.1563 -18.1361 -18.1313 -18.1238
   -18.0929 -18.0768 -18.0664 -18.0639 -18.0615 -18.0588 -18.0535 -18.0520
   -18.0431 -18.0322 -18.0278 -18.0271 -18.0258 -18.0216 -18.0091 -18.0039
   -18.0018 -18.0015 -17.9972 -17.9703 -17.9667 -17.9659 -17.9639 -17.9620
   -17.9559 -17.9543 -17.9537 -17.9451 -17.9398 -17.9101 -17.9028 -17.8970
   -17.8953 -17.8907 -17.8854 -17.8521 -17.8510 -17.8472 -17.8382 -17.8190
   -17.8085 -17.8054 -17.8000 -17.7935 -17.7811 -17.7792 -17.7791 -17.7791
   -17.7776 -17.7758 -17.7701 -17.7651 -17.7608 -17.7457 -17.7410 -17.7212
   -17.7177 -17.7021 -17.6971 -17.6873 -17.6834 -17.6796 -17.6788 -11.9562
   -11.6882 -11.6669 -11.5685 -11.5660 -11.5486 -11.4856 -11.4760 -11.4689
   -11.4548 -11.4528 -11.4439 -11.4410 -11.4230 -11.4150 -11.3929 -11.3509
   -11.3486 -11.3367 -11.3238 -11.3143 -11.2878 -11.2820 -11.2782 -11.2637
   -11.2430 -11.2352 -11.2279 -11.2274 -11.2195 -11.2130 -11.2105 -11.1986
   -11.1695 -11.1618 -11.1567 -11.1496 -11.1452 -11.1350 -11.1285 -11.1276
   -11.1224 -11.1064 -11.1057 -11.0815 -11.0744 -11.0535 -11.0414 -11.0191
   -11.0148 -10.9848 -10.9285 -10.9125 -10.9094 -10.9084 -10.8789 -10.8748
   -10.8717 -10.8503 -10.8450 -10.8313 -10.8193 -10.8064 -10.7982 -10.7957
   -10.7856 -10.7769 -10.7753 -10.7709 -10.7709 -10.7704 -10.7687 -10.7644
   -10.7576 -10.7552 -10.7533 -10.7531 -10.7514 -10.7422 -10.7421 -10.7419
   -10.7364 -10.7032 -10.7032 -10.7030 -10.7024 -10.5536 -10.5066 -10.5032
   -10.4993 -10.4752 -10.4595 -10.4556 -10.4234 -10.3927 -10.3597 -10.2997
   -10.2339 -10.2318 -10.1809 -10.1318 -10.1152 -10.0975 -10.0883 -10.0789
   -10.0706 -10.0492 -10.0401 -10.0209 -10.0157  -9.9981  -9.9919  -9.9865
    -9.9844  -9.9784  -9.9549  -9.9537  -9.9441  -9.9114  -9.8910  -9.8867
    -9.8804  -9.8680  -9.8583  -9.8526  -9.8449  -9.8229  -9.8124  -9.7991
    -9.7860  -9.7807  -9.7666  -9.7419  -9.7399  -9.7273  -9.7172  -9.7119
    -9.6991  -9.6671  -9.6499  -9.6472  -9.6210  -9.6209  -9.6135  -9.5877
    -9.5840  -9.5763  -9.5594  -9.5405  -9.5321  -9.5242  -9.5031  -9.4974
    -9.4970  -9.4853  -9.4810  -9.4513  -9.4511  -9.4466  -9.4339  -9.4315
    -9.4262  -9.4198  -9.4154  -9.4120  -9.4034  -9.3913  -9.3794  -9.3503
    -9.3372  -9.2805  -9.2732  -9.2454  -9.2039  -9.2037  -9.1963  -9.1917
    -9.1670  -9.1563  -9.1547  -9.1403  -9.1278  -9.1188  -9.1063  -9.0894
    -9.0637  -9.0572  -9.0432  -9.0352  -9.0307  -9.0244  -9.0134  -9.0019
    -8.9971  -8.9947  -8.9763  -8.9481  -8.9458  -8.9337  -8.9296  -8.9143
    -8.9066  -8.8943  -8.8936  -8.8894  -8.8523  -8.8503  -8.8477  -8.8471
    -8.8461  -8.8376  -8.8339  -8.8314  -8.8295  -8.8295  -8.8259  -8.8226
    -8.8198  -8.8160  -8.8077  -8.7998  -8.7995  -8.7977  -8.7930  -8.7922
    -8.7660  -8.7532  -8.7503  -8.7502  -8.7461  -8.7432  -8.7409  -8.7227
    -8.7209  -8.6956  -8.6942  -8.6924  -8.6884  -8.6806  -8.6644  -8.6323
    -8.6178  -8.6060  -8.5928  -8.5515  -8.5065  -8.4634  -8.4627  -8.4578
    -8.4028  -8.3905  -8.3192  -8.3174  -8.3099  -8.2843  -8.2745  -8.2579
    -8.2089  -8.1608  -8.0886  -8.0876  -8.0833  -8.0787  -8.0749  -8.0673
    -8.0659  -8.0364  -8.0259  -8.0061  -7.9676  -7.9344  -7.9264  -7.9108
    -7.8681  -7.8490  -7.8314  -7.8117  -7.8027  -7.7909  -7.7895  -7.7842
    -7.7819  -7.7702  -7.7670  -7.7610  -7.7606  -7.7582  -7.7549  -7.7542
    -7.7483  -7.7475  -7.7428  -7.7403  -7.7369  -7.7319  -7.7318  -7.7290
    -7.7285  -7.7249  -7.7225  -7.7189  -7.7185  -7.7180  -7.7165  -7.7127
    -7.6915  -7.6889  -7.6869  -7.6859  -7.6797  -7.6572  -7.6563  -7.6562
    -7.6551  -7.6279  -7.6272  -7.6271  -7.6255  -7.6155  -7.6149  -7.6083
    -7.6037  -7.5934  -7.5786  -7.5698  -7.5687  -7.5626  -7.5575  -7.5574
    -7.5503  -7.5442  -7.5435  -7.5362  -7.5253  -7.5247  -7.5239  -7.5179
    -7.5101  -7.4902  -7.4523  -7.4231  -7.4212  -7.4178  -7.4056  -7.3897
    -7.3735  -7.2800  -7.2646  -7.1792  -7.1316  -7.1309  -7.1279  -7.1272
    -7.1151  -7.1016  -7.0829  -7.0814  -7.0710  -7.0643  -7.0571  -7.0315
    -7.0272  -7.0026  -6.9925  -6.9822  -6.9822  -6.9798  -6.9509  -6.9343
    -6.9281  -6.8791  -6.8735  -6.8718  -6.8688  -6.8597  -6.8447  -6.8407
    -6.8285  -6.8190  -6.8186  -6.7973  -6.7627  -6.7475  -6.7253  -6.7184
    -6.6911  -6.6826  -6.6743  -6.6449  -6.6380  -6.6222  -6.5994  -6.5912
    -6.5787  -6.5749  -6.5650  -6.5646  -6.5641  -6.5639  -6.5476  -6.5471
    -6.5466  -6.5465  -6.5388  -6.5386  -6.5386  -6.5385  -6.5293  -6.5130
    -6.4921  -6.4362  -6.4214  -6.3831  -6.3737  -6.3289  -6.2868  -6.2847
    -6.2819  -6.2802  -6.2703  -6.2596  -6.2382  -6.2368  -6.2341  -6.2332
    -6.2309  -6.2297  -6.2275  -6.2211  -6.2051  -6.1923  -6.1902  -6.1805
    -6.1774  -6.1619  -6.1581  -6.1576  -6.1490  -5.9936  -5.9548  -5.9429
    -5.9144  -5.9101  -5.8758  -5.8608  -5.8468  -5.8084  -5.8078  -5.7188
    -5.6799  -5.6429  -5.6386  -5.5895  -5.5645  -5.5436  -5.4628  -5.4003
    -5.3365  -4.3717  -4.0541  -4.0533  -4.0396  -4.0271  -3.8992  -3.8991
    -3.8840  -3.8796  -3.8522  -3.8390  -3.8011  -3.8001  -3.7865  -3.7831
    -3.7702  -3.7672  -3.7575  -3.7570  -3.7456  -3.7245  -3.6505  -3.6449
    -3.6434  -3.6246  -3.5663  -3.5619  -3.5601  -3.5595  -3.5547  -3.5183
    -3.5112  -3.5094  -3.4973  -3.4832  -3.4785  -3.4771  -3.4707  -3.4623
    -3.4545  -3.4410  -3.4377  -3.4314  -3.4310  -3.4284  -3.4269  -3.4223
    -3.4053  -3.3989  -3.3874  -3.3856  -3.3820  -3.3785  -3.3610  -3.3440
    -3.3272  -3.3081  -3.3064  -3.3044  -3.3028  -3.2994  -3.2972  -3.2905
    -3.2849  -3.2596  -3.2518  -3.2490  -3.2421  -3.2378  -3.2378  -3.2373
    -3.2338  -3.2331  -3.2234  -3.2056  -3.2010  -3.1931  -3.1891  -3.1849
    -3.1818  -3.1733  -3.1695  -3.1670  -3.1637  -3.1492  -3.1449  -3.1372
    -3.1329  -3.1306  -3.1202  -3.1202  -3.1180  -3.1104  -3.0933  -3.0650
    -3.0601  -3.0501  -3.0279  -3.0260  -3.0215  -3.0208  -3.0114  -2.9840
    -2.9809  -2.9807  -2.9799  -2.9792  -2.9790  -2.9720  -2.9689  -2.9623
    -2.9609  -2.9592  -2.9569  -2.9491  -2.9460  -2.9391  -2.9339  -2.9312
    -2.9299  -2.9263  -2.9261  -2.9177  -2.9150  -2.9082  -2.9050  -2.9033
    -2.8983  -2.8890  -2.8870  -2.8805  -2.8741  -2.8511  -2.8493  -2.8470
    -2.8440  -2.8351  -2.8247  -2.8179  -2.8156  -2.7527  -2.7505  -2.7497
    -2.7483  -2.7106  -2.6823  -2.6698  -2.6664  -2.5737  -2.5656  -2.5501
    -2.5399  -2.5327  -2.5270  -2.5065  -2.5001  -2.4894  -2.4847  -2.4837
    -2.4831  -2.4673  -2.4598  -2.4430  -2.3758  -2.3536  -2.3513  -2.3491
    -2.3464  -2.3267  -2.3118  -2.3043

          k =-0.5000-0.8660 0.0000 (386352 PWs)   bands (ev):

  -102.2542 -88.6647 -70.5689 -70.5669 -70.5658 -70.5645 -70.5409 -70.5366
   -70.5228 -66.5791 -66.5791 -66.5791 -66.5790 -66.5778 -66.5778 -66.5764
   -66.5685 -66.5685 -66.5684 -66.5683 -66.5672 -66.5672 -66.5667 -66.5621
   -66.5569 -66.5534 -66.5534 -66.5534 -66.5534 -66.5534 -66.5533 -66.5532
   -66.5532 -66.5525 -66.5520 -66.5520 -66.5520 -66.5520 -66.5489 -66.5489
   -66.5489 -66.5488 -66.5476 -66.5476 -66.5448 -66.5427 -66.5427 -66.5426
   -66.5426 -66.5426 -66.5426 -66.5425 -66.5425 -66.5413 -66.5413 -66.5413
   -66.5413 -66.5382 -66.5382 -66.5382 -66.5381 -66.5373 -66.5369 -66.5369
   -66.5326 -66.5288 -66.5252 -66.5236 -66.5218 -66.5185 -66.5140 -66.5039
   -66.4967 -56.5151 -56.4869 -56.4778 -54.4810 -54.4605 -54.4583 -40.8812
   -40.8811 -40.8811 -40.8811 -40.8811 -40.8810 -40.8810 -40.8810 -40.8804
   -40.8804 -40.8804 -40.8804 -40.8719 -40.8703 -40.8545 -40.8543 -40.8543
   -40.8543 -40.8542 -40.8536 -40.8536 -40.8457 -40.8448 -40.8422 -40.8422
   -40.8422 -40.8421 -40.8415 -40.8415 -40.8306 -40.8190 -40.8130 -40.7915
   -40.7915 -40.7915 -40.7915 -40.7915 -40.7915 -40.7915 -40.7914 -40.7908
   -40.7908 -40.7908 -40.7908 -40.7717 -40.7688 -40.7676 -40.7668 -40.7486
   -40.7389 -40.7328 -40.7328 -40.7328 -40.7327 -40.7322 -40.7321 -40.7299
   -40.7233 -40.7233 -40.7232 -40.7232 -40.7224 -40.7224 -40.7119 -40.7119
   -40.7119 -40.7119 -40.7113 -40.7113 -40.7096 -40.7032 -40.6970 -40.6954
   -40.6901 -40.6823 -40.6823 -40.6823 -40.6823 -40.6823 -40.6823 -40.6822
   -40.6822 -40.6816 -40.6816 -40.6816 -40.6816 -40.6761 -40.6755 -40.6736
   -40.6736 -40.6735 -40.6735 -40.6729 -40.6729 -40.6679 -40.6638 -40.6618
   -40.6618 -40.6617 -40.6617 -40.6613 -40.6613 -40.6613 -40.6613 -40.6613
   -40.6612 -40.6612 -40.6611 -40.6609 -40.6609 -40.6606 -40.6606 -40.6606
   -40.6605 -40.6605 -40.6565 -40.6526 -40.6526 -40.6525 -40.6525 -40.6519
   -40.6519 -40.6508 -40.6488 -40.6436 -40.6427 -40.6368 -40.6350 -40.6309
   -40.6309 -40.6308 -40.6308 -40.6308 -40.6308 -40.6307 -40.6307 -40.6299
   -40.6299 -40.6299 -40.6299 -40.6182 -40.6156 -40.6046 -40.5984 -40.5961
   -40.5961 -40.5961 -40.5961 -40.5961 -40.5960 -40.5960 -40.5960 -40.5951
   -40.5951 -40.5951 -40.5951 -40.5840 -40.5839 -40.5839 -40.5838 -40.5830
   -40.5830 -40.5779 -40.5749 -40.5735 -40.5704 -40.5646 -40.5646 -40.5646
   -40.5645 -40.5645 -40.5637 -40.5636 -40.5504 -40.5476 -40.5476 -40.5476
   -40.5475 -40.5466 -40.5466 -40.5460 -40.5373 -40.5238 -40.5179 -40.5170
   -40.5170 -40.5169 -40.5168 -40.5159 -40.5159 -40.4980 -40.4841 -19.9206
   -19.8484 -19.8232 -19.7888 -19.7226 -19.6983 -19.6161 -19.6078 -19.4490
   -19.4175 -19.3837 -19.3668 -19.2902 -19.2787 -19.1891 -19.1851 -18.8651
   -18.8059 -18.7685 -18.7475 -18.7246 -18.6995 -18.6817 -18.6808 -18.6788
   -18.6652 -18.6461 -18.6367 -18.6099 -18.6072 -18.6004 -18.5952 -18.5521
   -18.5406 -18.5262 -18.5147 -18.5120 -18.5078 -18.4995 -18.4860 -18.4686
   -18.4426 -18.4385 -18.4360 -18.4270 -18.4019 -18.3710 -18.3675 -18.3667
   -18.3443 -18.3319 -18.3154 -18.2993 -18.2915 -18.2814 -18.2349 -18.2275
   -18.2145 -18.2050 -18.1931 -18.1722 -18.1479 -18.1378 -18.1311 -18.1062
   -18.0917 -18.0812 -18.0682 -18.0642 -18.0615 -18.0589 -18.0557 -18.0507
   -18.0337 -18.0323 -18.0311 -18.0262 -18.0236 -18.0197 -18.0174 -18.0076
   -18.0031 -17.9981 -17.9890 -17.9700 -17.9666 -17.9657 -17.9630 -17.9595
   -17.9583 -17.9554 -17.9477 -17.9452 -17.9385 -17.9072 -17.9020 -17.8963
   -17.8951 -17.8886 -17.8786 -17.8525 -17.8486 -17.8461 -17.8343 -17.8266
   -17.8079 -17.8052 -17.8004 -17.7967 -17.7836 -17.7793 -17.7792 -17.7790
   -17.7778 -17.7765 -17.7751 -17.7649 -17.7627 -17.7451 -17.7418 -17.7207
   -17.7181 -17.7014 -17.6977 -17.6870 -17.6840 -17.6795 -17.6790 -11.9591
   -11.6859 -11.6698 -11.6005 -11.5616 -11.5233 -11.4933 -11.4791 -11.4544
   -11.4537 -11.4493 -11.4444 -11.4350 -11.4172 -11.4077 -11.3744 -11.3499
   -11.3477 -11.3351 -11.3296 -11.3166 -11.2958 -11.2907 -11.2805 -11.2630
   -11.2500 -11.2338 -11.2291 -11.2261 -11.2182 -11.2164 -11.2123 -11.2007
   -11.1680 -11.1649 -11.1579 -11.1463 -11.1412 -11.1317 -11.1296 -11.1263
   -11.1213 -11.1085 -11.1054 -11.0910 -11.0832 -11.0481 -11.0458 -11.0245
   -11.0166 -10.9820 -10.9402 -10.9189 -10.9087 -10.8917 -10.8799 -10.8692
   -10.8615 -10.8562 -10.8489 -10.8339 -10.8225 -10.8135 -10.7994 -10.7885
   -10.7875 -10.7833 -10.7822 -10.7712 -10.7709 -10.7706 -10.7681 -10.7616
   -10.7569 -10.7557 -10.7531 -10.7518 -10.7509 -10.7426 -10.7421 -10.7409
   -10.7385 -10.7032 -10.7031 -10.7029 -10.7026 -10.5538 -10.5075 -10.5049
   -10.4976 -10.4785 -10.4512 -10.4195 -10.3849 -10.3705 -10.3626 -10.3142
   -10.2818 -10.2238 -10.1904 -10.1475 -10.1086 -10.0938 -10.0897 -10.0776
   -10.0632 -10.0532 -10.0456 -10.0223 -10.0138  -9.9974  -9.9936  -9.9907
    -9.9874  -9.9754  -9.9633  -9.9582  -9.9437  -9.8975  -9.8912  -9.8820
    -9.8765  -9.8671  -9.8647  -9.8529  -9.8496  -9.8164  -9.8120  -9.8082
    -9.7885  -9.7776  -9.7711  -9.7430  -9.7354  -9.7283  -9.7208  -9.7007
    -9.6946  -9.6738  -9.6554  -9.6496  -9.6435  -9.6184  -9.6081  -9.5934
[...]
     atom  170 type  1   force =    -0.00001201   -0.00001383    0.00000564
     atom  171 type  2   force =    -0.00000392    0.00000012    0.00000479
     atom  172 type  2   force =    -0.00000051    0.00000035    0.00161515
     atom  173 type  2   force =    -0.00000066   -0.00000009   -0.00235916
     atom  174 type  2   force =    -0.00000222   -0.00000147   -0.00001034
     atom  175 type  1   force =    -0.00002319   -0.00000024    0.00000255
     atom  176 type  1   force =    -0.00001653   -0.00029302    0.00017008
     atom  177 type  2   force =     0.00023308   -0.00008475    0.00028807
     atom  178 type  2   force =     0.00000893    0.00003069   -0.00001372
     atom  179 type  2   force =    -0.00000813   -0.00000899    0.00000819
     atom  180 type  2   force =    -0.00013724   -0.00011765    0.00000458
     atom  181 type  1   force =     0.00000116   -0.00000006    0.00068814
     atom  182 type  1   force =    -0.00000988   -0.00000956   -0.00000097
     atom  183 type  2   force =    -0.00000223   -0.00000115    0.00000519
     atom  184 type  2   force =    -0.00000047    0.00000046    0.00161517
     atom  185 type  2   force =    -0.00000068   -0.00000007   -0.00235911
     atom  186 type  2   force =    -0.00000183   -0.00000073   -0.00000765
     atom  187 type  1   force =    -0.00001213   -0.00001970    0.00000322
     atom  188 type  1   force =     0.00001972    0.00001164    0.00015679
     atom  189 type  2   force =     0.00004322    0.00024420    0.00028795
     atom  190 type  2   force =    -0.00002453   -0.00001432    0.00002746
     atom  191 type  2   force =    -0.00000627   -0.00000355    0.00001252
     atom  192 type  2   force =    -0.00017074   -0.00006041    0.00000439
     atom  193 type  3   force =     0.00020157    0.00011663   -0.00030242
     atom  194 type  4   force =     0.00006192    0.00003790   -0.00091575

     Total force =     0.002935     Total SCF correction =     0.000382
     SCF correction compared to forces is large: reduce conv_thr to get better values
     Energy error            =      2.3E-05 Ry
     Gradient error          =      9.2E-04 Ry/Bohr

     bfgs converged in  18 scf cycles and  17 bfgs steps
     (criteria: energy <  1.0E-04 Ry, force <  1.0E-03 Ry/Bohr)

     End of BFGS Geometry Optimization

     Final energy             =  -33980.2848413070 Ry

     File ./outdir/pwscf.bfgs deleted, as requested
Begin final coordinates

ATOMIC_POSITIONS (angstrom)
Mo               0.0000119917        1.8193638619       -9.1672481230    0   0   0
Mo               1.5756136568        0.9097075315       -3.0554901653    0   0   0
S                0.0000188998        1.8193822938       -4.6232556019    0   0   0
S                1.5756321638        0.9096773839       -7.6014065489    0   0   0
S                1.5756326175        0.9096785128      -10.7330757790    0   0   0
S                0.0000189190        1.8193860094       -1.4877129945    0   0   0
Mo              -0.0002774876        1.8197648475        3.0565403998
Mo               1.5779135215        0.9067841009        9.1554808244
S                0.0012397452        1.8209851900        7.5897053930
S                1.5756447646        0.9097569058        4.6230302175
S                1.5753020210        0.9100517914        1.4881800440
S                0.0031377959        1.7986318675       10.7338876820
Mo              -1.5756053507        4.5484193819       -9.1672481230    0   0   0
Mo               0.0000378379        3.6387394919       -3.0554952701    0   0   0
S               -1.5755913433        4.5484363582       -4.6232494962    0   0   0
S                0.0000148214        3.6387329039       -7.6014065489    0   0   0
S                0.0000152751        3.6387340328      -10.7330757790    0   0   0
S               -1.5755906502        4.5484413613       -1.4877305502    0   0   0
Mo              -1.5756546001        4.5483905742        3.0563774125
Mo               0.0127925180        3.6213942005        9.1796635685
S               -1.5969421928        4.5361031236        7.6524389428
S               -0.0001938131        3.6393817420        4.6248286910
S               -0.0001738927        3.6387169082        1.4885027238
S               -1.4422252786        4.6254317473       10.8151592078
Mo              -3.1512226931        7.2774749019       -9.1672481230    0   0   0
Mo              -1.5755910988        6.3678216792       -3.0555115988    0   0   0
S               -3.1512162438        7.2774954350       -4.6232578178    0   0   0
S               -1.5756025210        6.3677884239       -7.6014065489    0   0   0
S               -1.5756020673        6.3677895528      -10.7330757790    0   0   0
S               -3.1512127704        7.2774877076       -1.4877200710    0   0   0
Mo              -3.1510188662        7.2770239296        3.0565393857
Mo              -1.5842316923        6.3875322619        9.1796609515
S               -3.1492080400        7.2777309608        7.5897004033
S               -1.5751452444        6.3672841388        4.6248289401
S               -1.5757104281        6.3676342321        1.4885022138
S               -3.1676166442        7.2905508716       10.7338838175
Mo              -4.7268400355       10.0065304219       -9.1672481230    0   0   0
Mo              -3.1512405618        9.0968403586       -3.0554816746    0   0   0
S               -4.7268341792       10.0065523623       -4.6232463762    0   0   0
S               -3.1512198634        9.0968439439       -7.6014065489    0   0   0
S               -3.1512194097        9.0968450728      -10.7330757790    0   0   0
S               -4.7268370797       10.0065537885       -1.4877176751    0   0   0
Mo              -4.7267525971       10.0065792523        3.0554903609
Mo              -3.1525856287        9.1002708098        9.1554777422
S               -4.7231509431       10.0086624102        7.5808868613
S               -3.1511438224        9.0968180499        4.6230280731
S               -3.1510628612        9.0963736515        1.4881766535
S               -4.7292189740       10.0051555848       10.7195579106
Mo               3.1512517547        1.8193638619       -9.1672481230    0   0   0
Mo               4.7269020221        0.9097289540       -3.0554823951    0   0   0
S                3.1512612351        1.8193882564       -4.6232320683    0   0   0
S                4.7268719268        0.9096773839       -7.6014065489    0   0   0
S                4.7268723805        0.9096785128      -10.7330757790    0   0   0
S                3.1512592485        1.8193890201       -1.4877261251    0   0   0
Mo               3.1512830995        1.8195038948        3.0557879722
Mo               4.7239505533        0.9079933324        9.1536454165
S                3.1509083608        1.8171548802        7.5816194218
S                4.7270539493        0.9097827487        4.6232042665
S                4.7272457380        0.9098972812        1.4882308536
S                3.1560980975        1.8059338472       10.7250806289
Mo               1.5756344123        4.5484193819       -9.1672481230    0   0   0
Mo               3.1512756394        3.6387769522       -3.0554814834    0   0   0
S                1.5756504879        4.5484423799       -4.6232390542    0   0   0
S                3.1512545844        3.6387329039       -7.6014065489    0   0   0
S                3.1512550381        3.6387340328      -10.7330757790    0   0   0
S                1.5756466253        4.5484431864       -1.4877251801    0   0   0
Mo               1.5753948462        4.5485082915        3.0560002899
Mo               3.1600517488        3.6275539450        9.1574854730
S                1.5727912154        4.5704184009        7.6293878450
S                3.1506857085        3.6387116121        4.6240478513
S                3.1513921013        3.6389589686        1.4884341006
S                1.5990749629        4.4376653646       10.7842643084
Mo               0.0000170699        7.2774749019       -9.1672481230    0   0   0
Mo               1.5756764447        6.3678236689       -3.0554877708    0   0   0
S                0.0000381981        7.2774979204       -4.6232454413    0   0   0
S                1.5756372420        6.3677884239       -7.6014065489    0   0   0
S                1.5756376957        6.3677895528      -10.7330757790    0   0   0
S                0.0000328088        7.2774946042       -1.4877307940    0   0   0
Mo              -0.0000239261        7.2772205028        3.0559997013
Mo               1.5747726976        6.3672950198        9.2179712170
S                0.0176470514        7.2640201994        7.6293847079
S                1.5757031504        6.3678251312        4.6233333304
S                1.5753381292        6.3676148402        1.4877823883
S               -0.0841793713        7.3531571225       10.7842648865
Mo              -1.5756002725       10.0065304219       -9.1672481230    0   0   0
Mo               0.0000873425        9.0968676911       -3.0554912329    0   0   0
S               -1.5755883952       10.0065504530       -4.6232240150    0   0   0
S                0.0000198996        9.0968439439       -7.6014065489    0   0   0
S                0.0000203533        9.0968450728      -10.7330757790    0   0   0
S               -1.5755859047       10.0065492576       -1.4877362381    0   0   0
Mo              -1.5754619478       10.0064873350        3.0557851490
Mo              -0.0052627914        9.1100585646        9.1574849331
S               -1.5776815998       10.0073397211        7.5816187363
S               -0.0002847665        9.0963635391        4.6240458587
S                0.0002855585        9.0968505283        1.4884340849
S               -1.5848073213       10.0174429161       10.7250794242
Mo               6.3024915177        1.8193638619       -9.1672481230    0   0   0
Mo               7.8781001445        0.9096521684       -3.0554919963    0   0   0
S                6.3025008696        1.8193826232       -4.6232480596    0   0   0
S                7.8781116898        0.9096773839       -7.6014065489    0   0   0
S                7.8781121435        0.9096785128      -10.7330757790    0   0   0
S                6.3025042007        1.8193849068       -1.4877147524    0   0   0
Mo               6.3028615888        1.8195781597        3.0563763967
Mo               7.8653935687        0.8971981383        9.1700924323
S                6.3037232858        1.8200780005        7.5914859307
S                7.8787879006        0.9102743013        4.6242701469
S                7.8780720169        0.9095990165        1.4885378478
S                6.2937607641        1.8143262206       10.7307378393
Mo               4.7268741753        4.5484193819       -9.1672481230    0   0   0
Mo               6.3024679138        3.6387501714       -3.0554895197    0   0   0
S                4.7268748770        4.5484386753       -4.6232519432    0   0   0
S                6.3024943474        3.6387329039       -7.6014065489    0   0   0
S                6.3024948011        3.6387340328      -10.7330757790    0   0   0
S                4.7268770533        4.5484432419       -1.4877137856    0   0   0
Mo               4.7269272372        4.5483789986        3.0566616139
Mo               6.2853227103        3.6339660340        9.1700916935
S                4.7300073828        4.5489563255        7.5868545965
S                6.3033482641        3.6390234472        4.6242706361
S                6.3024048014        3.6387402483        1.4885352177
S                4.7117516949        4.5481743418       10.7307597861
Mo               3.1512568329        7.2774749019       -9.1672481230    0   0   0
Mo               4.7268384135        6.3678043337       -3.0554959052    0   0   0
S                3.1512606125        7.2774972547       -4.6232589675    0   0   0
S                4.7268770050        6.3677884239       -7.6014065489    0   0   0
S                4.7268774587        6.3677895528      -10.7330757790    0   0   0
S                3.1512629079        7.2774963749       -1.4877081835    0   0   0
Mo               3.1510310673        7.2773422815        3.0552489499
Mo               4.7389848019        6.3675426075        9.1634633968
S                3.1297809508        7.2650819603        7.6322634623
S                4.7261599387        6.3681510678        4.6236857849
S                4.7271766009        6.3674693653        1.4883123933
S                3.2410887265        7.3293444939       10.7795291131
Mo               1.5756394905       10.0065304219       -9.1672481230    0   0   0
Mo               3.1512330605        9.0968514907       -3.0554878870    0   0   0
S                1.5756499830       10.0065443759       -4.6232632674    0   0   0
S                3.1512596626        9.0968439439       -7.6014065489    0   0   0
S                3.1512601163        9.0968450728      -10.7330757790    0   0   0
S                1.5756503041       10.0065459699       -1.4877044377    0   0   0
Mo               1.5756327251       10.0065956983        3.0566621599
Mo               3.1570984262        9.1074624743        9.1634638297
S                1.5776723739       10.0089816582        7.5868533753
S                3.1512175517        9.0960423054        4.6236843930
S                3.1511343036        9.0972643134        1.4883145659
S                1.5678650693        9.9935620557       10.7307601789
Mo               9.4537312807        1.8193638619       -9.1672481230    0   0   0
Mo              11.0293863460        0.9096952246       -3.0554894007    0   0   0
S                9.4537395970        1.8193770750       -4.6232328036    0   0   0
S               11.0293514528        0.9096773839       -7.6014065489    0   0   0
S               11.0293519066        0.9096785128      -10.7330757790    0   0   0
S                9.4537393632        1.8193794783       -1.4877366147    0   0   0
Mo               9.4537391410        1.8197870577        3.0558550253
Mo              11.0430101040        0.8948521179        9.1642540397
S                9.4524919506        1.8484788184        7.6443911174
S               11.0286002780        0.9103830675        4.6242245212
S               11.0294490672        0.9098327602        1.4884874334
S                9.4547872722        1.6700701167       10.8054378341
Mo               7.8781139383        4.5484193819       -9.1672481230    0   0   0
Mo               9.4537539161        3.6387607911       -3.0554933032    0   0   0
S                7.8781175448        4.5484378232       -4.6232366318    0   0   0
S                9.4537341104        3.6387329039       -7.6014065489    0   0   0
S                9.4537345641        3.6387340328      -10.7330757790    0   0   0
S                7.8781194018        4.5484411585       -1.4877377057    0   0   0
Mo               7.8784842342        4.5482136087        3.0558533464
Mo               9.4530243395        3.6383290506        9.2259186599
S                7.9027056989        4.5327924714        7.6443871858
S                9.4538326092        3.6387914234        4.6242122906
S                9.4539929799        3.6388832121        1.4879856980
S                7.7493584869        4.6239810138       10.8054339407
Mo               6.3024965959        7.2774749019       -9.1672481230    0   0   0
Mo               7.8781361655        6.3678242352       -3.0555014130    0   0   0
S                6.3024973331        7.2774953556       -4.6232392528    0   0   0
S                7.8781167680        6.3677884239       -7.6014065489    0   0   0
S                7.8781172217        6.3677895528      -10.7330757790    0   0   0
S                6.3024989866        7.2774929744       -1.4877349119    0   0   0
Mo               6.3026255271        7.2772421775        3.0563291212
Mo               7.8721005027        6.3870377873        9.1642494584
S                6.3013154645        7.2734080241        7.5791824413
S                7.8783520221        6.3667849084        4.6242218497
S                7.8782987259        6.3677973793        1.4884878717
S                6.3045524544        7.2982353307       10.7278215756
Mo               4.7268792535       10.0065304219       -9.1672481230    0   0   0
Mo               6.3025111524        9.0968738021       -3.0554915260    0   0   0
S                4.7268840634       10.0065452125       -4.6232380477    0   0   0
S                6.3024994256        9.0968439439       -7.6014065489    0   0   0
S                6.3024998793        9.0968450728      -10.7330757790    0   0   0
S                4.7268847312       10.0065459141       -1.4877283294    0   0   0
Mo               4.7267453248       10.0067578442        3.0563288622
Mo               6.3025682319        9.0968868416        9.1443392532
S                4.7227666971       10.0075493279        7.5791845364
S                6.3028399551        9.0970408207        4.6232729195
S                6.3022798887        9.0967169528        1.4883622632
S                4.7458875113        9.9979353099       10.7278227498
Pd               1.5633176372        6.3606759055       12.1021816458
Pt               9.4620352392        3.6435090114       11.9736559102
End final coordinates



     Writing all to output data dir ./outdir/pwscf.save/ :
     XML data file, charge density, pseudopotentials, collected wavefunctions
 
     init_run     :    176.81s CPU    180.13s WALL (       1 calls)
     electrons    : 157823.26s CPU 159733.03s WALL (      18 calls)
     update_pot   :     28.68s CPU     29.53s WALL (      17 calls)
     forces       :   2349.57s CPU   2390.32s WALL (      18 calls)
     force_dftd3  :     12.00s CPU     12.54s WALL (      18 calls)

     Called by init_run:
     wfcinit      :    152.98s CPU    154.84s WALL (       1 calls)
     potinit      :      1.30s CPU      1.40s WALL (       1 calls)
     hinit0       :     12.80s CPU     12.90s WALL (       1 calls)

     Called by electrons:
     c_bands      : 140131.07s CPU 141414.75s WALL (     247 calls)
     sum_band     :  15779.28s CPU  16098.86s WALL (     247 calls)
     v_of_rho     :     91.78s CPU    102.48s WALL (     254 calls)
     newd         :   1615.73s CPU   1916.32s WALL (     254 calls)
     PAW_pot      :    232.82s CPU    235.26s WALL (     271 calls)
     mix_rho      :     25.27s CPU     29.26s WALL (     247 calls)
     energy_dftd3 :      6.89s CPU      6.94s WALL (      18 calls)

     Called by c_bands:
     init_us_2    :    530.25s CPU    532.83s WALL (    2120 calls)
     init_us_2:cp :    530.23s CPU    532.79s WALL (    2120 calls)
     cegterg      : 137788.56s CPU 139052.18s WALL (    1025 calls)

     Called by *egterg:
     cdiaghg      :   7580.11s CPU   7843.87s WALL (   12349 calls)
     h_psi        :  69662.17s CPU  70078.90s WALL (   12489 calls)
     s_psi        :  16403.69s CPU  16504.41s WALL (   12489 calls)
     g_psi        :    125.55s CPU    126.08s WALL (   11460 calls)

     Called by h_psi:
     h_psi:calbec :  15907.29s CPU  15958.02s WALL (   12489 calls)
     vloc_psi     :  36981.11s CPU  37154.03s WALL (   12489 calls)
     add_vuspsi   :  16489.53s CPU  16589.33s WALL (   12489 calls)

     General routines
     calbec       :  22479.95s CPU  22551.42s WALL (   13833 calls)
     fft          :     67.41s CPU     77.05s WALL (    3492 calls)
     ffts         :      4.47s CPU      4.76s WALL (     501 calls)
     fftw         :  27779.81s CPU  27908.27s WALL ( 7289342 calls)
     interpolate  :      7.88s CPU      8.63s WALL (     254 calls)
 
     Parallel routines
 
     PWSCF        :   1d20h44m CPU   1d21h18m WALL

 
   This run was terminated on:  12:51:33  21Mar2024            

=------------------------------------------------------------------------------=
   JOB DONE.
=------------------------------------------------------------------------------=
