
     Program PWSCF v.7.3 starts on  3May2024 at  0:24:58 

     This program is part of the open-source Quantum ESPRESSO suite
     for quantum simulation of materials; please cite
         "P. Giannozzi et al., J. Phys.:Condens. Matter 21 395502 (2009);
         "P. Giannozzi et al., J. Phys.:Condens. Matter 29 465901 (2017);
         "P. Giannozzi et al., J. Chem. Phys. 152 154105 (2020);
          URL http://www.quantum-espresso.org", 
     in publications or presentations arising from this work. More details at
     http://www.quantum-espresso.org/quote

     Parallel version (MPI & OpenMP), running on      36 processor cores
     Number of MPI processes:                36
     Threads/MPI process:                     1

     MPI processes distributed on     1 nodes
     559767 MiB available memory on the printing compute node when the environment starts
 
     Waiting for input...
     Reading input from standard input
Warning: card &CELL ignored
Warning: card / ignored

     Current dimensions of program PWSCF are:
     Max number of different atomic species (ntypx) = 10
     Max number of k-points (npk) =  40000
     Max angular momentum in pseudopotentials (lmaxx) =  4
     file Mo.pbe-spn-kjpaw_psl.1.0.0.UPF: wavefunction(s)  4S 4D renormalized
     file S.pbe-n-kjpaw_psl.1.0.0.UPF: wavefunction(s)  3S 3P renormalized
     file Pt.pbe-spfn-kjpaw_psl.1.0.0.UPF: wavefunction(s)  5P 4F renormalized
     file Pd.pbe-spn-kjpaw_psl.1.0.0.UPF: wavefunction(s)  4S 5S 4D renormalized
 
     R & G space division:  proc/nbgrp/npool/nimage =      36
     Subspace diagonalization in iterative solution of the eigenvalue problem:
     one sub-group per band group will be used
     scalapack distributed-memory algorithm (size of sub-group:  6*  6 procs)

 
     Parallelization info
     --------------------
     sticks:   dense  smooth     PW     G-vecs:    dense   smooth      PW
     Min         585     334     89               198743    85850   11735
     Max         586     335     90               198750    85861   11748
     Sum       21073   12049   3205              7154885  3090769  422587
 
     Using Slab Decomposition
 


     bravais-lattice index     =            0
     lattice parameter (alat)  =      23.8199  a.u.
     unit-cell volume          =   33861.0370 (a.u.)^3
     number of atoms/cell      =          195
     number of atomic types    =            4
     number of electrons       =      1746.00
     number of Kohn-Sham states=         1048
     kinetic-energy cutoff     =      77.0000  Ry
     charge density cutoff     =     539.0000  Ry
     scf convergence threshold =      1.0E-06
     mixing beta               =       0.2000
     number of iterations used =            8  plain     mixing
     energy convergence thresh.=      1.0E-04
     force convergence thresh. =      1.0E-03
     Exchange-correlation= SLA  PW   PBX  PBC
                           (   1   4   3   4   0   0   0)
     nstep                     =         1000


     Effective Screening Medium Method
     =================================
     Boundary Conditions: Vacuum-Slab-Vacuum
     total charge in unit cell        =   0.0000
     grid points for fit at edges     =        4 
 

     celldm(1)=  23.819920  celldm(2)=   0.000000  celldm(3)=   0.000000
     celldm(4)=   0.000000  celldm(5)=   0.000000  celldm(6)=   0.000000

     crystal axes: (cart. coord. in units of alat)
               a(1) = (   1.000000   0.000000   0.000000 )  
               a(2) = (  -0.499999   0.866026   0.000000 )  
               a(3) = (   0.000000   0.000000   2.893000 )  

     reciprocal axes: (cart. coord. in units 2 pi/alat)
               b(1) = (  1.000000  0.577349  0.000000 )  
               b(2) = (  0.000000  1.154700  0.000000 )  
               b(3) = (  0.000000  0.000000  0.345662 )  


     PseudoPot. # 1 for Mo read from file:
     ./pseudo/Mo.pbe-spn-kjpaw_psl.1.0.0.UPF
     MD5 check sum: 317bf72632116215fd98f72de1686f13
     Pseudo is Projector augmented-wave + core cor, Zval = 14.0
     Generated using 'atomic' code by A. Dal Corso  v.7.2
     Shape of augmentation charge: PSQ
     Using radial grid of 1229 points,  6 beta functions with: 
                l(1) =   0
                l(2) =   0
                l(3) =   1
                l(4) =   1
                l(5) =   2
                l(6) =   2
     Q(r) pseudized with 0 coefficients 


     PseudoPot. # 2 for S  read from file:
     ./pseudo/S.pbe-n-kjpaw_psl.1.0.0.UPF
     MD5 check sum: 8b7b5302570d38d5e87fed6a1065abda
     Pseudo is Projector augmented-wave + core cor, Zval =  6.0
     Generated using 'atomic' code by A. Dal Corso  v.7.2
     Shape of augmentation charge: PSQ
     Using radial grid of 1151 points,  6 beta functions with: 
                l(1) =   0
                l(2) =   0
                l(3) =   1
                l(4) =   1
                l(5) =   2
                l(6) =   2
     Q(r) pseudized with 0 coefficients 


     PseudoPot. # 3 for Pt read from file:
     ./pseudo/Pt.pbe-spfn-kjpaw_psl.1.0.0.UPF
     MD5 check sum: 620096ebf4e6ebacc94de60fd67efcb5
     Pseudo is Projector augmented-wave + core cor, Zval = 32.0
     Generated using 'atomic' code by A. Dal Corso  v.7.2
     Shape of augmentation charge: PSQ
     Using radial grid of 1277 points,  8 beta functions with: 
                l(1) =   0
                l(2) =   0
                l(3) =   1
                l(4) =   1
                l(5) =   2
                l(6) =   2
                l(7) =   3
                l(8) =   3
     Q(r) pseudized with 0 coefficients 


     PseudoPot. # 4 for Pd read from file:
     ./pseudo/Pd.pbe-spn-kjpaw_psl.1.0.0.UPF
     MD5 check sum: a60571a671f2502b8a6a4569d20a6edb
     Pseudo is Projector augmented-wave + core cor, Zval = 18.0
     Generated using 'atomic' code by A. Dal Corso  v.7.2
     Shape of augmentation charge: PSQ
     Using radial grid of 1235 points,  6 beta functions with: 
                l(1) =   0
                l(2) =   0
                l(3) =   1
                l(4) =   1
                l(5) =   2
                l(6) =   2
     Q(r) pseudized with 0 coefficients 


     atomic species   valence    mass     pseudopotential
     Mo               14.00    95.95000     Mo( 1.00)
     S                 6.00    32.06000     S ( 1.00)
     Pt               32.00   195.08400     Pt( 1.00)
     Pd               18.00   106.42000     Pd( 1.00)

     No symmetry found



   Cartesian axes

     site n.     atom                  positions (alat units)
         1        Mo     tau(   1) = (   0.0000010   0.1443372  -0.7272732  )
         2        Mo     tau(   2) = (   0.1249995   0.0721706  -0.2424038  )
         3        S      tau(   3) = (   0.0000015   0.1443386  -0.3667807  )
         4        S      tau(   4) = (   0.1250010   0.0721682  -0.6030489  )
         5        S      tau(   5) = (   0.1250010   0.0721683  -0.8514963  )
         6        S      tau(   6) = (   0.0000015   0.1443389  -0.1180260  )
         7        Mo     tau(   7) = (   0.0000005   0.1443381   0.2424561  )
         8        Mo     tau(   8) = (   0.1251981   0.0716023   0.7276027  )
         9        S      tau(   9) = (  -0.0003031   0.1454842   0.6052312  )
        10        S      tau(  10) = (   0.1249558   0.0721599   0.3668208  )
        11        S      tau(  11) = (   0.1250088   0.0721517   0.1180857  )
        12        S      tau(  12) = (  -0.0004157   0.1382876   0.8564685  )
        13        Mo     tau(  13) = (  -0.1249989   0.3608437  -0.7272732  )
        14        Mo     tau(  14) = (   0.0000030   0.2886752  -0.2424042  )
        15        S      tau(  15) = (  -0.1249977   0.3608450  -0.3667802  )
        16        S      tau(  16) = (   0.0000012   0.2886747  -0.6030489  )
        17        S      tau(  17) = (   0.0000012   0.2886748  -0.8514963  )
        18        S      tau(  18) = (  -0.1249977   0.3608454  -0.1180274  )
        19        Mo     tau(  19) = (  -0.1249623   0.3608201   0.2425155  )
        20        Mo     tau(  20) = (  -0.0007801   0.2872696   0.7308518  )
        21        S      tau(  21) = (  -0.1240398   0.3604107   0.6055268  )
        22        S      tau(  22) = (   0.0000411   0.2886546   0.3669163  )
        23        S      tau(  23) = (   0.0000035   0.2886726   0.1180964  )
        24        S      tau(  24) = (  -0.1315418   0.3638985   0.8543850  )
        25        Mo     tau(  25) = (  -0.2499987   0.5773502  -0.7272732  )
        26        Mo     tau(  26) = (  -0.1249977   0.5051839  -0.2424055  )
        27        S      tau(  27) = (  -0.2499981   0.5773518  -0.3667809  )
        28        S      tau(  28) = (  -0.1249986   0.5051812  -0.6030489  )
        29        S      tau(  29) = (  -0.1249986   0.5051813  -0.8514963  )
        30        S      tau(  30) = (  -0.2499979   0.5773512  -0.1180266  )
        31        Mo     tau(  31) = (  -0.2499787   0.5773156   0.2425145  )
        32        Mo     tau(  32) = (  -0.1271807   0.5060660   0.7281741  )
        33        S      tau(  33) = (  -0.2502658   0.5775034   0.6017985  )
        34        S      tau(  34) = (  -0.1249543   0.5051367   0.3669386  )
        35        S      tau(  35) = (  -0.1249864   0.5051552   0.1181399  )
        36        S      tau(  36) = (  -0.2525628   0.5785576   0.8514793  )
        37        Mo     tau(  37) = (  -0.3749985   0.7938567  -0.7272732  )
        38        Mo     tau(  38) = (  -0.2500001   0.7216874  -0.2424031  )
        39        S      tau(  39) = (  -0.3749980   0.7938584  -0.3667800  )
        40        S      tau(  40) = (  -0.2499984   0.7216877  -0.6030489  )
        41        S      tau(  41) = (  -0.2499984   0.7216878  -0.8514963  )
        42        S      tau(  42) = (  -0.3749982   0.7938585  -0.1180264  )
        43        Mo     tau(  43) = (  -0.3750043   0.7938372   0.2424536  )
        44        Mo     tau(  44) = (  -0.2503619   0.7218808   0.7263407  )
        45        S      tau(  45) = (  -0.3755748   0.7941519   0.6023691  )
        46        S      tau(  46) = (  -0.2500067   0.7216811   0.3668312  )
        47        S      tau(  47) = (  -0.2499793   0.7216445   0.1181126  )
        48        S      tau(  48) = (  -0.3746959   0.7932047   0.8515893  )
        49        Mo     tau(  49) = (   0.2500010   0.1443372  -0.7272732  )
        50        Mo     tau(  50) = (   0.3750034   0.0721723  -0.2424032  )
        51        S      tau(  51) = (   0.2500017   0.1443391  -0.3667788  )
        52        S      tau(  52) = (   0.3750010   0.0721682  -0.6030489  )
        53        S      tau(  53) = (   0.3750010   0.0721683  -0.8514963  )
        54        S      tau(  54) = (   0.2500016   0.1443391  -0.1180271  )
        55        Mo     tau(  55) = (   0.2500033   0.1443124   0.2424881  )
        56        Mo     tau(  56) = (   0.3752595   0.0716472   0.7255395  )
        57        S      tau(  57) = (   0.2498544   0.1431280   0.6011361  )
        58        S      tau(  58) = (   0.3750516   0.0721435   0.3668117  )
        59        S      tau(  59) = (   0.3750079   0.0721203   0.1180977  )
        60        S      tau(  60) = (   0.2517312   0.1427646   0.8506906  )
        61        Mo     tau(  61) = (   0.1250012   0.3608437  -0.7272732  )
        62        Mo     tau(  62) = (   0.2500029   0.2886782  -0.2424031  )
        63        S      tau(  63) = (   0.1250024   0.3608455  -0.3667794  )
        64        S      tau(  64) = (   0.2500012   0.2886747  -0.6030489  )
        65        S      tau(  65) = (   0.2500012   0.2886748  -0.8514963  )
        66        S      tau(  66) = (   0.1250021   0.3608455  -0.1180270  )
        67        Mo     tau(  67) = (   0.1249995   0.3608273   0.2424838  )
        68        Mo     tau(  68) = (   0.2535704   0.2866116   0.7259154  )
        69        S      tau(  69) = (   0.1241106   0.3617788   0.6079553  )
        70        S      tau(  70) = (   0.2499752   0.2886689   0.3668869  )
        71        S      tau(  71) = (   0.2500098   0.2886475   0.1181123  )
        72        S      tau(  72) = (   0.1336503   0.3523048   0.8541313  )
        73        Mo     tau(  73) = (   0.0000014   0.5773502  -0.7272732  )
        74        Mo     tau(  74) = (   0.1250045   0.5051840  -0.2424036  )
        75        S      tau(  75) = (   0.0000030   0.5773520  -0.3667799  )
        76        S      tau(  76) = (   0.1250014   0.5051812  -0.6030489  )
        77        S      tau(  77) = (   0.1250014   0.5051813  -0.8514963  )
        78        S      tau(  78) = (   0.0000026   0.5773517  -0.1180274  )
        79        Mo     tau(  79) = (   0.0000276   0.5772927   0.2425177  )
        80        Mo     tau(  80) = (   0.1255270   0.5059369   0.7313762  )
        81        S      tau(  81) = (   0.0011816   0.5764663   0.6064450  )
        82        S      tau(  82) = (   0.1250222   0.5051261   0.3669341  )
        83        S      tau(  83) = (   0.1249880   0.5051467   0.1180950  )
        84        S      tau(  84) = (  -0.0088763   0.5830479   0.8565830  )
        85        Mo     tau(  85) = (  -0.1249984   0.7938567  -0.7272732  )
        86        Mo     tau(  86) = (   0.0000069   0.7216896  -0.2424039  )
        87        S      tau(  87) = (  -0.1249975   0.7938582  -0.3667782  )
        88        S      tau(  88) = (   0.0000016   0.7216877  -0.6030489  )
        89        S      tau(  89) = (   0.0000016   0.7216878  -0.8514963  )
        90        S      tau(  90) = (  -0.1249973   0.7938582  -0.1180279  )
        91        Mo     tau(  91) = (  -0.1249699   0.7938095   0.2424907  )
        92        Mo     tau(  92) = (  -0.0004895   0.7231014   0.7275053  )
        93        S      tau(  93) = (  -0.1248847   0.7932555   0.6014963  )
        94        S      tau(  94) = (   0.0000405   0.7216116   0.3668908  )
        95        S      tau(  95) = (   0.0000242   0.7216332   0.1181249  )
        96        S      tau(  96) = (  -0.1259194   0.7949777   0.8510667  )
        97        Mo     tau(  97) = (   0.5000010   0.1443372  -0.7272732  )
        98        Mo     tau(  98) = (   0.6250001   0.0721662  -0.2424040  )
        99        S      tau(  99) = (   0.5000017   0.1443386  -0.3667801  )
       100        S      tau( 100) = (   0.6250010   0.0721682  -0.6030489  )
       101        S      tau( 101) = (   0.6250010   0.0721683  -0.8514963  )
       102        S      tau( 102) = (   0.5000020   0.1443388  -0.1180261  )
       103        Mo     tau( 103) = (   0.5000355   0.1442968   0.2424343  )
       104        Mo     tau( 104) = (   0.6251054   0.0720760   0.7269638  )
       105        S      tau( 105) = (   0.5007812   0.1439212   0.6015111  )
       106        S      tau( 106) = (   0.6250309   0.0721295   0.3668346  )
       107        S      tau( 107) = (   0.6250410   0.0721183   0.1180973  )
       108        S      tau( 108) = (   0.4998652   0.1442971   0.8504179  )
       109        Mo     tau( 109) = (   0.3750012   0.3608437  -0.7272732  )
       110        Mo     tau( 110) = (   0.4999991   0.2886761  -0.2424038  )
       111        S      tau( 111) = (   0.3750012   0.3608452  -0.3667804  )
       112        S      tau( 112) = (   0.5000012   0.2886747  -0.6030489  )
       113        S      tau( 113) = (   0.5000012   0.2886748  -0.8514963  )
       114        S      tau( 114) = (   0.3750014   0.3608455  -0.1180261  )
       115        Mo     tau( 115) = (   0.3749988   0.3608207   0.2424913  )
       116        Mo     tau( 116) = (   0.5005676   0.2886014   0.7258090  )
       117        S      tau( 117) = (   0.3761076   0.3615161   0.6013079  )
       118        S      tau( 118) = (   0.5000282   0.2886169   0.3668001  )
       119        S      tau( 119) = (   0.5000158   0.2886613   0.1180928  )
       120        S      tau( 120) = (   0.3768791   0.3600665   0.8508100  )
       121        Mo     tau( 121) = (   0.2500014   0.5773502  -0.7272732  )
       122        Mo     tau( 122) = (   0.3749983   0.5051825  -0.2424043  )
       123        S      tau( 123) = (   0.2500017   0.5773519  -0.3667810  )
       124        S      tau( 124) = (   0.3750014   0.5051812  -0.6030489  )
       125        S      tau( 125) = (   0.3750014   0.5051813  -0.8514963  )
       126        S      tau( 126) = (   0.2500018   0.5773519  -0.1180256  )
       127        Mo     tau( 127) = (   0.2499755   0.5773110   0.2424609  )
       128        Mo     tau( 128) = (   0.3758691   0.5051374   0.7277779  )
       129        S      tau( 129) = (   0.2483182   0.5768077   0.6062789  )
       130        S      tau( 130) = (   0.3749464   0.5051844   0.3668408  )
       131        S      tau( 131) = (   0.3749944   0.5051486   0.1180923  )
       132        S      tau( 132) = (   0.2574557   0.5818559   0.8585037  )
       133        Mo     tau( 133) = (   0.1250016   0.7938567  -0.7272732  )
       134        Mo     tau( 134) = (   0.2499995   0.7216883  -0.2424036  )
       135        S      tau( 135) = (   0.1250024   0.7938578  -0.3667813  )
       136        S      tau( 136) = (   0.2500016   0.7216877  -0.6030489  )
       137        S      tau( 137) = (   0.2500016   0.7216878  -0.8514963  )
       138        S      tau( 138) = (   0.1250024   0.7938579  -0.1180253  )
       139        Mo     tau( 139) = (   0.1250229   0.7938069   0.2425006  )
       140        Mo     tau( 140) = (   0.2504358   0.7224862   0.7284223  )
       141        S      tau( 141) = (   0.1254429   0.7935457   0.6029055  )
       142        S      tau( 142) = (   0.2500049   0.7216116   0.3668842  )
       143        S      tau( 143) = (   0.2500022   0.7216616   0.1181021  )
       144        S      tau( 144) = (   0.1246626   0.7944127   0.8519137  )
       145        Mo     tau( 145) = (   0.7500010   0.1443372  -0.7272732  )
       146        Mo     tau( 146) = (   0.8750038   0.0721696  -0.2424038  )
       147        S      tau( 147) = (   0.7500016   0.1443382  -0.3667789  )
       148        S      tau( 148) = (   0.8750010   0.0721682  -0.6030489  )
       149        S      tau( 149) = (   0.8750010   0.0721683  -0.8514963  )
       150        S      tau( 150) = (   0.7500016   0.1443384  -0.1180279  )
       151        Mo     tau( 151) = (   0.7500289   0.1443141   0.2424936  )
       152        Mo     tau( 152) = (   0.8748115   0.0715393   0.7280420  )
       153        S      tau( 153) = (   0.7503587   0.1440662   0.6027403  )
       154        S      tau( 154) = (   0.8750369   0.0721618   0.3668742  )
       155        S      tau( 155) = (   0.8750002   0.0721408   0.1181001  )
       156        S      tau( 156) = (   0.7494385   0.1444101   0.8516821  )
       157        Mo     tau( 157) = (   0.6250012   0.3608437  -0.7272732  )
       158        Mo     tau( 158) = (   0.7500028   0.2886769  -0.2424041  )
       159        S      tau( 159) = (   0.6250015   0.3608451  -0.3667792  )
       160        S      tau( 160) = (   0.7500012   0.2886747  -0.6030489  )
       161        S      tau( 161) = (   0.7500012   0.2886748  -0.8514963  )
       162        S      tau( 162) = (   0.6250016   0.3608454  -0.1180280  )
       163        Mo     tau( 163) = (   0.6250302   0.3608127   0.2424760  )
       164        Mo     tau( 164) = (   0.7487590   0.2885376   0.7272130  )
       165        S      tau( 165) = (   0.6254237   0.3608917   0.6015174  )
       166        S      tau( 166) = (   0.7500486   0.2886525   0.3668797  )
       167        S      tau( 167) = (   0.7500385   0.2886557   0.1181169  )
       168        S      tau( 168) = (   0.6239430   0.3610912   0.8510113  )
       169        Mo     tau( 169) = (   0.5000014   0.5773502  -0.7272732  )
       170        Mo     tau( 170) = (   0.6250029   0.5051841  -0.2424047  )
       171        S      tau( 171) = (   0.5000014   0.5773518  -0.3667794  )
       172        S      tau( 172) = (   0.6250014   0.5051812  -0.6030489  )
       173        S      tau( 173) = (   0.6250014   0.5051813  -0.8514963  )
       174        S      tau( 174) = (   0.5000016   0.5773516  -0.1180277  )
       175        Mo     tau( 175) = (   0.4999859   0.5773250   0.2424709  )
       176        Mo     tau( 176) = (   0.6245890   0.5053660   0.7261562  )
       177        S      tau( 177) = (   0.4993068   0.5776651   0.6022414  )
       178        S      tau( 178) = (   0.6249823   0.5051501   0.3668388  )
       179        S      tau( 179) = (   0.6250205   0.5051637   0.1181147  )
       180        S      tau( 180) = (   0.5009766   0.5773609   0.8515797  )
       181        Mo     tau( 181) = (   0.3750016   0.7938567  -0.7272732  )
       182        Mo     tau( 182) = (   0.5000025   0.7216901  -0.2424039  )
       183        S      tau( 183) = (   0.3750019   0.7938578  -0.3667793  )
       184        S      tau( 184) = (   0.5000016   0.7216877  -0.6030489  )
       185        S      tau( 185) = (   0.5000016   0.7216878  -0.8514963  )
       186        S      tau( 186) = (   0.3750020   0.7938579  -0.1180272  )
       187        Mo     tau( 187) = (   0.3749951   0.7938323   0.2424893  )
       188        Mo     tau( 188) = (   0.4998599   0.7217391   0.7271366  )
       189        S      tau( 189) = (   0.3746033   0.7939741   0.6029663  )
       190        S      tau( 190) = (   0.4999946   0.7216688   0.3668260  )
       191        S      tau( 191) = (   0.4999891   0.7216628   0.1180901  )
       192        S      tau( 192) = (   0.3755955   0.7938624   0.8526444  )
       193        Pt     tau( 193) = (   0.1194898   0.4990527   0.9549993  )
       194        Pd     tau( 194) = (   0.0026419   0.2990244   0.9662205  )
       195        Pt     tau( 195) = (   0.0026180   0.2990093   1.1566083  )

     --------------------------------------------
     DFT-D3 Dispersion Correction (3-body terms):
     --------------------------------------------
       Reference C6 values for interpolation: 

         atom   Coordination number   C6
         S          0.000           268.01
         S          0.995           261.99
         S          1.990           251.62
         Mo         0.000          1691.79
         Mo         1.942          1004.01
         Mo        11.056           674.22
         Pd         0.000          1217.01
         Pd         1.863           573.90
         Pd         5.710           531.75
         Pt         0.000           782.29
         Pt         1.919           692.72
         Pt         6.667           673.75

       Values used:

         atom   Coordination number  R0_AB[au]  C6      C8
         Mo        10.208            3.547    674.22  77634.20
         Mo        10.221            3.547    674.22  77634.20
         S          3.858            3.128    251.62  12327.25
         S          3.859            3.128    251.62  12327.25
         S          3.758            3.128    251.62  12327.25
         S          3.859            3.128    251.62  12327.25
         Mo        10.221            3.547    674.22  77634.20
         Mo        10.229            3.547    674.22  77634.20
         S          3.849            3.128    251.62  12327.25
         S          3.859            3.128    251.62  12327.25
         S          3.859            3.128    251.62  12327.25
         S          4.626            3.128    251.62  12327.25
         Mo        10.208            3.547    674.22  77634.20
         Mo        10.221            3.547    674.22  77634.20
         S          3.858            3.128    251.62  12327.25
         S          3.859            3.128    251.62  12327.25
         S          3.758            3.128    251.62  12327.25
         S          3.859            3.128    251.62  12327.25
         Mo        10.222            3.547    674.22  77634.20
         Mo        10.722            3.547    674.22  77634.20
         S          3.862            3.128    251.62  12327.25
         S          3.850            3.128    251.62  12327.25
         S          3.859            3.128    251.62  12327.25
         S          4.673            3.128    251.62  12327.25
         Mo        10.208            3.547    674.22  77634.20
         Mo        10.221            3.547    674.22  77634.20
         S          3.858            3.128    251.62  12327.25
         S          3.859            3.128    251.62  12327.25
         S          3.758            3.128    251.62  12327.25
         S          3.859            3.128    251.62  12327.25
         Mo        10.220            3.547    674.22  77634.20
         Mo        10.171            3.547    674.22  77634.20
         S          3.842            3.128    251.62  12327.25
         S          3.853            3.128    251.62  12327.25
         S          3.859            3.128    251.62  12327.25
         S          3.843            3.128    251.62  12327.25
         Mo        10.208            3.547    674.22  77634.20
         Mo        10.220            3.547    674.22  77634.20
         S          3.858            3.128    251.62  12327.25
         S          3.859            3.128    251.62  12327.25
         S          3.758            3.128    251.62  12327.25
         S          3.859            3.128    251.62  12327.25
         Mo        10.220            3.547    674.22  77634.20
         Mo        10.260            3.547    674.22  77634.20
         S          3.856            3.128    251.62  12327.25
         S          3.861            3.128    251.62  12327.25
         S          3.859            3.128    251.62  12327.25
         S          3.808            3.128    251.62  12327.25
         Mo        10.208            3.547    674.22  77634.20
         Mo        10.221            3.547    674.22  77634.20
         S          3.858            3.128    251.62  12327.25
         S          3.859            3.128    251.62  12327.25
         S          3.758            3.128    251.62  12327.25
         S          3.859            3.128    251.62  12327.25
         Mo        10.220            3.547    674.22  77634.20
         Mo        10.278            3.547    674.22  77634.20
         S          3.837            3.128    251.62  12327.25
         S          3.863            3.128    251.62  12327.25
         S          3.859            3.128    251.62  12327.25
         S          3.842            3.128    251.62  12327.25
         Mo        10.208            3.547    674.22  77634.20
         Mo        10.221            3.547    674.22  77634.20
         S          3.858            3.128    251.62  12327.25
         S          3.859            3.128    251.62  12327.25
         S          3.758            3.128    251.62  12327.25
         S          3.859            3.128    251.62  12327.25
         Mo        10.222            3.547    674.22  77634.20
         Mo        10.177            3.547    674.22  77634.20
         S          3.873            3.128    251.62  12327.25
         S          3.855            3.128    251.62  12327.25
         S          3.859            3.128    251.62  12327.25
         S          5.648            3.128    251.62  12327.25
         Mo        10.208            3.547    674.22  77634.20
         Mo        10.221            3.547    674.22  77634.20
         S          3.858            3.128    251.62  12327.25
         S          3.859            3.128    251.62  12327.25
         S          3.758            3.128    251.62  12327.25
         S          3.859            3.128    251.62  12327.25
         Mo        10.222            3.547    674.22  77634.20
         Mo        10.867            3.547    674.22  77634.20
         S          3.860            3.128    251.62  12327.25
         S          3.850            3.128    251.62  12327.25
         S          3.859            3.128    251.62  12327.25
         S          4.673            3.128    251.62  12327.25
         Mo        10.208            3.547    674.22  77634.20
         Mo        10.221            3.547    674.22  77634.20
         S          3.858            3.128    251.62  12327.25
         S          3.859            3.128    251.62  12327.25
         S          3.758            3.128    251.62  12327.25
         S          3.859            3.128    251.62  12327.25
         Mo        10.220            3.547    674.22  77634.20
         Mo        10.214            3.547    674.22  77634.20
         S          3.850            3.128    251.62  12327.25
         S          3.856            3.128    251.62  12327.25
         S          3.859            3.128    251.62  12327.25
         S          3.827            3.128    251.62  12327.25
         Mo        10.208            3.547    674.22  77634.20
         Mo        10.221            3.547    674.22  77634.20
         S          3.858            3.128    251.62  12327.25
         S          3.859            3.128    251.62  12327.25
         S          3.758            3.128    251.62  12327.25
         S          3.859            3.128    251.62  12327.25
         Mo        10.220            3.547    674.22  77634.20
         Mo        10.250            3.547    674.22  77634.20
         S          3.856            3.128    251.62  12327.25
         S          3.861            3.128    251.62  12327.25
         S          3.859            3.128    251.62  12327.25
         S          3.790            3.128    251.62  12327.25
         Mo        10.208            3.547    674.22  77634.20
         Mo        10.221            3.547    674.22  77634.20
         S          3.858            3.128    251.62  12327.25
         S          3.859            3.128    251.62  12327.25
         S          3.758            3.128    251.62  12327.25
         S          3.859            3.128    251.62  12327.25
         Mo        10.220            3.547    674.22  77634.20
         Mo        10.277            3.547    674.22  77634.20
         S          3.839            3.128    251.62  12327.25
         S          3.863            3.128    251.62  12327.25
         S          3.859            3.128    251.62  12327.25
         S          3.819            3.128    251.62  12327.25
         Mo        10.208            3.547    674.22  77634.20
         Mo        10.221            3.547    674.22  77634.20
         S          3.858            3.128    251.62  12327.25
         S          3.859            3.128    251.62  12327.25
         S          3.758            3.128    251.62  12327.25
         S          3.859            3.128    251.62  12327.25
         Mo        10.222            3.547    674.22  77634.20
         Mo        10.220            3.547    674.22  77634.20
         S          3.850            3.128    251.62  12327.25
         S          3.858            3.128    251.62  12327.25
         S          3.859            3.128    251.62  12327.25
         S          4.642            3.128    251.62  12327.25
         Mo        10.208            3.547    674.22  77634.20
         Mo        10.221            3.547    674.22  77634.20
         S          3.858            3.128    251.62  12327.25
         S          3.859            3.128    251.62  12327.25
         S          3.758            3.128    251.62  12327.25
         S          3.859            3.128    251.62  12327.25
         Mo        10.221            3.547    674.22  77634.20
         Mo        10.226            3.547    674.22  77634.20
         S          3.863            3.128    251.62  12327.25
         S          3.856            3.128    251.62  12327.25
         S          3.859            3.128    251.62  12327.25
         S          3.764            3.128    251.62  12327.25
         Mo        10.208            3.547    674.22  77634.20
         Mo        10.221            3.547    674.22  77634.20
         S          3.858            3.128    251.62  12327.25
         S          3.859            3.128    251.62  12327.25
         S          3.758            3.128    251.62  12327.25
         S          3.859            3.128    251.62  12327.25
         Mo        10.221            3.547    674.22  77634.20
         Mo        10.241            3.547    674.22  77634.20
         S          3.864            3.128    251.62  12327.25
         S          3.857            3.128    251.62  12327.25
         S          3.859            3.128    251.62  12327.25
         S          3.767            3.128    251.62  12327.25
         Mo        10.208            3.547    674.22  77634.20
         Mo        10.220            3.547    674.22  77634.20
         S          3.858            3.128    251.62  12327.25
         S          3.859            3.128    251.62  12327.25
         S          3.758            3.128    251.62  12327.25
         S          3.859            3.128    251.62  12327.25
         Mo        10.220            3.547    674.22  77634.20
         Mo        10.226            3.547    674.22  77634.20
         S          3.854            3.128    251.62  12327.25
         S          3.857            3.128    251.62  12327.25
         S          3.859            3.128    251.62  12327.25
         S          3.809            3.128    251.62  12327.25
         Mo        10.208            3.547    674.22  77634.20
         Mo        10.221            3.547    674.22  77634.20
         S          3.858            3.128    251.62  12327.25
         S          3.859            3.128    251.62  12327.25
         S          3.758            3.128    251.62  12327.25
         S          3.859            3.128    251.62  12327.25
         Mo        10.220            3.547    674.22  77634.20
         Mo        10.267            3.547    674.22  77634.20
         S          3.853            3.128    251.62  12327.25
         S          3.861            3.128    251.62  12327.25
         S          3.859            3.128    251.62  12327.25
         S          3.821            3.128    251.62  12327.25
         Mo        10.208            3.547    674.22  77634.20
         Mo        10.221            3.547    674.22  77634.20
         S          3.858            3.128    251.62  12327.25
         S          3.859            3.128    251.62  12327.25
         S          3.758            3.128    251.62  12327.25
         S          3.859            3.128    251.62  12327.25
         Mo        10.221            3.547    674.22  77634.20
         Mo        10.250            3.547    674.22  77634.20
         S          3.853            3.128    251.62  12327.25
         S          3.860            3.128    251.62  12327.25
         S          3.859            3.128    251.62  12327.25
         S          3.823            3.128    251.62  12327.25
         Pt         4.486            3.168    673.76  70063.16
         Pd         5.086            3.168    531.75  48720.73
         Pt         1.024            3.168    715.58  74412.39

         Molecular C6 ( Ry / a.u.^6 ) =  14177457.35


     number of k points=     4  Gaussian smearing, width (Ry)=  0.0100
                       cart. coord. in units 2pi/alat
        k(    1) = (   0.0000000   0.0000000   0.0000000), wk =   0.5000000
        k(    2) = (   0.0000000  -0.5773499   0.0000000), wk =   0.5000000
        k(    3) = (  -0.5000000  -0.2886744   0.0000000), wk =   0.5000000
        k(    4) = (  -0.5000000  -0.8660242   0.0000000), wk =   0.5000000

     Dense  grid:  7154885 G-vectors     FFT dimensions: ( 180, 180, 512)

     Smooth grid:  3090769 G-vectors     FFT dimensions: ( 135, 135, 400)

     Estimated max dynamical RAM per process >       4.33 GB

     Estimated total dynamical RAM >     155.86 GB

     Atomic positions and unit cell read from directory:
     ./outdir/pwscf.save/
     Atomic positions from file used, from input discarded
 

     The initial density is read from file :
     ./outdir/pwscf.save/charge-density


     negative rho (up, down):  8.525E-04 0.000E+00
     Cannot read wfcs: file not found
     Starting wfcs are 1196 randomized atomic wfcs
     Checking if some PAW data can be deallocated... 

     total cpu time spent up to now is      181.2 secs

     Self-consistent Calculation

     iteration #  1     ecut=    77.00 Ry     beta= 0.20
     Davidson diagonalization with overlap
     c_bands:  5 eigenvalues not converged
     c_bands:  8 eigenvalues not converged
     c_bands:  6 eigenvalues not converged
     c_bands: 12 eigenvalues not converged
     ethr =  1.00E-05,  avg # of iterations =115.0

     negative rho (up, down):  7.970E-04 0.000E+00

     total cpu time spent up to now is    10810.8 secs

     total energy              =  -35655.01903943 Ry
     estimated scf accuracy    <       0.84714334 Ry

     iteration #  2     ecut=    77.00 Ry     beta= 0.20
     Davidson diagonalization with overlap
     ethr =  4.85E-05,  avg # of iterations = 12.5

     negative rho (up, down):  7.519E-04 0.000E+00

     total cpu time spent up to now is    11272.3 secs

     total energy              =  -35654.93495524 Ry
     estimated scf accuracy    <       0.31640903 Ry

     iteration #  3     ecut=    77.00 Ry     beta= 0.20
     Davidson diagonalization with overlap
     c_bands:  1 eigenvalues not converged
     ethr =  1.81E-05,  avg # of iterations = 17.5

     negative rho (up, down):  7.276E-04 0.000E+00

     total cpu time spent up to now is    11762.0 secs

     total energy              =  -35654.83531626 Ry
     estimated scf accuracy    <       1.88517540 Ry

     iteration #  4     ecut=    77.00 Ry     beta= 0.20
     Davidson diagonalization with overlap
     c_bands:  3 eigenvalues not converged
     ethr =  1.81E-05,  avg # of iterations = 13.0

     negative rho (up, down):  7.154E-04 0.000E+00

     total cpu time spent up to now is    12223.9 secs

     total energy              =  -35654.94750963 Ry
     estimated scf accuracy    <       0.13396557 Ry

     iteration #  5     ecut=    77.00 Ry     beta= 0.20
     Davidson diagonalization with overlap
     c_bands:  4 eigenvalues not converged
     c_bands:  2 eigenvalues not converged
     c_bands:  2 eigenvalues not converged
     ethr =  7.67E-06,  avg # of iterations = 16.5

     negative rho (up, down):  7.065E-04 0.000E+00

     total cpu time spent up to now is    12702.1 secs

     total energy              =  -35654.94722646 Ry
     estimated scf accuracy    <       0.04792642 Ry

     iteration #  6     ecut=    77.00 Ry     beta= 0.20
     Davidson diagonalization with overlap
     c_bands:  5 eigenvalues not converged
     c_bands:  3 eigenvalues not converged
     c_bands:  4 eigenvalues not converged
     ethr =  2.74E-06,  avg # of iterations = 37.8

     negative rho (up, down):  7.038E-04 0.000E+00

     total cpu time spent up to now is    13636.8 secs

     total energy              =  -35654.94529870 Ry
     estimated scf accuracy    <       0.02226443 Ry

     iteration #  7     ecut=    77.00 Ry     beta= 0.20
     Davidson diagonalization with overlap
     c_bands:  1 eigenvalues not converged
     c_bands:  1 eigenvalues not converged
     ethr =  1.28E-06,  avg # of iterations = 18.5

     negative rho (up, down):  7.117E-04 0.000E+00

     total cpu time spent up to now is    14150.3 secs

     total energy              =  -35654.94760491 Ry
     estimated scf accuracy    <       0.00365180 Ry

     iteration #  8     ecut=    77.00 Ry     beta= 0.20
     Davidson diagonalization with overlap
     ethr =  2.09E-07,  avg # of iterations = 15.8

     negative rho (up, down):  7.329E-04 0.000E+00

     total cpu time spent up to now is    15037.2 secs

     total energy              =  -35654.95207172 Ry
     estimated scf accuracy    <       0.00194410 Ry

     iteration #  9     ecut=    77.00 Ry     beta= 0.20
     Davidson diagonalization with overlap
     ethr =  1.11E-07,  avg # of iterations =  4.2

     negative rho (up, down):  7.764E-04 0.000E+00

     total cpu time spent up to now is    15468.5 secs

     total energy              =  -35654.95187954 Ry
     estimated scf accuracy    <       0.00085965 Ry

     iteration # 10     ecut=    77.00 Ry     beta= 0.20
     Davidson diagonalization with overlap
     ethr =  4.92E-08,  avg # of iterations = 16.5

     negative rho (up, down):  7.909E-04 0.000E+00

     total cpu time spent up to now is    16231.8 secs

     total energy              =  -35654.95238607 Ry
     estimated scf accuracy    <       0.00025756 Ry

     iteration # 11     ecut=    77.00 Ry     beta= 0.20
     Davidson diagonalization with overlap
     ethr =  1.48E-08,  avg # of iterations = 14.2

     negative rho (up, down):  8.122E-04 0.000E+00

     total cpu time spent up to now is    17067.0 secs

     total energy              =  -35654.95253701 Ry
     estimated scf accuracy    <       0.00012267 Ry

     iteration # 12     ecut=    77.00 Ry     beta= 0.20
     Davidson diagonalization with overlap
     c_bands:  1 eigenvalues not converged
     ethr =  7.03E-09,  avg # of iterations = 14.2

     negative rho (up, down):  8.340E-04 0.000E+00

     total cpu time spent up to now is    17656.4 secs

     total energy              =  -35654.95254592 Ry
     estimated scf accuracy    <       0.00004505 Ry

     iteration # 13     ecut=    77.00 Ry     beta= 0.20
     Davidson diagonalization with overlap
     c_bands:  2 eigenvalues not converged
     ethr =  2.58E-09,  avg # of iterations = 16.2

     negative rho (up, down):  8.392E-04 0.000E+00

     total cpu time spent up to now is    18559.6 secs

     total energy              =  -35654.95258840 Ry
     estimated scf accuracy    <       0.00001292 Ry

     iteration # 14     ecut=    77.00 Ry     beta= 0.20
     Davidson diagonalization with overlap
     c_bands:  1 eigenvalues not converged
     c_bands:  1 eigenvalues not converged
     ethr =  7.40E-10,  avg # of iterations = 17.5

     negative rho (up, down):  8.419E-04 0.000E+00

     total cpu time spent up to now is    19409.6 secs

     total energy              =  -35654.95259602 Ry
     estimated scf accuracy    <       0.00000670 Ry

     iteration # 15     ecut=    77.00 Ry     beta= 0.20
     Davidson diagonalization with overlap
     ethr =  3.83E-10,  avg # of iterations = 10.5

     negative rho (up, down):  8.479E-04 0.000E+00

     total cpu time spent up to now is    19940.6 secs

     total energy              =  -35654.95259243 Ry
     estimated scf accuracy    <       0.00000306 Ry

     iteration # 16     ecut=    77.00 Ry     beta= 0.20
     Davidson diagonalization with overlap
     ethr =  1.75E-10,  avg # of iterations = 14.5

     negative rho (up, down):  8.535E-04 0.000E+00

     total cpu time spent up to now is    20831.0 secs

     End of self-consistent calculation

          k = 0.0000 0.0000 0.0000 (386245 PWs)   bands (ev):

  -103.5137-101.4615 -89.3137 -71.9409 -71.9287 -71.8705 -71.8087 -71.7938
   -71.7693 -71.7624 -69.9398 -69.9367 -69.8381 -69.8315 -69.7991 -69.7439
   -69.7425 -66.8142 -66.7888 -66.7886 -66.7873 -66.7865 -66.7767 -66.7718
   -66.7708 -66.7678 -66.7678 -66.7676 -66.7674 -66.7674 -66.7673 -66.7673
   -66.7673 -66.7673 -66.7673 -66.7672 -66.7671 -66.7660 -66.7660 -66.7660
   -66.7660 -66.7660 -66.7660 -66.7606 -66.7588 -66.7508 -66.7487 -66.7481
   -66.7468 -66.7464 -66.7463 -66.7462 -66.7461 -66.7460 -66.7460 -66.7460
   -66.7459 -66.7459 -66.7459 -66.7459 -66.7459 -66.7458 -66.7458 -66.7458
   -66.7456 -66.7453 -66.7446 -66.7446 -66.7446 -66.7446 -66.7446 -66.7446
   -66.7446 -66.7446 -66.7445 -66.7365 -66.7334 -66.7292 -66.7079 -66.7040
   -66.6966 -57.8726 -57.7311 -57.4680 -55.9791 -55.6622 -55.2818 -55.2086
   -55.1594 -54.8252 -41.1185 -41.1162 -41.1160 -41.1160 -41.1160 -41.1160
   -41.1159 -41.1154 -41.1154 -41.1154 -41.1129 -41.1057 -41.0454 -41.0410
   -41.0409 -41.0408 -41.0407 -41.0407 -41.0407 -41.0407 -41.0407 -41.0406
   -41.0406 -41.0405 -41.0404 -41.0403 -41.0400 -41.0400 -41.0400 -41.0400
   -41.0400 -41.0400 -41.0302 -41.0272 -41.0206 -41.0120 -40.9860 -40.9585
   -40.9501 -40.9484 -40.9482 -40.9475 -40.9363 -40.9253 -40.9185 -40.9169
   -40.9148 -40.9145 -40.9145 -40.9144 -40.9143 -40.9143 -40.9143 -40.9143
   -40.9143 -40.9143 -40.9142 -40.9141 -40.9135 -40.9135 -40.9135 -40.9135
   -40.9135 -40.9135 -40.9097 -40.9070 -40.9069 -40.9068 -40.9066 -40.9065
   -40.9065 -40.9065 -40.9065 -40.9064 -40.9064 -40.9064 -40.9063 -40.9058
   -40.9058 -40.9058 -40.9058 -40.9058 -40.9058 -40.9053 -40.9022 -40.9008
   -40.8968 -40.8935 -40.8885 -40.8856 -40.8797 -40.8796 -40.8794 -40.8793
   -40.8793 -40.8793 -40.8793 -40.8793 -40.8793 -40.8793 -40.8791 -40.8791
   -40.8784 -40.8784 -40.8784 -40.8784 -40.8784 -40.8784 -40.8777 -40.8765
   -40.8721 -40.8706 -40.8671 -40.8662 -40.8653 -40.8650 -40.8649 -40.8648
   -40.8647 -40.8646 -40.8645 -40.8645 -40.8645 -40.8645 -40.8645 -40.8645
   -40.8644 -40.8644 -40.8644 -40.8644 -40.8644 -40.8641 -40.8638 -40.8638
   -40.8638 -40.8638 -40.8638 -40.8638 -40.8637 -40.8637 -40.8637 -40.8624
   -40.8581 -40.8535 -40.8488 -40.8481 -40.8441 -40.8355 -40.8012 -40.8010
   -40.8010 -40.8010 -40.8010 -40.8009 -40.8000 -40.8000 -40.8000 -40.7971
   -40.7897 -40.7831 -40.7543 -40.7542 -40.7541 -40.7539 -40.7539 -40.7539
   -40.7538 -40.7538 -40.7538 -40.7538 -40.7536 -40.7535 -40.7529 -40.7529
   -40.7529 -40.7529 -40.7529 -40.7529 -40.7500 -40.7493 -40.7392 -40.7380
   -40.7259 -40.7198 -40.7063 -40.7063 -40.7062 -40.7062 -40.7052 -40.7052
   -40.6873 -40.6772 -20.3922 -20.2666 -20.1666 -20.0573 -19.8670 -19.4792
   -19.4398 -19.4188 -19.4153 -19.4108 -19.4018 -19.3941 -19.3867 -19.3676
   -19.3601 -19.3478 -19.3162 -19.3034 -19.2977 -19.2842 -19.2767 -19.2622
   -19.2113 -19.2039 -19.2018 -19.1977 -19.1946 -19.1880 -19.0735 -18.9782
   -18.9231 -18.7944 -18.7300 -18.7113 -18.6745 -18.6558 -18.6435 -18.6330
   -18.6133 -18.5895 -18.5833 -18.5671 -18.5558 -18.5262 -18.5015 -18.4762
   -18.4503 -18.4477 -18.4392 -18.4150 -18.4068 -18.3998 -18.3521 -18.3494
   -18.3471 -18.3391 -18.3384 -18.3379 -18.2924 -18.2887 -18.2864 -18.2856
   -18.2834 -18.2832 -18.2777 -18.2639 -18.2567 -18.2541 -18.2479 -18.2471
   -18.2441 -18.2407 -18.2400 -18.2378 -18.2250 -18.2162 -18.2136 -18.2117
   -18.2097 -18.2048 -18.1964 -18.1922 -18.1893 -18.1806 -18.1726 -18.1679
   -18.1673 -18.1620 -18.1586 -18.1506 -18.1489 -18.1461 -18.1232 -18.1153
   -18.1104 -18.0996 -18.0835 -18.0827 -18.0787 -18.0777 -18.0769 -18.0625
   -18.0577 -18.0555 -18.0494 -18.0391 -18.0337 -18.0320 -18.0296 -18.0287
   -18.0228 -18.0206 -18.0200 -18.0058 -18.0050 -18.0047 -17.9966 -17.9921
   -17.9891 -17.9859 -17.9856 -17.9842 -17.9621 -17.9614 -17.9601 -17.9593
   -17.9590 -17.9586 -12.4768 -12.2596 -12.1309 -12.0578 -11.9973 -11.9648
   -11.9521 -11.9502 -11.8516 -11.8441 -11.8321 -11.7747 -11.7271 -11.7190
   -11.7157 -11.5977 -11.5352 -11.5196 -11.4483 -11.4090 -11.4016 -11.4002
   -11.3987 -11.3927 -11.3686 -11.3448 -11.3172 -11.2978 -11.2955 -11.2928
   -11.2905 -11.2888 -11.2836 -11.2512 -11.2419 -11.2321 -11.2303 -11.2235
   -11.2220 -11.2185 -11.2113 -11.2106 -11.2078 -11.1964 -11.1886 -11.1605
   -11.1490 -11.1318 -11.1289 -11.1110 -11.1078 -11.1020 -11.0849 -11.0708
   -11.0654 -11.0561 -11.0517 -11.0484 -11.0376 -11.0255 -11.0143 -11.0128
   -11.0075 -11.0036 -10.9962 -10.9951 -10.9945 -10.9919 -10.9914 -10.9876
   -10.9750 -10.9708 -10.9690 -10.9672 -10.9654 -10.9636 -10.9455 -10.9444
   -10.9428 -10.9399 -10.9386 -10.9346 -10.9322 -10.9196 -10.9163 -10.9024
   -10.9021 -10.9016 -10.9005 -10.8976 -10.8965 -10.8420 -10.8295 -10.8217
   -10.7943 -10.7601 -10.7582 -10.7491 -10.7434 -10.7412 -10.7172 -10.6371
   -10.4958 -10.3915 -10.3364 -10.3122 -10.2547 -10.1385 -10.1297 -10.1007
   -10.0862 -10.0058  -9.9894  -9.9756  -9.9686  -9.9646  -9.9552  -9.9443
    -9.9401  -9.9373  -9.9336  -9.9303  -9.9280  -9.9248  -9.9221  -9.9154
    -9.9146  -9.9096  -9.9024  -9.8982  -9.8917  -9.8719  -9.8567  -9.8368
    -9.8038  -9.7993  -9.7937  -9.7897  -9.7888  -9.7876  -9.7824  -9.7814
    -9.7808  -9.7795  -9.7779  -9.7757  -9.7697  -9.7574  -9.7412  -9.7217
    -9.7060  -9.7059  -9.7057  -9.7053  -9.7052  -9.7048  -9.7002  -9.6978
    -9.6854  -9.6828  -9.6699  -9.6645  -9.6477  -9.6382  -9.6180  -9.6101
    -9.5967  -9.5377  -9.5302  -9.5267  -9.5217  -9.5129  -9.5115  -9.4954
    -9.4933  -9.4920  -9.4744  -9.4691  -9.4644  -9.4381  -9.4269  -9.4133
    -9.3988  -9.3919  -9.3815  -9.3661  -9.3601  -9.3530  -9.3464  -9.3451
    -9.3432  -9.3398  -9.3378  -9.3094  -9.2990  -9.2858  -9.2743  -9.2706
    -9.2500  -9.2398  -9.1975  -9.1469  -9.1459  -9.1442  -9.1311  -9.1253
    -9.1184  -9.1180  -9.1126  -9.1035  -9.0999  -9.0872  -9.0816  -9.0815
    -9.0789  -9.0686  -9.0621  -9.0555  -9.0506  -9.0358  -9.0224  -8.9858
    -8.9855  -8.9852  -8.9851  -8.9849  -8.9844  -8.9327  -8.9182  -8.9118
    -8.9100  -8.9013  -8.8942  -8.8487  -8.8332  -8.8316  -8.8265  -8.8220
    -8.8154  -8.7729  -8.7622  -8.7579  -8.7567  -8.7553  -8.7537  -8.7396
    -8.7252  -8.6654  -8.6301  -8.5704  -8.5307  -8.5306  -8.5263  -8.5254
    -8.5229  -8.5192  -8.5184  -8.5074  -8.4696  -8.4485  -8.4431  -8.4405
    -8.4398  -8.4396  -8.4382  -8.4346  -8.4249  -8.4162  -8.4132  -8.4128
    -8.4110  -8.4088  -8.4019  -8.3911  -8.3851  -8.3849  -8.3842  -8.3834
    -8.3817  -8.3769  -8.2583  -8.2368  -8.1878  -8.1402  -8.0756  -8.0244
    -8.0223  -8.0220  -7.9508  -7.9474  -7.9455  -7.8931  -7.8832  -7.8704
    -7.8494  -7.8160  -7.8086  -7.8077  -7.7999  -7.7918  -7.7852  -7.7791
    -7.7722  -7.7608  -7.7478  -7.7374  -7.7304  -7.7120  -7.7044  -7.6998
    -7.6990  -7.6987  -7.6980  -7.6967  -7.6931  -7.6878  -7.6752  -7.6727
    -7.6716  -7.6713  -7.6706  -7.6661  -7.6650  -7.6539  -7.6473  -7.6470
    -7.6466  -7.6460  -7.6450  -7.6436  -7.6336  -7.6113  -7.5965  -7.5900
    -7.5885  -7.5864  -7.5721  -7.5696  -7.5680  -7.5655  -7.5595  -7.5507
    -7.5245  -7.5187  -7.5051  -7.4931  -7.4809  -7.4677  -7.4670  -7.4594
    -7.4553  -7.4538  -7.4523  -7.4479  -7.4422  -7.4161  -7.4151  -7.4087
    -7.3978  -7.3952  -7.3807  -7.3778  -7.3730  -7.3452  -7.3302  -7.3208
    -7.2688  -7.2611  -7.2550  -7.2046  -7.1926  -7.1417  -7.0651  -7.0425
    -7.0333  -7.0263  -7.0058  -7.0004  -6.9615  -6.9557  -6.9510  -6.9377
    -6.9239  -6.9085  -6.9028  -6.8687  -6.8486  -6.8433  -6.8343  -6.8228
    -6.7959  -6.7892  -6.7828  -6.7806  -6.7742  -6.7701  -6.7528  -6.7357
    -6.7298  -6.7208  -6.7125  -6.7018  -6.6871  -6.6833  -6.6800  -6.6791
    -6.6760  -6.6725  -6.6712  -6.6707  -6.6700  -6.6627  -6.6616  -6.6616
    -6.6613  -6.6611  -6.6609  -6.6514  -6.6437  -6.6338  -6.6331  -6.6037
    -6.6027  -6.5937  -6.5737  -6.5728  -6.5708  -6.5333  -6.5121  -6.5040
    -6.5010  -6.4996  -6.4957  -6.4924  -6.4864  -6.4794  -6.4726  -6.4696
    -6.4565  -6.4519  -6.4490  -6.4447  -6.4398  -6.4371  -6.4188  -6.4164
    -6.4161  -6.4144  -6.4129  -6.4122  -6.3940  -6.3405  -6.2033  -6.1240
    -5.9217  -5.8546  -5.6458  -5.5901  -5.4326  -5.3246  -5.2475  -5.2099
    -5.1191  -4.8767  -4.0370  -4.0205  -4.0163  -4.0134  -4.0096  -4.0001
    -3.9947  -3.9911  -3.9901  -3.9872  -3.9856  -3.9777  -3.9046  -3.8699
    -3.8656  -3.8638  -3.8570  -3.8467  -3.8451  -3.8422  -3.8393  -3.8376
    -3.8349  -3.7959  -3.7109  -3.6885  -3.6763  -3.6711  -3.6682  -3.6590
    -3.6544  -3.6463  -3.6387  -3.6358  -3.6334  -3.6321  -3.6271  -3.6230
    -3.6216  -3.6147  -3.6104  -3.6085  -3.6068  -3.6059  -3.6052  -3.6017
    -3.5915  -3.5908  -3.5903  -3.5826  -3.5781  -3.5748  -3.5732  -3.5682
    -3.5669  -3.5658  -3.5625  -3.5575  -3.5516  -3.5477  -3.5268  -3.5165
    -3.5113  -3.5090  -3.5076  -3.5064  -3.5062  -3.4999  -3.4874  -3.4840
    -3.4758  -3.4730  -3.4531  -3.4484  -3.4443  -3.4423  -3.4388  -3.4229
    -3.3877  -3.3856  -3.3712  -3.3662  -3.3612  -3.3529  -3.2465  -3.2296
    -3.2287  -3.2264  -3.2250  -3.2216  -3.2109  -3.2099  -3.2065  -3.1870
    -3.1647  -3.1542  -3.1529  -3.1413  -3.1405  -3.1391  -3.1368  -3.1357
    -3.1340  -3.1296  -3.1265  -3.1261  -3.1228  -3.1192  -3.1171  -3.1134
    -3.1106  -3.1035  -3.0991  -3.0978  -3.0962  -3.0956  -3.0951  -3.0949
    -3.0938  -3.0920  -3.0893  -3.0872  -3.0560  -3.0514  -3.0424  -3.0383
    -3.0319  -3.0309  -3.0166  -2.9984  -2.9937  -2.9699  -2.9699  -2.9697
    -2.9695  -2.9693  -2.9691  -2.9689  -2.9688  -2.9664  -2.9532  -2.9476
    -2.9356  -2.9194  -2.9191  -2.9015  -2.8963  -2.8859  -2.8837  -2.8764
    -2.8381  -2.8331  -2.8041  -2.8029  -2.7959  -2.7903  -2.7874  -2.7864
    -2.7847  -2.7817  -2.7439  -2.7311  -2.7236  -2.7042  -2.7017  -2.6917
    -2.6237  -2.6214  -2.6118  -2.6034  -2.5987  -2.5900  -2.5794  -2.5720

          k = 0.0000-0.5773 0.0000 (386352 PWs)   bands (ev):

  -103.5137-101.4615 -89.3137 -71.9409 -71.9287 -71.8705 -71.8087 -71.7938
   -71.7693 -71.7624 -69.9398 -69.9367 -69.8381 -69.8315 -69.7991 -69.7439
   -69.7425 -66.8141 -66.7863 -66.7826 -66.7825 -66.7824 -66.7824 -66.7811
   -66.7811 -66.7778 -66.7735 -66.7719 -66.7719 -66.7717 -66.7717 -66.7704
   -66.7704 -66.7678 -66.7633 -66.7570 -66.7569 -66.7566 -66.7566 -66.7566
   -66.7566 -66.7566 -66.7566 -66.7553 -66.7553 -66.7553 -66.7553 -66.7552
   -66.7525 -66.7523 -66.7522 -66.7522 -66.7519 -66.7509 -66.7509 -66.7496
   -66.7473 -66.7463 -66.7462 -66.7461 -66.7460 -66.7459 -66.7459 -66.7459
   -66.7457 -66.7446 -66.7446 -66.7446 -66.7446 -66.7416 -66.7416 -66.7415
   -66.7415 -66.7402 -66.7402 -66.7364 -66.7336 -66.7293 -66.7075 -66.7044
   -66.6965 -57.8726 -57.7311 -57.4680 -55.9791 -55.6622 -55.2818 -55.2086
   -55.1594 -54.8252 -41.0995 -41.0915 -41.0846 -41.0845 -41.0845 -41.0844
   -41.0844 -41.0844 -41.0843 -41.0841 -41.0837 -41.0837 -41.0837 -41.0837
   -41.0705 -41.0675 -41.0577 -41.0576 -41.0575 -41.0575 -41.0569 -41.0569
   -41.0543 -41.0525 -41.0456 -41.0455 -41.0455 -41.0455 -41.0448 -41.0448
   -41.0285 -41.0169 -40.9949 -40.9949 -40.9948 -40.9948 -40.9948 -40.9948
   -40.9948 -40.9948 -40.9941 -40.9941 -40.9941 -40.9941 -40.9927 -40.9860
   -40.9826 -40.9768 -40.9746 -40.9555 -40.9532 -40.9363 -40.9361 -40.9360
   -40.9359 -40.9354 -40.9353 -40.9331 -40.9267 -40.9265 -40.9265 -40.9265
   -40.9257 -40.9257 -40.9227 -40.9188 -40.9153 -40.9153 -40.9151 -40.9151
   -40.9145 -40.9145 -40.9078 -40.9048 -40.9031 -40.8883 -40.8859 -40.8859
   -40.8856 -40.8855 -40.8855 -40.8855 -40.8855 -40.8855 -40.8848 -40.8848
   -40.8848 -40.8848 -40.8825 -40.8771 -40.8769 -40.8768 -40.8767 -40.8765
   -40.8761 -40.8760 -40.8731 -40.8681 -40.8653 -40.8652 -40.8651 -40.8650
   -40.8650 -40.8649 -40.8648 -40.8646 -40.8645 -40.8645 -40.8644 -40.8644
   -40.8643 -40.8642 -40.8642 -40.8638 -40.8637 -40.8637 -40.8637 -40.8635
   -40.8560 -40.8560 -40.8558 -40.8558 -40.8551 -40.8550 -40.8513 -40.8484
   -40.8462 -40.8374 -40.8352 -40.8344 -40.8343 -40.8342 -40.8341 -40.8341
   -40.8341 -40.8341 -40.8339 -40.8332 -40.8332 -40.8332 -40.8332 -40.8274
   -40.8199 -40.8166 -40.7995 -40.7995 -40.7994 -40.7994 -40.7994 -40.7994
   -40.7994 -40.7994 -40.7984 -40.7984 -40.7984 -40.7984 -40.7968 -40.7874
   -40.7872 -40.7872 -40.7872 -40.7872 -40.7863 -40.7863 -40.7837 -40.7810
   -40.7771 -40.7681 -40.7679 -40.7679 -40.7678 -40.7670 -40.7669 -40.7567
   -40.7551 -40.7510 -40.7509 -40.7509 -40.7509 -40.7499 -40.7499 -40.7492
   -40.7264 -40.7223 -40.7204 -40.7203 -40.7202 -40.7202 -40.7193 -40.7192
   -40.7109 -40.6854 -20.3006 -20.0530 -20.0335 -19.9956 -19.9383 -19.9038
   -19.8278 -19.8119 -19.7028 -19.6217 -19.5959 -19.5710 -19.5078 -19.4818
   -19.4041 -19.3883 -19.3088 -19.0226 -18.9788 -18.9353 -18.9074 -18.8996
   -18.8875 -18.8818 -18.8810 -18.8608 -18.8534 -18.8284 -18.8192 -18.8082
   -18.7936 -18.7855 -18.7583 -18.7435 -18.7349 -18.7182 -18.7136 -18.7092
   -18.6947 -18.6824 -18.6781 -18.6443 -18.6405 -18.6378 -18.6324 -18.5991
   -18.5766 -18.5732 -18.5690 -18.5386 -18.5275 -18.5234 -18.5003 -18.4817
   -18.4744 -18.4537 -18.4193 -18.4129 -18.4070 -18.3956 -18.3633 -18.3518
   -18.3429 -18.3270 -18.2969 -18.2807 -18.2747 -18.2716 -18.2662 -18.2639
   -18.2609 -18.2592 -18.2491 -18.2364 -18.2354 -18.2331 -18.2295 -18.2271
   -18.2189 -18.2126 -18.2106 -18.2033 -18.2012 -18.1896 -18.1726 -18.1720
   -18.1687 -18.1648 -18.1622 -18.1602 -18.1565 -18.1510 -18.1491 -18.1392
   -18.1124 -18.1086 -18.1008 -18.0972 -18.0934 -18.0807 -18.0567 -18.0547
   -18.0491 -18.0362 -18.0133 -18.0113 -18.0088 -18.0014 -17.9921 -17.9839
   -17.9830 -17.9826 -17.9821 -17.9803 -17.9799 -17.9729 -17.9670 -17.9626
   -17.9481 -17.9473 -17.9240 -17.9238 -17.9044 -17.9038 -17.8899 -17.8892
   -17.8827 -17.8826 -12.4076 -12.1597 -11.9317 -11.8952 -11.8721 -11.8027
   -11.7024 -11.6829 -11.6644 -11.6631 -11.6574 -11.6430 -11.6377 -11.6322
   -11.6196 -11.5782 -11.5642 -11.5506 -11.5465 -11.5388 -11.5268 -11.4997
   -11.4848 -11.4808 -11.4618 -11.4453 -11.4420 -11.4369 -11.4302 -11.4240
   -11.4224 -11.4149 -11.4122 -11.3748 -11.3672 -11.3583 -11.3553 -11.3446
   -11.3345 -11.3301 -11.3291 -11.3202 -11.3099 -11.3095 -11.2893 -11.2802
   -11.2610 -11.2416 -11.2321 -11.2256 -11.2197 -11.1830 -11.1567 -11.1527
   -11.1175 -11.1090 -11.0934 -11.0753 -11.0724 -11.0676 -11.0543 -11.0218
   -11.0186 -11.0003 -10.9969 -10.9924 -10.9813 -10.9755 -10.9746 -10.9742
   -10.9725 -10.9704 -10.9636 -10.9614 -10.9576 -10.9572 -10.9551 -10.9544
   -10.9481 -10.9472 -10.9441 -10.9409 -10.9083 -10.9070 -10.9060 -10.9057
   -10.8743 -10.7851 -10.7208 -10.7047 -10.6935 -10.6867 -10.6709 -10.6450
   -10.5890 -10.5607 -10.5056 -10.4782 -10.4190 -10.4128 -10.3328 -10.3155
   -10.2987 -10.2949 -10.2779 -10.2700 -10.2558 -10.2485 -10.2178 -10.2136
   -10.1975 -10.1971 -10.1964 -10.1917 -10.1799 -10.1779 -10.1524 -10.1391
   -10.0997 -10.0944 -10.0898 -10.0806 -10.0718 -10.0613 -10.0547 -10.0511
   -10.0295 -10.0260 -10.0095 -10.0026  -9.9742  -9.9616  -9.9506  -9.9422
    -9.9304  -9.9262  -9.9018  -9.9008  -9.8759  -9.8642  -9.8499  -9.8441
    -9.8243  -9.8218  -9.7967  -9.7823  -9.7792  -9.7671  -9.7626  -9.7359
    -9.7299  -9.7274  -9.7065  -9.6982  -9.6966  -9.6907  -9.6640  -9.6567
    -9.6513  -9.6392  -9.6365  -9.6321  -9.6264  -9.6218  -9.6172  -9.6124
    -9.5963  -9.5882  -9.5744  -9.5564  -9.5210  -9.5112  -9.4699  -9.4531
    -9.4365  -9.3957  -9.3870  -9.3729  -9.3697  -9.3655  -9.3502  -9.3393
    -9.3244  -9.3197  -9.3054  -9.2993  -9.2891  -9.2740  -9.2504  -9.2418
    -9.2201  -9.2168  -9.2056  -9.2020  -9.1944  -9.1915  -9.1703  -9.1545
    -9.1441  -9.1369  -9.1229  -9.1159  -9.1118  -9.1068  -9.0985  -9.0890
    -9.0654  -9.0589  -9.0543  -9.0519  -9.0490  -9.0485  -9.0399  -9.0363
    -9.0324  -9.0310  -9.0271  -9.0208  -9.0190  -9.0175  -9.0122  -9.0032
    -9.0028  -8.9931  -8.9794  -8.9733  -8.9565  -8.9557  -8.9542  -8.9538
    -8.9481  -8.9468  -8.9386  -8.9262  -8.9242  -8.9036  -8.8965  -8.8942
    -8.8924  -8.8804  -8.8672  -8.8306  -8.8208  -8.8106  -8.7885  -8.7608
    -8.7448  -8.6899  -8.6683  -8.6624  -8.6261  -8.6060  -8.6012  -8.5506
    -8.5224  -8.5065  -8.4517  -8.4469  -8.4109  -8.4026  -8.3509  -8.2910
    -8.2907  -8.2845  -8.2816  -8.2778  -8.2704  -8.2693  -8.2341  -8.2202
    -8.2128  -8.1496  -8.1331  -8.1209  -8.0883  -8.0566  -8.0181  -8.0092
    -8.0090  -8.0017  -7.9957  -7.9870  -7.9828  -7.9798  -7.9694  -7.9659
    -7.9639  -7.9609  -7.9592  -7.9571  -7.9505  -7.9471  -7.9443  -7.9425
    -7.9350  -7.9329  -7.9319  -7.9302  -7.9279  -7.9270  -7.9244  -7.9215
    -7.9211  -7.9173  -7.9066  -7.9008  -7.8983  -7.8928  -7.8893  -7.8830
    -7.8787  -7.8618  -7.8600  -7.8591  -7.8580  -7.8427  -7.8304  -7.8298
    -7.8292  -7.8272  -7.8225  -7.8119  -7.8077  -7.7903  -7.7833  -7.7768
    -7.7714  -7.7702  -7.7671  -7.7613  -7.7584  -7.7481  -7.7473  -7.7355
    -7.7299  -7.7272  -7.7254  -7.7193  -7.7171  -7.7110  -7.6876  -7.6386
    -7.6254  -7.6218  -7.6183  -7.6134  -7.5870  -7.5694  -7.5353  -7.4756
    -7.3956  -7.3729  -7.3536  -7.3385  -7.3317  -7.3253  -7.3205  -7.3155
    -7.2876  -7.2731  -7.2705  -7.2652  -7.2499  -7.2436  -7.2180  -7.2017
    -7.1906  -7.1881  -7.1727  -7.1619  -7.1567  -7.1416  -7.1393  -7.1212
    -7.1100  -7.0806  -7.0779  -7.0586  -7.0554  -7.0402  -7.0255  -7.0224
    -7.0205  -6.9997  -6.9869  -6.9762  -6.9556  -6.9354  -6.9229  -6.9049
    -6.8783  -6.8561  -6.8400  -6.8143  -6.7990  -6.7876  -6.7821  -6.7730
    -6.7690  -6.7672  -6.7667  -6.7597  -6.7515  -6.7505  -6.7497  -6.7479
    -6.7425  -6.7421  -6.7417  -6.7415  -6.7355  -6.7126  -6.6701  -6.6532
    -6.6420  -6.5820  -6.5672  -6.5598  -6.4946  -6.4917  -6.4888  -6.4792
    -6.4713  -6.4603  -6.4503  -6.4436  -6.4411  -6.4400  -6.4389  -6.4353
    -6.4346  -6.4172  -6.4128  -6.3987  -6.3940  -6.3906  -6.3806  -6.3672
    -6.3627  -6.3603  -6.3597  -6.2741  -6.1888  -6.1578  -6.1556  -6.1128
    -6.1043  -6.0607  -6.0571  -6.0428  -6.0265  -6.0073  -5.9991  -5.8952
    -5.8568  -5.8000  -5.7592  -5.7454  -5.5966  -5.4459  -5.2389  -5.2107
    -5.1258  -4.8683  -4.2563  -4.2530  -4.2525  -4.2351  -4.1058  -4.0948
    -4.0854  -4.0822  -4.0779  -4.0370  -4.0117  -4.0043  -3.9972  -3.9894
    -3.9774  -3.9733  -3.9618  -3.9608  -3.9555  -3.9267  -3.8709  -3.8502
    -3.8488  -3.8020  -3.7783  -3.7661  -3.7627  -3.7613  -3.7597  -3.7415
    -3.7185  -3.7122  -3.6997  -3.6969  -3.6854  -3.6789  -3.6764  -3.6718
    -3.6550  -3.6471  -3.6465  -3.6388  -3.6343  -3.6334  -3.6278  -3.6159
    -3.6112  -3.6057  -3.5971  -3.5924  -3.5825  -3.5793  -3.5760  -3.5672
    -3.5253  -3.5203  -3.5138  -3.5107  -3.5079  -3.5067  -3.5048  -3.4998
    -3.4856  -3.4708  -3.4622  -3.4557  -3.4537  -3.4484  -3.4423  -3.4403
    -3.4372  -3.4359  -3.4211  -3.4174  -3.4111  -3.4088  -3.3949  -3.3910
    -3.3882  -3.3820  -3.3769  -3.3734  -3.3715  -3.3594  -3.3572  -3.3466
    -3.3441  -3.3366  -3.3310  -3.3234  -3.3234  -3.3228  -3.3135  -3.3042
    -3.2699  -3.2593  -3.2544  -3.2345  -3.2297  -3.2273  -3.2228  -3.2216
    -3.1919  -3.1864  -3.1862  -3.1844  -3.1839  -3.1817  -3.1770  -3.1756
    -3.1728  -3.1688  -3.1647  -3.1589  -3.1548  -3.1504  -3.1439  -3.1394
    -3.1378  -3.1320  -3.1298  -3.1233  -3.1220  -3.1187  -3.1104  -3.1102
    -3.1070  -3.1063  -3.0963  -3.0928  -3.0899  -3.0750  -3.0588  -3.0565
    -3.0497  -3.0451  -3.0412  -3.0351  -3.0269  -3.0148  -2.9582  -2.9540
    -2.9510  -2.9485  -2.9010  -2.8884  -2.8814  -2.8714  -2.7845  -2.7734
    -2.7515  -2.7396  -2.7262  -2.7210  -2.7158  -2.7071  -2.7003  -2.6970
    -2.6905  -2.6873  -2.6863  -2.6813  -2.6293  -2.5901  -2.5724  -2.5650
    -2.5589  -2.5567  -2.5529  -2.5476  -2.5353  -2.5291  -2.5044  -2.5035

          k =-0.5000-0.2887 0.0000 (386352 PWs)   bands (ev):

  -103.5137-101.4615 -89.3137 -71.9409 -71.9287 -71.8705 -71.8087 -71.7938
   -71.7693 -71.7624 -69.9398 -69.9367 -69.8381 -69.8315 -69.7991 -69.7439
   -69.7425 -66.8141 -66.7869 -66.7826 -66.7825 -66.7824 -66.7824 -66.7811
   -66.7811 -66.7767 -66.7744 -66.7719 -66.7719 -66.7717 -66.7717 -66.7704
   -66.7704 -66.7662 -66.7646 -66.7569 -66.7569 -66.7567 -66.7566 -66.7566
   -66.7566 -66.7566 -66.7566 -66.7553 -66.7553 -66.7553 -66.7553 -66.7548
   -66.7524 -66.7523 -66.7522 -66.7522 -66.7520 -66.7509 -66.7509 -66.7501
   -66.7473 -66.7462 -66.7461 -66.7460 -66.7460 -66.7459 -66.7459 -66.7459
   -66.7459 -66.7446 -66.7446 -66.7446 -66.7446 -66.7416 -66.7416 -66.7415
   -66.7415 -66.7402 -66.7402 -66.7368 -66.7331 -66.7292 -66.7074 -66.7046
   -66.6965 -57.8726 -57.7311 -57.4680 -55.9791 -55.6622 -55.2818 -55.2086
   -55.1594 -54.8252 -41.0890 -41.0852 -41.0845 -41.0845 -41.0844 -41.0844
   -41.0844 -41.0844 -41.0843 -41.0843 -41.0837 -41.0837 -41.0837 -41.0837
   -41.0785 -41.0737 -41.0667 -41.0576 -41.0576 -41.0576 -41.0575 -41.0569
   -41.0569 -41.0513 -41.0456 -41.0455 -41.0455 -41.0455 -41.0448 -41.0448
   -41.0342 -41.0112 -40.9949 -40.9949 -40.9948 -40.9948 -40.9948 -40.9948
   -40.9948 -40.9948 -40.9941 -40.9941 -40.9941 -40.9941 -40.9895 -40.9863
   -40.9801 -40.9730 -40.9676 -40.9591 -40.9508 -40.9362 -40.9361 -40.9360
   -40.9359 -40.9354 -40.9353 -40.9334 -40.9267 -40.9265 -40.9265 -40.9265
   -40.9257 -40.9257 -40.9231 -40.9162 -40.9154 -40.9153 -40.9151 -40.9151
   -40.9145 -40.9145 -40.9106 -40.9069 -40.8985 -40.8908 -40.8858 -40.8858
   -40.8856 -40.8856 -40.8855 -40.8855 -40.8855 -40.8855 -40.8848 -40.8848
   -40.8848 -40.8848 -40.8844 -40.8770 -40.8770 -40.8768 -40.8768 -40.8767
   -40.8761 -40.8760 -40.8722 -40.8671 -40.8652 -40.8651 -40.8650 -40.8650
   -40.8648 -40.8647 -40.8646 -40.8645 -40.8645 -40.8645 -40.8644 -40.8644
   -40.8642 -40.8642 -40.8638 -40.8638 -40.8637 -40.8637 -40.8632 -40.8613
   -40.8560 -40.8560 -40.8558 -40.8558 -40.8551 -40.8550 -40.8522 -40.8508
   -40.8471 -40.8403 -40.8352 -40.8344 -40.8342 -40.8341 -40.8341 -40.8341
   -40.8341 -40.8341 -40.8340 -40.8334 -40.8332 -40.8332 -40.8332 -40.8332
   -40.8222 -40.8133 -40.7995 -40.7994 -40.7994 -40.7994 -40.7994 -40.7994
   -40.7994 -40.7993 -40.7984 -40.7984 -40.7984 -40.7984 -40.7978 -40.7935
   -40.7873 -40.7872 -40.7872 -40.7872 -40.7863 -40.7863 -40.7840 -40.7800
   -40.7693 -40.7681 -40.7679 -40.7679 -40.7679 -40.7670 -40.7669 -40.7618
   -40.7572 -40.7510 -40.7509 -40.7509 -40.7509 -40.7499 -40.7499 -40.7400
   -40.7334 -40.7204 -40.7203 -40.7202 -40.7202 -40.7193 -40.7192 -40.7107
   -40.7019 -40.6990 -20.3021 -20.0514 -20.0335 -19.9926 -19.9381 -19.9013
   -19.8277 -19.8110 -19.7100 -19.6244 -19.5961 -19.5736 -19.5080 -19.4835
   -19.4037 -19.3889 -19.3016 -19.0027 -18.9884 -18.9341 -18.9116 -18.9025
   -18.8875 -18.8820 -18.8794 -18.8737 -18.8471 -18.8285 -18.8184 -18.8098
   -18.7942 -18.7847 -18.7561 -18.7422 -18.7346 -18.7168 -18.7158 -18.7092
   -18.6936 -18.6810 -18.6784 -18.6442 -18.6402 -18.6376 -18.6324 -18.5983
   -18.5762 -18.5723 -18.5699 -18.5418 -18.5386 -18.5159 -18.4996 -18.4822
   -18.4789 -18.4426 -18.4201 -18.4152 -18.4087 -18.3948 -18.3636 -18.3514
   -18.3445 -18.3255 -18.2970 -18.2819 -18.2748 -18.2716 -18.2654 -18.2641
   -18.2612 -18.2577 -18.2491 -18.2364 -18.2351 -18.2334 -18.2299 -18.2294
   -18.2194 -18.2125 -18.2107 -18.2028 -18.2001 -18.1904 -18.1739 -18.1712
   -18.1692 -18.1648 -18.1624 -18.1604 -18.1560 -18.1513 -18.1490 -18.1405
   -18.1111 -18.1100 -18.1009 -18.0976 -18.0923 -18.0809 -18.0558 -18.0544
   -18.0478 -18.0369 -18.0133 -18.0108 -18.0078 -18.0012 -17.9910 -17.9837
   -17.9827 -17.9823 -17.9819 -17.9806 -17.9790 -17.9719 -17.9663 -17.9632
   -17.9469 -17.9457 -17.9243 -17.9233 -17.9065 -17.9051 -17.8911 -17.8906
   -17.8827 -17.8827 -12.4184 -12.1453 -11.9219 -11.8803 -11.8771 -11.8127
   -11.7108 -11.6798 -11.6681 -11.6607 -11.6572 -11.6461 -11.6350 -11.6324
   -11.6099 -11.5896 -11.5697 -11.5526 -11.5401 -11.5319 -11.5246 -11.5010
   -11.4905 -11.4802 -11.4664 -11.4457 -11.4426 -11.4336 -11.4297 -11.4247
   -11.4220 -11.4162 -11.4120 -11.3755 -11.3693 -11.3589 -11.3567 -11.3384
   -11.3351 -11.3303 -11.3292 -11.3178 -11.3099 -11.3095 -11.2924 -11.2831
   -11.2636 -11.2440 -11.2294 -11.2252 -11.2177 -11.1973 -11.1684 -11.1239
   -11.1078 -11.1029 -11.0974 -11.0875 -11.0685 -11.0581 -11.0486 -11.0384
   -11.0224 -10.9997 -10.9973 -10.9935 -10.9859 -10.9766 -10.9744 -10.9741
   -10.9734 -10.9722 -10.9686 -10.9604 -10.9580 -10.9566 -10.9554 -10.9544
   -10.9468 -10.9462 -10.9443 -10.9429 -10.9079 -10.9065 -10.9062 -10.9059
   -10.8688 -10.8091 -10.7097 -10.6996 -10.6927 -10.6853 -10.6583 -10.6347
   -10.5792 -10.5538 -10.5459 -10.4849 -10.4280 -10.4154 -10.3286 -10.3173
   -10.2978 -10.2917 -10.2740 -10.2698 -10.2551 -10.2405 -10.2178 -10.2119
   -10.1991 -10.1967 -10.1925 -10.1910 -10.1822 -10.1740 -10.1547 -10.1339
   -10.1005 -10.0952 -10.0895 -10.0726 -10.0679 -10.0605 -10.0552 -10.0487
   -10.0385 -10.0242 -10.0173 -10.0018  -9.9826  -9.9639  -9.9490  -9.9394
    -9.9297  -9.9268  -9.9003  -9.8958  -9.8898  -9.8603  -9.8516  -9.8430
    -9.8218  -9.8159  -9.7899  -9.7833  -9.7819  -9.7670  -9.7644  -9.7386
    -9.7270  -9.7096  -9.7042  -9.7009  -9.6951  -9.6821  -9.6633  -9.6552
    -9.6514  -9.6379  -9.6362  -9.6325  -9.6279  -9.6221  -9.6177  -9.6048
    -9.5949  -9.5865  -9.5681  -9.5539  -9.5274  -9.5128  -9.4616  -9.4567
    -9.4349  -9.4256  -9.3841  -9.3818  -9.3680  -9.3638  -9.3538  -9.3300
    -9.3245  -9.3175  -9.3024  -9.2971  -9.2807  -9.2774  -9.2705  -9.2489
    -9.2236  -9.2137  -9.2068  -9.2003  -9.1942  -9.1935  -9.1762  -9.1573
    -9.1457  -9.1374  -9.1189  -9.1151  -9.1102  -9.1060  -9.0984  -9.0870
    -9.0643  -9.0580  -9.0572  -9.0521  -9.0494  -9.0474  -9.0402  -9.0333
    -9.0328  -9.0298  -9.0276  -9.0245  -9.0195  -9.0176  -9.0115  -9.0032
    -9.0028  -8.9987  -8.9739  -8.9694  -8.9651  -8.9556  -8.9536  -8.9520
    -8.9490  -8.9473  -8.9422  -8.9261  -8.9231  -8.8982  -8.8966  -8.8935
    -8.8913  -8.8855  -8.8649  -8.8382  -8.8182  -8.8086  -8.7953  -8.7713
    -8.7474  -8.6939  -8.6680  -8.6655  -8.6209  -8.6082  -8.5834  -8.5363
    -8.5223  -8.5022  -8.4771  -8.4466  -8.4285  -8.3804  -8.3246  -8.2907
    -8.2907  -8.2821  -8.2816  -8.2740  -8.2704  -8.2690  -8.2354  -8.2257
    -8.2155  -8.1667  -8.1317  -8.1262  -8.0680  -8.0534  -8.0231  -8.0180
    -8.0046  -8.0020  -7.9939  -7.9877  -7.9774  -7.9761  -7.9717  -7.9656
    -7.9652  -7.9617  -7.9602  -7.9560  -7.9514  -7.9455  -7.9446  -7.9399
    -7.9376  -7.9329  -7.9311  -7.9295  -7.9282  -7.9256  -7.9252  -7.9222
    -7.9210  -7.9197  -7.9065  -7.8999  -7.8963  -7.8925  -7.8899  -7.8834
    -7.8810  -7.8606  -7.8596  -7.8591  -7.8590  -7.8422  -7.8299  -7.8292
    -7.8279  -7.8267  -7.8227  -7.8105  -7.8070  -7.7920  -7.7817  -7.7764
    -7.7713  -7.7701  -7.7629  -7.7586  -7.7573  -7.7488  -7.7468  -7.7410
    -7.7271  -7.7271  -7.7251  -7.7204  -7.7113  -7.7084  -7.6923  -7.6317
    -7.6237  -7.6229  -7.6201  -7.6082  -7.5999  -7.5524  -7.5448  -7.4751
    -7.4483  -7.3747  -7.3467  -7.3380  -7.3324  -7.3294  -7.3177  -7.3090
    -7.2886  -7.2749  -7.2699  -7.2650  -7.2539  -7.2410  -7.2182  -7.2065
    -7.1892  -7.1853  -7.1787  -7.1625  -7.1532  -7.1422  -7.1377  -7.1231
    -7.1062  -7.0807  -7.0760  -7.0569  -7.0555  -7.0383  -7.0261  -7.0236
    -7.0189  -6.9968  -6.9877  -6.9743  -6.9560  -6.9277  -6.9211  -6.9046
    -6.8715  -6.8504  -6.8350  -6.8196  -6.8048  -6.7888  -6.7812  -6.7716
    -6.7687  -6.7675  -6.7667  -6.7574  -6.7512  -6.7503  -6.7498  -6.7471
    -6.7421  -6.7419  -6.7419  -6.7415  -6.7253  -6.7095  -6.6963  -6.6542
    -6.6441  -6.5824  -6.5680  -6.5510  -6.4944  -6.4897  -6.4888  -6.4778
    -6.4686  -6.4637  -6.4463  -6.4421  -6.4408  -6.4396  -6.4370  -6.4352
    -6.4321  -6.4169  -6.4141  -6.4038  -6.3947  -6.3895  -6.3754  -6.3675
    -6.3620  -6.3608  -6.3583  -6.2886  -6.1806  -6.1596  -6.1519  -6.1151
    -6.1015  -6.0654  -6.0497  -6.0432  -6.0343  -6.0059  -6.0043  -5.8973
    -5.8583  -5.7971  -5.7594  -5.7435  -5.5971  -5.4489  -5.2406  -5.2131
    -5.1240  -4.8632  -4.2554  -4.2548  -4.2472  -4.2371  -4.1045  -4.0918
    -4.0859  -4.0841  -4.0715  -4.0426  -4.0167  -4.0039  -3.9980  -3.9881
    -3.9777  -3.9718  -3.9621  -3.9606  -3.9587  -3.9258  -3.8722  -3.8517
    -3.8463  -3.8137  -3.7772  -3.7666  -3.7638  -3.7611  -3.7590  -3.7376
    -3.7205  -3.7118  -3.7004  -3.6921  -3.6867  -3.6806  -3.6776  -3.6712
    -3.6586  -3.6503  -3.6455  -3.6374  -3.6354  -3.6338  -3.6254  -3.6219
    -3.6118  -3.6014  -3.5982  -3.5911  -3.5787  -3.5778  -3.5696  -3.5638
    -3.5321  -3.5226  -3.5143  -3.5111  -3.5079  -3.5068  -3.5047  -3.5013
    -3.4825  -3.4707  -3.4657  -3.4595  -3.4515  -3.4472  -3.4451  -3.4411
    -3.4385  -3.4348  -3.4288  -3.4190  -3.4104  -3.4050  -3.3984  -3.3922
    -3.3860  -3.3817  -3.3744  -3.3735  -3.3714  -3.3612  -3.3565  -3.3467
    -3.3406  -3.3366  -3.3305  -3.3243  -3.3234  -3.3233  -3.3126  -3.2985
    -3.2672  -3.2602  -3.2529  -3.2342  -3.2287  -3.2270  -3.2229  -3.2202
    -3.1893  -3.1864  -3.1862  -3.1849  -3.1829  -3.1828  -3.1766  -3.1741
    -3.1721  -3.1707  -3.1663  -3.1602  -3.1540  -3.1525  -3.1425  -3.1395
    -3.1362  -3.1322  -3.1302  -3.1254  -3.1228  -3.1185  -3.1104  -3.1100
    -3.1064  -3.1050  -3.0961  -3.0931  -3.0864  -3.0798  -3.0596  -3.0561
    -3.0489  -3.0467  -3.0388  -3.0359  -3.0302  -3.0194  -2.9585  -2.9534
    -2.9521  -2.9484  -2.9116  -2.8874  -2.8807  -2.8702  -2.7859  -2.7706
    -2.7524  -2.7351  -2.7285  -2.7221  -2.7187  -2.7090  -2.7020  -2.6923
    -2.6893  -2.6879  -2.6836  -2.6783  -2.6128  -2.5777  -2.5693  -2.5634
    -2.5588  -2.5535  -2.5469  -2.5436  -2.5392  -2.5293  -2.5041  -2.5023

          k =-0.5000-0.8660 0.0000 (386352 PWs)   bands (ev):

  -103.5137-101.4615 -89.3137 -71.9409 -71.9287 -71.8705 -71.8087 -71.7938
   -71.7693 -71.7624 -69.9398 -69.9367 -69.8381 -69.8315 -69.7991 -69.7439
   -69.7425 -66.8141 -66.7856 -66.7828 -66.7824 -66.7824 -66.7823 -66.7811
   -66.7811 -66.7793 -66.7721 -66.7719 -66.7719 -66.7717 -66.7717 -66.7704
   -66.7704 -66.7693 -66.7605 -66.7580 -66.7571 -66.7571 -66.7566 -66.7566
   -66.7566 -66.7566 -66.7566 -66.7564 -66.7553 -66.7553 -66.7553 -66.7553
   -66.7526 -66.7522 -66.7522 -66.7521 -66.7514 -66.7509 -66.7509 -66.7487
   -66.7477 -66.7467 -66.7461 -66.7460 -66.7459 -66.7459 -66.7459 -66.7459
   -66.7454 -66.7446 -66.7446 -66.7446 -66.7446 -66.7417 -66.7416 -66.7415
   -66.7415 -66.7402 -66.7402 -66.7364 -66.7334 -66.7295 -66.7077 -66.7042
   -66.6965 -57.8726 -57.7311 -57.4680 -55.9791 -55.6622 -55.2818 -55.2086
   -55.1594 -54.8252 -41.1025 -41.0923 -41.0848 -41.0845 -41.0844 -41.0844
   -41.0844 -41.0844 -41.0843 -41.0840 -41.0837 -41.0837 -41.0837 -41.0837
   -41.0707 -41.0578 -41.0576 -41.0576 -41.0575 -41.0575 -41.0569 -41.0569
   -41.0519 -41.0458 -41.0456 -41.0455 -41.0455 -41.0455 -41.0448 -41.0448
   -41.0370 -41.0262 -40.9949 -40.9949 -40.9948 -40.9948 -40.9948 -40.9948
   -40.9948 -40.9948 -40.9941 -40.9941 -40.9941 -40.9941 -40.9932 -40.9887
   -40.9809 -40.9783 -40.9734 -40.9582 -40.9505 -40.9363 -40.9360 -40.9360
   -40.9360 -40.9353 -40.9353 -40.9334 -40.9266 -40.9266 -40.9265 -40.9265
   -40.9257 -40.9257 -40.9207 -40.9163 -40.9153 -40.9153 -40.9151 -40.9151
   -40.9145 -40.9145 -40.9122 -40.9031 -40.8948 -40.8916 -40.8860 -40.8860
   -40.8855 -40.8855 -40.8855 -40.8855 -40.8855 -40.8854 -40.8848 -40.8848
   -40.8848 -40.8848 -40.8848 -40.8772 -40.8768 -40.8768 -40.8768 -40.8761
   -40.8761 -40.8743 -40.8717 -40.8682 -40.8656 -40.8653 -40.8651 -40.8651
   -40.8650 -40.8650 -40.8648 -40.8647 -40.8645 -40.8645 -40.8645 -40.8644
   -40.8644 -40.8642 -40.8642 -40.8642 -40.8638 -40.8637 -40.8637 -40.8637
   -40.8560 -40.8560 -40.8558 -40.8558 -40.8551 -40.8550 -40.8524 -40.8492
   -40.8450 -40.8399 -40.8350 -40.8347 -40.8344 -40.8341 -40.8341 -40.8341
   -40.8341 -40.8339 -40.8336 -40.8332 -40.8332 -40.8332 -40.8332 -40.8325
   -40.8146 -40.8063 -40.7995 -40.7994 -40.7994 -40.7994 -40.7994 -40.7994
   -40.7994 -40.7994 -40.7984 -40.7984 -40.7984 -40.7984 -40.7942 -40.7927
   -40.7881 -40.7875 -40.7872 -40.7872 -40.7871 -40.7863 -40.7863 -40.7812
   -40.7731 -40.7684 -40.7679 -40.7679 -40.7676 -40.7670 -40.7669 -40.7612
   -40.7561 -40.7510 -40.7509 -40.7509 -40.7509 -40.7499 -40.7499 -40.7475
   -40.7316 -40.7250 -40.7206 -40.7202 -40.7202 -40.7200 -40.7192 -40.7192
   -40.7072 -40.6829 -20.3048 -20.0494 -20.0333 -19.9874 -19.9377 -19.8961
   -19.8277 -19.8091 -19.7192 -19.6312 -19.5963 -19.5782 -19.5080 -19.4866
   -19.4031 -19.3900 -19.2924 -18.9976 -18.9709 -18.9472 -18.9153 -18.8979
   -18.8874 -18.8818 -18.8795 -18.8638 -18.8604 -18.8250 -18.8181 -18.8101
   -18.7987 -18.7830 -18.7478 -18.7451 -18.7318 -18.7162 -18.7110 -18.7101
   -18.7078 -18.6833 -18.6561 -18.6501 -18.6489 -18.6410 -18.6300 -18.5982
   -18.5766 -18.5731 -18.5641 -18.5569 -18.5345 -18.5237 -18.4941 -18.4781
   -18.4740 -18.4677 -18.4247 -18.4081 -18.3992 -18.3921 -18.3694 -18.3517
   -18.3321 -18.3287 -18.3119 -18.2849 -18.2717 -18.2699 -18.2664 -18.2641
   -18.2621 -18.2586 -18.2399 -18.2370 -18.2356 -18.2343 -18.2309 -18.2283
   -18.2244 -18.2106 -18.2082 -18.2014 -18.1986 -18.1907 -18.1764 -18.1698
   -18.1668 -18.1635 -18.1632 -18.1596 -18.1550 -18.1510 -18.1483 -18.1385
   -18.1202 -18.1005 -18.0986 -18.0965 -18.0883 -18.0805 -18.0596 -18.0497
   -18.0444 -18.0372 -18.0136 -18.0108 -18.0061 -18.0013 -17.9912 -17.9862
   -17.9836 -17.9825 -17.9818 -17.9803 -17.9796 -17.9782 -17.9682 -17.9652
   -17.9501 -17.9453 -17.9258 -17.9223 -17.9066 -17.9029 -17.8910 -17.8892
   -17.8828 -17.8826 -12.4288 -12.1843 -11.9036 -11.8855 -11.8362 -11.7811
   -11.6809 -11.6777 -11.6663 -11.6632 -11.6491 -11.6411 -11.6353 -11.6147
   -11.6080 -11.5953 -11.5699 -11.5594 -11.5557 -11.5332 -11.5081 -11.5025
   -11.4983 -11.4791 -11.4644 -11.4594 -11.4544 -11.4394 -11.4252 -11.4229
   -11.4220 -11.4183 -11.4130 -11.3724 -11.3704 -11.3614 -11.3552 -11.3385
   -11.3317 -11.3309 -11.3296 -11.3141 -11.3095 -11.3092 -11.2953 -11.2853
   -11.2674 -11.2578 -11.2336 -11.2311 -11.2085 -11.1989 -11.1641 -11.1472
   -11.1190 -11.1081 -11.0963 -11.0877 -11.0628 -11.0515 -11.0378 -11.0298
   -11.0102 -10.9986 -10.9947 -10.9936 -10.9914 -10.9755 -10.9745 -10.9739
   -10.9733 -10.9731 -10.9643 -10.9622 -10.9583 -10.9582 -10.9542 -10.9539
   -10.9476 -10.9461 -10.9430 -10.9353 -10.9113 -10.9067 -10.9059 -10.9050
   -10.8999 -10.8550 -10.7192 -10.7062 -10.6940 -10.6918 -10.6809 -10.6468
   -10.6160 -10.5519 -10.5159 -10.4256 -10.4048 -10.3765 -10.3318 -10.3186
   -10.3042 -10.2861 -10.2797 -10.2678 -10.2577 -10.2423 -10.2245 -10.2139
   -10.2050 -10.2028 -10.1920 -10.1871 -10.1792 -10.1734 -10.1687 -10.1365
   -10.1115 -10.1065 -10.0906 -10.0830 -10.0778 -10.0651 -10.0621 -10.0565
   -10.0453 -10.0379 -10.0111  -9.9915  -9.9801  -9.9629  -9.9589  -9.9443
    -9.9370  -9.9299  -9.9104  -9.8892  -9.8844  -9.8743  -9.8583  -9.8345
    -9.8265  -9.8241  -9.7932  -9.7918  -9.7759  -9.7660  -9.7412  -9.7234
    -9.7177  -9.7146  -9.7075  -9.6997  -9.6955  -9.6766  -9.6554  -9.6519
    -9.6479  -9.6420  -9.6388  -9.6250  -9.6221  -9.6199  -9.6040  -9.5944
    -9.5900  -9.5870  -9.5440  -9.5299  -9.5053  -9.4996  -9.4744  -9.4630
    -9.4283  -9.4195  -9.3823  -9.3769  -9.3715  -9.3685  -9.3515  -9.3440
    -9.3185  -9.3152  -9.3108  -9.2999  -9.2875  -9.2671  -9.2493  -9.2379
    -9.2291  -9.2239  -9.2107  -9.2071  -9.1969  -9.1876  -9.1755  -9.1597
    -9.1506  -9.1328  -9.1220  -9.1170  -9.1149  -9.1072  -9.0875  -9.0808
    -9.0788  -9.0605  -9.0544  -9.0527  -9.0484  -9.0474  -9.0458  -9.0441
    -9.0371  -9.0321  -9.0314  -9.0212  -9.0177  -9.0099  -9.0079  -9.0033
    -9.0025  -8.9895  -8.9842  -8.9699  -8.9665  -8.9570  -8.9541  -8.9472
    -8.9460  -8.9451  -8.9369  -8.9270  -8.9208  -8.8990  -8.8967  -8.8945
    -8.8907  -8.8838  -8.8671  -8.8490  -8.8196  -8.8065  -8.7912  -8.7549
    -8.7375  -8.6977  -8.6669  -8.6649  -8.6158  -8.6030  -8.5815  -8.5540
    -8.5193  -8.5136  -8.4701  -8.4590  -8.4194  -8.3665  -8.3161  -8.2916
    -8.2906  -8.2861  -8.2814  -8.2772  -8.2702  -8.2686  -8.2403  -8.2177
    -8.2143  -8.1788  -8.1486  -8.1338  -8.1257  -8.0890  -8.0137  -8.0102
    -8.0033  -8.0007  -7.9925  -7.9856  -7.9792  -7.9786  -7.9688  -7.9669
    -7.9649  -7.9628  -7.9567  -7.9541  -7.9531  -7.9493  -7.9468  -7.9444
    -7.9439  -7.9341  -7.9324  -7.9313  -7.9292  -7.9279  -7.9271  -7.9216
    -7.9216  -7.9165  -7.9091  -7.9025  -7.8984  -7.8956  -7.8888  -7.8849
    -7.8774  -7.8759  -7.8610  -7.8587  -7.8583  -7.8569  -7.8304  -7.8296
    -7.8280  -7.8276  -7.8244  -7.8132  -7.7955  -7.7888  -7.7781  -7.7718
    -7.7715  -7.7674  -7.7611  -7.7585  -7.7548  -7.7495  -7.7467  -7.7300
    -7.7269  -7.7261  -7.7232  -7.7149  -7.7089  -7.7025  -7.6597  -7.6271
    -7.6234  -7.6206  -7.6131  -7.6048  -7.5919  -7.5819  -7.5170  -7.4775
    -7.4516  -7.3807  -7.3364  -7.3311  -7.3296  -7.3265  -7.2913  -7.2898
    -7.2793  -7.2724  -7.2612  -7.2566  -7.2412  -7.2238  -7.2144  -7.2104
    -7.2020  -7.1835  -7.1820  -7.1767  -7.1520  -7.1402  -7.1365  -7.1246
    -7.1034  -7.0870  -7.0808  -7.0627  -7.0576  -7.0389  -7.0339  -7.0276
    -7.0195  -7.0092  -6.9945  -6.9790  -6.9584  -6.9271  -6.9265  -6.9202
[...]
     atom  172 type  2   force =    -0.00000342   -0.00000095    0.00161326
     atom  173 type  2   force =    -0.00000356   -0.00000155   -0.00236289
     atom  174 type  2   force =    -0.00001944   -0.00001469    0.00003940
     atom  175 type  1   force =    -0.00000269   -0.00004505   -0.00002172
     atom  176 type  1   force =     0.00044078   -0.00006946    0.00009688
     atom  177 type  2   force =     0.00035759    0.00019834    0.00043816
     atom  178 type  2   force =    -0.00003369   -0.00000943   -0.00000114
     atom  179 type  2   force =    -0.00000345    0.00000065    0.00003412
     atom  180 type  2   force =     0.00001974    0.00034021   -0.00057456
     atom  181 type  1   force =    -0.00000180   -0.00000182    0.00068389
     atom  182 type  1   force =    -0.00002112   -0.00001943    0.00000254
     atom  183 type  2   force =    -0.00000392   -0.00000134    0.00000140
     atom  184 type  2   force =    -0.00000343   -0.00000126    0.00161338
     atom  185 type  2   force =    -0.00000362   -0.00000162   -0.00236279
     atom  186 type  2   force =    -0.00001554   -0.00001851    0.00003558
     atom  187 type  1   force =     0.00000011   -0.00001913   -0.00001485
     atom  188 type  1   force =    -0.00002730    0.00035243   -0.00001469
     atom  189 type  2   force =    -0.00026733    0.00012813    0.00048895
     atom  190 type  2   force =    -0.00005161   -0.00008743   -0.00008112
     atom  191 type  2   force =    -0.00001384   -0.00006254   -0.00000927
     atom  192 type  2   force =     0.00010670    0.00080832   -0.00029353
     atom  193 type  3   force =    -0.00006061   -0.00025240    0.00043125
     atom  194 type  4   force =    -0.00027893    0.00074664   -0.00069203
     atom  195 type  3   force =    -0.00019849    0.00078475   -0.00076891

     Total force =     0.004143     Total SCF correction =     0.000973
     SCF correction compared to forces is large: reduce conv_thr to get better values
     Energy error            =      8.3E-06 Ry
     Gradient error          =      9.0E-04 Ry/Bohr

     bfgs converged in  52 scf cycles and  51 bfgs steps
     (criteria: energy <  1.0E-04 Ry, force <  1.0E-03 Ry/Bohr)

     End of BFGS Geometry Optimization

     Final energy             =  -35654.9526433601 Ry

     File ./outdir/pwscf.bfgs deleted, as requested
Begin final coordinates

ATOMIC_POSITIONS (angstrom)
Mo               0.0000119917        1.8193638619       -9.1672481230    0   0   0
Mo               1.5756136568        0.9097075315       -3.0554901653    0   0   0
S                0.0000188998        1.8193822938       -4.6232556019    0   0   0
S                1.5756321638        0.9096773839       -7.6014065489    0   0   0
S                1.5756326175        0.9096785128      -10.7330757790    0   0   0
S                0.0000189190        1.8193860094       -1.4877129945    0   0   0
Mo              -0.0031782900        1.8162609597        3.0587451634
Mo               1.5673692810        0.8836724667        9.1790440096
S               -0.0166762852        1.8075807534        7.6336723507
S                1.5715574237        0.9062338237        4.6268271822
S                1.5728213586        0.9066847392        1.4912474304
S               -0.0157510241        1.6839365238       10.8140080472
Mo              -1.5756053507        4.5484193819       -9.1672481230    0   0   0
Mo               0.0000378379        3.6387394919       -3.0554952701    0   0   0
S               -1.5755913433        4.5484363582       -4.6232494962    0   0   0
S                0.0000148214        3.6387329039       -7.6014065489    0   0   0
S                0.0000152751        3.6387340328      -10.7330757790    0   0   0
S               -1.5755906502        4.5484413613       -1.4877305502    0   0   0
Mo              -1.5782214919        4.5450346243        3.0597771092
Mo              -0.0310451139        3.5922372698        9.2235489323
S               -1.5756774140        4.5238941862        7.6366932464
S               -0.0027102067        3.6351580062        4.6275110401
S               -0.0031243438        3.6358062690        1.4910104540
S               -1.6617071506        4.5491153325       10.7768592875
Mo              -3.1512226931        7.2774749019       -9.1672481230    0   0   0
Mo              -1.5755910988        6.3678216792       -3.0555115988    0   0   0
S               -3.1512162438        7.2774954350       -4.6232578178    0   0   0
S               -1.5756025210        6.3677884239       -7.6014065489    0   0   0
S               -1.5756020673        6.3677895528      -10.7330757790    0   0   0
S               -3.1512127704        7.2774877076       -1.4877200710    0   0   0
Mo              -3.1542421186        7.2738629282        3.0594525323
Mo              -1.6084900038        6.3572337858        9.1895771031
S               -3.1602367072        7.2527774651        7.5964344138
S               -1.5783061234        6.3642420905        4.6279363374
S               -1.5784638227        6.3643355157        1.4917265865
S               -3.1906407953        7.2720124465       10.7423986864
Mo              -4.7268400355       10.0065304219       -9.1672481230    0   0   0
Mo              -3.1512405618        9.0968403586       -3.0554816746    0   0   0
S               -4.7268341792       10.0065523623       -4.6232463762    0   0   0
S               -3.1512198634        9.0968439439       -7.6014065489    0   0   0
S               -3.1512194097        9.0968450728      -10.7330757790    0   0   0
S               -4.7268370797       10.0065537885       -1.4877176751    0   0   0
Mo              -4.7301241928       10.0031481453        3.0590223611
Mo              -3.1669100929        9.0773222646        9.1604168767
S               -4.7495267914        9.9880176502        7.5997692976
S               -3.1547061850        9.0931872568        4.6268894689
S               -3.1541378487        9.0933709861        1.4914330271
S               -4.7338771796        9.9721150251       10.7396251660
Mo               3.1512517547        1.8193638619       -9.1672481230    0   0   0
Mo               4.7269020221        0.9097289540       -3.0554823951    0   0   0
S                3.1512612351        1.8193882564       -4.6232320683    0   0   0
S                4.7268719268        0.9096773839       -7.6014065489    0   0   0
S                4.7268723805        0.9096785128      -10.7330757790    0   0   0
S                3.1512592485        1.8193890201       -1.4877261251    0   0   0
Mo               3.1478617929        1.8161608762        3.0596865087
Mo               4.7161346663        0.8853370396        9.1531354098
S                3.1346444173        1.7865115514        7.5850291778
S                4.7241387010        0.9063242216        4.6264664238
S                4.7234977312        0.9063917689        1.4914777192
S                3.1585215986        1.7846236604       10.7330125394
Mo               1.5756344123        4.5484193819       -9.1672481230    0   0   0
Mo               3.1512756394        3.6387769522       -3.0554814834    0   0   0
S                1.5756504879        4.5484423799       -4.6232390542    0   0   0
S                3.1512545844        3.6387329039       -7.6014065489    0   0   0
S                3.1512550381        3.6387340328      -10.7330757790    0   0   0
S                1.5756466253        4.5484431864       -1.4877251801    0   0   0
Mo               1.5722230718        4.5453083725        3.0591324489
Mo               3.1833407220        3.5942678050        9.1518199289
S                1.5439378657        4.5436366504        7.6648575027
S                3.1472278380        3.6356014252        4.6281899672
S                3.1481995162        3.6355247492        1.4917629226
S                1.6388708413        4.4606106893       10.7193021181
Mo               0.0000170699        7.2774749019       -9.1672481230    0   0   0
Mo               1.5756764447        6.3678236689       -3.0554877708    0   0   0
S                0.0000381981        7.2774979204       -4.6232454413    0   0   0
S                1.5756372420        6.3677884239       -7.6014065489    0   0   0
S                1.5756376957        6.3677895528      -10.7330757790    0   0   0
S                0.0000328088        7.2774946042       -1.4877307940    0   0   0
Mo              -0.0028890033        7.2737599713        3.0594012464
Mo               1.5668642534        6.3701952050        9.2318223503
S               -0.0012508352        7.2472285373        7.6442396749
S                1.5724802158        6.3642281935        4.6272699579
S                1.5719360506        6.3643140483        1.4905840396
S               -0.0965288987        7.3315406801       10.7957458948
Mo              -1.5756002725       10.0065304219       -9.1672481230    0   0   0
Mo               0.0000873425        9.0968676911       -3.0554912329    0   0   0
S               -1.5755883952       10.0065504530       -4.6232240150    0   0   0
S                0.0000198996        9.0968439439       -7.6014065489    0   0   0
S                0.0000203533        9.0968450728      -10.7330757790    0   0   0
S               -1.5755859047       10.0065492576       -1.4877362381    0   0   0
Mo              -1.5787305018       10.0029386086        3.0593832008
Mo              -0.0197651764        9.0982821232        9.1678196138
S               -1.5901339368        9.9835238096        7.5857727045
S               -0.0030010639        9.0929175117        4.6274091746
S               -0.0029004755        9.0934462736        1.4916507680
S               -1.6006142093        9.9991859442       10.7332627660
Mo               6.3024915177        1.8193638619       -9.1672481230    0   0   0
Mo               7.8781001445        0.9096521684       -3.0554919963    0   0   0
S                6.3025008696        1.8193826232       -4.6232480596    0   0   0
S                7.8781116898        0.9096773839       -7.6014065489    0   0   0
S                7.8781121435        0.9096785128      -10.7330757790    0   0   0
S                6.3025042007        1.8193849068       -1.4877147524    0   0   0
Mo               6.2996929848        1.8158068234        3.0586695085
Mo               7.8659508752        0.8912980966        9.1626176629
S                6.2950555442        1.8004080131        7.5861191973
S                7.8751122005        0.9061176028        4.6269372023
S                7.8757152088        0.9062244837        1.4912873621
S                6.2904498751        1.7997150813       10.7243500285
Mo               4.7268741753        4.5484193819       -9.1672481230    0   0   0
Mo               6.3024679138        3.6387501714       -3.0554895197    0   0   0
S                4.7268748770        4.5484386753       -4.6232519432    0   0   0
S                6.3024943474        3.6387329039       -7.6014065489    0   0   0
S                6.3024948011        3.6387340328      -10.7330757790    0   0   0
S                4.7268770533        4.5484432419       -1.4877137856    0   0   0
Mo               4.7233716741        4.5450392771        3.0598232167
Mo               6.2955829381        3.6202658458        9.1565716828
S                4.7231206109        4.5392084124        7.5876475385
S                6.2994666385        3.6347907369        4.6264684517
S                6.2992832867        3.6357841860        1.4914633027
S                4.7335788958        4.5164004709       10.7370142403
Mo               3.1512568329        7.2774749019       -9.1672481230    0   0   0
Mo               4.7268384135        6.3678043337       -3.0554959052    0   0   0
S                3.1512606125        7.2774972547       -4.6232589675    0   0   0
S                4.7268770050        6.3677884239       -7.6014065489    0   0   0
S                4.7268774587        6.3677895528      -10.7330757790    0   0   0
S                3.1512629079        7.2774963749       -1.4877081835    0   0   0
Mo               3.1473318549        7.2738910689        3.0583959546
Mo               4.7161550450        6.3426284542        9.1825617737
S                3.1144427604        7.2500879818        7.6469323494
S                4.7223264194        6.3649946930        4.6269632057
S                4.7237066627        6.3640600277        1.4914267813
S                3.2448756799        7.3234322929       10.8477894301
Mo               1.5756394905       10.0065304219       -9.1672481230    0   0   0
Mo               3.1512330605        9.0968514907       -3.0554878870    0   0   0
S                1.5756499830       10.0065443759       -4.6232632674    0   0   0
S                3.1512596626        9.0968439439       -7.6014065489    0   0   0
S                3.1512601163        9.0968450728      -10.7330757790    0   0   0
S                1.5756503041       10.0065459699       -1.4877044377    0   0   0
Mo               1.5726302086       10.0030041259        3.0595065149
Mo               3.1350381124        9.0850520482        9.1841268888
S                1.5662000945        9.9851662655        7.5984920337
S                3.1478080187        9.0924348464        4.6272589709
S                3.1479886285        9.0938324360        1.4911977533
S                1.5536438420       10.0004897979       10.7421100796
Mo               9.4537312807        1.8193638619       -9.1672481230    0   0   0
Mo              11.0293863460        0.9096952246       -3.0554894007    0   0   0
S                9.4537395970        1.8193770750       -4.6232328036    0   0   0
S               11.0293514528        0.9096773839       -7.6014065489    0   0   0
S               11.0293519066        0.9096785128      -10.7330757790    0   0   0
S                9.4537393632        1.8193794783       -1.4877366147    0   0   0
Mo               9.4509529310        1.8159697776        3.0596756383
Mo              11.0107540363        0.8797038326        9.1811235291
S                9.4478269764        1.7963580037        7.5985054328
S               11.0267103558        0.9062316548        4.6273633959
S               11.0261644659        0.9063885924        1.4914134227
S                9.4306106551        1.7970430933       10.7412459025
Mo               7.8781139383        4.5484193819       -9.1672481230    0   0   0
Mo               9.4537539161        3.6387607911       -3.0554933032    0   0   0
S                7.8781175448        4.5484378232       -4.6232366318    0   0   0
S                9.4537341104        3.6387329039       -7.6014065489    0   0   0
S                9.4537345641        3.6387340328      -10.7330757790    0   0   0
S                7.8781194018        4.5484411585       -1.4877377057    0   0   0
Mo               7.8752533245        4.5448885454        3.0594459456
Mo               9.4272226929        3.6144836207        9.1705626036
S                7.8714497114        4.5301364683        7.5901730754
S                9.4512136236        3.6353043860        4.6277504580
S                9.4512766699        3.6354993455        1.4919301995
S                7.8540605607        4.5309673885       10.7345584473
Mo               6.3024965959        7.2774749019       -9.1672481230    0   0   0
Mo               7.8781361655        6.3678242352       -3.0555014130    0   0   0
S                6.3024973331        7.2774953556       -4.6232392528    0   0   0
S                7.8781167680        6.3677884239       -7.6014065489    0   0   0
S                7.8781172217        6.3677895528      -10.7330757790    0   0   0
S                6.3024989866        7.2774929744       -1.4877349119    0   0   0
Mo               6.2990231223        7.2740769773        3.0593624518
Mo               7.8620567607        6.3484532931        9.1622413085
S                6.2776775604        7.2573873730        7.6006461771
S                7.8747346869        6.3642113016        4.6270176243
S                7.8750006591        6.3643455692        1.4916147404
S                6.3010939986        7.2537638868       10.7425959473
Mo               4.7268792535       10.0065304219       -9.1672481230    0   0   0
Mo               6.3025111524        9.0968738021       -3.0554915260    0   0   0
S                4.7268840634       10.0065452125       -4.6232380477    0   0   0
S                6.3024994256        9.0968439439       -7.6014065489    0   0   0
S                6.3024998793        9.0968450728      -10.7330757790    0   0   0
S                4.7268847312       10.0065459141       -1.4877283294    0   0   0
Mo               4.7235545438       10.0030428193        3.0594327913
Mo               6.2842104579        9.0741449809        9.1732221317
S                4.7064506626        9.9838069261        7.6043973726
S                6.2991657065        9.0934500068        4.6269701457
S                6.2991951734        9.0935711801        1.4914543073
S                4.7136114737        9.9813807335       10.7520375159
Pt               1.5667653680        6.2458077506       12.1031151762
Pd               0.1203407317        3.6110868750       12.1980603443
Pt               0.7238249130        5.1255671389       14.1593388824
End final coordinates



     Writing all to output data dir ./outdir/pwscf.save/ :
     XML data file, charge density, pseudopotentials, collected wavefunctions
 
     init_run     :    177.08s CPU    180.50s WALL (       1 calls)
     electrons    :  43211.31s CPU  43697.13s WALL (       4 calls)
     update_pot   :      6.08s CPU      6.28s WALL (       3 calls)
     forces       :    533.10s CPU    542.73s WALL (       4 calls)
     force_dftd3  :      2.78s CPU      2.88s WALL (       4 calls)

     Called by init_run:
     wfcinit      :    152.49s CPU    154.31s WALL (       1 calls)
     potinit      :      1.66s CPU      1.84s WALL (       1 calls)
     hinit0       :     13.07s CPU     13.27s WALL (       1 calls)

     Called by electrons:
     c_bands      :  39361.37s CPU  39706.96s WALL (      53 calls)
     sum_band     :   3430.07s CPU   3504.47s WALL (      53 calls)
     v_of_rho     :     19.42s CPU     21.91s WALL (      54 calls)
     newd         :    340.96s CPU    404.47s WALL (      54 calls)
     PAW_pot      :     66.22s CPU     66.80s WALL (      57 calls)
     mix_rho      :      5.24s CPU      6.05s WALL (      53 calls)
     energy_dftd3 :      1.60s CPU      1.62s WALL (       4 calls)

     Called by c_bands:
     init_us_2    :    113.60s CPU    114.42s WALL (     456 calls)
     init_us_2:cp :    113.60s CPU    114.42s WALL (     456 calls)
     cegterg      :  38868.43s CPU  39209.24s WALL (     235 calls)

     Called by *egterg:
     cdiaghg      :   2086.55s CPU   2161.98s WALL (    3302 calls)
     h_psi        :  19324.85s CPU  19438.38s WALL (    3349 calls)
     s_psi        :   4395.30s CPU   4420.80s WALL (    3349 calls)
     g_psi        :     37.97s CPU     38.11s WALL (    3110 calls)

     Called by h_psi:
     h_psi:calbec :   4396.65s CPU   4410.36s WALL (    3349 calls)
     vloc_psi     :  10430.82s CPU  10481.45s WALL (    3349 calls)
     add_vuspsi   :   4418.41s CPU   4445.34s WALL (    3349 calls)

     General routines
     calbec       :   5832.81s CPU   5851.14s WALL (    3637 calls)
     fft          :     22.33s CPU     24.46s WALL (     744 calls)
     ffts         :      0.98s CPU      1.03s WALL (     107 calls)
     fftw         :   7576.65s CPU   7612.52s WALL ( 1970792 calls)
     interpolate  :      1.86s CPU      2.03s WALL (      54 calls)
 
     Parallel routines
 
     PWSCF        :     12h14m CPU     12h23m WALL

 
   This run was terminated on:  12:48:50   3May2024            

=------------------------------------------------------------------------------=
   JOB DONE.
=------------------------------------------------------------------------------=
