
     Program PWSCF v.7.3 starts on 14Mar2024 at 18: 3:37 

     This program is part of the open-source Quantum ESPRESSO suite
     for quantum simulation of materials; please cite
         "P. Giannozzi et al., J. Phys.:Condens. Matter 21 395502 (2009);
         "P. Giannozzi et al., J. Phys.:Condens. Matter 29 465901 (2017);
         "P. Giannozzi et al., J. Chem. Phys. 152 154105 (2020);
          URL http://www.quantum-espresso.org", 
     in publications or presentations arising from this work. More details at
     http://www.quantum-espresso.org/quote

     Parallel version (MPI & OpenMP), running on      36 processor cores
     Number of MPI processes:                36
     Threads/MPI process:                     1

     MPI processes distributed on     1 nodes
     550362 MiB available memory on the printing compute node when the environment starts
 
     Waiting for input...
     Reading input from standard input
Warning: card &CELL ignored
Warning: card / ignored

     Current dimensions of program PWSCF are:
     Max number of different atomic species (ntypx) = 10
     Max number of k-points (npk) =  40000
     Max angular momentum in pseudopotentials (lmaxx) =  4
     file Mo.pbe-spn-kjpaw_psl.1.0.0.UPF: wavefunction(s)  4S 4D renormalized
     file S.pbe-n-kjpaw_psl.1.0.0.UPF: wavefunction(s)  3S 3P renormalized
     file Pt.pbe-spfn-kjpaw_psl.1.0.0.UPF: wavefunction(s)  5P 4F renormalized
     file Pd.pbe-spn-kjpaw_psl.1.0.0.UPF: wavefunction(s)  4S 5S 4D renormalized
 
     R & G space division:  proc/nbgrp/npool/nimage =      36
     Subspace diagonalization in iterative solution of the eigenvalue problem:
     one sub-group per band group will be used
     scalapack distributed-memory algorithm (size of sub-group:  6*  6 procs)

 
     Parallelization info
     --------------------
     sticks:   dense  smooth     PW     G-vecs:    dense   smooth      PW
     Min         585     334     89               198743    85850   11735
     Max         586     335     90               198750    85861   11748
     Sum       21073   12049   3205              7154885  3090769  422587
 
     Using Slab Decomposition
 


     bravais-lattice index     =            0
     lattice parameter (alat)  =      23.8199  a.u.
     unit-cell volume          =   33861.0370 (a.u.)^3
     number of atoms/cell      =          194
     number of atomic types    =            4
     number of electrons       =      1714.00
     number of Kohn-Sham states=         1028
     kinetic-energy cutoff     =      77.0000  Ry
     charge density cutoff     =     539.0000  Ry
     scf convergence threshold =      1.0E-06
     mixing beta               =       0.2000
     number of iterations used =            8  plain     mixing
     energy convergence thresh.=      1.0E-04
     force convergence thresh. =      1.0E-03
     Exchange-correlation= SLA  PW   PBX  PBC
                           (   1   4   3   4   0   0   0)
     nstep                     =         1000


     Effective Screening Medium Method
     =================================
     Boundary Conditions: Vacuum-Slab-Vacuum
     total charge in unit cell        =   0.0000
     grid points for fit at edges     =        4 
 

     celldm(1)=  23.819920  celldm(2)=   0.000000  celldm(3)=   0.000000
     celldm(4)=   0.000000  celldm(5)=   0.000000  celldm(6)=   0.000000

     crystal axes: (cart. coord. in units of alat)
               a(1) = (   1.000000   0.000000   0.000000 )  
               a(2) = (  -0.499999   0.866026   0.000000 )  
               a(3) = (   0.000000   0.000000   2.893000 )  

     reciprocal axes: (cart. coord. in units 2 pi/alat)
               b(1) = (  1.000000  0.577349  0.000000 )  
               b(2) = (  0.000000  1.154700  0.000000 )  
               b(3) = (  0.000000  0.000000  0.345662 )  


     PseudoPot. # 1 for Mo read from file:
     ./pseudo/Mo.pbe-spn-kjpaw_psl.1.0.0.UPF
     MD5 check sum: 317bf72632116215fd98f72de1686f13
     Pseudo is Projector augmented-wave + core cor, Zval = 14.0
     Generated using 'atomic' code by A. Dal Corso  v.7.2
     Shape of augmentation charge: PSQ
     Using radial grid of 1229 points,  6 beta functions with: 
                l(1) =   0
                l(2) =   0
                l(3) =   1
                l(4) =   1
                l(5) =   2
                l(6) =   2
     Q(r) pseudized with 0 coefficients 


     PseudoPot. # 2 for S  read from file:
     ./pseudo/S.pbe-n-kjpaw_psl.1.0.0.UPF
     MD5 check sum: 8b7b5302570d38d5e87fed6a1065abda
     Pseudo is Projector augmented-wave + core cor, Zval =  6.0
     Generated using 'atomic' code by A. Dal Corso  v.7.2
     Shape of augmentation charge: PSQ
     Using radial grid of 1151 points,  6 beta functions with: 
                l(1) =   0
                l(2) =   0
                l(3) =   1
                l(4) =   1
                l(5) =   2
                l(6) =   2
     Q(r) pseudized with 0 coefficients 


     PseudoPot. # 3 for Pt read from file:
     ./pseudo/Pt.pbe-spfn-kjpaw_psl.1.0.0.UPF
     MD5 check sum: 620096ebf4e6ebacc94de60fd67efcb5
     Pseudo is Projector augmented-wave + core cor, Zval = 32.0
     Generated using 'atomic' code by A. Dal Corso  v.7.2
     Shape of augmentation charge: PSQ
     Using radial grid of 1277 points,  8 beta functions with: 
                l(1) =   0
                l(2) =   0
                l(3) =   1
                l(4) =   1
                l(5) =   2
                l(6) =   2
                l(7) =   3
                l(8) =   3
     Q(r) pseudized with 0 coefficients 


     PseudoPot. # 4 for Pd read from file:
     ./pseudo/Pd.pbe-spn-kjpaw_psl.1.0.0.UPF
     MD5 check sum: a60571a671f2502b8a6a4569d20a6edb
     Pseudo is Projector augmented-wave + core cor, Zval = 18.0
     Generated using 'atomic' code by A. Dal Corso  v.7.2
     Shape of augmentation charge: PSQ
     Using radial grid of 1235 points,  6 beta functions with: 
                l(1) =   0
                l(2) =   0
                l(3) =   1
                l(4) =   1
                l(5) =   2
                l(6) =   2
     Q(r) pseudized with 0 coefficients 


     atomic species   valence    mass     pseudopotential
     Mo               14.00    95.95000     Mo( 1.00)
     S                 6.00    32.06000     S ( 1.00)
     Pt               32.00   195.08400     Pt( 1.00)
     Pd               18.00   106.42000     Pd( 1.00)

     No symmetry found



   Cartesian axes

     site n.     atom                  positions (alat units)
         1        Mo     tau(   1) = (   0.0000010   0.1443372  -0.7272732  )
         2        Mo     tau(   2) = (   0.1249995   0.0721706  -0.2424038  )
         3        S      tau(   3) = (   0.0000015   0.1443386  -0.3667807  )
         4        S      tau(   4) = (   0.1250010   0.0721682  -0.6030489  )
         5        S      tau(   5) = (   0.1250010   0.0721683  -0.8514963  )
         6        S      tau(   6) = (   0.0000015   0.1443389  -0.1180260  )
         7        Mo     tau(   7) = (   0.0000014   0.1443616   0.2424356  )
         8        Mo     tau(   8) = (   0.1250042   0.0720311   0.7263989  )
         9        S      tau(   9) = (   0.0000639   0.1447004   0.6020022  )
        10        S      tau(  10) = (   0.1250030   0.0721650   0.3667578  )
        11        S      tau(  11) = (   0.1250031   0.0721991   0.1180453  )
        12        S      tau(  12) = (  -0.0005532   0.1426765   0.8513101  )
        13        Mo     tau(  13) = (  -0.1249989   0.3608437  -0.7272732  )
        14        Mo     tau(  14) = (   0.0000030   0.2886752  -0.2424042  )
        15        S      tau(  15) = (  -0.1249977   0.3608450  -0.3667802  )
        16        S      tau(  16) = (   0.0000012   0.2886747  -0.6030489  )
        17        S      tau(  17) = (   0.0000012   0.2886748  -0.8514963  )
        18        S      tau(  18) = (  -0.1249977   0.3608454  -0.1180274  )
        19        Mo     tau(  19) = (  -0.1249758   0.3608563   0.2424461  )
        20        Mo     tau(  20) = (  -0.0009250   0.2875651   0.7279418  )
        21        S      tau(  21) = (  -0.1248723   0.3609173   0.6030853  )
        22        S      tau(  22) = (   0.0000474   0.2887247   0.3668317  )
        23        S      tau(  23) = (   0.0000000   0.2886879   0.1180554  )
        24        S      tau(  24) = (  -0.1255989   0.3604976   0.8519229  )
        25        Mo     tau(  25) = (  -0.2499987   0.5773502  -0.7272732  )
        26        Mo     tau(  26) = (  -0.1249977   0.5051839  -0.2424055  )
        27        S      tau(  27) = (  -0.2499981   0.5773518  -0.3667809  )
        28        S      tau(  28) = (  -0.1249986   0.5051812  -0.6030489  )
        29        S      tau(  29) = (  -0.1249986   0.5051813  -0.8514963  )
        30        S      tau(  30) = (  -0.2499979   0.5773512  -0.1180266  )
        31        Mo     tau(  31) = (  -0.2499765   0.5773372   0.2424355  )
        32        Mo     tau(  32) = (  -0.1264232   0.5049348   0.7279418  )
        33        S      tau(  33) = (  -0.2496528   0.5772237   0.6020023  )
        34        S      tau(  34) = (  -0.1249318   0.5051954   0.3668318  )
        35        S      tau(  35) = (  -0.1249873   0.5051727   0.1180553  )
        36        S      tau(  36) = (  -0.2517142   0.5777014   0.8513102  )
        37        Mo     tau(  37) = (  -0.3749985   0.7938567  -0.7272732  )
        38        Mo     tau(  38) = (  -0.2500001   0.7216874  -0.2424031  )
        39        S      tau(  39) = (  -0.3749980   0.7938584  -0.3667800  )
        40        S      tau(  40) = (  -0.2499984   0.7216877  -0.6030489  )
        41        S      tau(  41) = (  -0.2499984   0.7216878  -0.8514963  )
        42        S      tau(  42) = (  -0.3749982   0.7938585  -0.1180264  )
        43        Mo     tau(  43) = (  -0.3749961   0.7938572   0.2423820  )
        44        Mo     tau(  44) = (  -0.2501160   0.7217599   0.7263989  )
        45        S      tau(  45) = (  -0.3749948   0.7938592   0.6019084  )
        46        S      tau(  46) = (  -0.2499995   0.7216903   0.3667578  )
        47        S      tau(  47) = (  -0.2499699   0.7216732   0.1180452  )
        48        S      tau(  48) = (  -0.3749951   0.7938590   0.8508262  )
        49        Mo     tau(  49) = (   0.2500010   0.1443372  -0.7272732  )
        50        Mo     tau(  50) = (   0.3750034   0.0721723  -0.2424032  )
        51        S      tau(  51) = (   0.2500017   0.1443391  -0.3667788  )
        52        S      tau(  52) = (   0.3750010   0.0721682  -0.6030489  )
        53        S      tau(  53) = (   0.3750010   0.0721683  -0.8514963  )
        54        S      tau(  54) = (   0.2500016   0.1443391  -0.1180271  )
        55        Mo     tau(  55) = (   0.2500050   0.1443618   0.2424356  )
        56        Mo     tau(  56) = (   0.3749291   0.0721273   0.7261578  )
        57        S      tau(  57) = (   0.2499446   0.1447002   0.6020022  )
        58        S      tau(  58) = (   0.3750312   0.0721852   0.3667808  )
        59        S      tau(  59) = (   0.3749943   0.0721639   0.1180502  )
        60        S      tau(  60) = (   0.2505615   0.1426764   0.8513103  )
        61        Mo     tau(  61) = (   0.1250012   0.3608437  -0.7272732  )
        62        Mo     tau(  62) = (   0.2500029   0.2886782  -0.2424031  )
        63        S      tau(  63) = (   0.1250024   0.3608455  -0.3667794  )
        64        S      tau(  64) = (   0.2500012   0.2886747  -0.6030489  )
        65        S      tau(  65) = (   0.2500012   0.2886748  -0.8514963  )
        66        S      tau(  66) = (   0.1250021   0.3608455  -0.1180270  )
        67        Mo     tau(  67) = (   0.1250036   0.3608788   0.2424134  )
        68        Mo     tau(  68) = (   0.2509342   0.2875650   0.7279417  )
        69        S      tau(  69) = (   0.1250047   0.3631022   0.6070003  )
        70        S      tau(  70) = (   0.2499595   0.2887248   0.3668321  )
        71        S      tau(  71) = (   0.2500069   0.2886879   0.1180551  )
        72        S      tau(  72) = (   0.1250048   0.3485809   0.8580653  )
        73        Mo     tau(  73) = (   0.0000014   0.5773502  -0.7272732  )
        74        Mo     tau(  74) = (   0.1250045   0.5051840  -0.2424036  )
        75        S      tau(  75) = (   0.0000030   0.5773520  -0.3667799  )
        76        S      tau(  76) = (   0.1250014   0.5051812  -0.6030489  )
        77        S      tau(  77) = (   0.1250014   0.5051813  -0.8514963  )
        78        S      tau(  78) = (   0.0000026   0.5773517  -0.1180274  )
        79        Mo     tau(  79) = (   0.0000336   0.5773337   0.2424134  )
        80        Mo     tau(  80) = (   0.1250049   0.5051837   0.7323431  )
        81        S      tau(  81) = (   0.0019589   0.5762246   0.6070004  )
        82        S      tau(  82) = (   0.1250038   0.5051820   0.3668453  )
        83        S      tau(  83) = (   0.1250038   0.5051819   0.1180162  )
        84        S      tau(  84) = (  -0.0106172   0.5834855   0.8580649  )
        85        Mo     tau(  85) = (  -0.1249984   0.7938567  -0.7272732  )
        86        Mo     tau(  86) = (   0.0000069   0.7216896  -0.2424039  )
        87        S      tau(  87) = (  -0.1249975   0.7938582  -0.3667782  )
        88        S      tau(  88) = (   0.0000016   0.7216877  -0.6030489  )
        89        S      tau(  89) = (   0.0000016   0.7216878  -0.8514963  )
        90        S      tau(  90) = (  -0.1249973   0.7938582  -0.1180279  )
        91        Mo     tau(  91) = (  -0.1249742   0.7938470   0.2424356  )
        92        Mo     tau(  92) = (  -0.0004933   0.7230516   0.7279416  )
        93        S      tau(  93) = (  -0.1247124   0.7936270   0.6020023  )
        94        S      tau(  94) = (   0.0000246   0.7216257   0.3668322  )
        95        S      tau(  95) = (   0.0000165   0.7216852   0.1180552  )
        96        S      tau(  96) = (  -0.1261568   0.7951731   0.8513104  )
        97        Mo     tau(  97) = (   0.5000010   0.1443372  -0.7272732  )
        98        Mo     tau(  98) = (   0.6250001   0.0721662  -0.2424040  )
        99        S      tau(  99) = (   0.5000017   0.1443386  -0.3667801  )
       100        S      tau( 100) = (   0.6250010   0.0721682  -0.6030489  )
       101        S      tau( 101) = (   0.6250010   0.0721683  -0.8514963  )
       102        S      tau( 102) = (   0.5000020   0.1443388  -0.1180261  )
       103        Mo     tau( 103) = (   0.5000076   0.1443402   0.2423934  )
       104        Mo     tau( 104) = (   0.6250040   0.0723531   0.7270557  )
       105        S      tau( 105) = (   0.5002419   0.1444767   0.6022126  )
       106        S      tau( 106) = (   0.6250031   0.0721699   0.3667634  )
       107        S      tau( 107) = (   0.6250031   0.0721381   0.1180360  )
       108        S      tau( 108) = (   0.4998195   0.1442328   0.8511552  )
       109        Mo     tau( 109) = (   0.3750012   0.3608437  -0.7272732  )
       110        Mo     tau( 110) = (   0.4999991   0.2886761  -0.2424038  )
       111        S      tau( 111) = (   0.3750012   0.3608452  -0.3667804  )
       112        S      tau( 112) = (   0.5000012   0.2886747  -0.6030489  )
       113        S      tau( 113) = (   0.5000012   0.2886748  -0.8514963  )
       114        S      tau( 114) = (   0.3750014   0.3608455  -0.1180261  )
       115        Mo     tau( 115) = (   0.3749823   0.3608562   0.2424462  )
       116        Mo     tau( 116) = (   0.5001624   0.2885857   0.7270558  )
       117        S      tau( 117) = (   0.3748813   0.3609171   0.6030850  )
       118        S      tau( 118) = (   0.5000041   0.2886750   0.3667632  )
       119        S      tau( 119) = (   0.4999767   0.2886908   0.1180361  )
       120        S      tau( 120) = (   0.3756080   0.3604978   0.8519227  )
       121        Mo     tau( 121) = (   0.2500014   0.5773502  -0.7272732  )
       122        Mo     tau( 122) = (   0.3749983   0.5051825  -0.2424043  )
       123        S      tau( 123) = (   0.2500017   0.5773519  -0.3667810  )
       124        S      tau( 124) = (   0.3750014   0.5051812  -0.6030489  )
       125        S      tau( 125) = (   0.3750014   0.5051813  -0.8514963  )
       126        S      tau( 126) = (   0.2500018   0.5773519  -0.1180256  )
       127        Mo     tau( 127) = (   0.2499737   0.5773335   0.2424135  )
       128        Mo     tau( 128) = (   0.3764328   0.5049349   0.7279416  )
       129        S      tau( 129) = (   0.2480514   0.5762247   0.6070002  )
       130        S      tau( 130) = (   0.3749389   0.5051953   0.3668317  )
       131        S      tau( 131) = (   0.3749944   0.5051727   0.1180554  )
       132        S      tau( 132) = (   0.2606253   0.5834843   0.8580650  )
       133        Mo     tau( 133) = (   0.1250016   0.7938567  -0.7272732  )
       134        Mo     tau( 134) = (   0.2499995   0.7216883  -0.2424036  )
       135        S      tau( 135) = (   0.1250024   0.7938578  -0.3667813  )
       136        S      tau( 136) = (   0.2500016   0.7216877  -0.6030489  )
       137        S      tau( 137) = (   0.2500016   0.7216878  -0.8514963  )
       138        S      tau( 138) = (   0.1250024   0.7938579  -0.1180253  )
       139        Mo     tau( 139) = (   0.1250038   0.7938330   0.2424463  )
       140        Mo     tau( 140) = (   0.2505035   0.7230514   0.7279415  )
       141        S      tau( 141) = (   0.1250048   0.7937168   0.6030849  )
       142        S      tau( 142) = (   0.2499835   0.7216255   0.3668318  )
       143        S      tau( 143) = (   0.2499914   0.7216850   0.1180556  )
       144        S      tau( 144) = (   0.1250053   0.7945558   0.8519227  )
       145        Mo     tau( 145) = (   0.7500010   0.1443372  -0.7272732  )
       146        Mo     tau( 146) = (   0.8750038   0.0721696  -0.2424038  )
       147        S      tau( 147) = (   0.7500016   0.1443382  -0.3667789  )
       148        S      tau( 148) = (   0.8750010   0.0721682  -0.6030489  )
       149        S      tau( 149) = (   0.8750010   0.0721683  -0.8514963  )
       150        S      tau( 150) = (   0.7500016   0.1443384  -0.1180279  )
       151        Mo     tau( 151) = (   0.7499988   0.1443404   0.2423934  )
       152        Mo     tau( 152) = (   0.8750792   0.0721276   0.7261574  )
       153        S      tau( 153) = (   0.7497661   0.1444769   0.6022124  )
       154        S      tau( 154) = (   0.8749753   0.0721851   0.3667807  )
       155        S      tau( 155) = (   0.8750121   0.0721637   0.1180502  )
       156        S      tau( 156) = (   0.7501887   0.1442327   0.8511550  )
       157        Mo     tau( 157) = (   0.6250012   0.3608437  -0.7272732  )
       158        Mo     tau( 158) = (   0.7500028   0.2886769  -0.2424041  )
       159        S      tau( 159) = (   0.6250015   0.3608451  -0.3667792  )
       160        S      tau( 160) = (   0.7500012   0.2886747  -0.6030489  )
       161        S      tau( 161) = (   0.7500012   0.2886748  -0.8514963  )
       162        S      tau( 162) = (   0.6250016   0.3608454  -0.1180280  )
       163        Mo     tau( 163) = (   0.6250035   0.3608392   0.2423934  )
       164        Mo     tau( 164) = (   0.7498463   0.2885859   0.7270559  )
       165        S      tau( 165) = (   0.6250044   0.3605709   0.6022125  )
       166        S      tau( 166) = (   0.7500026   0.2886750   0.3667635  )
       167        S      tau( 167) = (   0.7500299   0.2886908   0.1180357  )
       168        S      tau( 168) = (   0.6250043   0.3610591   0.8511551  )
       169        Mo     tau( 169) = (   0.5000014   0.5773502  -0.7272732  )
       170        Mo     tau( 170) = (   0.6250029   0.5051841  -0.2424047  )
       171        S      tau( 171) = (   0.5000014   0.5773518  -0.3667794  )
       172        S      tau( 172) = (   0.6250014   0.5051812  -0.6030489  )
       173        S      tau( 173) = (   0.6250014   0.5051813  -0.8514963  )
       174        S      tau( 174) = (   0.5000016   0.5773516  -0.1180277  )
       175        Mo     tau( 175) = (   0.4999838   0.5773372   0.2424356  )
       176        Mo     tau( 176) = (   0.6250048   0.5052701   0.7261575  )
       177        S      tau( 177) = (   0.4996630   0.5772238   0.6020019  )
       178        S      tau( 178) = (   0.6250037   0.5051496   0.3667806  )
       179        S      tau( 179) = (   0.6250036   0.5051921   0.1180503  )
       180        S      tau( 180) = (   0.5017240   0.5777016   0.8513099  )
       181        Mo     tau( 181) = (   0.3750016   0.7938567  -0.7272732  )
       182        Mo     tau( 182) = (   0.5000025   0.7216901  -0.2424039  )
       183        S      tau( 183) = (   0.3750019   0.7938578  -0.3667793  )
       184        S      tau( 184) = (   0.5000016   0.7216877  -0.6030489  )
       185        S      tau( 185) = (   0.5000016   0.7216878  -0.8514963  )
       186        S      tau( 186) = (   0.3750020   0.7938579  -0.1180272  )
       187        Mo     tau( 187) = (   0.3749825   0.7938468   0.2424356  )
       188        Mo     tau( 188) = (   0.5001261   0.7217601   0.7263985  )
       189        S      tau( 189) = (   0.3747228   0.7936274   0.6020018  )
       190        S      tau( 190) = (   0.5000073   0.7216903   0.3667579  )
       191        S      tau( 191) = (   0.4999777   0.7216732   0.1180450  )
       192        S      tau( 192) = (   0.3761670   0.7951734   0.8513099  )
       193        Pt     tau( 193) = (   0.1250041   0.5051825   0.9498857  )
       194        Pd     tau( 194) = (   0.6249921   0.5052773   0.9782658  )

     --------------------------------------------
     DFT-D3 Dispersion Correction (3-body terms):
     --------------------------------------------
       Reference C6 values for interpolation: 

         atom   Coordination number   C6
         S          0.000           268.01
         S          0.995           261.99
         S          1.990           251.62
         Mo         0.000          1691.79
         Mo         1.942          1004.01
         Mo        11.056           674.22
         Pd         0.000          1217.01
         Pd         1.863           573.90
         Pd         5.710           531.75
         Pt         0.000           782.29
         Pt         1.919           692.72
         Pt         6.667           673.75

       Values used:

         atom   Coordination number  R0_AB[au]  C6      C8
         Mo        10.208            3.547    674.22  77634.20
         Mo        10.221            3.547    674.22  77634.20
         S          3.858            3.128    251.62  12327.25
         S          3.859            3.128    251.62  12327.25
         S          3.758            3.128    251.62  12327.25
         S          3.859            3.128    251.62  12327.25
         Mo        10.220            3.547    674.22  77634.20
         Mo        10.236            3.547    674.22  77634.20
         S          3.844            3.128    251.62  12327.25
         S          3.861            3.128    251.62  12327.25
         S          3.859            3.128    251.62  12327.25
         S          3.828            3.128    251.62  12327.25
         Mo        10.208            3.547    674.22  77634.20
         Mo        10.221            3.547    674.22  77634.20
         S          3.858            3.128    251.62  12327.25
         S          3.859            3.128    251.62  12327.25
         S          3.758            3.128    251.62  12327.25
         S          3.859            3.128    251.62  12327.25
         Mo        10.221            3.547    674.22  77634.20
         Mo        10.192            3.547    674.22  77634.20
         S          3.857            3.128    251.62  12327.25
         S          3.855            3.128    251.62  12327.25
         S          3.859            3.128    251.62  12327.25
         S          3.767            3.128    251.62  12327.25
         Mo        10.208            3.547    674.22  77634.20
         Mo        10.221            3.547    674.22  77634.20
         S          3.858            3.128    251.62  12327.25
         S          3.859            3.128    251.62  12327.25
         S          3.758            3.128    251.62  12327.25
         S          3.859            3.128    251.62  12327.25
         Mo        10.220            3.547    674.22  77634.20
         Mo        10.199            3.547    674.22  77634.20
         S          3.845            3.128    251.62  12327.25
         S          3.855            3.128    251.62  12327.25
         S          3.859            3.128    251.62  12327.25
         S          4.758            3.128    251.62  12327.25
         Mo        10.208            3.547    674.22  77634.20
         Mo        10.221            3.547    674.22  77634.20
         S          3.858            3.128    251.62  12327.25
         S          3.859            3.128    251.62  12327.25
         S          3.758            3.128    251.62  12327.25
         S          3.859            3.128    251.62  12327.25
         Mo        10.219            3.547    674.22  77634.20
         Mo        10.243            3.547    674.22  77634.20
         S          3.852            3.128    251.62  12327.25
         S          3.861            3.128    251.62  12327.25
         S          3.859            3.128    251.62  12327.25
         S          3.800            3.128    251.62  12327.25
         Mo        10.208            3.547    674.22  77634.20
         Mo        10.221            3.547    674.22  77634.20
         S          3.858            3.128    251.62  12327.25
         S          3.859            3.128    251.62  12327.25
         S          3.758            3.128    251.62  12327.25
         S          3.859            3.128    251.62  12327.25
         Mo        10.220            3.547    674.22  77634.20
         Mo        10.250            3.547    674.22  77634.20
         S          3.844            3.128    251.62  12327.25
         S          3.860            3.128    251.62  12327.25
         S          3.859            3.128    251.62  12327.25
         S          3.828            3.128    251.62  12327.25
         Mo        10.208            3.547    674.22  77634.20
         Mo        10.221            3.547    674.22  77634.20
         S          3.858            3.128    251.62  12327.25
         S          3.859            3.128    251.62  12327.25
         S          3.758            3.128    251.62  12327.25
         S          3.859            3.128    251.62  12327.25
         Mo        10.222            3.547    674.22  77634.20
         Mo        10.192            3.547    674.22  77634.20
         S          3.865            3.128    251.62  12327.25
         S          3.855            3.128    251.62  12327.25
         S          3.859            3.128    251.62  12327.25
         S          4.660            3.128    251.62  12327.25
         Mo        10.208            3.547    674.22  77634.20
         Mo        10.221            3.547    674.22  77634.20
         S          3.858            3.128    251.62  12327.25
         S          3.859            3.128    251.62  12327.25
         S          3.758            3.128    251.62  12327.25
         S          3.859            3.128    251.62  12327.25
         Mo        10.222            3.547    674.22  77634.20
         Mo        10.909            3.547    674.22  77634.20
         S          3.865            3.128    251.62  12327.25
         S          3.851            3.128    251.62  12327.25
         S          3.859            3.128    251.62  12327.25
         S          4.661            3.128    251.62  12327.25
         Mo        10.208            3.547    674.22  77634.20
         Mo        10.221            3.547    674.22  77634.20
         S          3.858            3.128    251.62  12327.25
         S          3.859            3.128    251.62  12327.25
         S          3.758            3.128    251.62  12327.25
         S          3.859            3.128    251.62  12327.25
         Mo        10.220            3.547    674.22  77634.20
         Mo        10.192            3.547    674.22  77634.20
         S          3.844            3.128    251.62  12327.25
         S          3.855            3.128    251.62  12327.25
         S          3.859            3.128    251.62  12327.25
         S          3.829            3.128    251.62  12327.25
         Mo        10.208            3.547    674.22  77634.20
         Mo        10.221            3.547    674.22  77634.20
         S          3.858            3.128    251.62  12327.25
         S          3.859            3.128    251.62  12327.25
         S          3.758            3.128    251.62  12327.25
         S          3.859            3.128    251.62  12327.25
         Mo        10.220            3.547    674.22  77634.20
         Mo        10.236            3.547    674.22  77634.20
         S          3.860            3.128    251.62  12327.25
         S          3.860            3.128    251.62  12327.25
         S          3.859            3.128    251.62  12327.25
         S          3.769            3.128    251.62  12327.25
         Mo        10.208            3.547    674.22  77634.20
         Mo        10.221            3.547    674.22  77634.20
         S          3.858            3.128    251.62  12327.25
         S          3.859            3.128    251.62  12327.25
         S          3.758            3.128    251.62  12327.25
         S          3.859            3.128    251.62  12327.25
         Mo        10.221            3.547    674.22  77634.20
         Mo        10.243            3.547    674.22  77634.20
         S          3.857            3.128    251.62  12327.25
         S          3.860            3.128    251.62  12327.25
         S          3.859            3.128    251.62  12327.25
         S          3.767            3.128    251.62  12327.25
         Mo        10.208            3.547    674.22  77634.20
         Mo        10.221            3.547    674.22  77634.20
         S          3.858            3.128    251.62  12327.25
         S          3.859            3.128    251.62  12327.25
         S          3.758            3.128    251.62  12327.25
         S          3.859            3.128    251.62  12327.25
         Mo        10.222            3.547    674.22  77634.20
         Mo        10.199            3.547    674.22  77634.20
         S          3.865            3.128    251.62  12327.25
         S          3.855            3.128    251.62  12327.25
         S          3.859            3.128    251.62  12327.25
         S          4.661            3.128    251.62  12327.25
         Mo        10.208            3.547    674.22  77634.20
         Mo        10.221            3.547    674.22  77634.20
         S          3.858            3.128    251.62  12327.25
         S          3.859            3.128    251.62  12327.25
         S          3.758            3.128    251.62  12327.25
         S          3.859            3.128    251.62  12327.25
         Mo        10.221            3.547    674.22  77634.20
         Mo        10.192            3.547    674.22  77634.20
         S          3.857            3.128    251.62  12327.25
         S          3.855            3.128    251.62  12327.25
         S          3.859            3.128    251.62  12327.25
         S          3.758            3.128    251.62  12327.25
         Mo        10.208            3.547    674.22  77634.20
         Mo        10.221            3.547    674.22  77634.20
         S          3.858            3.128    251.62  12327.25
         S          3.859            3.128    251.62  12327.25
         S          3.758            3.128    251.62  12327.25
         S          3.859            3.128    251.62  12327.25
         Mo        10.220            3.547    674.22  77634.20
         Mo        10.250            3.547    674.22  77634.20
         S          3.860            3.128    251.62  12327.25
         S          3.860            3.128    251.62  12327.25
         S          3.859            3.128    251.62  12327.25
         S          3.769            3.128    251.62  12327.25
         Mo        10.208            3.547    674.22  77634.20
         Mo        10.220            3.547    674.22  77634.20
         S          3.858            3.128    251.62  12327.25
         S          3.859            3.128    251.62  12327.25
         S          3.758            3.128    251.62  12327.25
         S          3.859            3.128    251.62  12327.25
         Mo        10.220            3.547    674.22  77634.20
         Mo        10.243            3.547    674.22  77634.20
         S          3.860            3.128    251.62  12327.25
         S          3.860            3.128    251.62  12327.25
         S          3.859            3.128    251.62  12327.25
         S          4.692            3.128    251.62  12327.25
         Mo        10.208            3.547    674.22  77634.20
         Mo        10.221            3.547    674.22  77634.20
         S          3.858            3.128    251.62  12327.25
         S          3.859            3.128    251.62  12327.25
         S          3.758            3.128    251.62  12327.25
         S          3.859            3.128    251.62  12327.25
         Mo        10.220            3.547    674.22  77634.20
         Mo        10.645            3.547    674.22  77634.20
         S          3.845            3.128    251.62  12327.25
         S          3.860            3.128    251.62  12327.25
         S          3.859            3.128    251.62  12327.25
         S          4.758            3.128    251.62  12327.25
         Mo        10.208            3.547    674.22  77634.20
         Mo        10.221            3.547    674.22  77634.20
         S          3.858            3.128    251.62  12327.25
         S          3.859            3.128    251.62  12327.25
         S          3.758            3.128    251.62  12327.25
         S          3.859            3.128    251.62  12327.25
         Mo        10.220            3.547    674.22  77634.20
         Mo        10.243            3.547    674.22  77634.20
         S          3.844            3.128    251.62  12327.25
         S          3.861            3.128    251.62  12327.25
         S          3.859            3.128    251.62  12327.25
         S          3.829            3.128    251.62  12327.25
         Pt         4.026            3.168    692.72  72035.17
         Pd         3.265            3.168    573.90  52583.08

         Molecular C6 ( Ry / a.u.^6 ) =  13986061.06


     number of k points=     4  Gaussian smearing, width (Ry)=  0.0100
                       cart. coord. in units 2pi/alat
        k(    1) = (   0.0000000   0.0000000   0.0000000), wk =   0.5000000
        k(    2) = (   0.0000000  -0.5773499   0.0000000), wk =   0.5000000
        k(    3) = (  -0.5000000  -0.2886744   0.0000000), wk =   0.5000000
        k(    4) = (  -0.5000000  -0.8660242   0.0000000), wk =   0.5000000

     Dense  grid:  7154885 G-vectors     FFT dimensions: ( 180, 180, 512)

     Smooth grid:  3090769 G-vectors     FFT dimensions: ( 135, 135, 400)

     Estimated max dynamical RAM per process >       4.31 GB

     Estimated total dynamical RAM >     155.10 GB

     Initial potential from superposition of free atoms

     starting charge    1713.9389, renormalised to    1714.0000

     negative rho (up, down):  8.833E-04 0.000E+00
     Starting wfcs are 1179 randomized atomic wfcs
     Checking if some PAW data can be deallocated... 

     total cpu time spent up to now is      179.9 secs

     Self-consistent Calculation

     iteration #  1     ecut=    77.00 Ry     beta= 0.20
     Davidson diagonalization with overlap
     ethr =  1.00E-02,  avg # of iterations =  2.0

     Threshold (ethr) on eigenvalues was too large:
     Diagonalizing with lowered threshold

     Davidson diagonalization with overlap
     ethr =  1.64E-04,  avg # of iterations = 16.8

     negative rho (up, down):  2.411E-04 0.000E+00

     total cpu time spent up to now is     2229.5 secs

     total energy              =  -33980.24010115 Ry
     estimated scf accuracy    <       6.59124428 Ry

     iteration #  2     ecut=    77.00 Ry     beta= 0.20
     Davidson diagonalization with overlap
     ethr =  3.85E-04,  avg # of iterations =  6.0

     negative rho (up, down):  2.719E-05 0.000E+00

     total cpu time spent up to now is     2650.9 secs

     total energy              =  -33978.93331212 Ry
     estimated scf accuracy    <       3.40572429 Ry

     iteration #  3     ecut=    77.00 Ry     beta= 0.20
     Davidson diagonalization with overlap
     ethr =  1.99E-04,  avg # of iterations = 14.0

     negative rho (up, down):  1.873E-05 0.000E+00

     total cpu time spent up to now is     3160.6 secs

     total energy              =  -33979.19082408 Ry
     estimated scf accuracy    <       1.28742474 Ry

     iteration #  4     ecut=    77.00 Ry     beta= 0.20
     Davidson diagonalization with overlap
     c_bands:  2 eigenvalues not converged
     c_bands:  1 eigenvalues not converged
     c_bands:  2 eigenvalues not converged
     c_bands:  1 eigenvalues not converged
     ethr =  7.51E-05,  avg # of iterations = 20.0

     negative rho (up, down):  1.776E-05 0.000E+00

     total cpu time spent up to now is     4108.3 secs

     total energy              =  -33979.95781024 Ry
     estimated scf accuracy    <       0.51030840 Ry

     iteration #  5     ecut=    77.00 Ry     beta= 0.20
     Davidson diagonalization with overlap
     ethr =  2.98E-05,  avg # of iterations = 13.8

     negative rho (up, down):  3.137E-05 0.000E+00

     total cpu time spent up to now is     4850.6 secs

     total energy              =  -33980.17314821 Ry
     estimated scf accuracy    <       0.24673380 Ry

     iteration #  6     ecut=    77.00 Ry     beta= 0.20
     Davidson diagonalization with overlap
     ethr =  1.44E-05,  avg # of iterations = 14.5

     negative rho (up, down):  9.634E-05 0.000E+00

     total cpu time spent up to now is     5514.6 secs

     total energy              =  -33980.19916437 Ry
     estimated scf accuracy    <       0.19615135 Ry

     iteration #  7     ecut=    77.00 Ry     beta= 0.20
     Davidson diagonalization with overlap
     ethr =  1.14E-05,  avg # of iterations = 12.5

     negative rho (up, down):  4.059E-04 0.000E+00

     total cpu time spent up to now is     5972.6 secs

     total energy              =  -33980.19707473 Ry
     estimated scf accuracy    <       0.08447859 Ry

     iteration #  8     ecut=    77.00 Ry     beta= 0.20
     Davidson diagonalization with overlap
     c_bands:  4 eigenvalues not converged
     c_bands:  1 eigenvalues not converged
     c_bands:  1 eigenvalues not converged
     ethr =  4.93E-06,  avg # of iterations = 50.5

     negative rho (up, down):  5.330E-04 0.000E+00

     total cpu time spent up to now is     7699.5 secs

     total energy              =  -33980.25045807 Ry
     estimated scf accuracy    <       0.11823386 Ry

     iteration #  9     ecut=    77.00 Ry     beta= 0.20
     Davidson diagonalization with overlap
     c_bands:  1 eigenvalues not converged
     c_bands:  4 eigenvalues not converged
     c_bands:  1 eigenvalues not converged
     ethr =  4.93E-06,  avg # of iterations = 20.2

     negative rho (up, down):  3.992E-04 0.000E+00

     total cpu time spent up to now is     8243.0 secs

     total energy              =  -33980.23848091 Ry
     estimated scf accuracy    <       0.03025690 Ry

     iteration # 10     ecut=    77.00 Ry     beta= 0.20
     Davidson diagonalization with overlap
     c_bands:  4 eigenvalues not converged
     c_bands:  5 eigenvalues not converged
     c_bands:  2 eigenvalues not converged
     ethr =  1.77E-06,  avg # of iterations = 42.0

     negative rho (up, down):  4.649E-04 0.000E+00

     total cpu time spent up to now is     9778.7 secs

     total energy              =  -33980.26558582 Ry
     estimated scf accuracy    <       0.01208509 Ry

     iteration # 11     ecut=    77.00 Ry     beta= 0.20
     Davidson diagonalization with overlap
     c_bands:  4 eigenvalues not converged
     c_bands:  3 eigenvalues not converged
     c_bands:  2 eigenvalues not converged
     ethr =  7.05E-07,  avg # of iterations = 22.8

     negative rho (up, down):  6.129E-04 0.000E+00

     total cpu time spent up to now is    10405.6 secs

     total energy              =  -33980.26335669 Ry
     estimated scf accuracy    <       0.00749939 Ry

     iteration # 12     ecut=    77.00 Ry     beta= 0.20
     Davidson diagonalization with overlap
     c_bands:  3 eigenvalues not converged
     c_bands:  4 eigenvalues not converged
     c_bands:  3 eigenvalues not converged
     ethr =  4.38E-07,  avg # of iterations = 17.0

     negative rho (up, down):  8.395E-04 0.000E+00

     total cpu time spent up to now is    10963.2 secs

     total energy              =  -33980.26380458 Ry
     estimated scf accuracy    <       0.00155217 Ry

     iteration # 13     ecut=    77.00 Ry     beta= 0.20
     Davidson diagonalization with overlap
     c_bands:  3 eigenvalues not converged
     c_bands:  1 eigenvalues not converged
     c_bands:  1 eigenvalues not converged
     ethr =  9.06E-08,  avg # of iterations = 29.8

     negative rho (up, down):  7.387E-04 0.000E+00

     total cpu time spent up to now is    12883.9 secs

     total energy              =  -33980.26725427 Ry
     estimated scf accuracy    <       0.00498748 Ry

     iteration # 14     ecut=    77.00 Ry     beta= 0.20
     Davidson diagonalization with overlap
     ethr =  9.06E-08,  avg # of iterations =  6.0

     negative rho (up, down):  7.587E-04 0.000E+00

     total cpu time spent up to now is    13328.0 secs

     total energy              =  -33980.26823058 Ry
     estimated scf accuracy    <       0.00198332 Ry

     iteration # 15     ecut=    77.00 Ry     beta= 0.20
     Davidson diagonalization with overlap
     ethr =  9.06E-08,  avg # of iterations =  1.2

     negative rho (up, down):  7.885E-04 0.000E+00

     total cpu time spent up to now is    13706.1 secs

     total energy              =  -33980.26595810 Ry
     estimated scf accuracy    <       0.00310399 Ry

     iteration # 16     ecut=    77.00 Ry     beta= 0.20
     Davidson diagonalization with overlap
     ethr =  9.06E-08,  avg # of iterations =  8.5

     negative rho (up, down):  8.595E-04 0.000E+00

     total cpu time spent up to now is    14611.0 secs

     total energy              =  -33980.26775221 Ry
     estimated scf accuracy    <       0.00165835 Ry

     iteration # 17     ecut=    77.00 Ry     beta= 0.20
     Davidson diagonalization with overlap
     ethr =  9.06E-08,  avg # of iterations =  1.0

     negative rho (up, down):  8.805E-04 0.000E+00

     total cpu time spent up to now is    14980.3 secs

     total energy              =  -33980.26735838 Ry
     estimated scf accuracy    <       0.00074748 Ry

     iteration # 18     ecut=    77.00 Ry     beta= 0.20
     Davidson diagonalization with overlap
     ethr =  4.36E-08,  avg # of iterations =  5.0

     negative rho (up, down):  9.004E-04 0.000E+00

     total cpu time spent up to now is    15412.8 secs

     total energy              =  -33980.26735688 Ry
     estimated scf accuracy    <       0.00013705 Ry

     iteration # 19     ecut=    77.00 Ry     beta= 0.20
     Davidson diagonalization with overlap
     c_bands:  1 eigenvalues not converged
     ethr =  8.00E-09,  avg # of iterations = 18.5

     negative rho (up, down):  8.985E-04 0.000E+00

     total cpu time spent up to now is    16576.1 secs

     total energy              =  -33980.26761199 Ry
     estimated scf accuracy    <       0.00003285 Ry

     iteration # 20     ecut=    77.00 Ry     beta= 0.20
     Davidson diagonalization with overlap
     ethr =  1.92E-09,  avg # of iterations = 14.0

     negative rho (up, down):  8.926E-04 0.000E+00

     total cpu time spent up to now is    17417.8 secs

     total energy              =  -33980.26762780 Ry
     estimated scf accuracy    <       0.00002490 Ry

     iteration # 21     ecut=    77.00 Ry     beta= 0.20
     Davidson diagonalization with overlap
     ethr =  1.45E-09,  avg # of iterations =  9.8

     negative rho (up, down):  8.903E-04 0.000E+00

     total cpu time spent up to now is    17859.8 secs

     total energy              =  -33980.26762368 Ry
     estimated scf accuracy    <       0.00001003 Ry

     iteration # 22     ecut=    77.00 Ry     beta= 0.20
     Davidson diagonalization with overlap
     ethr =  5.85E-10,  avg # of iterations = 15.0

     negative rho (up, down):  8.923E-04 0.000E+00

     total cpu time spent up to now is    18859.1 secs

     total energy              =  -33980.26763430 Ry
     estimated scf accuracy    <       0.00000200 Ry

     iteration # 23     ecut=    77.00 Ry     beta= 0.20
     Davidson diagonalization with overlap
     c_bands:  3 eigenvalues not converged
     ethr =  1.17E-10,  avg # of iterations = 20.2

     negative rho (up, down):  8.870E-04 0.000E+00

     total cpu time spent up to now is    20099.0 secs

     End of self-consistent calculation

          k = 0.0000 0.0000 0.0000 (386245 PWs)   bands (ev):

  -102.9333 -88.0331 -71.2449 -71.2286 -71.2226 -71.2219 -71.2078 -71.2073
   -71.1988 -66.5584 -66.5584 -66.5572 -66.5529 -66.5385 -66.5381 -66.5372
   -66.5372 -66.5372 -66.5372 -66.5372 -66.5371 -66.5371 -66.5371 -66.5371
   -66.5370 -66.5369 -66.5368 -66.5368 -66.5359 -66.5359 -66.5359 -66.5358
   -66.5358 -66.5358 -66.5294 -66.5222 -66.5214 -66.5160 -66.5159 -66.5158
   -66.5158 -66.5158 -66.5158 -66.5158 -66.5158 -66.5157 -66.5157 -66.5157
   -66.5157 -66.5157 -66.5157 -66.5156 -66.5156 -66.5154 -66.5154 -66.5152
   -66.5145 -66.5145 -66.5144 -66.5144 -66.5144 -66.5144 -66.5144 -66.5144
   -66.5144 -66.5079 -66.5076 -66.5006 -66.4960 -66.4942 -66.4888 -66.4742
   -66.4737 -57.1866 -57.1573 -57.1564 -53.8608 -53.8350 -53.8342 -40.8858
   -40.8858 -40.8858 -40.8858 -40.8858 -40.8856 -40.8852 -40.8852 -40.8852
   -40.8742 -40.8707 -40.8691 -40.8105 -40.8105 -40.8105 -40.8104 -40.8104
   -40.8104 -40.8104 -40.8104 -40.8104 -40.8103 -40.8103 -40.8102 -40.8098
   -40.8098 -40.8098 -40.8098 -40.8098 -40.8098 -40.8029 -40.7975 -40.7919
   -40.7896 -40.7849 -40.7817 -40.7677 -40.7181 -40.7180 -40.7175 -40.7165
   -40.6903 -40.6842 -40.6842 -40.6841 -40.6841 -40.6841 -40.6841 -40.6841
   -40.6841 -40.6841 -40.6839 -40.6839 -40.6838 -40.6833 -40.6833 -40.6833
   -40.6833 -40.6833 -40.6833 -40.6810 -40.6809 -40.6792 -40.6764 -40.6764
   -40.6764 -40.6764 -40.6764 -40.6763 -40.6763 -40.6763 -40.6763 -40.6762
   -40.6761 -40.6761 -40.6757 -40.6757 -40.6757 -40.6757 -40.6757 -40.6757
   -40.6745 -40.6701 -40.6691 -40.6646 -40.6636 -40.6620 -40.6492 -40.6491
   -40.6491 -40.6491 -40.6491 -40.6491 -40.6491 -40.6491 -40.6491 -40.6489
   -40.6489 -40.6488 -40.6482 -40.6482 -40.6482 -40.6482 -40.6482 -40.6482
   -40.6475 -40.6453 -40.6435 -40.6427 -40.6421 -40.6366 -40.6345 -40.6345
   -40.6345 -40.6344 -40.6344 -40.6344 -40.6344 -40.6344 -40.6344 -40.6344
   -40.6343 -40.6343 -40.6343 -40.6343 -40.6343 -40.6342 -40.6341 -40.6340
   -40.6337 -40.6337 -40.6337 -40.6337 -40.6337 -40.6337 -40.6336 -40.6336
   -40.6336 -40.6328 -40.6319 -40.6311 -40.6298 -40.6274 -40.6224 -40.6174
   -40.6164 -40.6140 -40.6104 -40.5708 -40.5707 -40.5707 -40.5707 -40.5707
   -40.5706 -40.5698 -40.5698 -40.5698 -40.5593 -40.5531 -40.5520 -40.5238
   -40.5237 -40.5237 -40.5236 -40.5236 -40.5236 -40.5236 -40.5236 -40.5236
   -40.5235 -40.5233 -40.5233 -40.5227 -40.5227 -40.5227 -40.5227 -40.5227
   -40.5227 -40.5077 -40.5067 -40.5027 -40.5024 -40.4975 -40.4959 -40.4760
   -40.4760 -40.4759 -40.4759 -40.4750 -40.4750 -40.4533 -40.4485 -20.0818
   -20.0213 -19.9211 -19.8194 -19.3228 -19.2652 -19.2543 -19.2011 -19.1874
   -19.1818 -19.1681 -19.1660 -19.1651 -19.1523 -19.1338 -19.1203 -19.0780
   -19.0755 -19.0749 -19.0655 -19.0505 -19.0363 -18.9754 -18.9747 -18.9744
   -18.9713 -18.9657 -18.9595 -18.8495 -18.7325 -18.5741 -18.5351 -18.5322
   -18.5097 -18.4435 -18.4306 -18.4128 -18.4049 -18.3746 -18.3685 -18.3558
   -18.3359 -18.3248 -18.3138 -18.2969 -18.2504 -18.2203 -18.2181 -18.2173
   -18.2056 -18.1856 -18.1658 -18.1316 -18.1231 -18.1187 -18.1152 -18.1082
   -18.1065 -18.0946 -18.0783 -18.0579 -18.0557 -18.0543 -18.0533 -18.0526
   -18.0496 -18.0308 -18.0236 -18.0204 -18.0200 -18.0134 -18.0122 -18.0106
   -18.0093 -18.0072 -17.9956 -17.9876 -17.9849 -17.9835 -17.9786 -17.9707
   -17.9686 -17.9612 -17.9550 -17.9494 -17.9421 -17.9397 -17.9376 -17.9325
   -17.9261 -17.9222 -17.9197 -17.8879 -17.8877 -17.8798 -17.8714 -17.8630
   -17.8554 -17.8539 -17.8532 -17.8487 -17.8303 -17.8302 -17.8205 -17.8185
   -17.8114 -17.8067 -17.8041 -17.8022 -17.7974 -17.7942 -17.7920 -17.7894
   -17.7751 -17.7750 -17.7733 -17.7657 -17.7622 -17.7595 -17.7584 -17.7567
   -17.7534 -17.7315 -17.7308 -17.7298 -17.7295 -17.7290 -17.7277 -12.0493
   -11.9083 -11.7967 -11.7822 -11.7362 -11.7153 -11.7084 -11.6937 -11.6121
   -11.5972 -11.5919 -11.4945 -11.4880 -11.4850 -11.4506 -11.3874 -11.3475
   -11.2518 -11.1949 -11.1801 -11.1732 -11.1730 -11.1643 -11.1642 -11.0958
   -11.0772 -11.0716 -11.0684 -11.0672 -11.0639 -11.0612 -11.0442 -11.0258
   -11.0254 -11.0105 -11.0103 -10.9997 -10.9987 -10.9939 -10.9899 -10.9792
   -10.9785 -10.9686 -10.9392 -10.9364 -10.9313 -10.9241 -10.9043 -10.8878
   -10.8771 -10.8716 -10.8658 -10.8570 -10.8500 -10.8361 -10.8250 -10.8211
   -10.8189 -10.8042 -10.7905 -10.7890 -10.7836 -10.7811 -10.7757 -10.7700
   -10.7650 -10.7635 -10.7628 -10.7622 -10.7549 -10.7486 -10.7474 -10.7462
   -10.7419 -10.7414 -10.7335 -10.7152 -10.7146 -10.7092 -10.7087 -10.7066
   -10.7046 -10.7012 -10.6941 -10.6893 -10.6720 -10.6719 -10.6706 -10.6695
   -10.6685 -10.6670 -10.5965 -10.5957 -10.5930 -10.5512 -10.5294 -10.5257
   -10.5205 -10.5162 -10.5123 -10.4257 -10.3964 -10.1543 -10.1377 -10.1323
   -10.0039 -10.0036  -9.9513  -9.9153  -9.8351  -9.8202  -9.8163  -9.7671
    -9.7544  -9.7345  -9.7339  -9.7334  -9.7269  -9.7104  -9.7046  -9.7046
    -9.7045  -9.7010  -9.6969  -9.6895  -9.6858  -9.6839  -9.6833  -9.6714
    -9.6710  -9.6570  -9.6456  -9.6276  -9.6131  -9.5718  -9.5707  -9.5659
    -9.5648  -9.5608  -9.5559  -9.5535  -9.5523  -9.5519  -9.5507  -9.5491
    -9.5453  -9.5437  -9.5426  -9.5171  -9.4995  -9.4762  -9.4757  -9.4754
    -9.4753  -9.4749  -9.4749  -9.4658  -9.4620  -9.4614  -9.4537  -9.4505
    -9.4383  -9.4358  -9.4232  -9.3904  -9.3806  -9.3306  -9.3191  -9.2970
    -9.2963  -9.2856  -9.2786  -9.2732  -9.2688  -9.2633  -9.2573  -9.2489
    -9.2406  -9.2074  -9.1949  -9.1872  -9.1671  -9.1665  -9.1509  -9.1271
    -9.1265  -9.1220  -9.1146  -9.1143  -9.1142  -9.1113  -9.1013  -9.0940
    -9.0909  -9.0658  -9.0579  -9.0524  -9.0323  -9.0003  -8.9719  -8.9356
    -8.9248  -8.9224  -8.9161  -8.9127  -8.9106  -8.8935  -8.8845  -8.8817
    -8.8785  -8.8634  -8.8514  -8.8512  -8.8473  -8.8470  -8.8394  -8.8350
    -8.8210  -8.8165  -8.8025  -8.7553  -8.7553  -8.7553  -8.7550  -8.7546
    -8.7541  -8.6901  -8.6870  -8.6847  -8.6834  -8.6781  -8.6595  -8.6141
    -8.6032  -8.6014  -8.5988  -8.5968  -8.5881  -8.5750  -8.5296  -8.5286
    -8.5258  -8.5252  -8.5246  -8.5189  -8.4959  -8.4435  -8.3797  -8.3372
    -8.3004  -8.3003  -8.2958  -8.2951  -8.2902  -8.2887  -8.2872  -8.2605
    -8.2394  -8.2375  -8.2261  -8.2098  -8.2097  -8.2086  -8.2076  -8.2076
    -8.2063  -8.1831  -8.1831  -8.1814  -8.1802  -8.1799  -8.1795  -8.1550
    -8.1548  -8.1541  -8.1537  -8.1535  -8.1534  -8.1072  -8.0655  -7.9972
    -7.9404  -7.9368  -7.8281  -7.7908  -7.7893  -7.7765  -7.7039  -7.7017
    -7.6899  -7.6374  -7.6272  -7.5920  -7.5796  -7.5778  -7.5759  -7.5551
    -7.5510  -7.5474  -7.5429  -7.5425  -7.5370  -7.5311  -7.5057  -7.5020
    -7.4887  -7.4823  -7.4756  -7.4730  -7.4681  -7.4676  -7.4675  -7.4665
    -7.4644  -7.4555  -7.4483  -7.4452  -7.4415  -7.4402  -7.4396  -7.4386
    -7.4354  -7.4330  -7.4176  -7.4159  -7.4157  -7.4157  -7.4155  -7.4137
    -7.3988  -7.3895  -7.3797  -7.3630  -7.3596  -7.3596  -7.3488  -7.3445
    -7.3444  -7.3366  -7.3090  -7.3022  -7.2765  -7.2734  -7.2552  -7.2500
    -7.2487  -7.2347  -7.2317  -7.2292  -7.2288  -7.2247  -7.2181  -7.2151
    -7.1845  -7.1842  -7.1663  -7.1656  -7.1595  -7.1477  -7.1475  -7.0928
    -7.0777  -7.0732  -7.0532  -7.0524  -7.0179  -6.9878  -6.9427  -6.8706
    -6.8362  -6.8269  -6.8020  -6.7930  -6.7530  -6.7468  -6.7352  -6.7251
    -6.7094  -6.7082  -6.6865  -6.6767  -6.6334  -6.6322  -6.6285  -6.6279
    -6.6125  -6.5779  -6.5586  -6.5547  -6.5533  -6.5526  -6.5494  -6.5252
    -6.5206  -6.5132  -6.5063  -6.4847  -6.4827  -6.4781  -6.4665  -6.4585
    -6.4485  -6.4453  -6.4443  -6.4441  -6.4421  -6.4406  -6.4393  -6.4382
    -6.4316  -6.4312  -6.4312  -6.4308  -6.4307  -6.4303  -6.4198  -6.3899
    -6.3873  -6.3775  -6.3489  -6.3462  -6.3435  -6.3287  -6.3103  -6.3034
    -6.2868  -6.2672  -6.2663  -6.2652  -6.2650  -6.2613  -6.2589  -6.2335
    -6.2281  -6.2257  -6.2252  -6.2203  -6.2197  -6.2056  -6.1897  -6.1882
    -6.1875  -6.1855  -6.1853  -6.1839  -6.1738  -6.1409  -6.0620  -6.0383
    -5.8715  -5.7188  -5.6677  -5.6654  -5.5385  -5.3952  -5.3933  -5.2526
    -5.0856  -4.1682  -3.9190  -3.7888  -3.7888  -3.7804  -3.7780  -3.7627
    -3.7604  -3.7595  -3.7582  -3.7580  -3.7545  -3.7354  -3.7125  -3.6424
    -3.6372  -3.6257  -3.6216  -3.6155  -3.6146  -3.6104  -3.6083  -3.6027
    -3.6026  -3.5111  -3.4811  -3.4511  -3.4507  -3.4442  -3.4344  -3.4283
    -3.4183  -3.4178  -3.4063  -3.4060  -3.4051  -3.4019  -3.4013  -3.3915
    -3.3903  -3.3859  -3.3786  -3.3762  -3.3756  -3.3755  -3.3722  -3.3609
    -3.3608  -3.3605  -3.3476  -3.3464  -3.3450  -3.3437  -3.3432  -3.3398
    -3.3346  -3.3322  -3.3321  -3.3285  -3.3250  -3.2939  -3.2855  -3.2826
    -3.2806  -3.2799  -3.2776  -3.2733  -3.2725  -3.2720  -3.2639  -3.2503
    -3.2431  -3.2213  -3.2212  -3.2164  -3.2159  -3.2125  -3.2073  -3.2042
    -3.1831  -3.1583  -3.1487  -3.1400  -3.1257  -3.0231  -3.0122  -3.0112
    -2.9938  -2.9929  -2.9926  -2.9900  -2.9764  -2.9758  -2.9698  -2.9455
    -2.9369  -2.9319  -2.9086  -2.9078  -2.9062  -2.9051  -2.9043  -2.9011
    -2.8977  -2.8972  -2.8961  -2.8959  -2.8929  -2.8869  -2.8863  -2.8789
    -2.8740  -2.8716  -2.8668  -2.8667  -2.8648  -2.8631  -2.8618  -2.8614
    -2.8610  -2.8547  -2.8510  -2.8230  -2.8187  -2.8186  -2.8064  -2.7997
    -2.7993  -2.7943  -2.7856  -2.7785  -2.7409  -2.7385  -2.7383  -2.7381
    -2.7378  -2.7377  -2.7367  -2.7359  -2.7348  -2.7194  -2.7176  -2.7063
    -2.6933  -2.6822  -2.6797  -2.6633  -2.6606  -2.6521  -2.6508  -2.6043
    -2.6010  -2.5745  -2.5732  -2.5624  -2.5540  -2.5537  -2.5510  -2.5482
    -2.5474  -2.5205  -2.5054  -2.4904  -2.4867  -2.4729  -2.4693  -2.3625
    -2.3527  -2.3469  -2.3458  -2.3392

          k = 0.0000-0.5773 0.0000 (386352 PWs)   bands (ev):

  -102.9333 -88.0331 -71.2449 -71.2286 -71.2226 -71.2219 -71.2078 -71.2073
   -71.1988 -66.5522 -66.5522 -66.5522 -66.5521 -66.5513 -66.5509 -66.5509
   -66.5416 -66.5416 -66.5415 -66.5414 -66.5406 -66.5403 -66.5403 -66.5396
   -66.5371 -66.5293 -66.5266 -66.5265 -66.5264 -66.5264 -66.5264 -66.5264
   -66.5263 -66.5262 -66.5252 -66.5252 -66.5252 -66.5252 -66.5222 -66.5220
   -66.5220 -66.5220 -66.5219 -66.5207 -66.5207 -66.5174 -66.5158 -66.5158
   -66.5157 -66.5157 -66.5157 -66.5157 -66.5156 -66.5154 -66.5145 -66.5144
   -66.5144 -66.5144 -66.5141 -66.5113 -66.5113 -66.5113 -66.5112 -66.5100
   -66.5100 -66.5098 -66.5091 -66.5008 -66.4955 -66.4942 -66.4891 -66.4740
   -66.4738 -57.1866 -57.1573 -57.1564 -53.8608 -53.8350 -53.8342 -40.8587
   -40.8542 -40.8542 -40.8541 -40.8541 -40.8541 -40.8541 -40.8541 -40.8539
   -40.8535 -40.8535 -40.8535 -40.8535 -40.8427 -40.8326 -40.8273 -40.8273
   -40.8273 -40.8272 -40.8267 -40.8267 -40.8218 -40.8153 -40.8153 -40.8152
   -40.8152 -40.8152 -40.8146 -40.8146 -40.8112 -40.8000 -40.7857 -40.7678
   -40.7646 -40.7646 -40.7646 -40.7646 -40.7646 -40.7645 -40.7645 -40.7645
   -40.7639 -40.7639 -40.7639 -40.7639 -40.7477 -40.7465 -40.7463 -40.7382
   -40.7096 -40.7059 -40.7059 -40.7059 -40.7057 -40.7053 -40.7052 -40.7048
   -40.6963 -40.6963 -40.6963 -40.6962 -40.6955 -40.6955 -40.6850 -40.6850
   -40.6850 -40.6849 -40.6844 -40.6844 -40.6833 -40.6777 -40.6766 -40.6705
   -40.6602 -40.6555 -40.6554 -40.6554 -40.6554 -40.6554 -40.6554 -40.6552
   -40.6552 -40.6547 -40.6547 -40.6547 -40.6547 -40.6517 -40.6512 -40.6467
   -40.6467 -40.6467 -40.6467 -40.6465 -40.6460 -40.6460 -40.6447 -40.6423
   -40.6348 -40.6348 -40.6348 -40.6347 -40.6344 -40.6344 -40.6344 -40.6344
   -40.6344 -40.6343 -40.6343 -40.6340 -40.6340 -40.6340 -40.6337 -40.6337
   -40.6337 -40.6336 -40.6303 -40.6298 -40.6257 -40.6257 -40.6256 -40.6256
   -40.6250 -40.6250 -40.6235 -40.6211 -40.6179 -40.6132 -40.6121 -40.6040
   -40.6039 -40.6039 -40.6039 -40.6039 -40.6038 -40.6038 -40.6037 -40.6030
   -40.6030 -40.6030 -40.6030 -40.5978 -40.5872 -40.5827 -40.5760 -40.5691
   -40.5691 -40.5691 -40.5691 -40.5691 -40.5691 -40.5690 -40.5690 -40.5682
   -40.5682 -40.5682 -40.5682 -40.5570 -40.5570 -40.5570 -40.5568 -40.5561
   -40.5560 -40.5548 -40.5512 -40.5495 -40.5460 -40.5407 -40.5377 -40.5377
   -40.5377 -40.5375 -40.5367 -40.5367 -40.5239 -40.5207 -40.5207 -40.5207
   -40.5205 -40.5201 -40.5197 -40.5197 -40.5154 -40.4983 -40.4954 -40.4900
   -40.4900 -40.4899 -40.4899 -40.4890 -40.4890 -40.4780 -40.4539 -19.8905
   -19.8207 -19.7954 -19.7597 -19.6941 -19.6687 -19.5879 -19.5796 -19.4409
   -19.4022 -19.3590 -19.3494 -19.2644 -19.2581 -19.1623 -19.1602 -18.8337
   -18.8058 -18.7829 -18.7345 -18.7094 -18.6621 -18.6557 -18.6538 -18.6537
   -18.6468 -18.6167 -18.6094 -18.5837 -18.5829 -18.5760 -18.5388 -18.5252
   -18.5193 -18.5085 -18.4859 -18.4834 -18.4801 -18.4745 -18.4717 -18.4285
   -18.4221 -18.4118 -18.4105 -18.4024 -18.3703 -18.3489 -18.3454 -18.3443
   -18.3310 -18.3100 -18.2920 -18.2741 -18.2645 -18.2481 -18.2367 -18.1965
   -18.1936 -18.1710 -18.1662 -18.1548 -18.1338 -18.1063 -18.1001 -18.0940
   -18.0690 -18.0610 -18.0407 -18.0349 -18.0345 -18.0324 -18.0292 -18.0105
   -18.0067 -18.0060 -18.0045 -18.0020 -17.9994 -17.9967 -17.9894 -17.9849
   -17.9741 -17.9654 -17.9653 -17.9457 -17.9393 -17.9376 -17.9358 -17.9347
   -17.9296 -17.9241 -17.9224 -17.9211 -17.9106 -17.8891 -17.8737 -17.8682
   -17.8629 -17.8550 -17.8536 -17.8309 -17.8273 -17.8177 -17.8091 -17.8076
   -17.7818 -17.7784 -17.7769 -17.7711 -17.7707 -17.7529 -17.7520 -17.7516
   -17.7514 -17.7500 -17.7497 -17.7387 -17.7369 -17.7197 -17.7160 -17.6950
   -17.6917 -17.6758 -17.6715 -17.6606 -17.6578 -17.6525 -17.6521 -11.9285
   -11.6612 -11.6518 -11.5901 -11.5374 -11.4696 -11.4562 -11.4470 -11.4364
   -11.4359 -11.4304 -11.4156 -11.4114 -11.4054 -11.3821 -11.3687 -11.3680
   -11.3418 -11.3195 -11.3029 -11.2878 -11.2732 -11.2608 -11.2577 -11.2485
   -11.2270 -11.2070 -11.2003 -11.1999 -11.1918 -11.1903 -11.1889 -11.1819
   -11.1506 -11.1395 -11.1383 -11.1300 -11.1178 -11.1031 -11.1021 -11.1001
   -11.0911 -11.0835 -11.0800 -11.0798 -11.0494 -11.0322 -11.0038 -10.9951
   -10.9898 -10.9701 -10.9241 -10.9005 -10.8830 -10.8771 -10.8738 -10.8645
   -10.8522 -10.8462 -10.8342 -10.8246 -10.7951 -10.7866 -10.7694 -10.7656
   -10.7626 -10.7590 -10.7474 -10.7453 -10.7446 -10.7434 -10.7409 -10.7330
   -10.7316 -10.7279 -10.7271 -10.7245 -10.7242 -10.7172 -10.7163 -10.7144
   -10.7034 -10.6768 -10.6765 -10.6758 -10.6743 -10.6175 -10.5601 -10.4877
   -10.4753 -10.4610 -10.4599 -10.4308 -10.3987 -10.3482 -10.3070 -10.2284
   -10.1817 -10.1762 -10.1502 -10.1094 -10.1010 -10.0736 -10.0537 -10.0525
   -10.0475 -10.0239 -10.0036  -9.9954  -9.9927  -9.9843  -9.9818  -9.9683
    -9.9559  -9.9429  -9.9365  -9.9337  -9.9130  -9.8916  -9.8686  -9.8550
    -9.8506  -9.8487  -9.8362  -9.8266  -9.8254  -9.8154  -9.7937  -9.7911
    -9.7675  -9.7394  -9.7324  -9.7295  -9.7257  -9.7067  -9.6977  -9.6819
    -9.6668  -9.6567  -9.6492  -9.6367  -9.5989  -9.5942  -9.5855  -9.5784
    -9.5510  -9.5470  -9.5294  -9.5119  -9.5086  -9.5010  -9.4835  -9.4752
    -9.4741  -9.4582  -9.4500  -9.4227  -9.4225  -9.4187  -9.4113  -9.4084
    -9.3961  -9.3933  -9.3892  -9.3790  -9.3633  -9.3627  -9.3538  -9.3136
    -9.2884  -9.2644  -9.2442  -9.2325  -9.2057  -9.1874  -9.1545  -9.1530
    -9.1451  -9.1408  -9.1289  -9.1267  -9.1166  -9.0825  -9.0761  -9.0704
    -9.0510  -9.0392  -9.0272  -9.0231  -9.0058  -9.0019  -8.9896  -8.9812
    -8.9802  -8.9650  -8.9589  -8.9543  -8.9302  -8.9239  -8.8944  -8.8865
    -8.8848  -8.8839  -8.8640  -8.8585  -8.8533  -8.8396  -8.8365  -8.8288
    -8.8210  -8.8186  -8.8180  -8.8174  -8.8133  -8.8048  -8.8021  -8.8011
    -8.7917  -8.7852  -8.7779  -8.7749  -8.7730  -8.7724  -8.7656  -8.7613
    -8.7374  -8.7337  -8.7273  -8.7209  -8.7159  -8.7151  -8.7138  -8.6972
    -8.6904  -8.6721  -8.6665  -8.6648  -8.6639  -8.6615  -8.6549  -8.6371
    -8.5911  -8.5813  -8.5802  -8.5239  -8.5079  -8.4485  -8.4376  -8.4300
    -8.3946  -8.3752  -8.3667  -8.3052  -8.2842  -8.2796  -8.1969  -8.1810
    -8.1630  -8.1056  -8.0609  -8.0605  -8.0546  -8.0515  -8.0473  -8.0401
    -8.0389  -8.0062  -7.9966  -7.9869  -7.9648  -7.9572  -7.9044  -7.9012
    -7.8600  -7.8213  -7.8088  -7.7789  -7.7753  -7.7748  -7.7648  -7.7545
    -7.7541  -7.7507  -7.7500  -7.7362  -7.7335  -7.7298  -7.7292  -7.7280
    -7.7230  -7.7212  -7.7175  -7.7138  -7.7123  -7.7051  -7.7017  -7.7015
    -7.6989  -7.6976  -7.6967  -7.6944  -7.6910  -7.6905  -7.6821  -7.6803
    -7.6680  -7.6647  -7.6621  -7.6587  -7.6477  -7.6312  -7.6298  -7.6294
    -7.6281  -7.6037  -7.5997  -7.5990  -7.5976  -7.5975  -7.5937  -7.5893
    -7.5728  -7.5694  -7.5427  -7.5407  -7.5360  -7.5314  -7.5294  -7.5253
    -7.5240  -7.5181  -7.5154  -7.5116  -7.4968  -7.4966  -7.4871  -7.4868
    -7.4727  -7.4725  -7.4040  -7.3946  -7.3890  -7.3844  -7.3826  -7.3777
    -7.3618  -7.3309  -7.2040  -7.1456  -7.1282  -7.1265  -7.1009  -7.1003
    -7.0981  -7.0968  -7.0596  -7.0544  -7.0446  -7.0361  -7.0300  -7.0081
    -6.9792  -6.9790  -6.9652  -6.9564  -6.9485  -6.9304  -6.9177  -6.9086
    -6.8973  -6.8875  -6.8719  -6.8476  -6.8361  -6.8250  -6.8154  -6.8144
    -6.7923  -6.7887  -6.7785  -6.7766  -6.7387  -6.7089  -6.6982  -6.6921
    -6.6898  -6.6510  -6.6193  -6.5960  -6.5881  -6.5741  -6.5586  -6.5546
    -6.5427  -6.5384  -6.5375  -6.5373  -6.5352  -6.5288  -6.5208  -6.5198
    -6.5194  -6.5168  -6.5118  -6.5116  -6.5115  -6.5111  -6.5078  -6.4627
    -6.4614  -6.3899  -6.3702  -6.3455  -6.3398  -6.2733  -6.2652  -6.2626
    -6.2567  -6.2504  -6.2467  -6.2396  -6.2294  -6.2208  -6.2101  -6.2095
    -6.2056  -6.2047  -6.1999  -6.1920  -6.1861  -6.1690  -6.1565  -6.1451
    -6.1391  -6.1319  -6.1306  -6.1274  -6.1236  -5.9346  -5.9304  -5.9287
    -5.8865  -5.8862  -5.8360  -5.8306  -5.7914  -5.7813  -5.7788  -5.6952
    -5.6716  -5.6460  -5.6313  -5.5827  -5.5446  -5.5228  -5.4490  -5.3775
    -5.3669  -4.2185  -4.0268  -4.0267  -4.0139  -3.9921  -3.8717  -3.8573
    -3.8548  -3.8538  -3.8312  -3.8043  -3.7752  -3.7732  -3.7614  -3.7569
    -3.7446  -3.7418  -3.7335  -3.7309  -3.7299  -3.7181  -3.6472  -3.6222
    -3.6184  -3.6109  -3.5570  -3.5384  -3.5328  -3.5322  -3.5301  -3.5236
    -3.4853  -3.4834  -3.4656  -3.4528  -3.4517  -3.4481  -3.4426  -3.4414
    -3.4320  -3.4169  -3.4138  -3.4114  -3.4066  -3.4048  -3.3999  -3.3974
    -3.3853  -3.3793  -3.3767  -3.3595  -3.3494  -3.3467  -3.3419  -3.3379
    -3.2943  -3.2856  -3.2825  -3.2804  -3.2765  -3.2742  -3.2722  -3.2691
    -3.2628  -3.2395  -3.2341  -3.2269  -3.2171  -3.2134  -3.2120  -3.2099
    -3.2081  -3.2036  -3.1946  -3.1775  -3.1754  -3.1664  -3.1645  -3.1625
    -3.1574  -3.1501  -3.1430  -3.1397  -3.1350  -3.1215  -3.1181  -3.1110
    -3.1083  -3.1057  -3.0930  -3.0929  -3.0924  -3.0914  -3.0623  -3.0513
    -3.0255  -3.0191  -3.0042  -3.0026  -3.0001  -2.9934  -2.9849  -2.9626
    -2.9588  -2.9541  -2.9538  -2.9523  -2.9508  -2.9465  -2.9463  -2.9391
    -2.9351  -2.9340  -2.9337  -2.9211  -2.9195  -2.9178  -2.9144  -2.9079
    -2.9067  -2.8997  -2.8969  -2.8928  -2.8912  -2.8808  -2.8776  -2.8750
    -2.8722  -2.8671  -2.8615  -2.8538  -2.8422  -2.8365  -2.8314  -2.8203
    -2.8135  -2.8120  -2.8074  -2.7962  -2.7740  -2.7319  -2.7302  -2.7186
    -2.7163  -2.6780  -2.6574  -2.6446  -2.6404  -2.5513  -2.5415  -2.5226
    -2.5164  -2.5055  -2.5050  -2.4869  -2.4750  -2.4620  -2.4601  -2.4579
    -2.4566  -2.4512  -2.4472  -2.4395  -2.3427  -2.3328  -2.3294  -2.3255
    -2.3148  -2.3100  -2.2906  -2.2820

          k =-0.5000-0.2887 0.0000 (386352 PWs)   bands (ev):

  -102.9333 -88.0331 -71.2449 -71.2286 -71.2226 -71.2219 -71.2078 -71.2073
   -71.1988 -66.5522 -66.5522 -66.5522 -66.5520 -66.5509 -66.5509 -66.5482
   -66.5480 -66.5416 -66.5416 -66.5415 -66.5415 -66.5403 -66.5403 -66.5389
   -66.5309 -66.5272 -66.5265 -66.5265 -66.5265 -66.5265 -66.5264 -66.5264
   -66.5264 -66.5263 -66.5263 -66.5252 -66.5252 -66.5252 -66.5252 -66.5220
   -66.5220 -66.5220 -66.5218 -66.5207 -66.5207 -66.5194 -66.5159 -66.5158
   -66.5157 -66.5157 -66.5157 -66.5157 -66.5157 -66.5154 -66.5145 -66.5144
   -66.5144 -66.5144 -66.5142 -66.5113 -66.5113 -66.5112 -66.5112 -66.5100
   -66.5100 -66.5098 -66.5077 -66.5000 -66.4951 -66.4947 -66.4895 -66.4744
   -66.4734 -57.1866 -57.1573 -57.1564 -53.8608 -53.8350 -53.8342 -40.8542
   -40.8542 -40.8542 -40.8541 -40.8541 -40.8541 -40.8541 -40.8538 -40.8535
   -40.8535 -40.8535 -40.8535 -40.8503 -40.8410 -40.8375 -40.8275 -40.8273
   -40.8273 -40.8273 -40.8272 -40.8267 -40.8267 -40.8199 -40.8176 -40.8153
   -40.8153 -40.8152 -40.8152 -40.8146 -40.8146 -40.7983 -40.7788 -40.7678
   -40.7646 -40.7646 -40.7646 -40.7646 -40.7645 -40.7645 -40.7645 -40.7645
   -40.7639 -40.7639 -40.7639 -40.7639 -40.7505 -40.7440 -40.7416 -40.7350
   -40.7110 -40.7059 -40.7059 -40.7058 -40.7058 -40.7053 -40.7052 -40.7011
   -40.6963 -40.6963 -40.6963 -40.6962 -40.6955 -40.6955 -40.6907 -40.6850
   -40.6850 -40.6850 -40.6849 -40.6844 -40.6844 -40.6775 -40.6736 -40.6675
   -40.6581 -40.6570 -40.6558 -40.6554 -40.6554 -40.6554 -40.6554 -40.6554
   -40.6554 -40.6552 -40.6552 -40.6547 -40.6547 -40.6547 -40.6547 -40.6486
   -40.6467 -40.6467 -40.6467 -40.6465 -40.6460 -40.6460 -40.6422 -40.6370
   -40.6348 -40.6348 -40.6348 -40.6347 -40.6344 -40.6344 -40.6344 -40.6344
   -40.6343 -40.6343 -40.6343 -40.6341 -40.6340 -40.6340 -40.6337 -40.6337
   -40.6337 -40.6336 -40.6334 -40.6283 -40.6257 -40.6257 -40.6256 -40.6256
   -40.6253 -40.6250 -40.6250 -40.6202 -40.6161 -40.6153 -40.6125 -40.6040
   -40.6039 -40.6039 -40.6039 -40.6039 -40.6039 -40.6037 -40.6035 -40.6030
   -40.6030 -40.6030 -40.6030 -40.5899 -40.5882 -40.5878 -40.5850 -40.5692
   -40.5691 -40.5691 -40.5691 -40.5691 -40.5691 -40.5690 -40.5690 -40.5682
   -40.5682 -40.5682 -40.5682 -40.5570 -40.5570 -40.5570 -40.5568 -40.5561
   -40.5560 -40.5553 -40.5499 -40.5468 -40.5436 -40.5413 -40.5378 -40.5377
   -40.5377 -40.5374 -40.5367 -40.5367 -40.5269 -40.5230 -40.5207 -40.5207
   -40.5206 -40.5206 -40.5197 -40.5197 -40.5140 -40.4970 -40.4901 -40.4900
   -40.4900 -40.4898 -40.4890 -40.4890 -40.4888 -40.4727 -40.4615 -19.8523
   -19.8461 -19.7886 -19.7858 -19.6896 -19.6875 -19.5867 -19.5861 -19.4156
   -19.3971 -19.3545 -19.3460 -19.2611 -19.2556 -19.1611 -19.1593 -18.8465
   -18.8339 -18.7901 -18.7228 -18.6824 -18.6752 -18.6552 -18.6541 -18.6529
   -18.6445 -18.6234 -18.6091 -18.5865 -18.5828 -18.5653 -18.5625 -18.5317
   -18.5254 -18.4984 -18.4891 -18.4851 -18.4834 -18.4666 -18.4566 -18.4424
   -18.4292 -18.4121 -18.4098 -18.4002 -18.3881 -18.3440 -18.3409 -18.3377
   -18.3326 -18.3021 -18.2845 -18.2654 -18.2596 -18.2431 -18.2193 -18.1955
   -18.1846 -18.1818 -18.1726 -18.1296 -18.1290 -18.1178 -18.1076 -18.0731
   -18.0701 -18.0523 -18.0454 -18.0379 -18.0359 -18.0310 -18.0307 -18.0219
   -18.0219 -18.0045 -18.0032 -18.0012 -17.9991 -17.9915 -17.9904 -17.9818
   -17.9778 -17.9748 -17.9737 -17.9431 -17.9421 -17.9377 -17.9370 -17.9336
   -17.9323 -17.9291 -17.9276 -17.9179 -17.9155 -17.8822 -17.8793 -17.8699
   -17.8698 -17.8630 -17.8620 -17.8268 -17.8242 -17.8159 -17.8158 -17.7881
   -17.7846 -17.7779 -17.7762 -17.7713 -17.7633 -17.7525 -17.7521 -17.7516
   -17.7513 -17.7506 -17.7489 -17.7373 -17.7369 -17.7175 -17.7167 -17.6935
   -17.6924 -17.6743 -17.6726 -17.6599 -17.6587 -17.6524 -17.6522 -11.8477
   -11.7318 -11.6470 -11.6294 -11.5503 -11.5096 -11.4701 -11.4582 -11.4448
   -11.4319 -11.4271 -11.4223 -11.4122 -11.4081 -11.3903 -11.3713 -11.3310
   -11.3196 -11.3142 -11.3054 -11.2800 -11.2714 -11.2582 -11.2511 -11.2384
   -11.2199 -11.2064 -11.2041 -11.1962 -11.1949 -11.1876 -11.1833 -11.1631
   -11.1492 -11.1384 -11.1360 -11.1252 -11.1222 -11.1057 -11.1023 -11.1008
   -11.0985 -11.0804 -11.0787 -11.0544 -11.0517 -11.0200 -11.0141 -11.0094
   -10.9928 -10.9645 -10.9358 -10.9113 -10.8864 -10.8799 -10.8688 -10.8586
   -10.8509 -10.8392 -10.8268 -10.8248 -10.7946 -10.7858 -10.7724 -10.7673
   -10.7667 -10.7561 -10.7519 -10.7448 -10.7445 -10.7436 -10.7428 -10.7382
   -10.7325 -10.7303 -10.7270 -10.7254 -10.7246 -10.7173 -10.7165 -10.7142
   -10.7110 -10.6767 -10.6764 -10.6758 -10.6754 -10.5886 -10.5543 -10.4818
   -10.4771 -10.4707 -10.4598 -10.4298 -10.4044 -10.3388 -10.3248 -10.2275
   -10.2001 -10.1459 -10.1266 -10.1143 -10.0814 -10.0752 -10.0685 -10.0482
   -10.0458 -10.0344 -10.0308  -9.9945  -9.9923  -9.9693  -9.9675  -9.9637
    -9.9598  -9.9531  -9.9430  -9.9257  -9.9180  -9.8857  -9.8703  -9.8640
    -9.8558  -9.8480  -9.8425  -9.8252  -9.8234  -9.8004  -9.7926  -9.7751
    -9.7590  -9.7436  -9.7384  -9.7303  -9.7121  -9.7098  -9.7052  -9.6770
    -9.6736  -9.6448  -9.6250  -9.6194  -9.6106  -9.5909  -9.5837  -9.5672
    -9.5563  -9.5490  -9.5338  -9.5189  -9.5038  -9.5036  -9.4833  -9.4773
    -9.4723  -9.4691  -9.4508  -9.4259  -9.4225  -9.4208  -9.4087  -9.4064
    -9.4000  -9.3927  -9.3897  -9.3858  -9.3809  -9.3627  -9.3597  -9.3301
    -9.3026  -9.2979  -9.2802  -9.2370  -9.2042  -9.1886  -9.1690  -9.1596
    -9.1507  -9.1324  -9.1288  -9.1188  -9.1021  -9.0979  -9.0890  -9.0630
    -9.0527  -9.0439  -9.0282  -9.0218  -9.0069  -8.9910  -8.9836  -8.9758
    -8.9724  -8.9673  -8.9630  -8.9290  -8.9231  -8.9174  -8.9005  -8.8865
    -8.8858  -8.8751  -8.8648  -8.8581  -8.8488  -8.8245  -8.8229  -8.8215
    -8.8197  -8.8184  -8.8152  -8.8090  -8.8038  -8.8020  -8.7988  -8.7983
    -8.7908  -8.7892  -8.7847  -8.7731  -8.7729  -8.7714  -8.7654  -8.7633
    -8.7502  -8.7261  -8.7256  -8.7220  -8.7205  -8.7169  -8.7165  -8.6956
    -8.6950  -8.6708  -8.6668  -8.6654  -8.6611  -8.6591  -8.6427  -8.6375
    -8.5858  -8.5850  -8.5722  -8.5431  -8.5231  -8.4377  -8.4351  -8.3955
    -8.3855  -8.3771  -8.3669  -8.3074  -8.2854  -8.2612  -8.2145  -8.1949
    -8.1781  -8.1407  -8.0606  -8.0605  -8.0523  -8.0516  -8.0417  -8.0401
    -8.0352  -8.0064  -7.9995  -7.9880  -7.9584  -7.9431  -7.9030  -7.9013
    -7.8854  -7.8432  -7.8063  -7.7884  -7.7729  -7.7706  -7.7698  -7.7593
    -7.7522  -7.7500  -7.7428  -7.7365  -7.7362  -7.7338  -7.7293  -7.7246
    -7.7234  -7.7213  -7.7186  -7.7147  -7.7130  -7.7109  -7.7065  -7.7017
    -7.7009  -7.6972  -7.6972  -7.6954  -7.6923  -7.6911  -7.6906  -7.6738
    -7.6707  -7.6633  -7.6608  -7.6594  -7.6556  -7.6296  -7.6293  -7.6290
    -7.6286  -7.6013  -7.5998  -7.5989  -7.5985  -7.5911  -7.5871  -7.5852
    -7.5736  -7.5616  -7.5506  -7.5420  -7.5402  -7.5392  -7.5353  -7.5344
    -7.5247  -7.5176  -7.5170  -7.5008  -7.4967  -7.4965  -7.4942  -7.4883
    -7.4834  -7.4654  -7.4010  -7.3950  -7.3932  -7.3928  -7.3757  -7.3568
    -7.3493  -7.2716  -7.2316  -7.1487  -7.1283  -7.1092  -7.1012  -7.0988
    -7.0974  -7.0766  -7.0696  -7.0505  -7.0435  -7.0384  -7.0339  -7.0209
    -7.0000  -6.9764  -6.9637  -6.9572  -6.9536  -6.9532  -6.9239  -6.9086
    -6.8956  -6.8666  -6.8489  -6.8465  -6.8421  -6.8301  -6.8169  -6.8046
    -6.7923  -6.7912  -6.7870  -6.7610  -6.7328  -6.7274  -6.7008  -6.6866
    -6.6624  -6.6497  -6.6244  -6.6056  -6.5983  -6.5751  -6.5673  -6.5518
    -6.5510  -6.5385  -6.5375  -6.5372  -6.5369  -6.5240  -6.5204  -6.5198
    -6.5196  -6.5179  -6.5117  -6.5116  -6.5115  -6.5114  -6.4712  -6.4552
    -6.4386  -6.3938  -6.3820  -6.3478  -6.3442  -6.3076  -6.2607  -6.2571
    -6.2524  -6.2507  -6.2446  -6.2343  -6.2174  -6.2102  -6.2098  -6.2057
    -6.2053  -6.2011  -6.1947  -6.1870  -6.1836  -6.1747  -6.1671  -6.1521
    -6.1413  -6.1361  -6.1329  -6.1297  -6.1010  -5.9481  -5.9352  -5.9186
    -5.9085  -5.8730  -5.8504  -5.8321  -5.8196  -5.7824  -5.7772  -5.6947
    -5.6817  -5.6571  -5.6242  -5.5554  -5.5438  -5.5075  -5.4705  -5.3857
    -5.3470  -4.1606  -4.0593  -4.0199  -4.0196  -3.9939  -3.9366  -3.8595
    -3.8584  -3.8463  -3.8416  -3.7997  -3.7741  -3.7735  -3.7643  -3.7580
    -3.7521  -3.7419  -3.7365  -3.7300  -3.7273  -3.6841  -3.6549  -3.6249
    -3.6099  -3.5866  -3.5647  -3.5375  -3.5331  -3.5317  -3.5303  -3.4950
    -3.4861  -3.4832  -3.4800  -3.4593  -3.4568  -3.4479  -3.4447  -3.4417
    -3.4314  -3.4179  -3.4110  -3.4079  -3.4078  -3.4064  -3.3988  -3.3961
    -3.3862  -3.3782  -3.3751  -3.3591  -3.3557  -3.3476  -3.3437  -3.3243
    -3.3128  -3.2855  -3.2807  -3.2794  -3.2769  -3.2758  -3.2708  -3.2684
    -3.2603  -3.2435  -3.2337  -3.2226  -3.2196  -3.2129  -3.2117  -3.2082
    -3.2060  -3.2021  -3.2007  -3.1788  -3.1754  -3.1667  -3.1650  -3.1602
    -3.1586  -3.1436  -3.1429  -3.1401  -3.1314  -3.1255  -3.1179  -3.1114
    -3.1082  -3.1030  -3.0950  -3.0929  -3.0928  -3.0887  -3.0722  -3.0487
    -3.0305  -3.0131  -3.0078  -3.0035  -2.9973  -2.9932  -2.9898  -2.9581
    -2.9565  -2.9548  -2.9545  -2.9522  -2.9518  -2.9440  -2.9426  -2.9411
    -2.9352  -2.9344  -2.9337  -2.9217  -2.9180  -2.9156  -2.9091  -2.9073
    -2.9066  -2.9010  -2.9000  -2.8949  -2.8862  -2.8790  -2.8776  -2.8743
    -2.8705  -2.8637  -2.8611  -2.8571  -2.8430  -2.8323  -2.8285  -2.8205
    -2.8160  -2.8131  -2.8038  -2.7919  -2.7816  -2.7286  -2.7256  -2.7216
    -2.7206  -2.6769  -2.6588  -2.6475  -2.6414  -2.5528  -2.5400  -2.5202
    -2.5035  -2.4906  -2.4839  -2.4754  -2.4662  -2.4630  -2.4587  -2.4572
    -2.4520  -2.4475  -2.4255  -2.3459  -2.3386  -2.3306  -2.3287  -2.3244
    -2.3144  -2.3019  -2.2881  -2.2725

          k =-0.5000-0.8660 0.0000 (386352 PWs)   bands (ev):

  -102.9333 -88.0331 -71.2449 -71.2286 -71.2226 -71.2219 -71.2078 -71.2073
   -71.1988 -66.5522 -66.5522 -66.5522 -66.5520 -66.5509 -66.5509 -66.5482
   -66.5480 -66.5416 -66.5416 -66.5415 -66.5414 -66.5403 -66.5403 -66.5389
   -66.5309 -66.5272 -66.5265 -66.5265 -66.5265 -66.5265 -66.5265 -66.5264
   -66.5264 -66.5263 -66.5262 -66.5252 -66.5252 -66.5252 -66.5251 -66.5220
   -66.5220 -66.5220 -66.5218 -66.5207 -66.5207 -66.5194 -66.5159 -66.5158
   -66.5158 -66.5157 -66.5157 -66.5157 -66.5157 -66.5154 -66.5145 -66.5144
   -66.5144 -66.5144 -66.5142 -66.5113 -66.5113 -66.5112 -66.5112 -66.5100
   -66.5100 -66.5098 -66.5077 -66.5000 -66.4951 -66.4947 -66.4895 -66.4744
   -66.4734 -57.1866 -57.1573 -57.1564 -53.8608 -53.8350 -53.8342 -40.8542
   -40.8542 -40.8542 -40.8541 -40.8541 -40.8541 -40.8541 -40.8538 -40.8535
   -40.8535 -40.8535 -40.8535 -40.8503 -40.8410 -40.8375 -40.8275 -40.8273
   -40.8273 -40.8273 -40.8272 -40.8267 -40.8267 -40.8199 -40.8176 -40.8153
   -40.8153 -40.8152 -40.8152 -40.8146 -40.8146 -40.7983 -40.7788 -40.7678
   -40.7646 -40.7646 -40.7646 -40.7646 -40.7645 -40.7645 -40.7645 -40.7645
   -40.7639 -40.7639 -40.7639 -40.7639 -40.7505 -40.7440 -40.7416 -40.7350
   -40.7110 -40.7059 -40.7059 -40.7058 -40.7058 -40.7053 -40.7052 -40.7011
   -40.6963 -40.6963 -40.6963 -40.6962 -40.6955 -40.6955 -40.6907 -40.6850
   -40.6850 -40.6850 -40.6849 -40.6844 -40.6844 -40.6775 -40.6736 -40.6675
   -40.6581 -40.6570 -40.6558 -40.6554 -40.6554 -40.6554 -40.6554 -40.6554
   -40.6554 -40.6552 -40.6552 -40.6547 -40.6547 -40.6547 -40.6547 -40.6486
   -40.6467 -40.6467 -40.6466 -40.6465 -40.6460 -40.6460 -40.6422 -40.6370
   -40.6348 -40.6348 -40.6348 -40.6347 -40.6345 -40.6344 -40.6344 -40.6343
   -40.6343 -40.6343 -40.6343 -40.6341 -40.6340 -40.6340 -40.6337 -40.6337
   -40.6337 -40.6336 -40.6334 -40.6283 -40.6257 -40.6257 -40.6256 -40.6256
   -40.6253 -40.6250 -40.6250 -40.6202 -40.6161 -40.6153 -40.6125 -40.6040
   -40.6039 -40.6039 -40.6039 -40.6039 -40.6038 -40.6037 -40.6035 -40.6030
   -40.6030 -40.6030 -40.6030 -40.5899 -40.5882 -40.5878 -40.5850 -40.5691
   -40.5691 -40.5691 -40.5691 -40.5691 -40.5691 -40.5690 -40.5690 -40.5682
   -40.5682 -40.5682 -40.5682 -40.5570 -40.5570 -40.5570 -40.5568 -40.5561
   -40.5560 -40.5553 -40.5499 -40.5468 -40.5436 -40.5413 -40.5378 -40.5377
   -40.5376 -40.5374 -40.5367 -40.5367 -40.5269 -40.5230 -40.5207 -40.5207
   -40.5206 -40.5206 -40.5197 -40.5197 -40.5140 -40.4970 -40.4901 -40.4900
   -40.4900 -40.4898 -40.4890 -40.4890 -40.4888 -40.4727 -40.4615 -19.8523
   -19.8461 -19.7886 -19.7858 -19.6896 -19.6875 -19.5867 -19.5861 -19.4156
   -19.3971 -19.3545 -19.3460 -19.2611 -19.2556 -19.1611 -19.1593 -18.8465
   -18.8339 -18.7901 -18.7228 -18.6824 -18.6752 -18.6552 -18.6541 -18.6529
   -18.6445 -18.6234 -18.6091 -18.5865 -18.5828 -18.5653 -18.5625 -18.5317
   -18.5254 -18.4984 -18.4892 -18.4851 -18.4834 -18.4666 -18.4566 -18.4424
   -18.4292 -18.4121 -18.4098 -18.4002 -18.3881 -18.3440 -18.3409 -18.3377
   -18.3326 -18.3021 -18.2845 -18.2654 -18.2596 -18.2431 -18.2192 -18.1955
   -18.1846 -18.1818 -18.1726 -18.1296 -18.1290 -18.1179 -18.1075 -18.0731
   -18.0701 -18.0523 -18.0454 -18.0379 -18.0359 -18.0310 -18.0307 -18.0219
   -18.0219 -18.0045 -18.0032 -18.0012 -17.9991 -17.9915 -17.9904 -17.9818
   -17.9778 -17.9748 -17.9737 -17.9431 -17.9421 -17.9377 -17.9370 -17.9336
   -17.9323 -17.9290 -17.9276 -17.9179 -17.9155 -17.8822 -17.8793 -17.8699
   -17.8698 -17.8630 -17.8620 -17.8268 -17.8242 -17.8159 -17.8158 -17.7881
   -17.7846 -17.7779 -17.7762 -17.7713 -17.7633 -17.7526 -17.7521 -17.7516
   -17.7512 -17.7506 -17.7489 -17.7373 -17.7369 -17.7175 -17.7167 -17.6935
   -17.6924 -17.6743 -17.6726 -17.6599 -17.6587 -17.6524 -17.6522 -11.8477
   -11.7317 -11.6470 -11.6294 -11.5503 -11.5096 -11.4701 -11.4582 -11.4448
   -11.4319 -11.4272 -11.4223 -11.4122 -11.4080 -11.3903 -11.3713 -11.3310
   -11.3196 -11.3142 -11.3054 -11.2800 -11.2714 -11.2582 -11.2511 -11.2384
   -11.2199 -11.2064 -11.2041 -11.1962 -11.1949 -11.1876 -11.1833 -11.1631
   -11.1492 -11.1384 -11.1360 -11.1252 -11.1222 -11.1057 -11.1023 -11.1008
   -11.0985 -11.0804 -11.0787 -11.0544 -11.0517 -11.0200 -11.0141 -11.0094
   -10.9928 -10.9645 -10.9358 -10.9113 -10.8864 -10.8799 -10.8688 -10.8586
   -10.8509 -10.8392 -10.8268 -10.8248 -10.7946 -10.7858 -10.7724 -10.7673
   -10.7667 -10.7561 -10.7519 -10.7448 -10.7445 -10.7436 -10.7428 -10.7382
   -10.7325 -10.7303 -10.7270 -10.7254 -10.7246 -10.7173 -10.7165 -10.7142
   -10.7110 -10.6767 -10.6764 -10.6758 -10.6754 -10.5886 -10.5543 -10.4818
   -10.4770 -10.4707 -10.4598 -10.4298 -10.4044 -10.3388 -10.3248 -10.2275
   -10.2001 -10.1458 -10.1267 -10.1143 -10.0814 -10.0752 -10.0685 -10.0482
   -10.0458 -10.0344 -10.0308  -9.9945  -9.9923  -9.9693  -9.9675  -9.9637
    -9.9598  -9.9531  -9.9430  -9.9257  -9.9180  -9.8857  -9.8703  -9.8639
    -9.8558  -9.8480  -9.8425  -9.8252  -9.8234  -9.8004  -9.7926  -9.7751
    -9.7590  -9.7436  -9.7384  -9.7303  -9.7121  -9.7098  -9.7052  -9.6770
    -9.6736  -9.6448  -9.6250  -9.6194  -9.6106  -9.5909  -9.5837  -9.5672
    -9.5563  -9.5490  -9.5338  -9.5189  -9.5038  -9.5036  -9.4833  -9.4773
    -9.4723  -9.4691  -9.4508  -9.4259  -9.4225  -9.4208  -9.4087  -9.4064
    -9.4000  -9.3927  -9.3897  -9.3858  -9.3809  -9.3627  -9.3597  -9.3301
[...]
     atom  170 type  1   force =    -0.00001273   -0.00001293    0.00001029
     atom  171 type  2   force =    -0.00000384    0.00000224    0.00000549
     atom  172 type  2   force =    -0.00000044    0.00000255    0.00161524
     atom  173 type  2   force =    -0.00000057    0.00000209   -0.00235929
     atom  174 type  2   force =    -0.00000615    0.00000219   -0.00000363
     atom  175 type  1   force =     0.00001378   -0.00000750    0.00002766
     atom  176 type  1   force =    -0.00000030    0.00004203    0.00060339
     atom  177 type  2   force =    -0.00033295    0.00013484   -0.00029232
     atom  178 type  2   force =    -0.00000003   -0.00000094    0.00008750
     atom  179 type  2   force =     0.00000025   -0.00000124    0.00005641
     atom  180 type  2   force =    -0.00039704    0.00029389   -0.00029863
     atom  181 type  1   force =     0.00000199    0.00000195    0.00068773
     atom  182 type  1   force =    -0.00000822   -0.00000586   -0.00000294
     atom  183 type  2   force =    -0.00000178    0.00000098    0.00000493
     atom  184 type  2   force =    -0.00000028    0.00000262    0.00161523
     atom  185 type  2   force =    -0.00000053    0.00000214   -0.00235927
     atom  186 type  2   force =    -0.00000007   -0.00000107   -0.00000517
     atom  187 type  1   force =    -0.00000596    0.00000380    0.00001627
     atom  188 type  1   force =    -0.00005449   -0.00042661    0.00026804
     atom  189 type  2   force =     0.00045823   -0.00019779    0.00037970
     atom  190 type  2   force =     0.00000878    0.00002443   -0.00002701
     atom  191 type  2   force =    -0.00000349   -0.00000015    0.00002631
     atom  192 type  2   force =    -0.00009263   -0.00006390   -0.00022132
     atom  193 type  3   force =     0.00000165   -0.00014753   -0.00051576
     atom  194 type  4   force =     0.00000030    0.00002305    0.00032610

     Total force =     0.003653     Total SCF correction =     0.000555
     SCF correction compared to forces is large: reduce conv_thr to get better values
     Energy error            =      2.3E-05 Ry
     Gradient error          =      9.7E-04 Ry/Bohr

     bfgs converged in  16 scf cycles and  15 bfgs steps
     (criteria: energy <  1.0E-04 Ry, force <  1.0E-03 Ry/Bohr)

     End of BFGS Geometry Optimization

     Final energy             =  -33980.2822981535 Ry

     File ./outdir/pwscf.bfgs deleted, as requested
Begin final coordinates

ATOMIC_POSITIONS (angstrom)
Mo               0.0000119917        1.8193638619       -9.1672481230    0   0   0
Mo               1.5756136568        0.9097075315       -3.0554901653    0   0   0
S                0.0000188998        1.8193822938       -4.6232556019    0   0   0
S                1.5756321638        0.9096773839       -7.6014065489    0   0   0
S                1.5756326175        0.9096785128      -10.7330757790    0   0   0
S                0.0000189190        1.8193860094       -1.4877129945    0   0   0
Mo               0.0000920134        1.8197187128        3.0560165053
Mo               1.5756720194        0.9108002841        9.1551144032
S                0.0031394504        1.8265583591        7.5850198483
S                1.5756590362        0.9099618078        4.6233069046
S                1.5756591466        0.9095686255        1.4883842731
S               -0.0081354865        1.7978038759       10.7280725962
Mo              -1.5756053507        4.5484193819       -9.1672481230    0   0   0
Mo               0.0000378379        3.6387394919       -3.0554952701    0   0   0
S               -1.5755913433        4.5484363582       -4.6232494962    0   0   0
S                0.0000148214        3.6387329039       -7.6014065489    0   0   0
S                0.0000152751        3.6387340328      -10.7330757790    0   0   0
S               -1.5755906502        4.5484413613       -1.4877305502    0   0   0
Mo              -1.5755758612        4.5487450733        3.0569951847
Mo              -0.0101556608        3.6250044224        9.1760449529
S               -1.5709726649        4.5489126588        7.5993257836
S                0.0006847283        3.6393275116        4.6241110363
S               -0.0003223265        3.6390472422        1.4884046272
S               -1.5785533778        4.5440619888       10.7381860030
Mo              -3.1512226931        7.2774749019       -9.1672481230    0   0   0
Mo              -1.5755910988        6.3678216792       -3.0555115988    0   0   0
S               -3.1512162438        7.2774954350       -4.6232578178    0   0   0
S               -1.5756025210        6.3677884239       -7.6014065489    0   0   0
S               -1.5756020673        6.3677895528      -10.7330757790    0   0   0
S               -3.1512127704        7.2774877076       -1.4877200710    0   0   0
Mo              -3.1511513208        7.2772515331        3.0561725566
Mo              -1.5783570213        6.3652481666        9.1787815210
S               -3.1686945933        7.2644167405        7.6294634115
S               -1.5754144837        6.3683665582        4.6250668611
S               -1.5755577274        6.3675767715        1.4886229751
S               -3.0803201430        7.3377636850       10.7795593196
Mo              -4.7268400355       10.0065304219       -9.1672481230    0   0   0
Mo              -3.1512405618        9.0968403586       -3.0554816746    0   0   0
S               -4.7268341792       10.0065523623       -4.6232463762    0   0   0
S               -3.1512198634        9.0968439439       -7.6014065489    0   0   0
S               -3.1512194097        9.0968450728      -10.7330757790    0   0   0
S               -4.7268370797       10.0065537885       -1.4877176751    0   0   0
Mo              -4.7268102663       10.0063063534        3.0564360913
Mo              -3.1474202119        9.1126195825        9.1585348670
S               -4.7267978890       10.0116318100        7.5823518913
S               -3.1511160663        9.0961263023        4.6241424948
S               -3.1511849461        9.0968052036        1.4885739752
S               -4.7268000850       10.0130699113       10.7237675562
Mo               3.1512517547        1.8193638619       -9.1672481230    0   0   0
Mo               4.7269020221        0.9097289540       -3.0554823951    0   0   0
S                3.1512612351        1.8193882564       -4.6232320683    0   0   0
S                4.7268719268        0.9096773839       -7.6014065489    0   0   0
S                4.7268723805        0.9096785128      -10.7330757790    0   0   0
S                3.1512592485        1.8193890201       -1.4877261251    0   0   0
Mo               3.1512277838        1.8197179379        3.0560163364
Mo               4.7267696408        0.9084449009        9.1457560771
S                3.1482075293        1.8265544895        7.5850201696
S                4.7268282815        0.9100214647        4.6235555805
S                4.7268931609        0.9096393353        1.4884591568
S                3.1594814395        1.7978046439       10.7280727835
Mo               1.5756344123        4.5484193819       -9.1672481230    0   0   0
Mo               3.1512756394        3.6387769522       -3.0554814834    0   0   0
S                1.5756504879        4.5484423799       -4.6232390542    0   0   0
S                3.1512545844        3.6387329039       -7.6014065489    0   0   0
S                3.1512550381        3.6387340328      -10.7330757790    0   0   0
S                1.5756466253        4.5484431864       -1.4877251801    0   0   0
Mo               1.5756616677        4.5487494673        3.0556830988
Mo               3.1615048966        3.6250034946        9.1760423431
S                1.5756739810        4.5746095770        7.6493910416
S                3.1506382361        3.6393263270        4.6241095303
S                3.1516460410        3.6390471056        1.4884074614
S                1.5756770077        4.3928985397       10.8158522255
Mo               0.0000170699        7.2774749019       -9.1672481230    0   0   0
Mo               1.5756764447        6.3678236689       -3.0554877708    0   0   0
S                0.0000381981        7.2774979204       -4.6232454413    0   0   0
S                1.5756372420        6.3677884239       -7.6014065489    0   0   0
S                1.5756376957        6.3677895528      -10.7330757790    0   0   0
S                0.0000328088        7.2774946042       -1.4877307940    0   0   0
Mo               0.0002042510        7.2771655028        3.0561161043
Mo               1.5756769562        6.3692324685        9.2247257524
S                0.0254509125        7.2644929063        7.6431349735
S                1.5756644030        6.3674319829        4.6241604941
S                1.5756640261        6.3678729821        1.4879280832
S               -0.1153084119        7.3571207785       10.8114481452
Mo              -1.5756002725       10.0065304219       -9.1672481230    0   0   0
Mo               0.0000873425        9.0968676911       -3.0554912329    0   0   0
S               -1.5755883952       10.0065504530       -4.6232240150    0   0   0
S                0.0000198996        9.0968439439       -7.6014065489    0   0   0
S                0.0000203533        9.0968450728      -10.7330757790    0   0   0
S               -1.5755859047       10.0065492576       -1.4877362381    0   0   0
Mo              -1.5755277217       10.0063455052        3.0564047652
Mo              -0.0037467725        9.1157267334        9.1698679275
S               -1.5714224579       10.0035197358        7.5797353905
S                0.0002919920        9.0960782417        4.6239265757
S                0.0000153166        9.0967531789        1.4884137487
S               -1.5811616519       10.0331371820       10.7292201074
Mo               6.3024915177        1.8193638619       -9.1672481230    0   0   0
Mo               7.8781001445        0.9096521684       -3.0554919963    0   0   0
S                6.3025008696        1.8193826232       -4.6232480596    0   0   0
S                7.8781116898        0.9096773839       -7.6014065489    0   0   0
S                7.8781121435        0.9096785128      -10.7330757790    0   0   0
S                6.3025042007        1.8193849068       -1.4877147524    0   0   0
Mo               6.3025354360        1.8196489746        3.0560925788
Mo               7.8781508364        0.9106956877        9.1590942206
S                6.3061695641        1.8217039116        7.5833455569
S                7.8781391660        0.9096340532        4.6232805841
S                7.8781379809        0.9096450626        1.4883379923
S                6.2948958565        1.8039694421       10.7271923323
Mo               4.7268741753        4.5484193819       -9.1672481230    0   0   0
Mo               6.3024679138        3.6387501714       -3.0554895197    0   0   0
S                4.7268748770        4.5484386753       -4.6232519432    0   0   0
S                6.3024943474        3.6387329039       -7.6014065489    0   0   0
S                6.3024948011        3.6387340328      -10.7330757790    0   0   0
S                4.7268770533        4.5484432419       -1.4877137856    0   0   0
Mo               4.7269016734        4.5487455492        3.0569968318
Mo               6.2950179401        3.6255290746        9.1686946287
S                4.7223221436        4.5489122967        7.5993211885
S                6.3030553042        3.6391917014        4.6243122696
S                6.3021869698        3.6390044365        1.4885046895
S                4.7299032285        4.5440638417       10.7381810212
Mo               3.1512568329        7.2774749019       -9.1672481230    0   0   0
Mo               4.7268384135        6.3678043337       -3.0554959052    0   0   0
S                3.1512606125        7.2774972547       -4.6232589675    0   0   0
S                4.7268770050        6.3677884239       -7.6014065489    0   0   0
S                4.7268774587        6.3677895528      -10.7330757790    0   0   0
S                3.1512629079        7.2774963749       -1.4877081835    0   0   0
Mo               3.1511268808        7.2771656579        3.0561163752
Mo               4.7297084514        6.3652480669        9.1787736076
S                3.1258983227        7.2644925570        7.6431303990
S                4.7267456209        6.3683674057        4.6250670377
S                4.7268884643        6.3675757097        1.4886240501
S                3.2666666211        7.3571241543       10.8114408628
Mo               1.5756394905       10.0065304219       -9.1672481230    0   0   0
Mo               3.1512330605        9.0968514907       -3.0554878870    0   0   0
S                1.5756499830       10.0065443759       -4.6232632674    0   0   0
S                3.1512596626        9.0968439439       -7.6014065489    0   0   0
S                3.1512601163        9.0968450728      -10.7330757790    0   0   0
S                1.5756503041       10.0065459699       -1.4877044377    0   0   0
Mo               1.5756693612       10.0062743118        3.0561557115
Mo               3.1551060750        9.1157287589        9.1698616235
S                1.5756780729       10.0061235523        7.5940315052
S                3.1510448832        9.0960780230        4.6239275984
S                3.1513206240        9.0967531850        1.4884126033
S                1.5756826176       10.0162538896       10.7344593207
Mo               9.4537312807        1.8193638619       -9.1672481230    0   0   0
Mo              11.0293863460        0.9096952246       -3.0554894007    0   0   0
S                9.4537395970        1.8193770750       -4.6232328036    0   0   0
S               11.0293514528        0.9096773839       -7.6014065489    0   0   0
S               11.0293519066        0.9096785128      -10.7330757790    0   0   0
S                9.4537393632        1.8193794783       -1.4877366147    0   0   0
Mo               9.4537413149        1.8196498332        3.0560910760
Mo              11.0295322613        0.9084476577        9.1457533309
S                9.4501323798        1.8217091516        7.5833454025
S               11.0294483448        0.9100222265        4.6235526152
S               11.0293817628        0.9096393696        1.4884594277
S                9.4614081926        1.8039694144       10.7271925031
Mo               7.8781139383        4.5484193819       -9.1672481230    0   0   0
Mo               9.4537539161        3.6387607911       -3.0554933032    0   0   0
S                7.8781175448        4.5484378232       -4.6232366318    0   0   0
S                9.4537341104        3.6387329039       -7.6014065489    0   0   0
S                9.4537345641        3.6387340328      -10.7330757790    0   0   0
S                7.8781194018        4.5484411585       -1.4877377057    0   0   0
Mo               7.8781422349        4.5485999364        3.0558048164
Mo               9.4612876894        3.6255305946        9.1686971364
S                7.8781537709        4.5670345837        7.6338766770
S                9.4532289105        3.6391915110        4.6243107701
S                9.4540950999        3.6390039417        1.4885032980
S                7.8781523778        4.4386168847       10.7810080408
Mo               6.3024965959        7.2774749019       -9.1672481230    0   0   0
Mo               7.8781361655        6.3678242352       -3.0555014130    0   0   0
S                6.3024973331        7.2774953556       -4.6232392528    0   0   0
S                7.8781167680        6.3677884239       -7.6014065489    0   0   0
S                7.8781172217        6.3677895528      -10.7330757790    0   0   0
S                6.3024989866        7.2774929744       -1.4877349119    0   0   0
Mo               6.3024824069        7.2772513848        3.0561727117
Mo               7.8781556398        6.3683912802        9.2141704896
S                6.3200490239        7.2644179959        7.6294613819
S                7.8781446955        6.3675122121        4.6237651958
S                7.8781434268        6.3679030310        1.4880671570
S                6.2316678066        7.3377647777       10.7795499605
Mo               4.7268792535       10.0065304219       -9.1672481230    0   0   0
Mo               6.3025111524        9.0968738021       -3.0554915260    0   0   0
S                4.7268840634       10.0065452125       -4.6232380477    0   0   0
S                6.3024994256        9.0968439439       -7.6014065489    0   0   0
S                6.3024998793        9.0968450728      -10.7330757790    0   0   0
S                4.7268847312       10.0065459141       -1.4877283294    0   0   0
Mo               4.7268641952       10.0063449661        3.0564036558
Mo               6.2987801629        9.1126216063        9.1585318477
S                4.7227855044       10.0035226908        7.5797321641
S                6.3024535452        9.0961256190        4.6241418518
S                6.3025204249        9.0968040988        1.4885737198
S                4.7325220821       10.0331375632       10.7292143660
Pt               1.5756773387        6.3547163242       11.9800523409
Pd               7.8781509684        6.3559317057       12.1060711831
End final coordinates



     Writing all to output data dir ./outdir/pwscf.save/ :
     XML data file, charge density, pseudopotentials, collected wavefunctions
 
     init_run     :    176.23s CPU    179.46s WALL (       1 calls)
     electrons    : 118168.31s CPU 119596.23s WALL (      16 calls)
     update_pot   :     25.60s CPU     26.36s WALL (      15 calls)
     forces       :   2089.86s CPU   2126.47s WALL (      16 calls)
     force_dftd3  :     10.81s CPU     11.29s WALL (      16 calls)

     Called by init_run:
     wfcinit      :    152.30s CPU    154.11s WALL (       1 calls)
     potinit      :      1.31s CPU      1.41s WALL (       1 calls)
     hinit0       :     12.83s CPU     12.91s WALL (       1 calls)

     Called by electrons:
     c_bands      : 104391.52s CPU 105332.31s WALL (     193 calls)
     sum_band     :  12320.32s CPU  12572.60s WALL (     193 calls)
     v_of_rho     :     69.52s CPU     77.82s WALL (     195 calls)
     newd         :   1232.55s CPU   1463.51s WALL (     195 calls)
     PAW_pot      :    186.62s CPU    188.38s WALL (     210 calls)
     mix_rho      :     18.29s CPU     20.98s WALL (     193 calls)
     energy_dftd3 :      6.27s CPU      6.30s WALL (      16 calls)

     Called by c_bands:
     init_us_2    :    418.91s CPU    421.08s WALL (    1672 calls)
     init_us_2:cp :    418.90s CPU    421.07s WALL (    1672 calls)
     cegterg      : 102586.86s CPU 103516.14s WALL (     794 calls)

     Called by *egterg:
     cdiaghg      :   5743.26s CPU   5943.94s WALL (    9282 calls)
     h_psi        :  52234.60s CPU  52546.61s WALL (    9406 calls)
     s_psi        :  12229.18s CPU  12298.13s WALL (    9406 calls)
     g_psi        :     92.75s CPU     93.11s WALL (    8608 calls)

     Called by h_psi:
     h_psi:calbec :  11906.95s CPU  11943.86s WALL (    9406 calls)
     vloc_psi     :  27817.83s CPU  27946.52s WALL (    9406 calls)
     add_vuspsi   :  12297.08s CPU  12370.33s WALL (    9406 calls)

     General routines
     calbec       :  17231.21s CPU  17284.40s WALL (   10494 calls)
     fft          :     66.43s CPU     74.13s WALL (    2708 calls)
     ffts         :      3.50s CPU      3.70s WALL (     388 calls)
     fftw         :  21018.42s CPU  21113.75s WALL ( 5513138 calls)
     interpolate  :      6.01s CPU      6.59s WALL (     195 calls)
 
     Parallel routines
 
     PWSCF        :   1d 9h38m CPU   1d10h 4m WALL

 
   This run was terminated on:   4: 7:40  16Mar2024            

=------------------------------------------------------------------------------=
   JOB DONE.
=------------------------------------------------------------------------------=
