
     Program PWSCF v.7.3 starts on  3Apr2024 at  5:51:47 

     This program is part of the open-source Quantum ESPRESSO suite
     for quantum simulation of materials; please cite
         "P. Giannozzi et al., J. Phys.:Condens. Matter 21 395502 (2009);
         "P. Giannozzi et al., J. Phys.:Condens. Matter 29 465901 (2017);
         "P. Giannozzi et al., J. Chem. Phys. 152 154105 (2020);
          URL http://www.quantum-espresso.org", 
     in publications or presentations arising from this work. More details at
     http://www.quantum-espresso.org/quote

     Parallel version (MPI & OpenMP), running on      36 processor cores
     Number of MPI processes:                36
     Threads/MPI process:                     1

     MPI processes distributed on     1 nodes
     552552 MiB available memory on the printing compute node when the environment starts
 
     Waiting for input...
     Reading input from standard input
Warning: card &CELL ignored
Warning: card / ignored

     Current dimensions of program PWSCF are:
     Max number of different atomic species (ntypx) = 10
     Max number of k-points (npk) =  40000
     Max angular momentum in pseudopotentials (lmaxx) =  4
     file Mo.pbe-spn-kjpaw_psl.1.0.0.UPF: wavefunction(s)  4S 4D renormalized
     file S.pbe-n-kjpaw_psl.1.0.0.UPF: wavefunction(s)  3S 3P renormalized
     file Pt.pbe-spfn-kjpaw_psl.1.0.0.UPF: wavefunction(s)  5P 4F renormalized
     file Pd.pbe-spn-kjpaw_psl.1.0.0.UPF: wavefunction(s)  4S 5S 4D renormalized
 
     R & G space division:  proc/nbgrp/npool/nimage =      36
     Subspace diagonalization in iterative solution of the eigenvalue problem:
     one sub-group per band group will be used
     scalapack distributed-memory algorithm (size of sub-group:  6*  6 procs)

 
     Parallelization info
     --------------------
     sticks:   dense  smooth     PW     G-vecs:    dense   smooth      PW
     Min         585     334     89               198743    85850   11735
     Max         586     335     90               198750    85861   11748
     Sum       21073   12049   3205              7154885  3090769  422587
 
     Using Slab Decomposition
 


     bravais-lattice index     =            0
     lattice parameter (alat)  =      23.8199  a.u.
     unit-cell volume          =   33861.0370 (a.u.)^3
     number of atoms/cell      =          195
     number of atomic types    =            4
     number of electrons       =      1746.00
     number of Kohn-Sham states=         1048
     kinetic-energy cutoff     =      77.0000  Ry
     charge density cutoff     =     539.0000  Ry
     scf convergence threshold =      1.0E-06
     mixing beta               =       0.2000
     number of iterations used =            8  plain     mixing
     energy convergence thresh.=      1.0E-04
     force convergence thresh. =      1.0E-03
     Exchange-correlation= SLA  PW   PBX  PBC
                           (   1   4   3   4   0   0   0)
     nstep                     =         1000


     Effective Screening Medium Method
     =================================
     Boundary Conditions: Vacuum-Slab-Vacuum
     total charge in unit cell        =   0.0000
     grid points for fit at edges     =        4 
 

     celldm(1)=  23.819920  celldm(2)=   0.000000  celldm(3)=   0.000000
     celldm(4)=   0.000000  celldm(5)=   0.000000  celldm(6)=   0.000000

     crystal axes: (cart. coord. in units of alat)
               a(1) = (   1.000000   0.000000   0.000000 )  
               a(2) = (  -0.499999   0.866026   0.000000 )  
               a(3) = (   0.000000   0.000000   2.893000 )  

     reciprocal axes: (cart. coord. in units 2 pi/alat)
               b(1) = (  1.000000  0.577349  0.000000 )  
               b(2) = (  0.000000  1.154700  0.000000 )  
               b(3) = (  0.000000  0.000000  0.345662 )  


     PseudoPot. # 1 for Mo read from file:
     ./pseudo/Mo.pbe-spn-kjpaw_psl.1.0.0.UPF
     MD5 check sum: 317bf72632116215fd98f72de1686f13
     Pseudo is Projector augmented-wave + core cor, Zval = 14.0
     Generated using 'atomic' code by A. Dal Corso  v.7.2
     Shape of augmentation charge: PSQ
     Using radial grid of 1229 points,  6 beta functions with: 
                l(1) =   0
                l(2) =   0
                l(3) =   1
                l(4) =   1
                l(5) =   2
                l(6) =   2
     Q(r) pseudized with 0 coefficients 


     PseudoPot. # 2 for S  read from file:
     ./pseudo/S.pbe-n-kjpaw_psl.1.0.0.UPF
     MD5 check sum: 8b7b5302570d38d5e87fed6a1065abda
     Pseudo is Projector augmented-wave + core cor, Zval =  6.0
     Generated using 'atomic' code by A. Dal Corso  v.7.2
     Shape of augmentation charge: PSQ
     Using radial grid of 1151 points,  6 beta functions with: 
                l(1) =   0
                l(2) =   0
                l(3) =   1
                l(4) =   1
                l(5) =   2
                l(6) =   2
     Q(r) pseudized with 0 coefficients 


     PseudoPot. # 3 for Pt read from file:
     ./pseudo/Pt.pbe-spfn-kjpaw_psl.1.0.0.UPF
     MD5 check sum: 620096ebf4e6ebacc94de60fd67efcb5
     Pseudo is Projector augmented-wave + core cor, Zval = 32.0
     Generated using 'atomic' code by A. Dal Corso  v.7.2
     Shape of augmentation charge: PSQ
     Using radial grid of 1277 points,  8 beta functions with: 
                l(1) =   0
                l(2) =   0
                l(3) =   1
                l(4) =   1
                l(5) =   2
                l(6) =   2
                l(7) =   3
                l(8) =   3
     Q(r) pseudized with 0 coefficients 


     PseudoPot. # 4 for Pd read from file:
     ./pseudo/Pd.pbe-spn-kjpaw_psl.1.0.0.UPF
     MD5 check sum: a60571a671f2502b8a6a4569d20a6edb
     Pseudo is Projector augmented-wave + core cor, Zval = 18.0
     Generated using 'atomic' code by A. Dal Corso  v.7.2
     Shape of augmentation charge: PSQ
     Using radial grid of 1235 points,  6 beta functions with: 
                l(1) =   0
                l(2) =   0
                l(3) =   1
                l(4) =   1
                l(5) =   2
                l(6) =   2
     Q(r) pseudized with 0 coefficients 


     atomic species   valence    mass     pseudopotential
     Mo               14.00    95.95000     Mo( 1.00)
     S                 6.00    32.06000     S ( 1.00)
     Pt               32.00   195.08400     Pt( 1.00)
     Pd               18.00   106.42000     Pd( 1.00)

     No symmetry found



   Cartesian axes

     site n.     atom                  positions (alat units)
         1        Mo     tau(   1) = (   0.0000010   0.1443372  -0.7272732  )
         2        Mo     tau(   2) = (   0.1249995   0.0721706  -0.2424038  )
         3        S      tau(   3) = (   0.0000015   0.1443386  -0.3667807  )
         4        S      tau(   4) = (   0.1250010   0.0721682  -0.6030489  )
         5        S      tau(   5) = (   0.1250010   0.0721683  -0.8514963  )
         6        S      tau(   6) = (   0.0000015   0.1443389  -0.1180260  )
         7        Mo     tau(   7) = (   0.0000165   0.1443639   0.2424458  )
         8        Mo     tau(   8) = (   0.1250235   0.0717246   0.7263406  )
         9        S      tau(   9) = (   0.0005369   0.1448386   0.6015218  )
        10        S      tau(  10) = (   0.1249954   0.0721618   0.3668135  )
        11        S      tau(  11) = (   0.1250195   0.0721779   0.1180823  )
        12        S      tau(  12) = (  -0.0003270   0.1431025   0.8512079  )
        13        Mo     tau(  13) = (  -0.1249989   0.3608437  -0.7272732  )
        14        Mo     tau(  14) = (   0.0000030   0.2886752  -0.2424042  )
        15        S      tau(  15) = (  -0.1249977   0.3608450  -0.3667802  )
        16        S      tau(  16) = (   0.0000012   0.2886747  -0.6030489  )
        17        S      tau(  17) = (   0.0000012   0.2886748  -0.8514963  )
        18        S      tau(  18) = (  -0.1249977   0.3608454  -0.1180274  )
        19        Mo     tau(  19) = (  -0.1249838   0.3608611   0.2424564  )
        20        Mo     tau(  20) = (  -0.0010112   0.2875499   0.7275042  )
        21        S      tau(  21) = (  -0.1249589   0.3614723   0.6028911  )
        22        S      tau(  22) = (   0.0000229   0.2887164   0.3668462  )
        23        S      tau(  23) = (   0.0000319   0.2887039   0.1180849  )
        24        S      tau(  24) = (  -0.1254179   0.3601432   0.8519775  )
        25        Mo     tau(  25) = (  -0.2499987   0.5773502  -0.7272732  )
        26        Mo     tau(  26) = (  -0.1249977   0.5051839  -0.2424055  )
        27        S      tau(  27) = (  -0.2499981   0.5773518  -0.3667809  )
        28        S      tau(  28) = (  -0.1249986   0.5051812  -0.6030489  )
        29        S      tau(  29) = (  -0.1249986   0.5051813  -0.8514963  )
        30        S      tau(  30) = (  -0.2499979   0.5773512  -0.1180266  )
        31        Mo     tau(  31) = (  -0.2499892   0.5773423   0.2424725  )
        32        Mo     tau(  32) = (  -0.1256606   0.5052028   0.7286154  )
        33        S      tau(  33) = (  -0.2498226   0.5768374   0.6031862  )
        34        S      tau(  34) = (  -0.1249521   0.5051863   0.3668519  )
        35        S      tau(  35) = (  -0.1249975   0.5051799   0.1180722  )
        36        S      tau(  36) = (  -0.2499767   0.5778459   0.8528940  )
        37        Mo     tau(  37) = (  -0.3749985   0.7938567  -0.7272732  )
        38        Mo     tau(  38) = (  -0.2500001   0.7216874  -0.2424031  )
        39        S      tau(  39) = (  -0.3749980   0.7938584  -0.3667800  )
        40        S      tau(  40) = (  -0.2499984   0.7216877  -0.6030489  )
        41        S      tau(  41) = (  -0.2499984   0.7216878  -0.8514963  )
        42        S      tau(  42) = (  -0.3749982   0.7938585  -0.1180264  )
        43        Mo     tau(  43) = (  -0.3749918   0.7938447   0.2424454  )
        44        Mo     tau(  44) = (  -0.2499337   0.7214685   0.7273252  )
        45        S      tau(  45) = (  -0.3749119   0.7930997   0.6024017  )
        46        S      tau(  46) = (  -0.2499835   0.7216794   0.3668152  )
        47        S      tau(  47) = (  -0.2499982   0.7216718   0.1180690  )
        48        S      tau(  48) = (  -0.3745581   0.7945239   0.8516564  )
        49        Mo     tau(  49) = (   0.2500010   0.1443372  -0.7272732  )
        50        Mo     tau(  50) = (   0.3750034   0.0721723  -0.2424032  )
        51        S      tau(  51) = (   0.2500017   0.1443391  -0.3667788  )
        52        S      tau(  52) = (   0.3750010   0.0721682  -0.6030489  )
        53        S      tau(  53) = (   0.3750010   0.0721683  -0.8514963  )
        54        S      tau(  54) = (   0.2500016   0.1443391  -0.1180271  )
        55        Mo     tau(  55) = (   0.2500049   0.1443558   0.2424800  )
        56        Mo     tau(  56) = (   0.3750695   0.0717200   0.7264262  )
        57        S      tau(  57) = (   0.2500704   0.1440362   0.6019475  )
        58        S      tau(  58) = (   0.3750099   0.0721483   0.3668106  )
        59        S      tau(  59) = (   0.3749948   0.0721851   0.1180824  )
        60        S      tau(  60) = (   0.2500131   0.1413211   0.8516135  )
        61        Mo     tau(  61) = (   0.1250012   0.3608437  -0.7272732  )
        62        Mo     tau(  62) = (   0.2500029   0.2886782  -0.2424031  )
        63        S      tau(  63) = (   0.1250024   0.3608455  -0.3667794  )
        64        S      tau(  64) = (   0.2500012   0.2886747  -0.6030489  )
        65        S      tau(  65) = (   0.2500012   0.2886748  -0.8514963  )
        66        S      tau(  66) = (   0.1250021   0.3608455  -0.1180270  )
        67        Mo     tau(  67) = (   0.1250220   0.3608739   0.2424909  )
        68        Mo     tau(  68) = (   0.2500516   0.2862417   0.7284634  )
        69        S      tau(  69) = (   0.1251493   0.3619302   0.6061672  )
        70        S      tau(  70) = (   0.2500021   0.2887137   0.3669053  )
        71        S      tau(  71) = (   0.2500084   0.2886924   0.1181099  )
        72        S      tau(  72) = (   0.1241634   0.3514816   0.8558063  )
        73        Mo     tau(  73) = (   0.0000014   0.5773502  -0.7272732  )
        74        Mo     tau(  74) = (   0.1250045   0.5051840  -0.2424036  )
        75        S      tau(  75) = (   0.0000030   0.5773520  -0.3667799  )
        76        S      tau(  76) = (   0.1250014   0.5051812  -0.6030489  )
        77        S      tau(  77) = (   0.1250014   0.5051813  -0.8514963  )
        78        S      tau(  78) = (   0.0000026   0.5773517  -0.1180274  )
        79        Mo     tau(  79) = (   0.0000298   0.5773239   0.2424318  )
        80        Mo     tau(  80) = (   0.1235562   0.5053489   0.7306566  )
        81        S      tau(  81) = (   0.0009343   0.5763644   0.6059345  )
        82        S      tau(  82) = (   0.1250078   0.5051967   0.3669171  )
        83        S      tau(  83) = (   0.1250403   0.5051743   0.1180834  )
        84        S      tau(  84) = (  -0.0065880   0.5806588   0.8588888  )
        85        Mo     tau(  85) = (  -0.1249984   0.7938567  -0.7272732  )
        86        Mo     tau(  86) = (   0.0000069   0.7216896  -0.2424039  )
        87        S      tau(  87) = (  -0.1249975   0.7938582  -0.3667782  )
        88        S      tau(  88) = (   0.0000016   0.7216877  -0.6030489  )
        89        S      tau(  89) = (   0.0000016   0.7216878  -0.8514963  )
        90        S      tau(  90) = (  -0.1249973   0.7938582  -0.1180279  )
        91        Mo     tau(  91) = (  -0.1249912   0.7938418   0.2424335  )
        92        Mo     tau(  92) = (  -0.0002856   0.7221962   0.7280430  )
        93        S      tau(  93) = (  -0.1248457   0.7930650   0.6025902  )
        94        S      tau(  94) = (  -0.0000060   0.7216208   0.3667980  )
        95        S      tau(  95) = (   0.0000209   0.7216773   0.1180639  )
        96        S      tau(  96) = (  -0.1254320   0.7945446   0.8518225  )
        97        Mo     tau(  97) = (   0.5000010   0.1443372  -0.7272732  )
        98        Mo     tau(  98) = (   0.6250001   0.0721662  -0.2424040  )
        99        S      tau(  99) = (   0.5000017   0.1443386  -0.3667801  )
       100        S      tau( 100) = (   0.6250010   0.0721682  -0.6030489  )
       101        S      tau( 101) = (   0.6250010   0.0721683  -0.8514963  )
       102        S      tau( 102) = (   0.5000020   0.1443388  -0.1180261  )
       103        Mo     tau( 103) = (   0.4999955   0.1443611   0.2424567  )
       104        Mo     tau( 104) = (   0.6246463   0.0728119   0.7256413  )
       105        S      tau( 105) = (   0.4995556   0.1446831   0.6015045  )
       106        S      tau( 106) = (   0.6250311   0.0722157   0.3667721  )
       107        S      tau( 107) = (   0.6249808   0.0721636   0.1180639  )
       108        S      tau( 108) = (   0.5004658   0.1432308   0.8511310  )
       109        Mo     tau( 109) = (   0.3750012   0.3608437  -0.7272732  )
       110        Mo     tau( 110) = (   0.4999991   0.2886761  -0.2424038  )
       111        S      tau( 111) = (   0.3750012   0.3608452  -0.3667804  )
       112        S      tau( 112) = (   0.5000012   0.2886747  -0.6030489  )
       113        S      tau( 113) = (   0.5000012   0.2886748  -0.8514963  )
       114        S      tau( 114) = (   0.3750014   0.3608455  -0.1180261  )
       115        Mo     tau( 115) = (   0.3749911   0.3608734   0.2424983  )
       116        Mo     tau( 116) = (   0.5011245   0.2875246   0.7272611  )
       117        S      tau( 117) = (   0.3748808   0.3618865   0.6059605  )
       118        S      tau( 118) = (   0.4999884   0.2887132   0.3668588  )
       119        S      tau( 119) = (   0.4999854   0.2887028   0.1180988  )
       120        S      tau( 120) = (   0.3760770   0.3514537   0.8556312  )
       121        Mo     tau( 121) = (   0.2500014   0.5773502  -0.7272732  )
       122        Mo     tau( 122) = (   0.3749983   0.5051825  -0.2424043  )
       123        S      tau( 123) = (   0.2500017   0.5773519  -0.3667810  )
       124        S      tau( 124) = (   0.3750014   0.5051812  -0.6030489  )
       125        S      tau( 125) = (   0.3750014   0.5051813  -0.8514963  )
       126        S      tau( 126) = (   0.2500018   0.5773519  -0.1180256  )
       127        Mo     tau( 127) = (   0.2500077   0.5773382   0.2424971  )
       128        Mo     tau( 128) = (   0.3766993   0.5053238   0.7304272  )
       129        S      tau( 129) = (   0.2500029   0.5764488   0.6074621  )
       130        S      tau( 130) = (   0.3750022   0.5051973   0.3669226  )
       131        S      tau( 131) = (   0.3749796   0.5051747   0.1180897  )
       132        S      tau( 132) = (   0.2502086   0.5906803   0.8517598  )
       133        Mo     tau( 133) = (   0.1250016   0.7938567  -0.7272732  )
       134        Mo     tau( 134) = (   0.2499995   0.7216883  -0.2424036  )
       135        S      tau( 135) = (   0.1250024   0.7938578  -0.3667813  )
       136        S      tau( 136) = (   0.2500016   0.7216877  -0.6030489  )
       137        S      tau( 137) = (   0.2500016   0.7216878  -0.8514963  )
       138        S      tau( 138) = (   0.1250024   0.7938579  -0.1180253  )
       139        Mo     tau( 139) = (   0.1250030   0.7938506   0.2424689  )
       140        Mo     tau( 140) = (   0.2500869   0.7270239   0.7252501  )
       141        S      tau( 141) = (   0.1234110   0.7947569   0.6009716  )
       142        S      tau( 142) = (   0.2500041   0.7216753   0.3668766  )
       143        S      tau( 143) = (   0.2500092   0.7216778   0.1181077  )
       144        S      tau( 144) = (   0.1247568   0.7963642   0.8506634  )
       145        Mo     tau( 145) = (   0.7500010   0.1443372  -0.7272732  )
       146        Mo     tau( 146) = (   0.8750038   0.0721696  -0.2424038  )
       147        S      tau( 147) = (   0.7500016   0.1443382  -0.3667789  )
       148        S      tau( 148) = (   0.8750010   0.0721682  -0.6030489  )
       149        S      tau( 149) = (   0.8750010   0.0721683  -0.8514963  )
       150        S      tau( 150) = (   0.7500016   0.1443384  -0.1180279  )
       151        Mo     tau( 151) = (   0.7500056   0.1443690   0.2423906  )
       152        Mo     tau( 152) = (   0.8754762   0.0728639   0.7256129  )
       153        S      tau( 153) = (   0.7500308   0.1452012   0.6014640  )
       154        S      tau( 154) = (   0.8749862   0.0722263   0.3667681  )
       155        S      tau( 155) = (   0.8750254   0.0721591   0.1180621  )
       156        S      tau( 156) = (   0.7500441   0.1442691   0.8503988  )
       157        Mo     tau( 157) = (   0.6250012   0.3608437  -0.7272732  )
       158        Mo     tau( 158) = (   0.7500028   0.2886769  -0.2424041  )
       159        S      tau( 159) = (   0.6250015   0.3608451  -0.3667792  )
       160        S      tau( 160) = (   0.7500012   0.2886747  -0.6030489  )
       161        S      tau( 161) = (   0.7500012   0.2886748  -0.8514963  )
       162        S      tau( 162) = (   0.6250016   0.3608454  -0.1180280  )
       163        Mo     tau( 163) = (   0.6249990   0.3608612   0.2424707  )
       164        Mo     tau( 164) = (   0.7500746   0.2887820   0.7269162  )
       165        S      tau( 165) = (   0.6251905   0.3614018   0.6027475  )
       166        S      tau( 166) = (   0.7500151   0.2886908   0.3668035  )
       167        S      tau( 167) = (   0.7499992   0.2887185   0.1180565  )
       168        S      tau( 168) = (   0.6254399   0.3601689   0.8517611  )
       169        Mo     tau( 169) = (   0.5000014   0.5773502  -0.7272732  )
       170        Mo     tau( 170) = (   0.6250029   0.5051841  -0.2424047  )
       171        S      tau( 171) = (   0.5000014   0.5773518  -0.3667794  )
       172        S      tau( 172) = (   0.6250014   0.5051812  -0.6030489  )
       173        S      tau( 173) = (   0.6250014   0.5051813  -0.8514963  )
       174        S      tau( 174) = (   0.5000016   0.5773516  -0.1180277  )
       175        Mo     tau( 175) = (   0.4999861   0.5773259   0.2424414  )
       176        Mo     tau( 176) = (   0.6258514   0.5052144   0.7284022  )
       177        S      tau( 177) = (   0.4992455   0.5763364   0.6056359  )
       178        S      tau( 178) = (   0.6249791   0.5051944   0.3668559  )
       179        S      tau( 179) = (   0.6250105   0.5051778   0.1180820  )
       180        S      tau( 180) = (   0.5069392   0.5807955   0.8586037  )
       181        Mo     tau( 181) = (   0.3750016   0.7938567  -0.7272732  )
       182        Mo     tau( 182) = (   0.5000025   0.7216901  -0.2424039  )
       183        S      tau( 183) = (   0.3750019   0.7938578  -0.3667793  )
       184        S      tau( 184) = (   0.5000016   0.7216877  -0.6030489  )
       185        S      tau( 185) = (   0.5000016   0.7216878  -0.8514963  )
       186        S      tau( 186) = (   0.3750020   0.7938579  -0.1180272  )
       187        Mo     tau( 187) = (   0.3750095   0.7938535   0.2424732  )
       188        Mo     tau( 188) = (   0.5004392   0.7222160   0.7277389  )
       189        S      tau( 189) = (   0.3766340   0.7948794   0.6008559  )
       190        S      tau( 190) = (   0.5000179   0.7216263   0.3668038  )
       191        S      tau( 191) = (   0.4999965   0.7216810   0.1180753  )
       192        S      tau( 192) = (   0.3755295   0.7963504   0.8505132  )
       193        Pt     tau( 193) = (   0.1371069   0.5032381   0.9573497  )
       194        Pt     tau( 194) = (   0.3635722   0.5033563   0.9571359  )
       195        Pd     tau( 195) = (   0.1370889   0.5032147   1.1477229  )

     --------------------------------------------
     DFT-D3 Dispersion Correction (3-body terms):
     --------------------------------------------
       Reference C6 values for interpolation: 

         atom   Coordination number   C6
         S          0.000           268.01
         S          0.995           261.99
         S          1.990           251.62
         Mo         0.000          1691.79
         Mo         1.942          1004.01
         Mo        11.056           674.22
         Pd         0.000          1217.01
         Pd         1.863           573.90
         Pd         5.710           531.75
         Pt         0.000           782.29
         Pt         1.919           692.72
         Pt         6.667           673.75

       Values used:

         atom   Coordination number  R0_AB[au]  C6      C8
         Mo        10.208            3.547    674.22  77634.20
         Mo        10.221            3.547    674.22  77634.20
         S          3.858            3.128    251.62  12327.25
         S          3.859            3.128    251.62  12327.25
         S          3.758            3.128    251.62  12327.25
         S          3.859            3.128    251.62  12327.25
         Mo        10.220            3.547    674.22  77634.20
         Mo        10.265            3.547    674.22  77634.20
         S          3.854            3.128    251.62  12327.25
         S          3.861            3.128    251.62  12327.25
         S          3.859            3.128    251.62  12327.25
         S          3.824            3.128    251.62  12327.25
         Mo        10.208            3.547    674.22  77634.20
         Mo        10.221            3.547    674.22  77634.20
         S          3.858            3.128    251.62  12327.25
         S          3.859            3.128    251.62  12327.25
         S          3.758            3.128    251.62  12327.25
         S          3.859            3.128    251.62  12327.25
         Mo        10.221            3.547    674.22  77634.20
         Mo        10.226            3.547    674.22  77634.20
         S          3.865            3.128    251.62  12327.25
         S          3.857            3.128    251.62  12327.25
         S          3.859            3.128    251.62  12327.25
         S          3.769            3.128    251.62  12327.25
         Mo        10.208            3.547    674.22  77634.20
         Mo        10.221            3.547    674.22  77634.20
         S          3.858            3.128    251.62  12327.25
         S          3.859            3.128    251.62  12327.25
         S          3.758            3.128    251.62  12327.25
         S          3.859            3.128    251.62  12327.25
         Mo        10.221            3.547    674.22  77634.20
         Mo        10.240            3.547    674.22  77634.20
         S          3.856            3.128    251.62  12327.25
         S          3.856            3.128    251.62  12327.25
         S          3.859            3.128    251.62  12327.25
         S          3.825            3.128    251.62  12327.25
         Mo        10.208            3.547    674.22  77634.20
         Mo        10.221            3.547    674.22  77634.20
         S          3.858            3.128    251.62  12327.25
         S          3.859            3.128    251.62  12327.25
         S          3.758            3.128    251.62  12327.25
         S          3.859            3.128    251.62  12327.25
         Mo        10.220            3.547    674.22  77634.20
         Mo        10.248            3.547    674.22  77634.20
         S          3.856            3.128    251.62  12327.25
         S          3.859            3.128    251.62  12327.25
         S          3.859            3.128    251.62  12327.25
         S          3.817            3.128    251.62  12327.25
         Mo        10.208            3.547    674.22  77634.20
         Mo        10.221            3.547    674.22  77634.20
         S          3.858            3.128    251.62  12327.25
         S          3.859            3.128    251.62  12327.25
         S          3.758            3.128    251.62  12327.25
         S          3.859            3.128    251.62  12327.25
         Mo        10.220            3.547    674.22  77634.20
         Mo        10.264            3.547    674.22  77634.20
         S          3.844            3.128    251.62  12327.25
         S          3.861            3.128    251.62  12327.25
         S          3.859            3.128    251.62  12327.25
         S          3.845            3.128    251.62  12327.25
         Mo        10.208            3.547    674.22  77634.20
         Mo        10.221            3.547    674.22  77634.20
         S          3.858            3.128    251.62  12327.25
         S          3.859            3.128    251.62  12327.25
         S          3.758            3.128    251.62  12327.25
         S          3.859            3.128    251.62  12327.25
         Mo        10.222            3.547    674.22  77634.20
         Mo        10.162            3.547    674.22  77634.20
         S          3.858            3.128    251.62  12327.25
         S          3.852            3.128    251.62  12327.25
         S          3.859            3.128    251.62  12327.25
         S          4.681            3.128    251.62  12327.25
         Mo        10.208            3.547    674.21  77634.20
         Mo        10.221            3.547    674.22  77634.20
         S          3.858            3.128    251.62  12327.25
         S          3.859            3.128    251.62  12327.25
         S          3.758            3.128    251.62  12327.25
         S          3.859            3.128    251.62  12327.25
         Mo        10.221            3.547    674.22  77634.20
         Mo        10.840            3.547    674.22  77634.20
         S          3.845            3.128    251.62  12327.25
         S          3.850            3.128    251.62  12327.25
         S          3.859            3.128    251.62  12327.25
         S          4.634            3.128    251.62  12327.25
         Mo        10.208            3.547    674.22  77634.20
         Mo        10.221            3.547    674.21  77634.20
         S          3.858            3.128    251.62  12327.25
         S          3.859            3.128    251.62  12327.25
         S          3.758            3.128    251.62  12327.25
         S          3.859            3.128    251.62  12327.25
         Mo        10.220            3.547    674.22  77634.20
         Mo        10.227            3.547    674.22  77634.20
         S          3.858            3.128    251.62  12327.25
         S          3.859            3.128    251.62  12327.25
         S          3.859            3.128    251.62  12327.25
         S          3.813            3.128    251.62  12327.25
         Mo        10.208            3.547    674.22  77634.20
         Mo        10.221            3.547    674.22  77634.20
         S          3.858            3.128    251.62  12327.25
         S          3.859            3.128    251.62  12327.25
         S          3.758            3.128    251.62  12327.25
         S          3.859            3.128    251.62  12327.25
         Mo        10.220            3.547    674.22  77634.20
         Mo        10.291            3.547    674.22  77634.20
         S          3.855            3.128    251.62  12327.25
         S          3.864            3.128    251.62  12327.25
         S          3.859            3.128    251.62  12327.25
         S          3.824            3.128    251.62  12327.25
         Mo        10.208            3.547    674.22  77634.20
         Mo        10.221            3.547    674.22  77634.20
         S          3.858            3.128    251.62  12327.25
         S          3.859            3.128    251.62  12327.25
         S          3.758            3.128    251.62  12327.25
         S          3.859            3.128    251.62  12327.25
         Mo        10.222            3.547    674.22  77634.20
         Mo        10.225            3.547    674.22  77634.20
         S          3.856            3.128    251.62  12327.25
         S          3.857            3.128    251.62  12327.25
         S          3.859            3.128    251.62  12327.25
         S          4.678            3.128    251.62  12327.25
         Mo        10.208            3.547    674.22  77634.20
         Mo        10.221            3.547    674.22  77634.20
         S          3.858            3.128    251.62  12327.25
         S          3.859            3.128    251.62  12327.25
         S          3.758            3.128    251.62  12327.25
         S          3.859            3.128    251.62  12327.25
         Mo        10.222            3.547    674.22  77634.20
         Mo        10.839            3.547    674.22  77634.20
         S          3.873            3.128    251.62  12327.25
         S          3.850            3.128    251.62  12327.25
         S          3.859            3.128    251.62  12327.25
         S          5.682            3.128    251.62  12327.25
         Mo        10.208            3.547    674.21  77634.20
         Mo        10.221            3.547    674.22  77634.20
         S          3.858            3.128    251.62  12327.25
         S          3.859            3.128    251.62  12327.25
         S          3.758            3.128    251.62  12327.25
         S          3.859            3.128    251.62  12327.25
         Mo        10.220            3.547    674.22  77634.20
         Mo        10.170            3.547    674.22  77634.20
         S          3.838            3.128    251.62  12327.25
         S          3.855            3.128    251.62  12327.25
         S          3.859            3.128    251.62  12327.25
         S          3.839            3.128    251.62  12327.25
         Mo        10.208            3.547    674.21  77634.20
         Mo        10.221            3.547    674.22  77634.20
         S          3.858            3.128    251.62  12327.25
         S          3.859            3.128    251.62  12327.25
         S          3.758            3.128    251.62  12327.25
         S          3.859            3.128    251.62  12327.25
         Mo        10.220            3.547    674.22  77634.20
         Mo        10.292            3.547    674.22  77634.20
         S          3.857            3.128    251.62  12327.25
         S          3.864            3.128    251.62  12327.25
         S          3.859            3.128    251.62  12327.25
         S          3.796            3.128    251.62  12327.25
         Mo        10.208            3.547    674.22  77634.20
         Mo        10.220            3.547    674.22  77634.20
         S          3.858            3.128    251.62  12327.25
         S          3.859            3.128    251.62  12327.25
         S          3.758            3.128    251.62  12327.25
         S          3.859            3.128    251.62  12327.25
         Mo        10.221            3.547    674.22  77634.20
         Mo        10.259            3.547    674.22  77634.20
         S          3.864            3.128    251.62  12327.25
         S          3.861            3.128    251.62  12327.25
         S          3.859            3.128    251.62  12327.25
         S          3.771            3.128    251.62  12327.25
         Mo        10.208            3.547    674.22  77634.20
         Mo        10.221            3.547    674.22  77634.20
         S          3.858            3.128    251.62  12327.25
         S          3.859            3.128    251.62  12327.25
         S          3.758            3.128    251.62  12327.25
         S          3.859            3.128    251.62  12327.25
         Mo        10.221            3.547    674.22  77634.20
         Mo        10.240            3.547    674.22  77634.20
         S          3.842            3.128    251.62  12327.25
         S          3.856            3.128    251.62  12327.25
         S          3.859            3.128    251.62  12327.25
         S          4.635            3.128    251.62  12327.25
         Mo        10.208            3.547    674.22  77634.20
         Mo        10.221            3.547    674.22  77634.20
         S          3.858            3.128    251.62  12327.25
         S          3.859            3.128    251.62  12327.25
         S          3.758            3.128    251.62  12327.25
         S          3.859            3.128    251.62  12327.25
         Mo        10.220            3.547    674.22  77634.20
         Mo        10.227            3.547    674.22  77634.20
         S          3.837            3.128    251.62  12327.25
         S          3.859            3.128    251.62  12327.25
         S          3.859            3.128    251.62  12327.25
         S          3.842            3.128    251.62  12327.25
         Pt         5.544            3.168    673.75  70061.90
         Pt         4.605            3.168    673.75  70061.91
         Pd         1.031            3.168    670.75  61456.47

         Molecular C6 ( Ry / a.u.^6 ) =  14191672.60


     number of k points=     4  Gaussian smearing, width (Ry)=  0.0100
                       cart. coord. in units 2pi/alat
        k(    1) = (   0.0000000   0.0000000   0.0000000), wk =   0.5000000
        k(    2) = (   0.0000000  -0.5773499   0.0000000), wk =   0.5000000
        k(    3) = (  -0.5000000  -0.2886744   0.0000000), wk =   0.5000000
        k(    4) = (  -0.5000000  -0.8660242   0.0000000), wk =   0.5000000

     Dense  grid:  7154885 G-vectors     FFT dimensions: ( 180, 180, 512)

     Smooth grid:  3090769 G-vectors     FFT dimensions: ( 135, 135, 400)

     Estimated max dynamical RAM per process >       4.33 GB

     Estimated total dynamical RAM >     155.86 GB

     Initial potential from superposition of free atoms

     starting charge    1745.9388, renormalised to    1746.0000

     negative rho (up, down):  8.075E-04 0.000E+00
     Starting wfcs are 1196 randomized atomic wfcs
     Checking if some PAW data can be deallocated... 

     total cpu time spent up to now is      179.3 secs

     Self-consistent Calculation

     iteration #  1     ecut=    77.00 Ry     beta= 0.20
     Davidson diagonalization with overlap
     ethr =  1.00E-02,  avg # of iterations =  2.0

     Threshold (ethr) on eigenvalues was too large:
     Diagonalizing with lowered threshold

     Davidson diagonalization with overlap
     ethr =  1.80E-04,  avg # of iterations = 16.0

     negative rho (up, down):  2.370E-04 0.000E+00

     total cpu time spent up to now is     2156.4 secs

     total energy              =  -35654.79759974 Ry
     estimated scf accuracy    <       6.52444568 Ry

     iteration #  2     ecut=    77.00 Ry     beta= 0.20
     Davidson diagonalization with overlap
     ethr =  3.74E-04,  avg # of iterations =  6.0

     negative rho (up, down):  5.440E-05 0.000E+00

     total cpu time spent up to now is     2583.3 secs

     total energy              =  -35653.98917334 Ry
     estimated scf accuracy    <       3.32965285 Ry

     iteration #  3     ecut=    77.00 Ry     beta= 0.20
     Davidson diagonalization with overlap
     ethr =  1.91E-04,  avg # of iterations =  9.5

     negative rho (up, down):  1.670E-05 0.000E+00

     total cpu time spent up to now is     3020.5 secs

     total energy              =  -35653.52296836 Ry
     estimated scf accuracy    <       2.08080509 Ry

     iteration #  4     ecut=    77.00 Ry     beta= 0.20
     Davidson diagonalization with overlap
     ethr =  1.19E-04,  avg # of iterations = 11.2

     negative rho (up, down):  2.174E-05 0.000E+00

     total cpu time spent up to now is     3541.2 secs

     total energy              =  -35651.83446510 Ry
     estimated scf accuracy    <      75.25235826 Ry

     iteration #  5     ecut=    77.00 Ry     beta= 0.20
     Davidson diagonalization with overlap
     c_bands:  4 eigenvalues not converged
     c_bands:  4 eigenvalues not converged
     c_bands:  5 eigenvalues not converged
     c_bands:  2 eigenvalues not converged
     ethr =  1.19E-04,  avg # of iterations = 20.0

     negative rho (up, down):  1.610E-05 0.000E+00

     total cpu time spent up to now is     4031.2 secs

     total energy              =  -35654.02536855 Ry
     estimated scf accuracy    <       2.30407793 Ry

     iteration #  6     ecut=    77.00 Ry     beta= 0.20
     Davidson diagonalization with overlap
     ethr =  1.19E-04,  avg # of iterations = 16.2

     negative rho (up, down):  1.497E-05 0.000E+00

     total cpu time spent up to now is     4484.8 secs

     total energy              =  -35654.22437612 Ry
     estimated scf accuracy    <       0.43535341 Ry

     iteration #  7     ecut=    77.00 Ry     beta= 0.20
     Davidson diagonalization with overlap
     c_bands:  4 eigenvalues not converged
     c_bands:  1 eigenvalues not converged
     c_bands:  5 eigenvalues not converged
     ethr =  2.49E-05,  avg # of iterations = 20.0

     negative rho (up, down):  2.474E-05 0.000E+00

     total cpu time spent up to now is     6285.4 secs

     total energy              =  -35654.84495557 Ry
     estimated scf accuracy    <       0.77240781 Ry

     iteration #  8     ecut=    77.00 Ry     beta= 0.20
     Davidson diagonalization with overlap
     ethr =  2.49E-05,  avg # of iterations =  4.5

     negative rho (up, down):  4.947E-05 0.000E+00

     total cpu time spent up to now is     6702.4 secs

     total energy              =  -35654.76752862 Ry
     estimated scf accuracy    <       0.53149981 Ry

     iteration #  9     ecut=    77.00 Ry     beta= 0.20
     Davidson diagonalization with overlap
     ethr =  2.49E-05,  avg # of iterations =  1.2

     negative rho (up, down):  4.021E-04 0.000E+00

     total cpu time spent up to now is     7084.5 secs

     total energy              =  -35654.64754469 Ry
     estimated scf accuracy    <       0.38772656 Ry

     iteration # 10     ecut=    77.00 Ry     beta= 0.20
     Davidson diagonalization with overlap
     c_bands:  2 eigenvalues not converged
     c_bands:  2 eigenvalues not converged
     c_bands:  2 eigenvalues not converged
     c_bands:  1 eigenvalues not converged
     ethr =  2.22E-05,  avg # of iterations = 20.0

     negative rho (up, down):  2.235E-04 0.000E+00

     total cpu time spent up to now is     7922.6 secs

     total energy              =  -35654.80859130 Ry
     estimated scf accuracy    <       0.35700032 Ry

     iteration # 11     ecut=    77.00 Ry     beta= 0.20
     Davidson diagonalization with overlap
     c_bands:  1 eigenvalues not converged
     c_bands:  1 eigenvalues not converged
     c_bands:  1 eigenvalues not converged
     ethr =  2.04E-05,  avg # of iterations = 17.8

     negative rho (up, down):  1.874E-04 0.000E+00

     total cpu time spent up to now is     8381.9 secs

     total energy              =  -35654.80416406 Ry
     estimated scf accuracy    <       0.08938367 Ry

     iteration # 12     ecut=    77.00 Ry     beta= 0.20
     Davidson diagonalization with overlap
     c_bands:  4 eigenvalues not converged
     c_bands:  4 eigenvalues not converged
     c_bands:  5 eigenvalues not converged
     c_bands:  4 eigenvalues not converged
     ethr =  5.12E-06,  avg # of iterations = 60.0

     negative rho (up, down):  2.093E-04 0.000E+00

     total cpu time spent up to now is    10017.0 secs

     total energy              =  -35654.85428411 Ry
     estimated scf accuracy    <       0.03590808 Ry

     iteration # 13     ecut=    77.00 Ry     beta= 0.20
     Davidson diagonalization with overlap
     c_bands:  4 eigenvalues not converged
     c_bands:  4 eigenvalues not converged
     c_bands:  3 eigenvalues not converged
     c_bands:  2 eigenvalues not converged
     ethr =  2.06E-06,  avg # of iterations = 75.0

     negative rho (up, down):  3.329E-04 0.000E+00

     total cpu time spent up to now is    11935.7 secs

     total energy              =  -35654.86025233 Ry
     estimated scf accuracy    <       0.03520266 Ry

     iteration # 14     ecut=    77.00 Ry     beta= 0.20
     Davidson diagonalization with overlap
     c_bands:  3 eigenvalues not converged
     c_bands:  5 eigenvalues not converged
     c_bands:  1 eigenvalues not converged
     ethr =  2.02E-06,  avg # of iterations = 15.5

     negative rho (up, down):  4.787E-04 0.000E+00

     total cpu time spent up to now is    12403.0 secs

     total energy              =  -35654.85943168 Ry
     estimated scf accuracy    <       0.00715229 Ry

     iteration # 15     ecut=    77.00 Ry     beta= 0.20
     Davidson diagonalization with overlap
     c_bands:  5 eigenvalues not converged
     c_bands:  5 eigenvalues not converged
     ethr =  4.10E-07,  avg # of iterations = 17.0

     negative rho (up, down):  7.197E-04 0.000E+00

     total cpu time spent up to now is    13146.8 secs

     total energy              =  -35654.86338479 Ry
     estimated scf accuracy    <       0.00317727 Ry

     iteration # 16     ecut=    77.00 Ry     beta= 0.20
     Davidson diagonalization with overlap
     c_bands:  2 eigenvalues not converged
     c_bands:  1 eigenvalues not converged
     c_bands:  1 eigenvalues not converged
     ethr =  1.82E-07,  avg # of iterations = 17.0

     negative rho (up, down):  6.595E-04 0.000E+00

     total cpu time spent up to now is    14324.9 secs

     total energy              =  -35654.86444706 Ry
     estimated scf accuracy    <       0.00737876 Ry

     iteration # 17     ecut=    77.00 Ry     beta= 0.20
     Davidson diagonalization with overlap
     c_bands:  3 eigenvalues not converged
     ethr =  1.82E-07,  avg # of iterations =  8.2

     negative rho (up, down):  6.468E-04 0.000E+00

     total cpu time spent up to now is    14784.2 secs

     total energy              =  -35654.86349865 Ry
     estimated scf accuracy    <       0.00191417 Ry

     iteration # 18     ecut=    77.00 Ry     beta= 0.20
     Davidson diagonalization with overlap
     c_bands:  2 eigenvalues not converged
     ethr =  1.10E-07,  avg # of iterations = 14.0

     negative rho (up, down):  7.004E-04 0.000E+00

     total cpu time spent up to now is    15846.5 secs

     total energy              =  -35654.86544957 Ry
     estimated scf accuracy    <       0.00270185 Ry

     iteration # 19     ecut=    77.00 Ry     beta= 0.20
     Davidson diagonalization with overlap
     ethr =  1.10E-07,  avg # of iterations =  1.2

     negative rho (up, down):  7.419E-04 0.000E+00

     total cpu time spent up to now is    16224.5 secs

     total energy              =  -35654.86484794 Ry
     estimated scf accuracy    <       0.00105670 Ry

     iteration # 20     ecut=    77.00 Ry     beta= 0.20
     Davidson diagonalization with overlap
     ethr =  6.05E-08,  avg # of iterations =  5.5

     negative rho (up, down):  7.548E-04 0.000E+00

     total cpu time spent up to now is    16841.8 secs

     total energy              =  -35654.86529304 Ry
     estimated scf accuracy    <       0.00004553 Ry

     iteration # 21     ecut=    77.00 Ry     beta= 0.20
     Davidson diagonalization with overlap
     c_bands:  5 eigenvalues not converged
     ethr =  2.61E-09,  avg # of iterations = 30.2

     negative rho (up, down):  7.504E-04 0.000E+00

     total cpu time spent up to now is    19571.3 secs

     total energy              =  -35654.86547634 Ry
     estimated scf accuracy    <       0.00031385 Ry

     iteration # 22     ecut=    77.00 Ry     beta= 0.20
     Davidson diagonalization with overlap
     ethr =  2.61E-09,  avg # of iterations = 11.8

     negative rho (up, down):  7.764E-04 0.000E+00

     total cpu time spent up to now is    20284.7 secs

     total energy              =  -35654.86545590 Ry
     estimated scf accuracy    <       0.00006803 Ry

     iteration # 23     ecut=    77.00 Ry     beta= 0.20
     Davidson diagonalization with overlap
     ethr =  2.61E-09,  avg # of iterations =  8.8

     negative rho (up, down):  7.934E-04 0.000E+00

     total cpu time spent up to now is    21080.8 secs

     total energy              =  -35654.86547758 Ry
     estimated scf accuracy    <       0.00000872 Ry

     iteration # 24     ecut=    77.00 Ry     beta= 0.20
     Davidson diagonalization with overlap
     ethr =  4.99E-10,  avg # of iterations = 15.5

     negative rho (up, down):  8.027E-04 0.000E+00

     total cpu time spent up to now is    21836.7 secs

     total energy              =  -35654.86547829 Ry
     estimated scf accuracy    <       0.00000246 Ry

     iteration # 25     ecut=    77.00 Ry     beta= 0.20
     Davidson diagonalization with overlap
     c_bands:  1 eigenvalues not converged
     c_bands:  1 eigenvalues not converged
     c_bands:  3 eigenvalues not converged
     ethr =  1.41E-10,  avg # of iterations = 19.0

     negative rho (up, down):  8.044E-04 0.000E+00

     total cpu time spent up to now is    22740.8 secs

     total energy              =  -35654.86547932 Ry
     estimated scf accuracy    <       0.00000120 Ry

     iteration # 26     ecut=    77.00 Ry     beta= 0.20
     Davidson diagonalization with overlap
     c_bands:  4 eigenvalues not converged
     c_bands:  3 eigenvalues not converged
     ethr =  6.89E-11,  avg # of iterations = 15.2

     negative rho (up, down):  8.104E-04 0.000E+00

     total cpu time spent up to now is    23312.1 secs

     End of self-consistent calculation

          k = 0.0000 0.0000 0.0000 (386245 PWs)   bands (ev):

  -103.3495-103.0986 -87.2860 -71.7254 -71.7181 -71.6723 -71.6494 -71.6323
   -71.6036 -71.5988 -71.4731 -71.4685 -71.4289 -71.3845 -71.3778 -71.3520
   -71.3465 -66.6435 -66.6101 -66.6095 -66.6095 -66.6083 -66.5991 -66.5982
   -66.5890 -66.5886 -66.5884 -66.5883 -66.5882 -66.5882 -66.5882 -66.5882
   -66.5882 -66.5882 -66.5881 -66.5880 -66.5878 -66.5870 -66.5870 -66.5870
   -66.5870 -66.5869 -66.5869 -66.5850 -66.5828 -66.5806 -66.5708 -66.5673
   -66.5672 -66.5671 -66.5670 -66.5668 -66.5668 -66.5668 -66.5668 -66.5668
   -66.5668 -66.5668 -66.5668 -66.5667 -66.5667 -66.5667 -66.5666 -66.5666
   -66.5662 -66.5656 -66.5656 -66.5656 -66.5655 -66.5655 -66.5655 -66.5655
   -66.5655 -66.5655 -66.5582 -66.5533 -66.5513 -66.5359 -66.5261 -66.5142
   -66.5113 -57.6965 -57.5633 -57.4368 -57.3640 -57.2993 -57.1693 -53.3904
   -52.9654 -52.9059 -40.9405 -40.9370 -40.9369 -40.9369 -40.9368 -40.9368
   -40.9366 -40.9363 -40.9363 -40.9363 -40.9361 -40.9301 -40.8746 -40.8644
   -40.8618 -40.8617 -40.8616 -40.8615 -40.8615 -40.8615 -40.8615 -40.8615
   -40.8615 -40.8615 -40.8613 -40.8612 -40.8609 -40.8609 -40.8609 -40.8609
   -40.8609 -40.8609 -40.8518 -40.8494 -40.8363 -40.8296 -40.8183 -40.7952
   -40.7692 -40.7690 -40.7685 -40.7670 -40.7468 -40.7437 -40.7424 -40.7355
   -40.7354 -40.7352 -40.7352 -40.7352 -40.7352 -40.7352 -40.7352 -40.7352
   -40.7352 -40.7350 -40.7349 -40.7345 -40.7345 -40.7344 -40.7344 -40.7344
   -40.7344 -40.7339 -40.7319 -40.7301 -40.7278 -40.7277 -40.7276 -40.7274
   -40.7274 -40.7273 -40.7273 -40.7273 -40.7273 -40.7273 -40.7273 -40.7271
   -40.7268 -40.7268 -40.7268 -40.7268 -40.7268 -40.7268 -40.7265 -40.7218
   -40.7170 -40.7137 -40.7101 -40.7055 -40.7046 -40.7004 -40.7004 -40.7002
   -40.7002 -40.7002 -40.7002 -40.7002 -40.7002 -40.7001 -40.7001 -40.6999
   -40.6999 -40.6994 -40.6994 -40.6994 -40.6994 -40.6994 -40.6994 -40.6992
   -40.6977 -40.6957 -40.6891 -40.6873 -40.6859 -40.6859 -40.6857 -40.6857
   -40.6855 -40.6854 -40.6854 -40.6854 -40.6854 -40.6854 -40.6854 -40.6854
   -40.6853 -40.6853 -40.6853 -40.6853 -40.6852 -40.6850 -40.6848 -40.6848
   -40.6848 -40.6848 -40.6848 -40.6847 -40.6847 -40.6847 -40.6847 -40.6840
   -40.6824 -40.6720 -40.6677 -40.6642 -40.6609 -40.6548 -40.6220 -40.6218
   -40.6218 -40.6218 -40.6218 -40.6217 -40.6210 -40.6210 -40.6210 -40.6197
   -40.6093 -40.6022 -40.5750 -40.5749 -40.5748 -40.5747 -40.5747 -40.5747
   -40.5747 -40.5747 -40.5747 -40.5746 -40.5744 -40.5744 -40.5738 -40.5738
   -40.5738 -40.5738 -40.5738 -40.5738 -40.5690 -40.5673 -40.5562 -40.5478
   -40.5439 -40.5411 -40.5271 -40.5271 -40.5271 -40.5271 -40.5262 -40.5261
   -40.5006 -40.4902 -20.3456 -20.0930 -19.9971 -19.8865 -19.7893 -19.3432
   -19.3340 -19.2470 -19.2441 -19.2342 -19.2239 -19.2185 -19.2179 -19.1968
   -19.1939 -19.1738 -19.1391 -19.1283 -19.1273 -19.1110 -19.1089 -19.0894
   -19.0337 -19.0265 -19.0258 -19.0204 -19.0196 -19.0116 -18.9026 -18.8257
   -18.7762 -18.6243 -18.5837 -18.5646 -18.5471 -18.5023 -18.4698 -18.4581
   -18.4396 -18.4304 -18.4097 -18.4081 -18.3898 -18.3534 -18.3329 -18.3308
   -18.2781 -18.2730 -18.2657 -18.2412 -18.2381 -18.2339 -18.1792 -18.1712
   -18.1688 -18.1621 -18.1616 -18.1604 -18.1340 -18.1157 -18.1087 -18.1074
   -18.1058 -18.1052 -18.1039 -18.0942 -18.0810 -18.0780 -18.0730 -18.0714
   -18.0668 -18.0624 -18.0622 -18.0608 -18.0554 -18.0406 -18.0394 -18.0378
   -18.0338 -18.0308 -18.0225 -18.0189 -18.0140 -18.0058 -17.9980 -17.9919
   -17.9914 -17.9878 -17.9867 -17.9767 -17.9743 -17.9711 -17.9470 -17.9423
   -17.9355 -17.9267 -17.9116 -17.9104 -17.9060 -17.9038 -17.9023 -17.8847
   -17.8805 -17.8782 -17.8710 -17.8646 -17.8595 -17.8557 -17.8540 -17.8530
   -17.8461 -17.8441 -17.8421 -17.8268 -17.8262 -17.8258 -17.8178 -17.8156
   -17.8128 -17.8098 -17.8085 -17.8064 -17.7830 -17.7827 -17.7817 -17.7810
   -17.7804 -17.7797 -12.4459 -12.3684 -11.9832 -11.9533 -11.8528 -11.7890
   -11.7820 -11.7796 -11.6824 -11.6772 -11.6595 -11.6284 -11.5576 -11.5427
   -11.5407 -11.5209 -11.4249 -11.4168 -11.3208 -11.2866 -11.2397 -11.2362
   -11.2242 -11.2230 -11.2137 -11.2004 -11.1781 -11.1491 -11.1195 -11.1185
   -11.1172 -11.1131 -11.1119 -11.1050 -11.0788 -11.0693 -11.0634 -11.0502
   -11.0480 -11.0451 -11.0438 -11.0384 -11.0369 -11.0294 -11.0140 -11.0101
   -10.9738 -10.9696 -10.9597 -10.9538 -10.9399 -10.9313 -10.9289 -10.9074
   -10.8931 -10.8854 -10.8803 -10.8782 -10.8755 -10.8622 -10.8418 -10.8374
   -10.8326 -10.8318 -10.8244 -10.8198 -10.8168 -10.8159 -10.8155 -10.8111
   -10.8088 -10.7973 -10.7965 -10.7955 -10.7931 -10.7912 -10.7725 -10.7683
   -10.7657 -10.7647 -10.7618 -10.7575 -10.7562 -10.7474 -10.7440 -10.7238
   -10.7234 -10.7230 -10.7227 -10.7204 -10.7194 -10.6854 -10.6560 -10.6466
   -10.6270 -10.6017 -10.5825 -10.5778 -10.5686 -10.5660 -10.5580 -10.5015
   -10.4043 -10.2869 -10.1710 -10.1496 -10.1433 -10.0492  -9.9795  -9.9659
    -9.9238  -9.8594  -9.8306  -9.8128  -9.8025  -9.7938  -9.7855  -9.7726
    -9.7640  -9.7624  -9.7613  -9.7566  -9.7525  -9.7495  -9.7471  -9.7387
    -9.7375  -9.7357  -9.7293  -9.7279  -9.7228  -9.7106  -9.7015  -9.6870
    -9.6516  -9.6339  -9.6241  -9.6233  -9.6165  -9.6126  -9.6095  -9.6051
    -9.6050  -9.6035  -9.6029  -9.6016  -9.6012  -9.5924  -9.5700  -9.5532
    -9.5383  -9.5308  -9.5269  -9.5267  -9.5263  -9.5262  -9.5261  -9.5258
    -9.5085  -9.5076  -9.4950  -9.4872  -9.4840  -9.4678  -9.4561  -9.4469
    -9.4334  -9.3687  -9.3556  -9.3519  -9.3506  -9.3482  -9.3435  -9.3370
    -9.3233  -9.3175  -9.3054  -9.3018  -9.2965  -9.2830  -9.2597  -9.2580
    -9.2356  -9.2201  -9.2141  -9.2062  -9.1926  -9.1776  -9.1694  -9.1661
    -9.1658  -9.1650  -9.1642  -9.1429  -9.1298  -9.1169  -9.1060  -9.0967
    -9.0934  -9.0831  -9.0391  -8.9782  -8.9685  -8.9677  -8.9653  -8.9543
    -8.9474  -8.9438  -8.9373  -8.9339  -8.9271  -8.9208  -8.9028  -8.9026
    -8.9019  -8.8957  -8.8908  -8.8875  -8.8807  -8.8639  -8.8495  -8.8073
    -8.8069  -8.8065  -8.8062  -8.8059  -8.8055  -8.7549  -8.7522  -8.7442
    -8.7332  -8.7235  -8.7213  -8.6712  -8.6669  -8.6574  -8.6522  -8.6455
    -8.6435  -8.6101  -8.6035  -8.5789  -8.5783  -8.5768  -8.5765  -8.5715
    -8.5683  -8.4909  -8.4611  -8.4303  -8.3767  -8.3567  -8.3515  -8.3514
    -8.3467  -8.3459  -8.3422  -8.3397  -8.3393  -8.3077  -8.2709  -8.2670
    -8.2608  -8.2607  -8.2605  -8.2597  -8.2576  -8.2509  -8.2341  -8.2341
    -8.2335  -8.2322  -8.2317  -8.2263  -8.2060  -8.2059  -8.2056  -8.2051
    -8.2050  -8.2034  -8.1227  -8.0182  -7.9840  -7.9564  -7.8795  -7.8485
    -7.8466  -7.8415  -7.7948  -7.7811  -7.7700  -7.7459  -7.7088  -7.6978
    -7.6895  -7.6427  -7.6317  -7.6297  -7.6251  -7.6186  -7.6139  -7.5959
    -7.5923  -7.5896  -7.5773  -7.5590  -7.5558  -7.5378  -7.5355  -7.5210
    -7.5206  -7.5198  -7.5194  -7.5177  -7.5159  -7.5080  -7.5037  -7.4991
    -7.4933  -7.4926  -7.4910  -7.4905  -7.4901  -7.4858  -7.4681  -7.4678
    -7.4675  -7.4673  -7.4668  -7.4658  -7.4517  -7.4477  -7.4307  -7.4192
    -7.4165  -7.4139  -7.4029  -7.3985  -7.3946  -7.3856  -7.3805  -7.3716
    -7.3494  -7.3445  -7.3395  -7.3154  -7.3037  -7.2942  -7.2872  -7.2840
    -7.2790  -7.2781  -7.2758  -7.2734  -7.2621  -7.2463  -7.2357  -7.2347
    -7.2176  -7.2166  -7.2105  -7.1988  -7.1986  -7.1755  -7.1245  -7.1102
    -7.1009  -7.0840  -7.0741  -7.0394  -6.9678  -6.9109  -6.8820  -6.8656
    -6.8593  -6.8466  -6.8231  -6.8084  -6.7787  -6.7668  -6.7648  -6.7458
    -6.7418  -6.7376  -6.6913  -6.6878  -6.6771  -6.6615  -6.6478  -6.6160
    -6.6113  -6.6060  -6.6044  -6.5974  -6.5908  -6.5832  -6.5658  -6.5568
    -6.5420  -6.5357  -6.5291  -6.5241  -6.5131  -6.5007  -6.4990  -6.4976
    -6.4969  -6.4952  -6.4938  -6.4926  -6.4901  -6.4848  -6.4827  -6.4824
    -6.4823  -6.4821  -6.4816  -6.4794  -6.4631  -6.4498  -6.4434  -6.4254
    -6.4201  -6.4018  -6.3953  -6.3938  -6.3837  -6.3680  -6.3479  -6.3234
    -6.3230  -6.3176  -6.3172  -6.3148  -6.3117  -6.2965  -6.2961  -6.2797
    -6.2787  -6.2744  -6.2712  -6.2639  -6.2621  -6.2414  -6.2410  -6.2380
    -6.2366  -6.2352  -6.2341  -6.2220  -6.2013  -6.1712  -6.0469  -5.8472
    -5.6952  -5.5671  -5.3734  -5.3625  -5.3068  -5.1506  -5.1147  -5.0244
    -4.9764  -4.7156  -4.0303  -3.8391  -3.8378  -3.8363  -3.8330  -3.8210
    -3.8164  -3.8148  -3.8133  -3.8096  -3.8087  -3.7958  -3.7785  -3.6939
    -3.6895  -3.6863  -3.6769  -3.6752  -3.6688  -3.6668  -3.6622  -3.6614
    -3.6600  -3.5958  -3.5610  -3.5138  -3.5027  -3.4990  -3.4943  -3.4842
    -3.4806  -3.4682  -3.4616  -3.4574  -3.4557  -3.4537  -3.4494  -3.4491
    -3.4446  -3.4402  -3.4328  -3.4301  -3.4275  -3.4269  -3.4263  -3.4182
    -3.4128  -3.4113  -3.4072  -3.4058  -3.3969  -3.3945  -3.3937  -3.3892
    -3.3877  -3.3852  -3.3776  -3.3716  -3.3698  -3.3647  -3.3481  -3.3413
    -3.3336  -3.3328  -3.3318  -3.3305  -3.3268  -3.3205  -3.3111  -3.3026
    -3.2936  -3.2860  -3.2754  -3.2732  -3.2694  -3.2629  -3.2603  -3.2398
    -3.2134  -3.1944  -3.1878  -3.1842  -3.1781  -3.1484  -3.0959  -3.0593
    -3.0545  -3.0505  -3.0479  -3.0454  -3.0358  -3.0335  -3.0291  -3.0258
    -2.9954  -2.9780  -2.9752  -2.9683  -2.9643  -2.9595  -2.9586  -2.9570
    -2.9551  -2.9503  -2.9474  -2.9471  -2.9454  -2.9417  -2.9385  -2.9372
    -2.9361  -2.9269  -2.9236  -2.9191  -2.9181  -2.9167  -2.9143  -2.9143
    -2.9130  -2.9107  -2.9090  -2.9032  -2.8962  -2.8784  -2.8690  -2.8655
    -2.8592  -2.8557  -2.8438  -2.8400  -2.8108  -2.7909  -2.7907  -2.7901
    -2.7900  -2.7897  -2.7881  -2.7879  -2.7877  -2.7873  -2.7720  -2.7698
    -2.7593  -2.7442  -2.7400  -2.7230  -2.7126  -2.7077  -2.7001  -2.6902
    -2.6568  -2.6490  -2.6246  -2.6227  -2.6213  -2.6091  -2.6090  -2.6072
    -2.6018  -2.5986  -2.5675  -2.5514  -2.5456  -2.5284  -2.5138  -2.4822
    -2.4516  -2.4443  -2.4071  -2.4030  -2.3989  -2.3934  -2.3897  -2.3780

          k = 0.0000-0.5773 0.0000 (386352 PWs)   bands (ev):

  -103.3495-103.0986 -87.2860 -71.7254 -71.7181 -71.6723 -71.6494 -71.6323
   -71.6036 -71.5988 -71.4731 -71.4686 -71.4289 -71.3845 -71.3778 -71.3520
   -71.3465 -66.6435 -66.6095 -66.6034 -66.6032 -66.6032 -66.6032 -66.6020
   -66.6020 -66.6006 -66.5984 -66.5927 -66.5926 -66.5926 -66.5926 -66.5914
   -66.5914 -66.5889 -66.5836 -66.5823 -66.5813 -66.5778 -66.5778 -66.5775
   -66.5775 -66.5775 -66.5775 -66.5774 -66.5771 -66.5763 -66.5763 -66.5763
   -66.5763 -66.5732 -66.5731 -66.5730 -66.5730 -66.5718 -66.5718 -66.5710
   -66.5673 -66.5670 -66.5668 -66.5668 -66.5668 -66.5668 -66.5667 -66.5663
   -66.5655 -66.5655 -66.5655 -66.5655 -66.5624 -66.5623 -66.5623 -66.5623
   -66.5611 -66.5611 -66.5579 -66.5534 -66.5516 -66.5357 -66.5263 -66.5142
   -66.5113 -57.6965 -57.5633 -57.4368 -57.3640 -57.2993 -57.1694 -53.3904
   -52.9654 -52.9059 -40.9265 -40.9199 -40.9055 -40.9054 -40.9052 -40.9052
   -40.9052 -40.9052 -40.9052 -40.9048 -40.9047 -40.9046 -40.9046 -40.9046
   -40.8988 -40.8832 -40.8785 -40.8784 -40.8784 -40.8783 -40.8778 -40.8778
   -40.8684 -40.8664 -40.8664 -40.8663 -40.8663 -40.8658 -40.8658 -40.8615
   -40.8579 -40.8476 -40.8233 -40.8158 -40.8157 -40.8157 -40.8157 -40.8157
   -40.8157 -40.8156 -40.8156 -40.8150 -40.8150 -40.8150 -40.8150 -40.8108
   -40.8068 -40.7990 -40.7932 -40.7829 -40.7635 -40.7571 -40.7570 -40.7569
   -40.7568 -40.7563 -40.7563 -40.7494 -40.7474 -40.7474 -40.7474 -40.7473
   -40.7466 -40.7466 -40.7443 -40.7380 -40.7362 -40.7361 -40.7360 -40.7360
   -40.7354 -40.7354 -40.7305 -40.7216 -40.7178 -40.7152 -40.7089 -40.7068
   -40.7068 -40.7064 -40.7064 -40.7064 -40.7064 -40.7063 -40.7062 -40.7058
   -40.7058 -40.7058 -40.7058 -40.7054 -40.6979 -40.6978 -40.6977 -40.6977
   -40.6976 -40.6971 -40.6970 -40.6941 -40.6912 -40.6860 -40.6859 -40.6859
   -40.6859 -40.6858 -40.6857 -40.6854 -40.6854 -40.6853 -40.6853 -40.6853
   -40.6851 -40.6851 -40.6851 -40.6847 -40.6847 -40.6847 -40.6847 -40.6821
   -40.6784 -40.6769 -40.6768 -40.6767 -40.6767 -40.6760 -40.6760 -40.6708
   -40.6676 -40.6594 -40.6560 -40.6554 -40.6550 -40.6550 -40.6550 -40.6550
   -40.6550 -40.6548 -40.6546 -40.6541 -40.6541 -40.6541 -40.6541 -40.6514
   -40.6310 -40.6262 -40.6203 -40.6202 -40.6202 -40.6202 -40.6202 -40.6202
   -40.6202 -40.6201 -40.6194 -40.6194 -40.6194 -40.6193 -40.6173 -40.6129
   -40.6082 -40.6081 -40.6081 -40.6079 -40.6072 -40.6072 -40.6069 -40.5949
   -40.5890 -40.5888 -40.5887 -40.5885 -40.5879 -40.5879 -40.5878 -40.5762
   -40.5723 -40.5718 -40.5718 -40.5718 -40.5717 -40.5709 -40.5709 -40.5679
   -40.5532 -40.5413 -40.5411 -40.5411 -40.5409 -40.5402 -40.5402 -40.5364
   -40.5239 -40.4936 -20.2978 -19.8827 -19.8569 -19.8264 -19.7646 -19.7314
   -19.6558 -19.6348 -19.5767 -19.4766 -19.4204 -19.4076 -19.3368 -19.3136
   -19.2399 -19.2128 -19.1818 -18.8818 -18.8243 -18.7942 -18.7828 -18.7381
   -18.7094 -18.7061 -18.7043 -18.7036 -18.6870 -18.6508 -18.6412 -18.6351
   -18.6309 -18.6145 -18.5798 -18.5749 -18.5598 -18.5409 -18.5351 -18.5336
   -18.5329 -18.5111 -18.4877 -18.4794 -18.4781 -18.4636 -18.4540 -18.4240
   -18.4007 -18.3976 -18.3877 -18.3839 -18.3619 -18.3552 -18.3394 -18.3177
   -18.3061 -18.2994 -18.2561 -18.2336 -18.2269 -18.2213 -18.1957 -18.1827
   -18.1662 -18.1564 -18.1394 -18.1116 -18.1071 -18.0973 -18.0891 -18.0866
   -18.0838 -18.0820 -18.0656 -18.0604 -18.0597 -18.0585 -18.0537 -18.0511
   -18.0476 -18.0368 -18.0347 -18.0286 -18.0253 -18.0189 -17.9989 -17.9925
   -17.9882 -17.9853 -17.9847 -17.9844 -17.9798 -17.9762 -17.9728 -17.9636
   -17.9447 -17.9270 -17.9215 -17.9184 -17.9165 -17.9099 -17.8816 -17.8758
   -17.8683 -17.8649 -17.8423 -17.8357 -17.8286 -17.8281 -17.8235 -17.8224
   -17.8046 -17.8037 -17.8030 -17.8026 -17.8021 -17.8017 -17.7906 -17.7881
   -17.7722 -17.7681 -17.7474 -17.7444 -17.7282 -17.7252 -17.7123 -17.7110
   -17.7038 -17.7036 -12.4111 -12.3261 -11.7792 -11.7769 -11.6972 -11.6384
   -11.6015 -11.5171 -11.4993 -11.4931 -11.4867 -11.4774 -11.4702 -11.4505
   -11.4489 -11.4245 -11.4088 -11.3981 -11.3827 -11.3690 -11.3410 -11.3327
   -11.3302 -11.3058 -11.3025 -11.2937 -11.2851 -11.2706 -11.2509 -11.2504
   -11.2466 -11.2403 -11.2369 -11.2162 -11.2012 -11.1897 -11.1858 -11.1846
   -11.1645 -11.1592 -11.1552 -11.1500 -11.1447 -11.1322 -11.1300 -11.1264
   -11.1103 -11.1087 -11.0793 -11.0640 -11.0615 -11.0525 -11.0138 -10.9923
   -10.9547 -10.9445 -10.9350 -10.9160 -10.8924 -10.8859 -10.8796 -10.8754
   -10.8610 -10.8307 -10.8208 -10.8193 -10.8158 -10.8118 -10.7977 -10.7963
   -10.7963 -10.7950 -10.7928 -10.7861 -10.7843 -10.7820 -10.7765 -10.7762
   -10.7725 -10.7687 -10.7654 -10.7647 -10.7600 -10.7286 -10.7277 -10.7271
   -10.7263 -10.6757 -10.5783 -10.5470 -10.5242 -10.5223 -10.5144 -10.4839
   -10.4518 -10.3884 -10.3553 -10.3461 -10.2540 -10.2346 -10.2108 -10.1674
   -10.1348 -10.1091 -10.1089 -10.1005 -10.0871 -10.0715 -10.0551 -10.0494
   -10.0385 -10.0279 -10.0201 -10.0137 -10.0092 -10.0081  -9.9981  -9.9756
    -9.9412  -9.9359  -9.9189  -9.9084  -9.9019  -9.8942  -9.8914  -9.8875
    -9.8784  -9.8677  -9.8429  -9.8175  -9.8153  -9.7930  -9.7912  -9.7783
    -9.7629  -9.7597  -9.7353  -9.7207  -9.7180  -9.7069  -9.6940  -9.6641
    -9.6549  -9.6518  -9.6239  -9.6168  -9.6068  -9.5951  -9.5697  -9.5523
    -9.5507  -9.5481  -9.5406  -9.5312  -9.5238  -9.5079  -9.4802  -9.4776
    -9.4743  -9.4667  -9.4619  -9.4485  -9.4443  -9.4426  -9.4316  -9.4252
    -9.4166  -9.4134  -9.3799  -9.3691  -9.3554  -9.3428  -9.3236  -9.3176
    -9.2986  -9.2546  -9.2172  -9.2036  -9.1998  -9.1989  -9.1770  -9.1729
    -9.1560  -9.1437  -9.1365  -9.1287  -9.1240  -9.1079  -9.0851  -9.0830
    -9.0550  -9.0525  -9.0499  -9.0321  -9.0231  -9.0152  -9.0055  -8.9978
    -8.9756  -8.9569  -8.9486  -8.9416  -8.9384  -8.9323  -8.9197  -8.9096
    -8.9073  -8.8888  -8.8855  -8.8759  -8.8747  -8.8724  -8.8703  -8.8686
    -8.8680  -8.8533  -8.8527  -8.8441  -8.8424  -8.8395  -8.8323  -8.8243
    -8.8236  -8.8162  -8.8121  -8.8101  -8.7928  -8.7780  -8.7773  -8.7726
    -8.7696  -8.7670  -8.7662  -8.7478  -8.7448  -8.7235  -8.7187  -8.7172
    -8.7156  -8.7085  -8.7007  -8.6890  -8.6515  -8.6422  -8.6340  -8.5992
    -8.5912  -8.5385  -8.4911  -8.4881  -8.4814  -8.4309  -8.4292  -8.3780
    -8.3592  -8.3412  -8.3332  -8.3125  -8.2458  -8.2257  -8.1627  -8.1289
    -8.1243  -8.1116  -8.1112  -8.1026  -8.1015  -8.0912  -8.0906  -8.0527
    -8.0412  -8.0271  -7.9564  -7.9544  -7.9318  -7.9161  -7.8325  -7.8273
    -7.8243  -7.8181  -7.8158  -7.8101  -7.8027  -7.8003  -7.7931  -7.7922
    -7.7872  -7.7845  -7.7796  -7.7780  -7.7751  -7.7744  -7.7675  -7.7664
    -7.7650  -7.7604  -7.7538  -7.7525  -7.7505  -7.7500  -7.7493  -7.7461
    -7.7428  -7.7420  -7.7359  -7.7260  -7.7244  -7.7204  -7.7131  -7.7077
    -7.7006  -7.6988  -7.6806  -7.6803  -7.6795  -7.6786  -7.6509  -7.6506
    -7.6490  -7.6489  -7.6441  -7.6321  -7.6307  -7.6102  -7.6042  -7.5933
    -7.5923  -7.5911  -7.5845  -7.5814  -7.5773  -7.5698  -7.5689  -7.5481
    -7.5479  -7.5451  -7.5425  -7.5324  -7.5298  -7.5104  -7.4671  -7.4482
    -7.4438  -7.4412  -7.4356  -7.4264  -7.3946  -7.3786  -7.3420  -7.3098
    -7.2926  -7.2055  -7.1638  -7.1535  -7.1521  -7.1513  -7.1467  -7.1220
    -7.1048  -7.0974  -7.0947  -7.0816  -7.0711  -7.0494  -7.0383  -7.0233
    -7.0175  -7.0056  -7.0000  -6.9853  -6.9716  -6.9612  -6.9603  -6.9435
    -6.9208  -6.8996  -6.8966  -6.8883  -6.8672  -6.8614  -6.8458  -6.8437
    -6.8423  -6.8307  -6.7813  -6.7612  -6.7526  -6.7511  -6.7418  -6.7027
    -6.6780  -6.6672  -6.6568  -6.6359  -6.6188  -6.6028  -6.6024  -6.5984
    -6.5910  -6.5891  -6.5883  -6.5858  -6.5736  -6.5719  -6.5709  -6.5706
    -6.5634  -6.5630  -6.5628  -6.5627  -6.5581  -6.5442  -6.5094  -6.4922
    -6.4285  -6.4258  -6.3899  -6.3624  -6.3226  -6.3106  -6.3079  -6.3038
    -6.2896  -6.2804  -6.2689  -6.2649  -6.2616  -6.2610  -6.2583  -6.2564
    -6.2544  -6.2420  -6.2357  -6.2262  -6.2112  -6.2018  -6.1924  -6.1875
    -6.1855  -6.1796  -6.1772  -6.1294  -5.9869  -5.9775  -5.9472  -5.9265
    -5.9116  -5.8883  -5.8658  -5.8431  -5.8292  -5.8247  -5.7375  -5.6883
    -5.6415  -5.5873  -5.5714  -5.5022  -5.3686  -5.3269  -5.1147  -5.0252
    -4.9645  -4.6732  -4.1263  -4.0713  -4.0692  -4.0569  -4.0096  -3.9154
    -3.9121  -3.8974  -3.8922  -3.8657  -3.8448  -3.8253  -3.8219  -3.8135
    -3.8046  -3.7971  -3.7898  -3.7823  -3.7804  -3.7556  -3.7290  -3.6780
    -3.6672  -3.6345  -3.6211  -3.5957  -3.5885  -3.5837  -3.5815  -3.5698
    -3.5508  -3.5403  -3.5321  -3.5212  -3.5162  -3.5043  -3.4988  -3.4918
    -3.4810  -3.4723  -3.4697  -3.4620  -3.4592  -3.4574  -3.4520  -3.4373
    -3.4360  -3.4312  -3.4246  -3.4216  -3.4093  -3.4037  -3.3964  -3.3895
    -3.3521  -3.3417  -3.3356  -3.3320  -3.3272  -3.3247  -3.3203  -3.3198
    -3.3119  -3.3008  -3.2792  -3.2772  -3.2708  -3.2657  -3.2609  -3.2599
    -3.2580  -3.2568  -3.2438  -3.2422  -3.2312  -3.2277  -3.2257  -3.2092
    -3.2051  -3.2003  -3.1949  -3.1931  -3.1862  -3.1824  -3.1769  -3.1715
    -3.1614  -3.1566  -3.1508  -3.1467  -3.1443  -3.1442  -3.1276  -3.1237
    -3.0881  -3.0844  -3.0729  -3.0610  -3.0540  -3.0513  -3.0409  -3.0360
    -3.0218  -3.0106  -3.0065  -3.0035  -3.0030  -3.0025  -3.0016  -2.9969
    -2.9923  -2.9877  -2.9855  -2.9829  -2.9733  -2.9691  -2.9671  -2.9621
    -2.9597  -2.9539  -2.9507  -2.9496  -2.9451  -2.9380  -2.9354  -2.9286
    -2.9283  -2.9230  -2.9182  -2.9144  -2.9058  -2.8960  -2.8830  -2.8780
    -2.8655  -2.8646  -2.8604  -2.8592  -2.8530  -2.8204  -2.7851  -2.7766
    -2.7683  -2.7613  -2.7214  -2.7137  -2.7037  -2.6988  -2.6157  -2.5943
    -2.5799  -2.5767  -2.5619  -2.5442  -2.5327  -2.5292  -2.5234  -2.5161
    -2.5131  -2.5090  -2.5081  -2.4915  -2.4659  -2.4290  -2.3955  -2.3907
    -2.3825  -2.3789  -2.3716  -2.3669  -2.3559  -2.3549  -2.3346  -2.3015

          k =-0.5000-0.2887 0.0000 (386352 PWs)   bands (ev):

  -103.3495-103.0986 -87.2860 -71.7254 -71.7181 -71.6723 -71.6494 -71.6323
   -71.6036 -71.5988 -71.4731 -71.4686 -71.4289 -71.3845 -71.3778 -71.3520
   -71.3465 -66.6435 -66.6071 -66.6065 -66.6034 -66.6033 -66.6032 -66.6032
   -66.6020 -66.6020 -66.5927 -66.5926 -66.5926 -66.5926 -66.5925 -66.5914
   -66.5914 -66.5897 -66.5856 -66.5829 -66.5806 -66.5778 -66.5777 -66.5775
   -66.5775 -66.5775 -66.5775 -66.5774 -66.5773 -66.5763 -66.5763 -66.5763
   -66.5763 -66.5733 -66.5731 -66.5730 -66.5730 -66.5718 -66.5718 -66.5707
   -66.5672 -66.5668 -66.5668 -66.5668 -66.5668 -66.5668 -66.5668 -66.5664
   -66.5655 -66.5655 -66.5655 -66.5655 -66.5624 -66.5624 -66.5623 -66.5623
   -66.5611 -66.5611 -66.5579 -66.5533 -66.5518 -66.5355 -66.5264 -66.5142
   -66.5113 -57.6965 -57.5633 -57.4368 -57.3640 -57.2993 -57.1694 -53.3904
   -52.9654 -52.9059 -40.9219 -40.9155 -40.9055 -40.9053 -40.9052 -40.9052
   -40.9052 -40.9052 -40.9052 -40.9049 -40.9046 -40.9046 -40.9046 -40.9046
   -40.8974 -40.8908 -40.8828 -40.8785 -40.8784 -40.8784 -40.8783 -40.8778
   -40.8778 -40.8737 -40.8664 -40.8664 -40.8663 -40.8663 -40.8658 -40.8658
   -40.8534 -40.8302 -40.8273 -40.8157 -40.8157 -40.8157 -40.8157 -40.8157
   -40.8156 -40.8156 -40.8156 -40.8150 -40.8150 -40.8150 -40.8150 -40.8073
   -40.8020 -40.7955 -40.7920 -40.7792 -40.7632 -40.7586 -40.7571 -40.7569
   -40.7569 -40.7568 -40.7563 -40.7563 -40.7474 -40.7474 -40.7474 -40.7474
   -40.7466 -40.7466 -40.7362 -40.7361 -40.7360 -40.7360 -40.7354 -40.7354
   -40.7335 -40.7328 -40.7295 -40.7269 -40.7219 -40.7206 -40.7114 -40.7068
   -40.7066 -40.7064 -40.7064 -40.7064 -40.7064 -40.7064 -40.7063 -40.7058
   -40.7058 -40.7058 -40.7058 -40.7053 -40.6993 -40.6979 -40.6977 -40.6977
   -40.6976 -40.6970 -40.6970 -40.6938 -40.6870 -40.6860 -40.6859 -40.6859
   -40.6859 -40.6858 -40.6855 -40.6854 -40.6854 -40.6854 -40.6853 -40.6853
   -40.6851 -40.6851 -40.6851 -40.6847 -40.6847 -40.6847 -40.6847 -40.6832
   -40.6812 -40.6768 -40.6768 -40.6767 -40.6767 -40.6760 -40.6760 -40.6734
   -40.6678 -40.6578 -40.6552 -40.6551 -40.6550 -40.6550 -40.6550 -40.6550
   -40.6549 -40.6549 -40.6547 -40.6541 -40.6541 -40.6541 -40.6541 -40.6458
   -40.6398 -40.6375 -40.6203 -40.6202 -40.6202 -40.6202 -40.6202 -40.6202
   -40.6202 -40.6202 -40.6194 -40.6194 -40.6194 -40.6193 -40.6151 -40.6082
   -40.6081 -40.6081 -40.6079 -40.6072 -40.6072 -40.6065 -40.6019 -40.6010
   -40.5903 -40.5889 -40.5888 -40.5887 -40.5886 -40.5879 -40.5879 -40.5756
   -40.5738 -40.5718 -40.5718 -40.5718 -40.5717 -40.5709 -40.5709 -40.5645
   -40.5444 -40.5413 -40.5411 -40.5411 -40.5409 -40.5402 -40.5402 -40.5313
   -40.5220 -40.5025 -20.2978 -19.8794 -19.8572 -19.8235 -19.7659 -19.7296
   -19.6598 -19.6341 -19.5981 -19.4661 -19.4205 -19.4054 -19.3359 -19.3120
   -19.2348 -19.2122 -19.1675 -18.8967 -18.8594 -18.7840 -18.7621 -18.7322
   -18.7097 -18.7057 -18.7052 -18.7006 -18.6877 -18.6516 -18.6458 -18.6367
   -18.6305 -18.6113 -18.5955 -18.5693 -18.5653 -18.5415 -18.5405 -18.5331
   -18.5188 -18.5154 -18.5036 -18.4741 -18.4679 -18.4626 -18.4552 -18.4246
   -18.3998 -18.3951 -18.3920 -18.3810 -18.3661 -18.3477 -18.3246 -18.3173
   -18.3094 -18.2892 -18.2508 -18.2406 -18.2349 -18.2228 -18.1899 -18.1852
   -18.1734 -18.1529 -18.1270 -18.1142 -18.1133 -18.0989 -18.0913 -18.0855
   -18.0831 -18.0825 -18.0761 -18.0609 -18.0579 -18.0562 -18.0524 -18.0511
   -18.0443 -18.0424 -18.0372 -18.0304 -18.0266 -18.0133 -17.9964 -17.9950
   -17.9913 -17.9864 -17.9850 -17.9829 -17.9803 -17.9747 -17.9729 -17.9634
   -17.9391 -17.9342 -17.9238 -17.9207 -17.9171 -17.9049 -17.8796 -17.8771
   -17.8723 -17.8600 -17.8414 -17.8349 -17.8308 -17.8284 -17.8235 -17.8178
   -17.8039 -17.8038 -17.8035 -17.8031 -17.8022 -17.8014 -17.7894 -17.7893
   -17.7708 -17.7698 -17.7465 -17.7453 -17.7275 -17.7258 -17.7121 -17.7111
   -17.7037 -17.7036 -12.4159 -12.2892 -11.8201 -11.7980 -11.7100 -11.6598
   -11.6283 -11.5150 -11.4935 -11.4865 -11.4846 -11.4780 -11.4646 -11.4590
   -11.4548 -11.4112 -11.4079 -11.3856 -11.3765 -11.3729 -11.3573 -11.3377
   -11.3241 -11.3082 -11.2926 -11.2873 -11.2725 -11.2593 -11.2569 -11.2499
   -11.2459 -11.2395 -11.2366 -11.2172 -11.1941 -11.1907 -11.1854 -11.1806
   -11.1685 -11.1603 -11.1541 -11.1530 -11.1412 -11.1320 -11.1309 -11.1131
   -11.1087 -11.0998 -11.0758 -11.0622 -11.0520 -11.0301 -11.0161 -10.9933
   -10.9528 -10.9426 -10.9324 -10.9156 -10.9078 -10.8986 -10.8819 -10.8698
   -10.8598 -10.8253 -10.8218 -10.8188 -10.8172 -10.8041 -10.8002 -10.7966
   -10.7952 -10.7948 -10.7938 -10.7878 -10.7824 -10.7807 -10.7771 -10.7762
   -10.7707 -10.7688 -10.7665 -10.7657 -10.7358 -10.7287 -10.7277 -10.7272
   -10.7202 -10.6966 -10.5743 -10.5375 -10.5313 -10.5156 -10.5109 -10.4886
   -10.4620 -10.4190 -10.3780 -10.3584 -10.2520 -10.2488 -10.1696 -10.1575
   -10.1267 -10.1201 -10.1007 -10.0983 -10.0846 -10.0786 -10.0501 -10.0420
   -10.0246 -10.0237 -10.0201 -10.0177 -10.0100 -10.0050  -9.9791  -9.9666
    -9.9521  -9.9204  -9.9185  -9.9163  -9.8995  -9.8868  -9.8818  -9.8774
    -9.8714  -9.8609  -9.8487  -9.8380  -9.8131  -9.7923  -9.7879  -9.7734
    -9.7600  -9.7525  -9.7349  -9.7314  -9.7176  -9.6911  -9.6818  -9.6722
    -9.6529  -9.6474  -9.6234  -9.6202  -9.6082  -9.6043  -9.5929  -9.5721
    -9.5609  -9.5561  -9.5366  -9.5253  -9.5223  -9.5192  -9.4990  -9.4790
    -9.4750  -9.4674  -9.4617  -9.4575  -9.4550  -9.4455  -9.4416  -9.4397
    -9.4220  -9.4141  -9.4132  -9.3877  -9.3586  -9.3477  -9.3194  -9.3086
    -9.2664  -9.2329  -9.2189  -9.2096  -9.1988  -9.1958  -9.1880  -9.1802
    -9.1614  -9.1483  -9.1345  -9.1312  -9.1186  -9.1025  -9.0863  -9.0745
    -9.0643  -9.0440  -9.0364  -9.0313  -9.0231  -9.0186  -9.0087  -8.9880
    -8.9727  -8.9670  -8.9574  -8.9434  -8.9364  -8.9343  -8.9273  -8.9192
    -8.9010  -8.8793  -8.8773  -8.8763  -8.8743  -8.8722  -8.8651  -8.8626
    -8.8578  -8.8549  -8.8526  -8.8510  -8.8486  -8.8411  -8.8381  -8.8252
    -8.8239  -8.8227  -8.8143  -8.8028  -8.7828  -8.7781  -8.7770  -8.7761
    -8.7716  -8.7710  -8.7664  -8.7474  -8.7463  -8.7311  -8.7207  -8.7180
    -8.7165  -8.7134  -8.6932  -8.6736  -8.6550  -8.6395  -8.6319  -8.6137
    -8.5810  -8.5109  -8.4986  -8.4882  -8.4815  -8.4591  -8.4309  -8.4196
    -8.3483  -8.3378  -8.2976  -8.2894  -8.2682  -8.1992  -8.1619  -8.1237
    -8.1116  -8.1113  -8.1027  -8.1021  -8.0913  -8.0910  -8.0597  -8.0494
    -8.0376  -7.9930  -7.9643  -7.9542  -7.9435  -7.8852  -7.8653  -7.8439
    -7.8303  -7.8277  -7.8207  -7.8104  -7.8073  -7.7996  -7.7984  -7.7909
    -7.7890  -7.7872  -7.7834  -7.7811  -7.7791  -7.7705  -7.7685  -7.7655
    -7.7647  -7.7536  -7.7533  -7.7530  -7.7496  -7.7491  -7.7479  -7.7425
    -7.7424  -7.7423  -7.7343  -7.7265  -7.7169  -7.7152  -7.7131  -7.7095
    -7.7051  -7.6827  -7.6815  -7.6809  -7.6799  -7.6646  -7.6522  -7.6507
    -7.6501  -7.6489  -7.6473  -7.6361  -7.6325  -7.6177  -7.6137  -7.6003
    -7.5927  -7.5921  -7.5892  -7.5839  -7.5780  -7.5695  -7.5685  -7.5511
    -7.5481  -7.5477  -7.5448  -7.5396  -7.5336  -7.5324  -7.5085  -7.4483
    -7.4470  -7.4438  -7.4408  -7.4137  -7.4020  -7.3824  -7.3759  -7.3276
    -7.2132  -7.1828  -7.1631  -7.1548  -7.1532  -7.1450  -7.1423  -7.1159
    -7.1146  -7.0985  -7.0879  -7.0817  -7.0745  -7.0606  -7.0465  -7.0222
    -7.0094  -7.0061  -7.0021  -6.9910  -6.9796  -6.9605  -6.9557  -6.9266
    -6.9101  -6.9009  -6.8881  -6.8753  -6.8692  -6.8599  -6.8491  -6.8436
    -6.8415  -6.8204  -6.8120  -6.7762  -6.7700  -6.7494  -6.7252  -6.7137
    -6.6945  -6.6783  -6.6569  -6.6392  -6.6139  -6.6073  -6.6006  -6.5958
    -6.5896  -6.5886  -6.5870  -6.5842  -6.5719  -6.5712  -6.5702  -6.5697
    -6.5629  -6.5628  -6.5626  -6.5626  -6.5426  -6.5191  -6.4988  -6.4657
    -6.4537  -6.4063  -6.3912  -6.3293  -6.3125  -6.3119  -6.3088  -6.3002
    -6.2907  -6.2772  -6.2708  -6.2635  -6.2614  -6.2599  -6.2591  -6.2561
    -6.2553  -6.2385  -6.2322  -6.2271  -6.2183  -6.2130  -6.1999  -6.1877
    -6.1841  -6.1819  -6.1803  -6.1127  -6.0018  -5.9820  -5.9655  -5.9380
    -5.9066  -5.8810  -5.8726  -5.8417  -5.8324  -5.8276  -5.7273  -5.6728
    -5.6541  -5.5861  -5.5771  -5.5219  -5.3693  -5.3331  -5.1214  -5.0180
    -4.9817  -4.7048  -4.1052  -4.0787  -4.0757  -4.0563  -3.9907  -3.9166
    -3.9126  -3.9065  -3.9017  -3.8596  -3.8322  -3.8263  -3.8179  -3.8126
    -3.8002  -3.7972  -3.7956  -3.7825  -3.7819  -3.7459  -3.7310  -3.6777
    -3.6766  -3.6336  -3.6108  -3.5900  -3.5866  -3.5819  -3.5811  -3.5542
    -3.5450  -3.5363  -3.5326  -3.5117  -3.5088  -3.5075  -3.4980  -3.4929
    -3.4882  -3.4701  -3.4690  -3.4612  -3.4572  -3.4564  -3.4496  -3.4434
    -3.4326  -3.4294  -3.4208  -3.4137  -3.4034  -3.3989  -3.3909  -3.3730
    -3.3669  -3.3428  -3.3355  -3.3333  -3.3290  -3.3283  -3.3260  -3.3200
    -3.2973  -3.2929  -3.2871  -3.2816  -3.2762  -3.2678  -3.2648  -3.2602
    -3.2593  -3.2566  -3.2508  -3.2408  -3.2306  -3.2258  -3.2211  -3.2172
    -3.2082  -3.2026  -3.1941  -3.1937  -3.1910  -3.1811  -3.1730  -3.1678
    -3.1597  -3.1557  -3.1517  -3.1441  -3.1441  -3.1398  -3.1362  -3.1094
    -3.0932  -3.0880  -3.0732  -3.0596  -3.0521  -3.0493  -3.0446  -3.0278
    -3.0139  -3.0082  -3.0066  -3.0047  -3.0036  -3.0022  -2.9985  -2.9955
    -2.9915  -2.9895  -2.9822  -2.9807  -2.9745  -2.9708  -2.9671  -2.9639
    -2.9601  -2.9553  -2.9533  -2.9478  -2.9453  -2.9407  -2.9302  -2.9285
    -2.9270  -2.9220  -2.9166  -2.9121  -2.9079  -2.9050  -2.8896  -2.8781
    -2.8726  -2.8654  -2.8627  -2.8586  -2.8562  -2.8359  -2.7858  -2.7761
    -2.7727  -2.7686  -2.7341  -2.7224  -2.7046  -2.6886  -2.6198  -2.5985
    -2.5828  -2.5765  -2.5566  -2.5527  -2.5505  -2.5304  -2.5252  -2.5206
    -2.5119  -2.5088  -2.5079  -2.5049  -2.4476  -2.4224  -2.4148  -2.3895
    -2.3837  -2.3791  -2.3696  -2.3649  -2.3596  -2.3536  -2.3486  -2.3182

          k =-0.5000-0.8660 0.0000 (386352 PWs)   bands (ev):

  -103.3495-103.0986 -87.2860 -71.7254 -71.7181 -71.6723 -71.6494 -71.6323
   -71.6036 -71.5988 -71.4731 -71.4686 -71.4289 -71.3845 -71.3778 -71.3520
   -71.3465 -66.6434 -66.6081 -66.6058 -66.6034 -66.6033 -66.6032 -66.6032
   -66.6020 -66.6020 -66.5927 -66.5926 -66.5926 -66.5926 -66.5920 -66.5914
   -66.5914 -66.5897 -66.5848 -66.5828 -66.5818 -66.5777 -66.5776 -66.5775
   -66.5775 -66.5775 -66.5775 -66.5775 -66.5774 -66.5763 -66.5763 -66.5763
   -66.5763 -66.5732 -66.5731 -66.5731 -66.5730 -66.5718 -66.5718 -66.5707
   -66.5670 -66.5668 -66.5668 -66.5668 -66.5668 -66.5668 -66.5668 -66.5666
   -66.5655 -66.5655 -66.5655 -66.5655 -66.5624 -66.5623 -66.5623 -66.5623
   -66.5611 -66.5611 -66.5583 -66.5534 -66.5512 -66.5354 -66.5266 -66.5142
   -66.5113 -57.6965 -57.5633 -57.4368 -57.3640 -57.2993 -57.1694 -53.3904
   -52.9654 -52.9059 -40.9141 -40.9106 -40.9053 -40.9052 -40.9052 -40.9052
   -40.9052 -40.9052 -40.9052 -40.9051 -40.9046 -40.9046 -40.9046 -40.9046
   -40.9035 -40.8952 -40.8904 -40.8785 -40.8784 -40.8784 -40.8784 -40.8778
   -40.8778 -40.8745 -40.8664 -40.8664 -40.8663 -40.8663 -40.8658 -40.8658
   -40.8537 -40.8313 -40.8230 -40.8157 -40.8157 -40.8157 -40.8157 -40.8157
   -40.8157 -40.8156 -40.8156 -40.8150 -40.8150 -40.8150 -40.8150 -40.8070
   -40.8020 -40.7930 -40.7894 -40.7820 -40.7614 -40.7571 -40.7570 -40.7569
   -40.7568 -40.7567 -40.7563 -40.7563 -40.7474 -40.7474 -40.7474 -40.7473
   -40.7466 -40.7466 -40.7386 -40.7362 -40.7361 -40.7360 -40.7360 -40.7354
   -40.7354 -40.7339 -40.7265 -40.7257 -40.7239 -40.7177 -40.7112 -40.7067
   -40.7066 -40.7065 -40.7064 -40.7064 -40.7064 -40.7064 -40.7064 -40.7058
   -40.7058 -40.7058 -40.7058 -40.7046 -40.6994 -40.6979 -40.6978 -40.6977
   -40.6976 -40.6970 -40.6970 -40.6916 -40.6888 -40.6859 -40.6859 -40.6859
   -40.6859 -40.6856 -40.6855 -40.6855 -40.6854 -40.6854 -40.6854 -40.6853
   -40.6853 -40.6851 -40.6851 -40.6847 -40.6847 -40.6847 -40.6847 -40.6835
   -40.6775 -40.6768 -40.6768 -40.6767 -40.6767 -40.6760 -40.6760 -40.6725
   -40.6673 -40.6578 -40.6551 -40.6550 -40.6550 -40.6550 -40.6550 -40.6549
   -40.6549 -40.6548 -40.6547 -40.6541 -40.6541 -40.6541 -40.6541 -40.6496
   -40.6435 -40.6383 -40.6207 -40.6203 -40.6202 -40.6202 -40.6202 -40.6202
   -40.6202 -40.6202 -40.6202 -40.6194 -40.6194 -40.6194 -40.6194 -40.6165
   -40.6081 -40.6081 -40.6081 -40.6080 -40.6072 -40.6072 -40.6014 -40.5894
   -40.5888 -40.5888 -40.5887 -40.5887 -40.5879 -40.5879 -40.5843 -40.5797
   -40.5726 -40.5718 -40.5718 -40.5718 -40.5717 -40.5709 -40.5709 -40.5636
   -40.5493 -40.5412 -40.5411 -40.5411 -40.5410 -40.5402 -40.5402 -40.5264
   -40.5191 -40.5063 -20.2975 -19.8817 -19.8571 -19.8259 -19.7653 -19.7312
   -19.6574 -19.6347 -19.5879 -19.4687 -19.4205 -19.4060 -19.3364 -19.3123
   -19.2366 -19.2123 -19.1722 -18.9015 -18.8485 -18.7879 -18.7600 -18.7328
   -18.7096 -18.7059 -18.7048 -18.7025 -18.6839 -18.6519 -18.6449 -18.6351
[...]
     energy             new  =  -35654.9459668999 Ry

     CASE: energy            _new < energy            _old

     new trust radius        =       0.1049162624 bohr
     new conv_thr            =       0.0000001421 Ry


ATOMIC_POSITIONS (angstrom)
Mo               0.0000119917        1.8193638619       -9.1672481230    0   0   0
Mo               1.5756136568        0.9097075315       -3.0554901653    0   0   0
S                0.0000188998        1.8193822938       -4.6232556019    0   0   0
S                1.5756321638        0.9096773839       -7.6014065489    0   0   0
S                1.5756326175        0.9096785128      -10.7330757790    0   0   0
S                0.0000189190        1.8193860094       -1.4877129945    0   0   0
Mo               0.0001441333        1.8190038324        3.0557885764
Mo               1.5665341471        0.9022670238        9.1597298619
S               -0.0112266024        1.8069697236        7.5908533455
S                1.5756416463        0.9089636309        4.6232258029
S                1.5756837808        0.9096926907        1.4876896002
S               -0.0115720871        1.8019756165       10.7324903670
Mo              -1.5756053507        4.5484193819       -9.1672481230    0   0   0
Mo               0.0000378379        3.6387394919       -3.0554952701    0   0   0
S               -1.5755913433        4.5484363582       -4.6232494962    0   0   0
S                0.0000148214        3.6387329039       -7.6014065489    0   0   0
S                0.0000152751        3.6387340328      -10.7330757790    0   0   0
S               -1.5755906502        4.5484413613       -1.4877305502    0   0   0
Mo              -1.5754813200        4.5482453329        3.0560649287
Mo              -0.0226775599        3.6200496498        9.1645360166
S               -1.5864463555        4.5380077624        7.5847647927
S                0.0003344550        3.6383424274        4.6240348804
S                0.0001834727        3.6386581647        1.4884069948
S               -1.5908739303        4.5323497244       10.7343571471
Mo              -3.1512226931        7.2774749019       -9.1672481230    0   0   0
Mo              -1.5755910988        6.3678216792       -3.0555115988    0   0   0
S               -3.1512162438        7.2774954350       -4.6232578178    0   0   0
S               -1.5756025210        6.3677884239       -7.6014065489    0   0   0
S               -1.5756020673        6.3677895528      -10.7330757790    0   0   0
S               -3.1512127704        7.2774877076       -1.4877200710    0   0   0
Mo              -3.1517525436        7.2773550214        3.0552181248
Mo              -1.6210819239        6.3518145992        9.1578561716
S               -3.1843179912        7.2640763502        7.5968064630
S               -1.5762845010        6.3678959859        4.6234562124
S               -1.5753784804        6.3675063474        1.4880376453
S               -3.1781749262        7.2671271514       10.7415513934
Mo              -4.7268400355       10.0065304219       -9.1672481230    0   0   0
Mo              -3.1512405618        9.0968403586       -3.0554816746    0   0   0
S               -4.7268341792       10.0065523623       -4.6232463762    0   0   0
S               -3.1512198634        9.0968439439       -7.6014065489    0   0   0
S               -3.1512194097        9.0968450728      -10.7330757790    0   0   0
S               -4.7268370797       10.0065537885       -1.4877176751    0   0   0
Mo              -4.7271195070       10.0061140845        3.0551542029
Mo              -3.1647159453        9.0863925205        9.1677690138
S               -4.7490661326        9.9866741150        7.6070149707
S               -3.1517195616        9.0965221190        4.6227730879
S               -3.1512103665        9.0968515345        1.4872242444
S               -4.7274022108       10.0085715158       10.7405829416
Mo               3.1512517547        1.8193638619       -9.1672481230    0   0   0
Mo               4.7269020221        0.9097289540       -3.0554823951    0   0   0
S                3.1512612351        1.8193882564       -4.6232320683    0   0   0
S                4.7268719268        0.9096773839       -7.6014065489    0   0   0
S                4.7268723805        0.9096785128      -10.7330757790    0   0   0
S                3.1512592485        1.8193890201       -1.4877261251    0   0   0
Mo               3.1512499107        1.8193866202        3.0557839013
Mo               4.7152409189        0.9085108902        9.1518655651
S                3.1383358255        1.8239444274        7.5834131695
S                4.7268721549        0.9095099315        4.6229768340
S                4.7268800060        0.9096221938        1.4875791107
S                3.1444257520        1.7954380274       10.7331819079
Mo               1.5756344123        4.5484193819       -9.1672481230    0   0   0
Mo               3.1512756394        3.6387769522       -3.0554814834    0   0   0
S                1.5756504879        4.5484423799       -4.6232390542    0   0   0
S                3.1512545844        3.6387329039       -7.6014065489    0   0   0
S                3.1512550381        3.6387340328      -10.7330757790    0   0   0
S                1.5756466253        4.5484431864       -1.4877251801    0   0   0
Mo               1.5757291584        4.5484563342        3.0561064061
Mo               3.1413741933        3.6177113779        9.1780947989
S                1.5583017765        4.5732171262        7.6319118518
S                3.1514748529        3.6391375493        4.6242959056
S                3.1511981791        3.6388455167        1.4881465036
S                1.5443197331        4.4619149730       10.7859821398
Mo               0.0000170699        7.2774749019       -9.1672481230    0   0   0
Mo               1.5756764447        6.3678236689       -3.0554877708    0   0   0
S                0.0000381981        7.2774979204       -4.6232454413    0   0   0
S                1.5756372420        6.3677884239       -7.6014065489    0   0   0
S                1.5756376957        6.3677895528      -10.7330757790    0   0   0
S                0.0000328088        7.2774946042       -1.4877307940    0   0   0
Mo               0.0000028842        7.2772586747        3.0557621086
Mo               1.5093423559        6.3639220511        9.2220251976
S               -0.0063531703        7.2595556224        7.6248230144
S                1.5755193778        6.3679258181        4.6233524200
S                1.5754705106        6.3674842710        1.4877784058
S               -0.2080773521        7.3773049185       10.8112740381
Mo              -1.5756002725       10.0065304219       -9.1672481230    0   0   0
Mo               0.0000873425        9.0968676911       -3.0554912329    0   0   0
S               -1.5755883952       10.0065504530       -4.6232240150    0   0   0
S                0.0000198996        9.0968439439       -7.6014065489    0   0   0
S                0.0000203533        9.0968450728      -10.7330757790    0   0   0
S               -1.5755859047       10.0065492576       -1.4877362381    0   0   0
Mo              -1.5757291771       10.0063528394        3.0553340043
Mo              -0.0229599745        9.1142915946        9.1592541291
S               -1.5919284849       10.0008401790        7.5882207690
S               -0.0001408659        9.0966737059        4.6234601279
S                0.0002950791        9.0964934708        1.4879939139
S               -1.5946017940       10.0234894298       10.7303468934
Mo               6.3024915177        1.8193638619       -9.1672481230    0   0   0
Mo               7.8781001445        0.9096521684       -3.0554919963    0   0   0
S                6.3025008696        1.8193826232       -4.6232480596    0   0   0
S                7.8781116898        0.9096773839       -7.6014065489    0   0   0
S                7.8781121435        0.9096785128      -10.7330757790    0   0   0
S                6.3025042007        1.8193849068       -1.4877147524    0   0   0
Mo               6.3025028606        1.8192434016        3.0553647746
Mo               7.8679839255        0.9019122638        9.1555104683
S                6.2984092034        1.8143578779        7.5843466265
S                7.8783049558        0.9091577999        4.6227411881
S                7.8783949260        0.9091818830        1.4877643698
S                6.2985783191        1.8003256009       10.7286556190
Mo               4.7268741753        4.5484193819       -9.1672481230    0   0   0
Mo               6.3024679138        3.6387501714       -3.0554895197    0   0   0
S                4.7268748770        4.5484386753       -4.6232519432    0   0   0
S                6.3024943474        3.6387329039       -7.6014065489    0   0   0
S                6.3024948011        3.6387340328      -10.7330757790    0   0   0
S                4.7268770533        4.5484432419       -1.4877137856    0   0   0
Mo               4.7266273708        4.5486416723        3.0556495586
Mo               6.3003016941        3.6187877299        9.1686344971
S                4.7156306199        4.5608411247        7.6337797468
S                6.3020189968        3.6389345091        4.6231406303
S                6.3022906388        3.6387308973        1.4876346409
S                4.7229373846        4.4633829716       10.7963619331
Mo               3.1512568329        7.2774749019       -9.1672481230    0   0   0
Mo               4.7268384135        6.3678043337       -3.0554959052    0   0   0
S                3.1512606125        7.2774972547       -4.6232589675    0   0   0
S                4.7268770050        6.3677884239       -7.6014065489    0   0   0
S                4.7268774587        6.3677895528      -10.7330757790    0   0   0
S                3.1512629079        7.2774963749       -1.4877081835    0   0   0
Mo               3.1511327161        7.2769321531        3.0554016195
Mo               4.7265968371        6.3425924864        9.2299053726
S                3.1133047886        7.2514615528        7.6770812122
S                4.7265342085        6.3679047976        4.6237347264
S                4.7264372009        6.3674233672        1.4872715389
S                3.1350284992        7.3591626902       10.7193336855
Mo               1.5756394905       10.0065304219       -9.1672481230    0   0   0
Mo               3.1512330605        9.0968514907       -3.0554878870    0   0   0
S                1.5756499830       10.0065443759       -4.6232632674    0   0   0
S                3.1512596626        9.0968439439       -7.6014065489    0   0   0
S                3.1512601163        9.0968450728      -10.7330757790    0   0   0
S                1.5756503041       10.0065459699       -1.4877044377    0   0   0
Mo               1.5758888997       10.0059029921        3.0557071020
Mo               3.1350550577        9.1374789744        9.1812204580
S                1.5665477393        9.9973484369        7.5861387284
S                3.1514962823        9.0957098084        4.6236720119
S                3.1511838647        9.0961888912        1.4876704111
S                1.5448752994       10.0231731890       10.7414075417
Mo               9.4537312807        1.8193638619       -9.1672481230    0   0   0
Mo              11.0293863460        0.9096952246       -3.0554894007    0   0   0
S                9.4537395970        1.8193770750       -4.6232328036    0   0   0
S               11.0293514528        0.9096773839       -7.6014065489    0   0   0
S               11.0293519066        0.9096785128      -10.7330757790    0   0   0
S                9.4537393632        1.8193794783       -1.4877366147    0   0   0
Mo               9.4539299816        1.8191098580        3.0552966039
Mo              11.0237150265        0.8966743637        9.1631302184
S                9.4528262934        1.8047092224        7.5886876876
S               11.0294061190        0.9087078632        4.6229874485
S               11.0295889384        0.9094724672        1.4876992288
S                9.4448676975        1.8111120721       10.7264730747
Mo               7.8781139383        4.5484193819       -9.1672481230    0   0   0
Mo               9.4537539161        3.6387607911       -3.0554933032    0   0   0
S                7.8781175448        4.5484378232       -4.6232366318    0   0   0
S                9.4537341104        3.6387329039       -7.6014065489    0   0   0
S                9.4537345641        3.6387340328      -10.7330757790    0   0   0
S                7.8781194018        4.5484411585       -1.4877377057    0   0   0
Mo               7.8778834148        4.5485839762        3.0554044766
Mo               9.4474903527        3.6264078506        9.1577209842
S                7.8694589287        4.5436371651        7.5943616731
S                9.4534194242        3.6385251372        4.6228746820
S                9.4541420333        3.6387973131        1.4877220460
S                7.8777117653        4.5232874429       10.7357794493
Mo               6.3024965959        7.2774749019       -9.1672481230    0   0   0
Mo               7.8781361655        6.3678242352       -3.0555014130    0   0   0
S                6.3024973331        7.2774953556       -4.6232392528    0   0   0
S                7.8781167680        6.3677884239       -7.6014065489    0   0   0
S                7.8781172217        6.3677895528      -10.7330757790    0   0   0
S                6.3024989866        7.2774929744       -1.4877349119    0   0   0
Mo               6.3019006661        7.2771279652        3.0547938546
Mo               7.8555623093        6.3536593536        9.1850219273
S                6.2505314052        7.2501080813        7.6537460522
S                7.8768508640        6.3682030693        4.6233638580
S                7.8779063059        6.3676932614        1.4871092870
S                6.3441690728        7.2954462782       10.8462434423
Mo               4.7268792535       10.0065304219       -9.1672481230    0   0   0
Mo               6.3025111524        9.0968738021       -3.0554915260    0   0   0
S                4.7268840634       10.0065452125       -4.6232380477    0   0   0
S                6.3024994256        9.0968439439       -7.6014065489    0   0   0
S                6.3024998793        9.0968450728      -10.7330757790    0   0   0
S                4.7268847312       10.0065459141       -1.4877283294    0   0   0
Mo               4.7268490283       10.0058134514        3.0554339527
Mo               6.2834422707        9.0817497960        9.1979252373
S                4.7197601873        9.9848837214        7.6024446307
S                6.3023000482        9.0956168230        4.6233998910
S                6.3021994490        9.0966605864        1.4872058447
S                4.7208137010       10.0198920831       10.7522553613
Pt               1.5476285649        6.5116329880       12.0628072062
Pt               4.5424009292        6.5451840575       12.2202179972
Pd               2.8958280304        6.3833002208       14.1701537442



     Writing config-only to output data dir ./outdir/pwscf.save/ :
     XML data file
     NEW-OLD atomic charge density approx. for the potential

     negative rho (up, down):  9.440E-04 0.000E+00

     total cpu time spent up to now is   251819.3 secs

     Self-consistent Calculation

     iteration #  1     ecut=    77.00 Ry     beta= 0.20
     Davidson diagonalization with overlap
     ethr =  1.00E-06,  avg # of iterations = 27.5

     negative rho (up, down):  9.263E-04 0.000E+00

     total cpu time spent up to now is   253723.5 secs

     total energy              =  -35655.15912038 Ry
     estimated scf accuracy    <       0.21872969 Ry

     iteration #  2     ecut=    77.00 Ry     beta= 0.20
     Davidson diagonalization with overlap
     ethr =  1.25E-05,  avg # of iterations = 17.2

     negative rho (up, down):  9.154E-04 0.000E+00

     total cpu time spent up to now is   254223.3 secs

     total energy              =  -35655.13398821 Ry
     estimated scf accuracy    <       0.17077998 Ry

     iteration #  3     ecut=    77.00 Ry     beta= 0.20
     Davidson diagonalization with overlap
     ethr =  9.78E-06,  avg # of iterations =  3.5

     negative rho (up, down):  9.057E-04 0.000E+00

     total cpu time spent up to now is   254632.5 secs

     total energy              =  -35655.07964040 Ry
     estimated scf accuracy    <       0.01975991 Ry

     iteration #  4     ecut=    77.00 Ry     beta= 0.20
     Davidson diagonalization with overlap
     ethr =  1.13E-06,  avg # of iterations = 14.8

     negative rho (up, down):  8.991E-04 0.000E+00

     total cpu time spent up to now is   255156.1 secs

     total energy              =  -35655.03407760 Ry
     estimated scf accuracy    <       0.00988410 Ry

     iteration #  5     ecut=    77.00 Ry     beta= 0.20
     Davidson diagonalization with overlap
     ethr =  5.66E-07,  avg # of iterations =  9.5

     negative rho (up, down):  8.941E-04 0.000E+00

     total cpu time spent up to now is   255613.4 secs

     total energy              =  -35655.00523830 Ry
     estimated scf accuracy    <       0.00274246 Ry

     iteration #  6     ecut=    77.00 Ry     beta= 0.20
     Davidson diagonalization with overlap
     ethr =  1.57E-07,  avg # of iterations =  8.5

     negative rho (up, down):  8.928E-04 0.000E+00

     total cpu time spent up to now is   256091.6 secs

     total energy              =  -35654.99194689 Ry
     estimated scf accuracy    <       0.00351032 Ry

     iteration #  7     ecut=    77.00 Ry     beta= 0.20
     Davidson diagonalization with overlap
     ethr =  1.57E-07,  avg # of iterations =  5.0

     negative rho (up, down):  8.885E-04 0.000E+00

     total cpu time spent up to now is   256518.1 secs

     total energy              =  -35654.97350609 Ry
     estimated scf accuracy    <       0.00264497 Ry

     iteration #  8     ecut=    77.00 Ry     beta= 0.20
     Davidson diagonalization with overlap
     ethr =  1.51E-07,  avg # of iterations =  7.2

     negative rho (up, down):  8.867E-04 0.000E+00

     total cpu time spent up to now is   256967.9 secs

     total energy              =  -35654.96472711 Ry
     estimated scf accuracy    <       0.00140822 Ry

     iteration #  9     ecut=    77.00 Ry     beta= 0.20
     Davidson diagonalization with overlap
     ethr =  8.07E-08,  avg # of iterations = 10.0

     negative rho (up, down):  8.845E-04 0.000E+00

     total cpu time spent up to now is   257423.8 secs

     total energy              =  -35654.95553817 Ry
     estimated scf accuracy    <       0.00073053 Ry

     iteration # 10     ecut=    77.00 Ry     beta= 0.20
     Davidson diagonalization with overlap
     ethr =  4.18E-08,  avg # of iterations = 11.8

     negative rho (up, down):  8.840E-04 0.000E+00

     total cpu time spent up to now is   257967.8 secs

     total energy              =  -35654.95256696 Ry
     estimated scf accuracy    <       0.00027348 Ry

     iteration # 11     ecut=    77.00 Ry     beta= 0.20
     Davidson diagonalization with overlap
     ethr =  1.57E-08,  avg # of iterations = 11.8

     negative rho (up, down):  8.841E-04 0.000E+00

     total cpu time spent up to now is   258451.5 secs

     total energy              =  -35654.94884655 Ry
     estimated scf accuracy    <       0.00017748 Ry

     iteration # 12     ecut=    77.00 Ry     beta= 0.20
     Davidson diagonalization with overlap
     ethr =  1.02E-08,  avg # of iterations = 13.0

     negative rho (up, down):  8.845E-04 0.000E+00

     total cpu time spent up to now is   259061.0 secs

     total energy              =  -35654.94839171 Ry
     estimated scf accuracy    <       0.00004429 Ry

     iteration # 13     ecut=    77.00 Ry     beta= 0.20
     Davidson diagonalization with overlap
