
     Program PWSCF v.7.3 starts on 27Mar2024 at 15:42:22 

     This program is part of the open-source Quantum ESPRESSO suite
     for quantum simulation of materials; please cite
         "P. Giannozzi et al., J. Phys.:Condens. Matter 21 395502 (2009);
         "P. Giannozzi et al., J. Phys.:Condens. Matter 29 465901 (2017);
         "P. Giannozzi et al., J. Chem. Phys. 152 154105 (2020);
          URL http://www.quantum-espresso.org", 
     in publications or presentations arising from this work. More details at
     http://www.quantum-espresso.org/quote

     Parallel version (MPI & OpenMP), running on      36 processor cores
     Number of MPI processes:                36
     Threads/MPI process:                     1

     MPI processes distributed on     1 nodes
     555020 MiB available memory on the printing compute node when the environment starts
 
     Waiting for input...
     Reading input from standard input
Warning: card &CELL ignored
Warning: card / ignored

     Current dimensions of program PWSCF are:
     Max number of different atomic species (ntypx) = 10
     Max number of k-points (npk) =  40000
     Max angular momentum in pseudopotentials (lmaxx) =  4
     file Mo.pbe-spn-kjpaw_psl.1.0.0.UPF: wavefunction(s)  4S 4D renormalized
     file S.pbe-n-kjpaw_psl.1.0.0.UPF: wavefunction(s)  3S 3P renormalized
     file Pt.pbe-spfn-kjpaw_psl.1.0.0.UPF: wavefunction(s)  5P 4F renormalized
     file Pd.pbe-spn-kjpaw_psl.1.0.0.UPF: wavefunction(s)  4S 5S 4D renormalized
 
     R & G space division:  proc/nbgrp/npool/nimage =      36
     Subspace diagonalization in iterative solution of the eigenvalue problem:
     one sub-group per band group will be used
     scalapack distributed-memory algorithm (size of sub-group:  6*  6 procs)

 
     Parallelization info
     --------------------
     sticks:   dense  smooth     PW     G-vecs:    dense   smooth      PW
     Min         586     335     89               165416    71459    9765
     Max         587     337     90               165425    71461    9778
     Sum       21109   12085   3205              5955087  2572543  351657
 
     Using Slab Decomposition
 


     bravais-lattice index     =            0
     lattice parameter (alat)  =      23.8395  a.u.
     unit-cell volume          =   28182.8498 (a.u.)^3
     number of atoms/cell      =          147
     number of atomic types    =            4
     number of electrons       =      1330.00
     number of Kohn-Sham states=          798
     kinetic-energy cutoff     =      77.0000  Ry
     charge density cutoff     =     539.0000  Ry
     scf convergence threshold =      1.0E-06
     mixing beta               =       0.2000
     number of iterations used =            8  plain     mixing
     energy convergence thresh.=      1.0E-04
     force convergence thresh. =      1.0E-03
     Exchange-correlation= SLA  PW   PBX  PBC
                           (   1   4   3   4   0   0   0)
     nstep                     =         1000


     Effective Screening Medium Method
     =================================
     Boundary Conditions: Vacuum-Slab-Vacuum
     total charge in unit cell        =   0.0000
     grid points for fit at edges     =        4 
 

     celldm(1)=  23.839504  celldm(2)=   0.000000  celldm(3)=   0.000000
     celldm(4)=   0.000000  celldm(5)=   0.000000  celldm(6)=   0.000000

     crystal axes: (cart. coord. in units of alat)
               a(1) = (   1.000000   0.000000   0.000000 )  
               a(2) = (  -0.500001   0.866026   0.000000 )  
               a(3) = (   0.000000   0.000000   2.401941 )  

     reciprocal axes: (cart. coord. in units 2 pi/alat)
               b(1) = (  1.000000  0.577351  0.000000 )  
               b(2) = (  0.000000  1.154700  0.000000 )  
               b(3) = (  0.000000  0.000000  0.416330 )  


     PseudoPot. # 1 for Mo read from file:
     ./pseudo/Mo.pbe-spn-kjpaw_psl.1.0.0.UPF
     MD5 check sum: 317bf72632116215fd98f72de1686f13
     Pseudo is Projector augmented-wave + core cor, Zval = 14.0
     Generated using 'atomic' code by A. Dal Corso  v.7.2
     Shape of augmentation charge: PSQ
     Using radial grid of 1229 points,  6 beta functions with: 
                l(1) =   0
                l(2) =   0
                l(3) =   1
                l(4) =   1
                l(5) =   2
                l(6) =   2
     Q(r) pseudized with 0 coefficients 


     PseudoPot. # 2 for S  read from file:
     ./pseudo/S.pbe-n-kjpaw_psl.1.0.0.UPF
     MD5 check sum: 8b7b5302570d38d5e87fed6a1065abda
     Pseudo is Projector augmented-wave + core cor, Zval =  6.0
     Generated using 'atomic' code by A. Dal Corso  v.7.2
     Shape of augmentation charge: PSQ
     Using radial grid of 1151 points,  6 beta functions with: 
                l(1) =   0
                l(2) =   0
                l(3) =   1
                l(4) =   1
                l(5) =   2
                l(6) =   2
     Q(r) pseudized with 0 coefficients 


     PseudoPot. # 3 for Pt read from file:
     ./pseudo/Pt.pbe-spfn-kjpaw_psl.1.0.0.UPF
     MD5 check sum: 620096ebf4e6ebacc94de60fd67efcb5
     Pseudo is Projector augmented-wave + core cor, Zval = 32.0
     Generated using 'atomic' code by A. Dal Corso  v.7.2
     Shape of augmentation charge: PSQ
     Using radial grid of 1277 points,  8 beta functions with: 
                l(1) =   0
                l(2) =   0
                l(3) =   1
                l(4) =   1
                l(5) =   2
                l(6) =   2
                l(7) =   3
                l(8) =   3
     Q(r) pseudized with 0 coefficients 


     PseudoPot. # 4 for Pd read from file:
     ./pseudo/Pd.pbe-spn-kjpaw_psl.1.0.0.UPF
     MD5 check sum: a60571a671f2502b8a6a4569d20a6edb
     Pseudo is Projector augmented-wave + core cor, Zval = 18.0
     Generated using 'atomic' code by A. Dal Corso  v.7.2
     Shape of augmentation charge: PSQ
     Using radial grid of 1235 points,  6 beta functions with: 
                l(1) =   0
                l(2) =   0
                l(3) =   1
                l(4) =   1
                l(5) =   2
                l(6) =   2
     Q(r) pseudized with 0 coefficients 


     atomic species   valence    mass     pseudopotential
     Mo               14.00    95.95000     Mo( 1.00)
     S                 6.00    32.06000     S ( 1.00)
     Pt               32.00   195.08400     Pt( 1.00)
     Pd               18.00   106.42000     Pd( 1.00)

     No symmetry found



   Cartesian axes

     site n.     atom                  positions (alat units)
         1        Mo     tau(   1) = (   0.1245154   0.2145629   0.4838883  )
         2        Mo     tau(   2) = (   0.1250004   0.0721694  -0.4825273  )
         3        Mo     tau(   3) = (   0.0000425   0.1442456   0.0000619  )
         4        S      tau(   4) = (   0.0000004   0.0000006  -0.6064556  )
         5        S      tau(   5) = (   0.1250289   0.0721378  -0.1240905  )
         6        S      tau(   6) = (   0.0004348   0.1425943   0.3589312  )
         7        S      tau(   7) = (   0.0000004   0.0000005  -0.3584711  )
         8        S      tau(   8) = (   0.1250590   0.0720566   0.1242171  )
         9        S      tau(   9) = (  -0.0003812   0.1430770   0.6082257  )
        10        Mo     tau(  10) = (  -0.0007514   0.4316905   0.4830160  )
        11        Mo     tau(  11) = (   0.0000001   0.2886759  -0.4825273  )
        12        Mo     tau(  12) = (  -0.1249521   0.3607434   0.0000147  )
        13        S      tau(  13) = (  -0.1249999   0.2165071  -0.6064556  )
        14        S      tau(  14) = (   0.0000696   0.2885943  -0.1240368  )
        15        S      tau(  15) = (  -0.1243620   0.3589267   0.3580713  )
        16        S      tau(  16) = (  -0.1249998   0.2165070  -0.3584711  )
        17        S      tau(  17) = (   0.0000810   0.2885804   0.1243185  )
        18        S      tau(  18) = (  -0.1257647   0.3594678   0.6068568  )
        19        Mo     tau(  19) = (  -0.1258132   0.6483948   0.4805624  )
        20        Mo     tau(  20) = (  -0.1250002   0.5051824  -0.4825273  )
        21        Mo     tau(  21) = (  -0.2499883   0.5772682  -0.0000419  )
        22        S      tau(  22) = (  -0.2500002   0.4330136  -0.6064556  )
        23        S      tau(  23) = (  -0.1249379   0.5050979  -0.1240947  )
        24        S      tau(  24) = (  -0.2506625   0.5759186   0.3568926  )
        25        S      tau(  25) = (  -0.2500001   0.4330135  -0.3584711  )
        26        S      tau(  26) = (  -0.1250441   0.5050577   0.1241569  )
        27        S      tau(  27) = (  -0.2487337   0.5760113   0.6060824  )
        28        Mo     tau(  28) = (   0.2499313  -0.0010413   0.4821860  )
        29        Mo     tau(  29) = (  -0.2500004   0.7216889  -0.4825273  )
        30        Mo     tau(  30) = (  -0.3749657   0.7937917  -0.0000260  )
        31        S      tau(  31) = (  -0.3750004   0.6495201  -0.6064556  )
        32        S      tau(  32) = (  -0.2499441   0.7216334  -0.1241298  )
        33        S      tau(  33) = (  -0.3753987   0.7929794   0.3583883  )
        34        S      tau(  34) = (  -0.3750004   0.6495200  -0.3584711  )
        35        S      tau(  35) = (  -0.2499697   0.7216106   0.1241587  )
        36        S      tau(  36) = (  -0.3740548   0.7924718   0.6070428  )
        37        Mo     tau(  37) = (   0.3754903   0.2138312   0.4824355  )
        38        Mo     tau(  38) = (   0.3750004   0.0721694  -0.4825273  )
        39        Mo     tau(  39) = (   0.2500190   0.1443049   0.0000251  )
        40        S      tau(  40) = (   0.2500004   0.0000006  -0.6064556  )
        41        S      tau(  41) = (   0.3750395   0.0721655  -0.1240658  )
        42        S      tau(  42) = (   0.2492498   0.1434297   0.3583124  )
        43        S      tau(  43) = (   0.2500004   0.0000005  -0.3584711  )
        44        S      tau(  44) = (   0.3749990   0.0721134   0.1242290  )
        45        S      tau(  45) = (   0.2505186   0.1425747   0.6070242  )
        46        Mo     tau(  46) = (   0.2489619   0.4303408   0.4857216  )
        47        Mo     tau(  47) = (   0.2500001   0.2886759  -0.4825273  )
        48        Mo     tau(  48) = (   0.1250526   0.3607813   0.0000840  )
        49        S      tau(  49) = (   0.1250001   0.2165071  -0.6064556  )
        50        S      tau(  50) = (   0.2500419   0.2886606  -0.1240379  )
        51        S      tau(  51) = (   0.1261759   0.3597087   0.3613462  )
        52        S      tau(  52) = (   0.1250002   0.2165070  -0.3584711  )
        53        S      tau(  53) = (   0.2500376   0.2886120   0.1243390  )
        54        S      tau(  54) = (   0.1185564   0.3555008   0.6138384  )
        55        Mo     tau(  55) = (   0.1202279   0.6507949   0.4802728  )
        56        Mo     tau(  56) = (   0.1249998   0.5051824  -0.4825273  )
        57        Mo     tau(  57) = (   0.0000374   0.5772595   0.0000671  )
        58        S      tau(  58) = (  -0.0000002   0.4330136  -0.6064556  )
        59        S      tau(  59) = (   0.1250566   0.5051315  -0.1240039  )
        60        S      tau(  60) = (  -0.0017492   0.5751181   0.3561394  )
        61        S      tau(  61) = (  -0.0000001   0.4330135  -0.3584711  )
        62        S      tau(  62) = (   0.1250592   0.5050887   0.1243806  )
        63        S      tau(  63) = (  -0.0025886   0.5770810   0.6054654  )
        64        Mo     tau(  64) = (   0.4997787  -0.0005006   0.4806072  )
        65        Mo     tau(  65) = (  -0.0000004   0.7216889  -0.4825273  )
        66        Mo     tau(  66) = (  -0.1249578   0.7938077  -0.0000124  )
        67        S      tau(  67) = (  -0.1250004   0.6495201  -0.6064556  )
        68        S      tau(  68) = (   0.0000912   0.7216231  -0.1240278  )
        69        S      tau(  69) = (  -0.1257861   0.7933803   0.3568273  )
        70        S      tau(  70) = (  -0.1250004   0.6495200  -0.3584711  )
        71        S      tau(  71) = (  -0.0000101   0.7216131   0.1242707  )
        72        S      tau(  72) = (  -0.1247631   0.7926968   0.6053221  )
        73        Mo     tau(  73) = (   0.6254983   0.2150747   0.4816248  )
        74        Mo     tau(  74) = (   0.6250004   0.0721694  -0.4825273  )
        75        Mo     tau(  75) = (   0.5000176   0.1443256   0.0000522  )
        76        S      tau(  76) = (   0.5000004   0.0000006  -0.6064556  )
        77        S      tau(  77) = (   0.6250309   0.0721123  -0.1240107  )
        78        S      tau(  78) = (   0.5001073   0.1438670   0.3568675  )
        79        S      tau(  79) = (   0.5000004   0.0000005  -0.3584711  )
        80        S      tau(  80) = (   0.6250184   0.0721649   0.1242372  )
        81        S      tau(  81) = (   0.5008579   0.1421657   0.6061011  )
        82        Mo     tau(  82) = (   0.5020927   0.4305259   0.4835992  )
        83        Mo     tau(  83) = (   0.5000001   0.2886759  -0.4825273  )
        84        Mo     tau(  84) = (   0.3750096   0.3608300   0.0000853  )
        85        S      tau(  85) = (   0.3750001   0.2165071  -0.6064556  )
        86        S      tau(  86) = (   0.5000130   0.2886647  -0.1240153  )
        87        S      tau(  87) = (   0.3740918   0.3603366   0.3614179  )
        88        S      tau(  88) = (   0.3750002   0.2165070  -0.3584711  )
        89        S      tau(  89) = (   0.4999600   0.2886676   0.1243287  )
        90        S      tau(  90) = (   0.3826295   0.3540684   0.6107884  )
        91        Mo     tau(  91) = (   0.3754347   0.6495598   0.4856131  )
        92        Mo     tau(  92) = (   0.3749998   0.5051824  -0.4825273  )
        93        Mo     tau(  93) = (   0.2500442   0.5772815   0.0001210  )
        94        S      tau(  94) = (   0.2499998   0.4330136  -0.6064556  )
        95        S      tau(  95) = (   0.3750010   0.5051487  -0.1240235  )
        96        S      tau(  96) = (   0.2505704   0.5754266   0.3628441  )
        97        S      tau(  97) = (   0.2499999   0.4330135  -0.3584711  )
        98        S      tau(  98) = (   0.3750559   0.5051422   0.1243805  )
        99        S      tau(  99) = (   0.2381374   0.5825819   0.6067890  )
       100        Mo     tau( 100) = (   0.7497549  -0.0007739   0.4829754  )
       101        Mo     tau( 101) = (   0.2499996   0.7216889  -0.4825273  )
       102        Mo     tau( 102) = (   0.1250535   0.7937975   0.0001168  )
       103        S      tau( 103) = (   0.1249996   0.6495201  -0.6064556  )
       104        S      tau( 104) = (   0.2500248   0.7216238  -0.1239807  )
       105        S      tau( 105) = (   0.1250865   0.7943282   0.3561776  )
       106        S      tau( 106) = (   0.1249996   0.6495200  -0.3584711  )
       107        S      tau( 107) = (   0.2500804   0.7215701   0.1244010  )
       108        S      tau( 108) = (   0.1230625   0.7940424   0.6054764  )
       109        Mo     tau( 109) = (  -0.1247968   0.2149139   0.4827366  )
       110        Mo     tau( 110) = (   0.8750004   0.0721694  -0.4825273  )
       111        Mo     tau( 111) = (   0.7500535   0.1442576   0.0000659  )
       112        S      tau( 112) = (   0.7500004   0.0000006  -0.6064556  )
       113        S      tau( 113) = (   0.8750311   0.0720720  -0.1240212  )
       114        S      tau( 114) = (   0.7507437   0.1426622   0.3580001  )
       115        S      tau( 115) = (   0.7500004   0.0000005  -0.3584711  )
       116        S      tau( 116) = (   0.8750679   0.0720215   0.1243391  )
       117        S      tau( 117) = (   0.7495917   0.1435798   0.6069484  )
       118        Mo     tau( 118) = (  -0.2495513   0.4315827   0.4815648  )
       119        Mo     tau( 119) = (   0.7500001   0.2886759  -0.4825273  )
       120        Mo     tau( 120) = (   0.6250173   0.3607849   0.0000853  )
       121        S      tau( 121) = (   0.6250001   0.2165071  -0.6064556  )
       122        S      tau( 122) = (   0.7500100   0.2885948  -0.1240341  )
       123        S      tau( 123) = (   0.6253146   0.3594994   0.3574324  )
       124        S      tau( 124) = (   0.6250002   0.2165070  -0.3584711  )
       125        S      tau( 125) = (   0.7500616   0.2885920   0.1242759  )
       126        S      tau( 126) = (   0.6276913   0.3582815   0.6066892  )
       127        Mo     tau( 127) = (  -0.3734392   0.6486538   0.4825126  )
       128        Mo     tau( 128) = (   0.6249998   0.5051824  -0.4825273  )
       129        Mo     tau( 129) = (   0.5000108   0.5772931   0.0000391  )
       130        S      tau( 130) = (   0.4999998   0.4330136  -0.6064556  )
       131        S      tau( 131) = (   0.6249933   0.5050874  -0.1240675  )
       132        S      tau( 132) = (   0.4990505   0.5765481   0.3615193  )
       133        S      tau( 133) = (   0.4999999   0.4330135  -0.3584711  )
       134        S      tau( 134) = (   0.6249857   0.5051595   0.1242674  )
       135        S      tau( 135) = (   0.5084858   0.5722242   0.6106609  )
       136        Mo     tau( 136) = (   0.0003958  -0.0008070   0.4838665  )
       137        Mo     tau( 137) = (   0.4999996   0.7216889  -0.4825273  )
       138        Mo     tau( 138) = (   0.3750498   0.7937581   0.0000905  )
       139        S      tau( 139) = (   0.3749996   0.6495201  -0.6064556  )
       140        S      tau( 140) = (   0.5000109   0.7216246  -0.1240696  )
       141        S      tau( 141) = (   0.3755073   0.7912798   0.3612018  )
       142        S      tau( 142) = (   0.3749996   0.6495200  -0.3584711  )
       143        S      tau( 143) = (   0.5000873   0.7215932   0.1243026  )
       144        S      tau( 144) = (   0.3753273   0.8000111   0.6138078  )
       145        Pt     tau( 145) = (   0.2576892   0.4411371   0.7122167  )
       146        Pt     tau( 146) = (   0.3705587   0.6371970   0.7119237  )
       147        Pd     tau( 147) = (  -0.0007134   0.4316973   0.7327597  )

     --------------------------------------------
     DFT-D3 Dispersion Correction (3-body terms):
     --------------------------------------------
       Reference C6 values for interpolation: 

         atom   Coordination number   C6
         S          0.000           268.01
         S          0.995           261.99
         S          1.990           251.62
         Mo         0.000          1691.79
         Mo         1.942          1004.01
         Mo        11.056           674.22
         Pd         0.000          1217.01
         Pd         1.863           573.90
         Pd         5.710           531.75
         Pt         0.000           782.29
         Pt         1.919           692.72
         Pt         6.667           673.75

       Values used:

         atom   Coordination number  R0_AB[au]  C6      C8
         Mo        10.228            3.547    674.22  77634.20
         Mo        10.189            3.547    674.22  77634.20
         Mo        10.201            3.547    674.22  77634.20
         S          3.753            3.128    251.62  12327.25
         S          3.858            3.128    251.62  12327.25
         S          3.859            3.128    251.62  12327.25
         S          3.858            3.128    251.62  12327.25
         S          3.859            3.128    251.62  12327.25
         S          3.824            3.128    251.62  12327.25
         Mo        10.636            3.547    674.22  77634.20
         Mo        10.189            3.547    674.22  77634.20
         Mo        10.200            3.547    674.22  77634.20
         S          3.753            3.128    251.62  12327.25
         S          3.858            3.128    251.62  12327.25
         S          3.859            3.128    251.62  12327.25
         S          3.858            3.128    251.62  12327.25
         S          3.854            3.128    251.62  12327.25
         S          4.734            3.128    251.62  12327.25
         Mo        10.280            3.547    674.22  77634.20
         Mo        10.189            3.547    674.22  77634.20
         Mo        10.200            3.547    674.22  77634.20
         S          3.753            3.128    251.62  12327.25
         S          3.858            3.128    251.62  12327.25
         S          3.855            3.128    251.62  12327.25
         S          3.858            3.128    251.62  12327.25
         S          3.864            3.128    251.62  12327.25
         S          3.828            3.128    251.62  12327.25
         Mo        10.240            3.547    674.22  77634.20
         Mo        10.189            3.547    674.22  77634.20
         Mo        10.201            3.547    674.22  77634.20
         S          3.753            3.128    251.62  12327.25
         S          3.857            3.128    251.62  12327.25
         S          3.867            3.128    251.62  12327.25
         S          3.858            3.128    251.62  12327.25
         S          3.862            3.128    251.62  12327.25
         S          3.762            3.128    251.62  12327.25
         Mo        10.206            3.547    674.22  77634.20
         Mo        10.189            3.547    674.22  77634.20
         Mo        10.201            3.547    674.22  77634.20
         S          3.753            3.128    251.62  12327.25
         S          3.858            3.128    251.62  12327.25
         S          3.865            3.128    251.62  12327.25
         S          3.858            3.128    251.62  12327.25
         S          3.862            3.128    251.62  12327.25
         S          3.763            3.128    251.62  12327.25
         Mo        10.828            3.547    674.22  77634.20
         Mo        10.189            3.547    674.22  77634.20
         Mo        10.202            3.547    674.22  77634.20
         S          3.753            3.128    251.62  12327.25
         S          3.858            3.128    251.62  12327.25
         S          3.846            3.128    251.62  12327.25
         S          3.858            3.128    251.62  12327.25
         S          3.853            3.128    251.62  12327.25
         S          5.586            3.128    251.62  12327.25
         Mo        10.159            3.547    674.22  77634.20
         Mo        10.189            3.547    674.22  77634.20
         Mo        10.200            3.547    674.22  77634.20
         S          3.753            3.128    251.62  12327.25
         S          3.858            3.128    251.62  12327.25
         S          3.838            3.128    251.62  12327.25
         S          3.858            3.128    251.62  12327.25
         S          3.851            3.128    251.62  12327.25
         S          4.752            3.128    251.62  12327.25
         Mo        10.272            3.547    674.22  77634.20
         Mo        10.189            3.547    674.22  77634.20
         Mo        10.199            3.547    674.22  77634.20
         S          3.753            3.128    251.62  12327.25
         S          3.858            3.128    251.62  12327.25
         S          3.856            3.128    251.62  12327.25
         S          3.858            3.128    251.62  12327.25
         S          3.862            3.128    251.62  12327.25
         S          3.792            3.128    251.62  12327.25
         Mo        10.246            3.547    674.22  77634.20
         Mo        10.189            3.547    674.22  77634.20
         Mo        10.200            3.547    674.22  77634.20
         S          3.753            3.128    251.62  12327.25
         S          3.858            3.128    251.62  12327.25
         S          3.854            3.128    251.62  12327.25
         S          3.858            3.128    251.62  12327.25
         S          3.863            3.128    251.62  12327.25
         S          3.817            3.128    251.62  12327.25
         Mo        10.140            3.547    674.22  77634.20
         Mo        10.189            3.547    674.22  77634.20
         Mo        10.202            3.547    674.22  77634.20
         S          3.753            3.128    251.62  12327.25
         S          3.858            3.128    251.62  12327.25
         S          3.856            3.128    251.62  12327.25
         S          3.858            3.128    251.62  12327.25
         S          3.857            3.128    251.62  12327.25
         S          4.671            3.128    251.62  12327.25
         Mo        10.819            3.547    674.22  77634.20
         Mo        10.189            3.547    674.22  77634.20
         Mo        10.202            3.547    674.22  77634.20
         S          3.753            3.128    251.62  12327.25
         S          3.858            3.128    251.62  12327.25
         S          3.874            3.128    251.62  12327.25
         S          3.858            3.128    251.62  12327.25
         S          3.848            3.128    251.62  12327.25
         S          5.684            3.128    251.62  12327.25
         Mo        10.209            3.547    674.22  77634.20
         Mo        10.189            3.547    674.22  77634.20
         Mo        10.200            3.547    674.22  77634.20
         S          3.753            3.128    251.62  12327.25
         S          3.858            3.128    251.62  12327.25
         S          3.837            3.128    251.62  12327.25
         S          3.858            3.128    251.62  12327.25
         S          3.851            3.128    251.62  12327.25
         S          3.837            3.128    251.62  12327.25
         Mo        10.236            3.547    674.22  77634.20
         Mo        10.189            3.547    674.22  77634.20
         Mo        10.200            3.547    674.22  77634.20
         S          3.753            3.128    251.62  12327.25
         S          3.858            3.128    251.62  12327.25
         S          3.859            3.128    251.62  12327.25
         S          3.858            3.128    251.62  12327.25
         S          3.854            3.128    251.62  12327.25
         S          3.807            3.128    251.62  12327.25
         Mo        10.251            3.547    674.22  77634.20
         Mo        10.189            3.547    674.22  77634.20
         Mo        10.201            3.547    674.22  77634.20
         S          3.753            3.128    251.62  12327.25
         S          3.858            3.128    251.62  12327.25
         S          3.846            3.128    251.62  12327.25
         S          3.858            3.128    251.62  12327.25
         S          3.859            3.128    251.62  12327.25
         S          3.836            3.128    251.62  12327.25
         Mo        10.204            3.547    674.22  77634.20
         Mo        10.189            3.547    674.22  77634.20
         Mo        10.202            3.547    674.22  77634.20
         S          3.753            3.128    251.62  12327.25
         S          3.858            3.128    251.62  12327.25
         S          3.857            3.128    251.62  12327.25
         S          3.858            3.128    251.62  12327.25
         S          3.858            3.128    251.62  12327.25
         S          4.671            3.128    251.62  12327.25
         Mo        10.222            3.547    674.22  77634.20
         Mo        10.189            3.547    674.22  77634.20
         Mo        10.202            3.547    674.22  77634.20
         S          3.753            3.128    251.62  12327.25
         S          3.858            3.128    251.62  12327.25
         S          3.843            3.128    251.62  12327.25
         S          3.858            3.128    251.62  12327.25
         S          3.853            3.128    251.62  12327.25
         S          4.627            3.128    251.62  12327.25
         Pt         4.731            3.168    673.75  70061.90
         Pt         4.577            3.168    673.75  70061.94
         Pd         3.480            3.168    573.90  52582.75

         Molecular C6 ( Ry / a.u.^6 ) =   8082341.75


     number of k points=     4  Gaussian smearing, width (Ry)=  0.0100
                       cart. coord. in units 2pi/alat
        k(    1) = (   0.0000000   0.0000000   0.0000000), wk =   0.5000000
        k(    2) = (   0.0000000  -0.5773499   0.0000000), wk =   0.5000000
        k(    3) = (  -0.5000000  -0.2886755   0.0000000), wk =   0.5000000
        k(    4) = (  -0.5000000  -0.8660254   0.0000000), wk =   0.5000000

     Dense  grid:  5955087 G-vectors     FFT dimensions: ( 180, 180, 432)

     Smooth grid:  2572543 G-vectors     FFT dimensions: ( 135, 135, 320)

     Estimated max dynamical RAM per process >       3.09 GB

     Estimated total dynamical RAM >     111.14 GB

     Initial potential from superposition of free atoms

     starting charge    1329.9539, renormalised to    1330.0000

     negative rho (up, down):  8.919E-04 0.000E+00
     Starting wfcs are  908 randomized atomic wfcs
     Checking if some PAW data can be deallocated... 

     total cpu time spent up to now is      101.8 secs

     Self-consistent Calculation

     iteration #  1     ecut=    77.00 Ry     beta= 0.20
     Davidson diagonalization with overlap
     ethr =  1.00E-02,  avg # of iterations =  2.0

     Threshold (ethr) on eigenvalues was too large:
     Diagonalizing with lowered threshold

     Davidson diagonalization with overlap
     ethr =  1.86E-04,  avg # of iterations = 16.8

     negative rho (up, down):  2.891E-04 0.000E+00

     total cpu time spent up to now is     1142.2 secs

     total energy              =  -27706.35701605 Ry
     estimated scf accuracy    <       5.00764952 Ry

     iteration #  2     ecut=    77.00 Ry     beta= 0.20
     Davidson diagonalization with overlap
     ethr =  3.77E-04,  avg # of iterations =  2.0

     negative rho (up, down):  4.833E-05 0.000E+00

     total cpu time spent up to now is     1366.1 secs

     total energy              =  -27705.40921379 Ry
     estimated scf accuracy    <       2.57690382 Ry

     iteration #  3     ecut=    77.00 Ry     beta= 0.20
     Davidson diagonalization with overlap
     ethr =  1.94E-04,  avg # of iterations = 17.2

     negative rho (up, down):  4.130E-05 0.000E+00

     total cpu time spent up to now is     1658.3 secs

     total energy              =  -27705.72027834 Ry
     estimated scf accuracy    <       1.45451422 Ry

     iteration #  4     ecut=    77.00 Ry     beta= 0.20
     Davidson diagonalization with overlap
     ethr =  1.09E-04,  avg # of iterations = 11.8

     negative rho (up, down):  3.142E-05 0.000E+00

     total cpu time spent up to now is     1941.8 secs

     total energy              =  -27705.89905625 Ry
     estimated scf accuracy    <       0.43158468 Ry

     iteration #  5     ecut=    77.00 Ry     beta= 0.20
     Davidson diagonalization with overlap
     c_bands:  4 eigenvalues not converged
     ethr =  3.24E-05,  avg # of iterations = 17.0

     negative rho (up, down):  4.885E-05 0.000E+00

     total cpu time spent up to now is     2706.4 secs

     total energy              =  -27706.37310829 Ry
     estimated scf accuracy    <       0.26806971 Ry

     iteration #  6     ecut=    77.00 Ry     beta= 0.20
     Davidson diagonalization with overlap
     c_bands:  2 eigenvalues not converged
     ethr =  2.02E-05,  avg # of iterations =  9.5

     negative rho (up, down):  9.179E-05 0.000E+00

     total cpu time spent up to now is     2952.5 secs

     total energy              =  -27706.36555354 Ry
     estimated scf accuracy    <       0.15023121 Ry

     iteration #  7     ecut=    77.00 Ry     beta= 0.20
     Davidson diagonalization with overlap
     c_bands:  1 eigenvalues not converged
     ethr =  1.13E-05,  avg # of iterations = 19.5

     negative rho (up, down):  3.302E-04 0.000E+00

     total cpu time spent up to now is     3300.6 secs

     total energy              =  -27706.37484561 Ry
     estimated scf accuracy    <       0.07564132 Ry

     iteration #  8     ecut=    77.00 Ry     beta= 0.20
     Davidson diagonalization with overlap
     c_bands:  1 eigenvalues not converged
     ethr =  5.69E-06,  avg # of iterations = 39.8

     negative rho (up, down):  3.903E-04 0.000E+00

     total cpu time spent up to now is     4120.4 secs

     total energy              =  -27706.42392885 Ry
     estimated scf accuracy    <       0.06410638 Ry

     iteration #  9     ecut=    77.00 Ry     beta= 0.20
     Davidson diagonalization with overlap
     ethr =  4.82E-06,  avg # of iterations =  1.5

     negative rho (up, down):  3.809E-04 0.000E+00

     total cpu time spent up to now is     4334.7 secs

     total energy              =  -27706.42364006 Ry
     estimated scf accuracy    <       0.01310343 Ry

     iteration # 10     ecut=    77.00 Ry     beta= 0.20
     Davidson diagonalization with overlap
     c_bands:  5 eigenvalues not converged
     c_bands:  4 eigenvalues not converged
     c_bands:  4 eigenvalues not converged
     ethr =  9.85E-07,  avg # of iterations = 25.5

     negative rho (up, down):  4.305E-04 0.000E+00

     total cpu time spent up to now is     5128.6 secs

     total energy              =  -27706.44225844 Ry
     estimated scf accuracy    <       0.00627396 Ry

     iteration # 11     ecut=    77.00 Ry     beta= 0.20
     Davidson diagonalization with overlap
     c_bands:  2 eigenvalues not converged
     c_bands:  2 eigenvalues not converged
     ethr =  4.72E-07,  avg # of iterations = 29.0

     negative rho (up, down):  5.506E-04 0.000E+00

     total cpu time spent up to now is     5620.1 secs

     total energy              =  -27706.44166718 Ry
     estimated scf accuracy    <       0.00508311 Ry

     iteration # 12     ecut=    77.00 Ry     beta= 0.20
     Davidson diagonalization with overlap
     c_bands:  2 eigenvalues not converged
     c_bands:  1 eigenvalues not converged
     ethr =  3.82E-07,  avg # of iterations = 14.0

     negative rho (up, down):  6.652E-04 0.000E+00

     total cpu time spent up to now is     5884.3 secs

     total energy              =  -27706.44203857 Ry
     estimated scf accuracy    <       0.00094365 Ry

     iteration # 13     ecut=    77.00 Ry     beta= 0.20
     Davidson diagonalization with overlap
     ethr =  7.10E-08,  avg # of iterations = 16.2

     negative rho (up, down):  7.213E-04 0.000E+00

     total cpu time spent up to now is     6614.0 secs

     total energy              =  -27706.44399127 Ry
     estimated scf accuracy    <       0.00073990 Ry

     iteration # 14     ecut=    77.00 Ry     beta= 0.20
     Davidson diagonalization with overlap
     ethr =  5.56E-08,  avg # of iterations =  1.8

     negative rho (up, down):  7.750E-04 0.000E+00

     total cpu time spent up to now is     6832.5 secs

     total energy              =  -27706.44375507 Ry
     estimated scf accuracy    <       0.00054270 Ry

     iteration # 15     ecut=    77.00 Ry     beta= 0.20
     Davidson diagonalization with overlap
     ethr =  4.08E-08,  avg # of iterations =  4.8

     negative rho (up, down):  8.431E-04 0.000E+00

     total cpu time spent up to now is     7067.1 secs

     total energy              =  -27706.44376062 Ry
     estimated scf accuracy    <       0.00010102 Ry

     iteration # 16     ecut=    77.00 Ry     beta= 0.20
     Davidson diagonalization with overlap
     c_bands:  2 eigenvalues not converged
     c_bands:  1 eigenvalues not converged
     c_bands:  4 eigenvalues not converged
     ethr =  7.60E-09,  avg # of iterations = 19.8

     negative rho (up, down):  8.614E-04 0.000E+00

     total cpu time spent up to now is     7958.1 secs

     total energy              =  -27706.44395570 Ry
     estimated scf accuracy    <       0.00017636 Ry

     iteration # 17     ecut=    77.00 Ry     beta= 0.20
     Davidson diagonalization with overlap
     ethr =  7.60E-09,  avg # of iterations =  5.2

     negative rho (up, down):  8.785E-04 0.000E+00

     total cpu time spent up to now is     8211.4 secs

     total energy              =  -27706.44393706 Ry
     estimated scf accuracy    <       0.00004238 Ry

     iteration # 18     ecut=    77.00 Ry     beta= 0.20
     Davidson diagonalization with overlap
     ethr =  3.19E-09,  avg # of iterations = 11.2

     negative rho (up, down):  8.903E-04 0.000E+00

     total cpu time spent up to now is     8813.1 secs

     total energy              =  -27706.44397848 Ry
     estimated scf accuracy    <       0.00005725 Ry

     iteration # 19     ecut=    77.00 Ry     beta= 0.20
     Davidson diagonalization with overlap
     ethr =  3.19E-09,  avg # of iterations =  2.0

     negative rho (up, down):  8.950E-04 0.000E+00

     total cpu time spent up to now is     9035.5 secs

     total energy              =  -27706.44396883 Ry
     estimated scf accuracy    <       0.00001548 Ry

     iteration # 20     ecut=    77.00 Ry     beta= 0.20
     Davidson diagonalization with overlap
     ethr =  1.16E-09,  avg # of iterations = 11.2

     negative rho (up, down):  8.971E-04 0.000E+00

     total cpu time spent up to now is     9619.8 secs

     total energy              =  -27706.44398552 Ry
     estimated scf accuracy    <       0.00003264 Ry

     iteration # 21     ecut=    77.00 Ry     beta= 0.20
     Davidson diagonalization with overlap
     ethr =  1.16E-09,  avg # of iterations =  1.5

     negative rho (up, down):  9.021E-04 0.000E+00

     total cpu time spent up to now is     9832.2 secs

     total energy              =  -27706.44397368 Ry
     estimated scf accuracy    <       0.00001422 Ry

     iteration # 22     ecut=    77.00 Ry     beta= 0.20
     Davidson diagonalization with overlap
     ethr =  1.07E-09,  avg # of iterations =  9.0

     negative rho (up, down):  9.043E-04 0.000E+00

     total cpu time spent up to now is    10260.7 secs

     total energy              =  -27706.44398529 Ry
     estimated scf accuracy    <       0.00001031 Ry

     iteration # 23     ecut=    77.00 Ry     beta= 0.20
     Davidson diagonalization with overlap
     ethr =  7.75E-10,  avg # of iterations =  1.0

     negative rho (up, down):  9.056E-04 0.000E+00

     total cpu time spent up to now is    10463.3 secs

     total energy              =  -27706.44398154 Ry
     estimated scf accuracy    <       0.00000663 Ry

     iteration # 24     ecut=    77.00 Ry     beta= 0.20
     Davidson diagonalization with overlap
     ethr =  4.98E-10,  avg # of iterations =  2.2

     negative rho (up, down):  9.060E-04 0.000E+00

     total cpu time spent up to now is    10678.2 secs

     total energy              =  -27706.44398079 Ry
     estimated scf accuracy    <       0.00000152 Ry

     iteration # 25     ecut=    77.00 Ry     beta= 0.20
     Davidson diagonalization with overlap
     c_bands:  3 eigenvalues not converged
     c_bands:  5 eigenvalues not converged
     c_bands:  2 eigenvalues not converged
     ethr =  1.14E-10,  avg # of iterations = 24.8

     negative rho (up, down):  9.081E-04 0.000E+00

     total cpu time spent up to now is    11371.0 secs

     End of self-consistent calculation

          k = 0.0000 0.0000 0.0000 (321495 PWs)   bands (ev):

  -102.9316-102.9057 -88.2974 -71.2740 -71.2674 -71.2550 -71.2512 -71.2470
   -71.2348 -71.2205 -71.2199 -71.2075 -71.1946 -71.1940 -71.1850 -71.1709
   -71.1621 -66.7256 -66.7045 -66.7045 -66.7045 -66.7045 -66.7045 -66.7045
   -66.6834 -66.6834 -66.6834 -66.6834 -66.6833 -66.6833 -66.6833 -66.6833
   -66.6833 -66.6599 -66.6392 -66.6391 -66.6389 -66.6386 -66.6385 -66.6383
   -66.6184 -66.6180 -66.6179 -66.6178 -66.6176 -66.6174 -66.6173 -66.6172
   -66.6168 -66.5871 -66.5755 -66.5691 -66.5623 -66.5582 -66.5519 -66.5456
   -66.5401 -66.5388 -66.5332 -66.5287 -66.5257 -66.5216 -66.5179 -66.5150
   -66.5009 -57.2700 -57.2211 -57.1210 -57.0835 -57.0674 -57.0278 -54.1564
   -54.1070 -54.0342 -41.0520 -41.0520 -41.0520 -40.9851 -40.9851 -40.9849
   -40.9772 -40.9772 -40.9772 -40.9772 -40.9772 -40.9772 -40.9105 -40.9104
   -40.9104 -40.9102 -40.9101 -40.9099 -40.9033 -40.9022 -40.8995 -40.8857
   -40.8516 -40.8516 -40.8516 -40.8516 -40.8516 -40.8516 -40.8443 -40.8443
   -40.8443 -40.8443 -40.8443 -40.8443 -40.8352 -40.8299 -40.8266 -40.8204
   -40.8193 -40.8168 -40.8168 -40.8168 -40.8168 -40.8168 -40.8168 -40.8098
   -40.8026 -40.8026 -40.8026 -40.8026 -40.8026 -40.8026 -40.8025 -40.8025
   -40.8025 -40.8002 -40.7851 -40.7850 -40.7849 -40.7848 -40.7847 -40.7846
   -40.7794 -40.7793 -40.7791 -40.7788 -40.7788 -40.7786 -40.7666 -40.7503
   -40.7502 -40.7502 -40.7500 -40.7499 -40.7498 -40.7432 -40.7390 -40.7390
   -40.7390 -40.7381 -40.7378 -40.7376 -40.7375 -40.7374 -40.7372 -40.7371
   -40.7370 -40.7366 -40.7268 -40.7241 -40.7197 -40.7152 -40.7078 -40.7068
   -40.7053 -40.7035 -40.6924 -40.6922 -40.6922 -40.6922 -40.6922 -40.6922
   -40.6922 -40.6891 -40.6881 -40.6844 -40.6790 -40.6748 -40.6740 -40.6724
   -40.6723 -40.6723 -40.6708 -40.6703 -40.6685 -40.6680 -40.6649 -40.6593
   -40.6568 -40.6549 -40.6457 -40.6449 -40.6449 -40.6424 -40.6328 -40.6259
   -40.6258 -40.6257 -40.6255 -40.6253 -40.6252 -40.5886 -40.5843 -40.5796
   -40.5783 -40.5783 -40.5382 -40.5373 -40.5331 -40.5290 -40.5241 -40.5203
   -40.4812 -40.4679 -20.3078 -20.1443 -19.9861 -19.7590 -19.4729 -19.3365
   -19.2960 -19.2948 -19.2908 -19.2840 -19.2812 -19.2718 -19.2249 -19.2216
   -19.1872 -19.1413 -19.1344 -19.1253 -19.1083 -19.1071 -19.0738 -18.9305
   -18.8282 -18.7836 -18.6592 -18.5819 -18.5745 -18.5476 -18.5435 -18.5107
   -18.4840 -18.4747 -18.4393 -18.4244 -18.4173 -18.3902 -18.3547 -18.3328
   -18.2756 -18.2567 -18.2563 -18.2501 -18.2316 -18.2021 -18.1852 -18.1848
   -18.1844 -18.1844 -18.1841 -18.1841 -18.1630 -18.1458 -18.1443 -18.1441
   -18.1430 -18.1158 -18.1048 -18.1026 -18.1000 -18.0986 -18.0956 -18.0766
   -18.0714 -18.0704 -18.0674 -18.0258 -18.0220 -18.0126 -18.0074 -17.9916
   -17.9879 -17.9873 -17.9839 -17.9769 -17.9685 -17.9627 -17.9604 -17.9597
   -17.9370 -17.9286 -17.9269 -17.9178 -17.9082 -17.9033 -17.8943 -17.8924
   -17.8891 -17.8682 -17.8600 -17.8592 -17.8416 -17.8324 -17.8241 -17.8115
   -17.8094 -17.8051 -12.3460 -12.3211 -12.0086 -11.9711 -11.8158 -11.7990
   -11.7976 -11.7922 -11.7164 -11.7134 -11.7111 -11.6346 -11.5176 -11.4304
   -11.3758 -11.3497 -11.3111 -11.2614 -11.2537 -11.2486 -11.2389 -11.2331
   -11.2200 -11.1886 -11.1833 -11.1713 -11.1698 -11.1666 -11.1643 -11.1566
   -11.1434 -11.0892 -11.0558 -11.0454 -11.0333 -11.0331 -11.0287 -11.0187
   -11.0092 -10.9854 -10.9749 -10.9669 -10.9532 -10.9463 -10.9278 -10.9218
   -10.9062 -10.8911 -10.8862 -10.8793 -10.8764 -10.8753 -10.8745 -10.8730
   -10.8707 -10.8545 -10.8476 -10.8461 -10.8450 -10.8336 -10.8290 -10.8276
   -10.8248 -10.8234 -10.8171 -10.7900 -10.7689 -10.7537 -10.7490 -10.7341
   -10.7136 -10.7072 -10.6713 -10.6631 -10.6545 -10.5982 -10.4999 -10.4129
   -10.3038 -10.1954 -10.0943 -10.0918 -10.0897 -10.0512  -9.9810  -9.9588
    -9.9310  -9.9011  -9.8831  -9.8431  -9.8365  -9.8291  -9.8191  -9.8156
    -9.7925  -9.7811  -9.7737  -9.7580  -9.7538  -9.7398  -9.7309  -9.7033
    -9.6928  -9.6799  -9.6768  -9.6673  -9.6652  -9.6601  -9.6545  -9.6469
    -9.6409  -9.6254  -9.6207  -9.6184  -9.6169  -9.6160  -9.6152  -9.6024
    -9.5965  -9.5854  -9.5223  -9.5127  -9.5052  -9.4910  -9.4859  -9.4814
    -9.4783  -9.4401  -9.4296  -9.4201  -9.4061  -9.4049  -9.3963  -9.3853
    -9.3692  -9.3565  -9.3431  -9.2994  -9.2922  -9.2716  -9.2660  -9.2560
    -9.2490  -9.2428  -9.2146  -9.2064  -9.1682  -9.1546  -9.1113  -9.0836
    -9.0764  -9.0698  -9.0668  -9.0633  -9.0632  -9.0624  -9.0414  -9.0244
    -8.9934  -8.9867  -8.9839  -8.9763  -8.9733  -8.9524  -8.9076  -8.8863
    -8.8825  -8.8625  -8.8534  -8.8502  -8.8448  -8.8421  -8.8371  -8.8307
    -8.8237  -8.8157  -8.8087  -8.8030  -8.7887  -8.7784  -8.7779  -8.7652
    -8.7617  -8.7347  -8.6278  -8.6128  -8.5172  -8.4745  -8.4745  -8.4734
    -8.4018  -8.4017  -8.3891  -8.3746  -8.3626  -8.3623  -8.3623  -8.3622
    -8.3620  -8.3616  -8.3421  -8.3263  -8.3034  -8.2959  -8.2883  -8.2851
    -8.2847  -8.2841  -8.2762  -8.2668  -8.2381  -8.1192  -8.1092  -8.0460
    -7.9910  -7.9780  -7.9538  -7.9405  -7.8561  -7.8094  -7.7504  -7.7172
    -7.7040  -7.6773  -7.6465  -7.6278  -7.6273  -7.6268  -7.6266  -7.6265
    -7.6256  -7.6122  -7.5995  -7.5812  -7.5809  -7.5804  -7.5802  -7.5795
    -7.5791  -7.5637  -7.5569  -7.5556  -7.5481  -7.5455  -7.5427  -7.5401
    -7.5372  -7.5231  -7.5088  -7.5078  -7.5068  -7.5038  -7.5029  -7.5001
    -7.4973  -7.4771  -7.4726  -7.4669  -7.4651  -7.4602  -7.4476  -7.4155
    -7.4033  -7.3587  -7.3458  -7.3456  -7.3413  -7.3361  -7.2826  -7.2795
    -7.2756  -7.2703  -7.2568  -7.2109  -7.1891  -7.1297  -7.0905  -7.0695
    -7.0316  -7.0194  -6.9686  -6.9635  -6.9347  -6.9044  -6.8887  -6.8424
    -6.8398  -6.8385  -6.7873  -6.7423  -6.7154  -6.7147  -6.7105  -6.7057
    -6.6961  -6.6706  -6.6692  -6.6634  -6.6476  -6.6330  -6.6091  -6.5982
    -6.5903  -6.5691  -6.5684  -6.5627  -6.5599  -6.5562  -6.5385  -6.5314
    -6.5177  -6.5133  -6.5106  -6.4904  -6.4891  -6.4772  -6.4682  -6.4652
    -6.4418  -6.4188  -6.3937  -6.3937  -6.3936  -6.3936  -6.3936  -6.3936
    -6.3876  -6.3594  -6.3531  -6.3282  -6.3224  -6.3166  -6.3154  -6.3146
    -6.3132  -6.3097  -6.2995  -6.2597  -6.2466  -6.1725  -6.0559  -5.9843
    -5.9223  -5.7930  -5.6826  -5.5885  -5.5482  -5.4192  -5.4171  -5.1763
    -5.1555  -4.2835  -4.0206  -3.9145  -3.8789  -3.8780  -3.8764  -3.8609
    -3.8548  -3.8514  -3.8474  -3.8451  -3.8420  -3.8246  -3.7970  -3.7465
    -3.6682  -3.6595  -3.6395  -3.6337  -3.6270  -3.6248  -3.6146  -3.6099
    -3.6051  -3.5343  -3.5342  -3.5342  -3.5198  -3.5170  -3.5165  -3.5147
    -3.5141  -3.5131  -3.4882  -3.4767  -3.4673  -3.4670  -3.4668  -3.4552
    -3.4449  -3.4403  -3.4272  -3.4219  -3.4156  -3.4132  -3.4066  -3.4001
    -3.3953  -3.3906  -3.3883  -3.3779  -3.3672  -3.3645  -3.3450  -3.3283
    -3.3157  -3.3054  -3.2975  -3.2943  -3.2698  -3.2379  -3.2229  -3.1749
    -3.0869  -3.0685  -3.0683  -3.0665  -3.0627  -3.0624  -3.0516  -3.0180
    -3.0012  -2.9968  -2.9966  -2.9962  -2.9960  -2.9959  -2.9957  -2.9932
    -2.9909  -2.9816  -2.9750  -2.9682  -2.9587  -2.9475  -2.9443  -2.9359
    -2.9341  -2.9310  -2.9256  -2.9218  -2.9194  -2.9126  -2.9104  -2.9085
    -2.8950  -2.8862  -2.8693  -2.8645  -2.8547  -2.8529  -2.8276  -2.8071
    -2.8056  -2.7915  -2.7887  -2.7878  -2.7860  -2.7850  -2.7847  -2.7406
    -2.7384  -2.7303  -2.7261  -2.7049  -2.6835  -2.6780  -2.6629  -2.6364
    -2.6214  -2.6142  -2.6031  -2.5851  -2.5835  -2.5793  -2.5659  -2.5612
    -2.5433  -2.5316  -2.5162  -2.4987  -2.4933  -2.4834

          k = 0.0000-0.5773 0.0000 (321564 PWs)   bands (ev):

  -102.9316-102.9057 -88.2974 -71.2740 -71.2674 -71.2550 -71.2512 -71.2470
   -71.2348 -71.2205 -71.2199 -71.2075 -71.1946 -71.1940 -71.1850 -71.1709
   -71.1621 -66.7195 -66.7195 -66.7089 -66.7089 -66.6940 -66.6940 -66.6940
   -66.6940 -66.6896 -66.6896 -66.6834 -66.6833 -66.6833 -66.6833 -66.6790
   -66.6790 -66.6538 -66.6536 -66.6432 -66.6431 -66.6285 -66.6282 -66.6282
   -66.6280 -66.6239 -66.6237 -66.6177 -66.6177 -66.6176 -66.6173 -66.6132
   -66.6131 -66.5857 -66.5776 -66.5697 -66.5617 -66.5581 -66.5500 -66.5479
   -66.5390 -66.5373 -66.5352 -66.5277 -66.5247 -66.5235 -66.5187 -66.5141
   -66.5009 -57.2700 -57.2211 -57.1210 -57.0835 -57.0674 -57.0278 -54.1564
   -54.1070 -54.0342 -41.0206 -41.0206 -41.0206 -41.0206 -40.9939 -40.9939
   -40.9820 -40.9820 -40.9538 -40.9537 -40.9536 -40.9534 -40.9316 -40.9316
   -40.9316 -40.9316 -40.9271 -40.9269 -40.9151 -40.9150 -40.8854 -40.8757
   -40.8736 -40.8736 -40.8648 -40.8648 -40.8647 -40.8646 -40.8637 -40.8637
   -40.8617 -40.8578 -40.8529 -40.8529 -40.8522 -40.8456 -40.8266 -40.8235
   -40.8235 -40.8235 -40.8235 -40.8148 -40.8148 -40.8084 -40.8082 -40.8046
   -40.8027 -40.8027 -40.8026 -40.8026 -40.8026 -40.8026 -40.7970 -40.7968
   -40.7939 -40.7939 -40.7877 -40.7876 -40.7828 -40.7719 -40.7719 -40.7719
   -40.7719 -40.7712 -40.7687 -40.7650 -40.7584 -40.7583 -40.7582 -40.7580
   -40.7580 -40.7496 -40.7495 -40.7453 -40.7376 -40.7374 -40.7374 -40.7374
   -40.7374 -40.7374 -40.7374 -40.7371 -40.7367 -40.7360 -40.7358 -40.7288
   -40.7287 -40.7258 -40.7253 -40.7253 -40.7128 -40.7081 -40.7061 -40.7061
   -40.7053 -40.7052 -40.7052 -40.7051 -40.7019 -40.6992 -40.6965 -40.6932
   -40.6892 -40.6892 -40.6848 -40.6787 -40.6786 -40.6720 -40.6708 -40.6708
   -40.6707 -40.6706 -40.6698 -40.6640 -40.6623 -40.6588 -40.6588 -40.6588
   -40.6586 -40.6525 -40.6494 -40.6441 -40.6396 -40.6394 -40.6246 -40.6227
   -40.6225 -40.6180 -40.6152 -40.6087 -40.5923 -40.5921 -40.5837 -40.5806
   -40.5774 -40.5717 -40.5702 -40.5551 -40.5486 -40.5443 -40.5236 -40.5091
   -40.5037 -40.4800 -20.2406 -19.9273 -19.9116 -19.8506 -19.7597 -19.7228
   -19.5854 -19.5269 -19.4769 -19.4634 -19.3359 -19.3143 -19.2049 -18.9595
   -18.8780 -18.8293 -18.7999 -18.7834 -18.7746 -18.7724 -18.7662 -18.7646
   -18.6893 -18.6682 -18.6549 -18.6478 -18.6441 -18.6395 -18.6218 -18.5810
   -18.5624 -18.5296 -18.5262 -18.4983 -18.4917 -18.4784 -18.4511 -18.4375
   -18.4236 -18.4104 -18.3710 -18.3608 -18.3162 -18.3075 -18.2827 -18.2623
   -18.2440 -18.2368 -18.2027 -18.1888 -18.1798 -18.1649 -18.1648 -18.1647
   -18.1646 -18.1550 -18.1349 -18.1308 -18.1011 -18.0910 -18.0878 -18.0843
   -18.0835 -18.0761 -18.0616 -18.0538 -18.0353 -18.0339 -18.0281 -18.0063
   -17.9869 -17.9863 -17.9837 -17.9786 -17.9645 -17.9615 -17.9298 -17.9219
   -17.9139 -17.9016 -17.9015 -17.8994 -17.8805 -17.8604 -17.8523 -17.8423
   -17.8420 -17.8292 -17.8285 -17.8248 -17.8226 -17.8188 -17.7831 -17.7823
   -17.7261 -17.7200 -12.3121 -12.2264 -11.8856 -11.7949 -11.7269 -11.6424
   -11.6206 -11.5144 -11.5120 -11.5093 -11.5091 -11.4964 -11.4881 -11.4722
   -11.4594 -11.4430 -11.4199 -11.4138 -11.4122 -11.3945 -11.3796 -11.3487
   -11.3389 -11.3236 -11.3139 -11.3110 -11.2945 -11.2945 -11.2793 -11.2488
   -11.2488 -11.2064 -11.2040 -11.1964 -11.1924 -11.1473 -11.1438 -11.1050
   -11.0864 -11.0717 -11.0249 -11.0150 -11.0059 -10.9780 -10.9697 -10.9519
   -10.9491 -10.9378 -10.9236 -10.9104 -10.8931 -10.8875 -10.8825 -10.8691
   -10.8679 -10.8673 -10.8665 -10.8628 -10.8501 -10.8283 -10.8070 -10.8040
   -10.7971 -10.7945 -10.7537 -10.7117 -10.6474 -10.6262 -10.5984 -10.5365
   -10.5247 -10.4867 -10.4217 -10.3929 -10.3408 -10.3047 -10.2096 -10.1890
   -10.1697 -10.1565 -10.1501 -10.1266 -10.1105 -10.0912 -10.0588 -10.0196
   -10.0112  -9.9961  -9.9777  -9.9753  -9.9692  -9.9645  -9.9552  -9.9465
    -9.9355  -9.9253  -9.9198  -9.9152  -9.8684  -9.8578  -9.8415  -9.8311
    -9.8104  -9.7885  -9.7689  -9.7547  -9.7511  -9.7442  -9.7409  -9.7371
    -9.7338  -9.7092  -9.7022  -9.6917  -9.6804  -9.6524  -9.6415  -9.6143
    -9.5997  -9.5884  -9.5777  -9.5665  -9.5551  -9.5168  -9.5095  -9.4925
    -9.4582  -9.4361  -9.3988  -9.3754  -9.3365  -9.3217  -9.2615  -9.2453
    -9.2399  -9.2197  -9.2032  -9.2003  -9.1927  -9.1733  -9.1593  -9.1528
    -9.1418  -9.1360  -9.1191  -9.1023  -9.0900  -9.0850  -9.0813  -9.0644
    -9.0534  -9.0388  -9.0326  -9.0141  -9.0049  -8.9918  -8.9879  -8.9807
    -8.9786  -8.9705  -8.9584  -8.9490  -8.9397  -8.9242  -8.9161  -8.9067
    -8.8971  -8.8950  -8.8889  -8.8850  -8.8773  -8.8766  -8.8687  -8.8655
    -8.8583  -8.8529  -8.8173  -8.8127  -8.8017  -8.7970  -8.7817  -8.7705
    -8.7479  -8.6611  -8.6102  -8.5617  -8.5565  -8.5497  -8.5483  -8.4777
    -8.4714  -8.4582  -8.4120  -8.3977  -8.3695  -8.2619  -8.2309  -8.2309
    -8.2156  -8.2063  -8.1589  -8.1583  -8.1343  -8.1141  -8.0791  -8.0391
    -8.0081  -7.9704  -7.9678  -7.9575  -7.9127  -7.9027  -7.8951  -7.8939
    -7.8879  -7.8879  -7.8842  -7.8841  -7.8797  -7.8769  -7.8545  -7.8435
    -7.8378  -7.8367  -7.8356  -7.8339  -7.8135  -7.8128  -7.7997  -7.7946
    -7.7852  -7.7822  -7.7670  -7.7662  -7.7629  -7.7589  -7.7537  -7.7442
    -7.7347  -7.7284  -7.7180  -7.7051  -7.6992  -7.6990  -7.6980  -7.6880
    -7.6798  -7.6647  -7.6580  -7.6456  -7.6253  -7.6244  -7.6116  -7.5969
    -7.5793  -7.5685  -7.5558  -7.5359  -7.5125  -7.4562  -7.4085  -7.3832
    -7.3815  -7.2983  -7.2790  -7.2715  -7.2611  -7.2486  -7.2130  -7.1758
    -7.1680  -7.1377  -7.1117  -7.1032  -7.0938  -7.0605  -7.0523  -7.0463
    -7.0361  -7.0119  -7.0041  -6.9930  -6.9672  -6.9409  -6.9394  -6.9289
    -6.9150  -6.8689  -6.8638  -6.8344  -6.8116  -6.7860  -6.7520  -6.7443
    -6.7226  -6.6995  -6.6960  -6.6959  -6.6959  -6.6958  -6.6889  -6.6491
    -6.6409  -6.6286  -6.6270  -6.6254  -6.6220  -6.6118  -6.6054  -6.5778
    -6.5426  -6.5313  -6.5109  -6.4748  -6.4708  -6.3785  -6.3648  -6.3643
    -6.3638  -6.3635  -6.3422  -6.3061  -6.3036  -6.2976  -6.2849  -6.2821
    -6.2792  -6.2780  -6.2673  -6.2483  -6.2350  -6.2022  -6.1815  -6.0395
    -6.0159  -6.0157  -6.0099  -5.9485  -5.9388  -5.9361  -5.8321  -5.8029
    -5.7840  -5.7460  -5.6612  -5.6182  -5.5472  -5.5153  -5.3923  -5.3355
    -5.1996  -4.3257  -4.0841  -4.0709  -4.0564  -4.0271  -3.9517  -3.9312
    -3.9312  -3.8947  -3.8847  -3.8766  -3.8662  -3.8658  -3.8225  -3.8122
    -3.7960  -3.7557  -3.7315  -3.6748  -3.6518  -3.6367  -3.6342  -3.6331
    -3.6300  -3.6187  -3.6167  -3.6164  -3.5977  -3.5618  -3.5414  -3.5379
    -3.5354  -3.5327  -3.5157  -3.5134  -3.5082  -3.5033  -3.4963  -3.4627
    -3.4602  -3.4313  -3.4212  -3.4072  -3.4027  -3.3874  -3.3847  -3.3822
    -3.3794  -3.3545  -3.3524  -3.3460  -3.3422  -3.3220  -3.3086  -3.3082
    -3.3075  -3.3065  -3.2968  -3.2792  -3.2694  -3.2683  -3.2612  -3.2488
    -3.2449  -3.2333  -3.2287  -3.2232  -3.2210  -3.2012  -3.1846  -3.1657
    -3.1507  -3.1363  -3.1246  -3.1039  -3.1021  -3.0890  -3.0741  -3.0642
    -3.0619  -3.0449  -3.0445  -3.0441  -3.0437  -3.0129  -3.0050  -2.9965
    -2.9958  -2.9874  -2.9809  -2.9730  -2.9618  -2.9574  -2.9497  -2.9471
    -2.9370  -2.9282  -2.9260  -2.9196  -2.9114  -2.8983  -2.8849  -2.8675
    -2.8632  -2.8555  -2.8378  -2.8349  -2.8102  -2.7861  -2.7780  -2.7492
    -2.7462  -2.7073  -2.6971  -2.6815  -2.6805  -2.6793  -2.6676  -2.6042
    -2.5992  -2.5704  -2.5647  -2.5391  -2.5318  -2.5225  -2.5165  -2.4659
    -2.4160  -2.4021  -2.3794  -2.3570  -2.3195  -2.3115

          k =-0.5000-0.2887 0.0000 (321564 PWs)   bands (ev):

  -102.9316-102.9057 -88.2974 -71.2740 -71.2674 -71.2550 -71.2512 -71.2470
   -71.2348 -71.2205 -71.2199 -71.2075 -71.1946 -71.1940 -71.1850 -71.1709
   -71.1621 -66.7195 -66.7195 -66.7089 -66.7089 -66.6940 -66.6940 -66.6940
   -66.6940 -66.6896 -66.6896 -66.6834 -66.6834 -66.6833 -66.6833 -66.6790
   -66.6790 -66.6539 -66.6535 -66.6433 -66.6430 -66.6285 -66.6283 -66.6282
   -66.6280 -66.6240 -66.6236 -66.6181 -66.6175 -66.6175 -66.6173 -66.6133
   -66.6131 -66.5850 -66.5794 -66.5682 -66.5619 -66.5572 -66.5519 -66.5470
   -66.5391 -66.5384 -66.5339 -66.5278 -66.5252 -66.5228 -66.5188 -66.5142
   -66.5009 -57.2700 -57.2211 -57.1210 -57.0835 -57.0674 -57.0278 -54.1564
   -54.1070 -54.0342 -41.0206 -41.0206 -41.0206 -41.0206 -40.9939 -40.9939
   -40.9820 -40.9820 -40.9539 -40.9536 -40.9535 -40.9534 -40.9316 -40.9316
   -40.9316 -40.9316 -40.9272 -40.9268 -40.9152 -40.9150 -40.8768 -40.8736
   -40.8736 -40.8735 -40.8697 -40.8648 -40.8648 -40.8647 -40.8646 -40.8637
   -40.8637 -40.8636 -40.8558 -40.8529 -40.8529 -40.8450 -40.8270 -40.8235
   -40.8235 -40.8235 -40.8234 -40.8148 -40.8148 -40.8085 -40.8081 -40.8027
   -40.8026 -40.8026 -40.8026 -40.8025 -40.8025 -40.7998 -40.7970 -40.7968
   -40.7939 -40.7939 -40.7877 -40.7875 -40.7815 -40.7719 -40.7719 -40.7719
   -40.7719 -40.7708 -40.7669 -40.7601 -40.7597 -40.7584 -40.7583 -40.7582
   -40.7580 -40.7497 -40.7494 -40.7460 -40.7378 -40.7374 -40.7374 -40.7374
   -40.7374 -40.7373 -40.7372 -40.7371 -40.7360 -40.7358 -40.7358 -40.7288
   -40.7287 -40.7253 -40.7253 -40.7237 -40.7177 -40.7061 -40.7061 -40.7056
   -40.7054 -40.7053 -40.7051 -40.7049 -40.7035 -40.7012 -40.6950 -40.6925
   -40.6893 -40.6892 -40.6851 -40.6832 -40.6760 -40.6727 -40.6709 -40.6708
   -40.6707 -40.6706 -40.6677 -40.6647 -40.6630 -40.6588 -40.6588 -40.6588
   -40.6585 -40.6522 -40.6518 -40.6427 -40.6397 -40.6393 -40.6230 -40.6228
   -40.6225 -40.6225 -40.6153 -40.6108 -40.5924 -40.5920 -40.5840 -40.5818
   -40.5753 -40.5738 -40.5658 -40.5556 -40.5528 -40.5363 -40.5282 -40.5011
   -40.4986 -40.4900 -20.2353 -19.9347 -19.9117 -19.8687 -19.7591 -19.7277
   -19.5756 -19.4985 -19.4766 -19.4422 -19.3396 -19.3071 -19.2315 -19.0157
   -18.8502 -18.8225 -18.7949 -18.7798 -18.7752 -18.7727 -18.7641 -18.7473
   -18.7131 -18.6725 -18.6584 -18.6492 -18.6428 -18.6328 -18.6178 -18.5874
   -18.5638 -18.5296 -18.5269 -18.5119 -18.4961 -18.4686 -18.4607 -18.4389
   -18.4200 -18.3947 -18.3698 -18.3388 -18.3271 -18.2954 -18.2760 -18.2700
   -18.2339 -18.2254 -18.2128 -18.1901 -18.1668 -18.1652 -18.1648 -18.1647
   -18.1645 -18.1535 -18.1416 -18.1269 -18.0992 -18.0973 -18.0913 -18.0841
   -18.0815 -18.0798 -18.0777 -18.0573 -18.0367 -18.0320 -18.0220 -18.0194
   -17.9930 -17.9867 -17.9811 -17.9760 -17.9748 -17.9618 -17.9282 -17.9212
   -17.9140 -17.9093 -17.9015 -17.9015 -17.8661 -17.8637 -17.8464 -17.8421
   -17.8418 -17.8406 -17.8291 -17.8249 -17.8232 -17.8007 -17.7820 -17.7809
   -17.7291 -17.7203 -12.3077 -12.2203 -11.8247 -11.8048 -11.7285 -11.6940
   -11.6377 -11.5666 -11.5113 -11.5110 -11.5090 -11.5082 -11.4908 -11.4840
   -11.4756 -11.4302 -11.4155 -11.4116 -11.4099 -11.4072 -11.3695 -11.3566
   -11.3334 -11.3249 -11.3170 -11.2945 -11.2945 -11.2796 -11.2506 -11.2488
   -11.2444 -11.2008 -11.1986 -11.1944 -11.1910 -11.1334 -11.1280 -11.1014
   -11.0908 -11.0554 -11.0433 -11.0169 -11.0086 -11.0004 -10.9593 -10.9544
   -10.9485 -10.9439 -10.9238 -10.9202 -10.9043 -10.8997 -10.8731 -10.8684
   -10.8676 -10.8670 -10.8658 -10.8638 -10.8629 -10.8337 -10.8059 -10.8023
   -10.7990 -10.7949 -10.7192 -10.7088 -10.6496 -10.6232 -10.5519 -10.5468
   -10.5198 -10.5036 -10.4301 -10.4053 -10.3472 -10.3072 -10.2160 -10.1848
   -10.1598 -10.1564 -10.1440 -10.1348 -10.0792 -10.0748 -10.0617 -10.0452
   -10.0033  -9.9999  -9.9918  -9.9701  -9.9691  -9.9624  -9.9493  -9.9430
    -9.9382  -9.9283  -9.9172  -9.9129  -9.8723  -9.8582  -9.8051  -9.8008
    -9.7890  -9.7841  -9.7711  -9.7560  -9.7502  -9.7492  -9.7387  -9.7324
    -9.7213  -9.7102  -9.6846  -9.6742  -9.6587  -9.6460  -9.6182  -9.6124
    -9.5963  -9.5795  -9.5782  -9.5645  -9.5581  -9.5518  -9.5271  -9.5084
    -9.5014  -9.4673  -9.4459  -9.3805  -9.3595  -9.3494  -9.2588  -9.2521
    -9.2457  -9.2215  -9.2127  -9.1981  -9.1968  -9.1808  -9.1607  -9.1525
    -9.1457  -9.1408  -9.1172  -9.0928  -9.0870  -9.0756  -9.0734  -9.0614
    -9.0548  -9.0379  -9.0347  -9.0194  -9.0005  -8.9961  -8.9852  -8.9843
    -8.9732  -8.9699  -8.9543  -8.9454  -8.9286  -8.9266  -8.9159  -8.8968
    -8.8945  -8.8924  -8.8860  -8.8820  -8.8774  -8.8766  -8.8730  -8.8680
    -8.8586  -8.8478  -8.8357  -8.8240  -8.8007  -8.7956  -8.7891  -8.7506
    -8.7475  -8.6675  -8.6305  -8.5664  -8.5505  -8.5495  -8.5278  -8.4831
    -8.4674  -8.4659  -8.4552  -8.4017  -8.3690  -8.2497  -8.2309  -8.2309
    -8.2148  -8.1888  -8.1610  -8.1583  -8.1565  -8.1130  -8.0694  -8.0237
    -7.9718  -7.9693  -7.9571  -7.9255  -7.9154  -7.9042  -7.8989  -7.8928
    -7.8887  -7.8843  -7.8841  -7.8838  -7.8816  -7.8637  -7.8482  -7.8385
    -7.8378  -7.8366  -7.8317  -7.8194  -7.8136  -7.8107  -7.8024  -7.7984
    -7.7865  -7.7821  -7.7744  -7.7661  -7.7635  -7.7587  -7.7546  -7.7496
    -7.7428  -7.7259  -7.7185  -7.7091  -7.7008  -7.6990  -7.6989  -7.6852
    -7.6792  -7.6623  -7.6505  -7.6452  -7.6336  -7.6239  -7.6131  -7.5881
    -7.5821  -7.5669  -7.5548  -7.5514  -7.5161  -7.4464  -7.4412  -7.3948
    -7.3277  -7.3127  -7.2810  -7.2724  -7.2650  -7.2563  -7.2331  -7.1834
    -7.1609  -7.1340  -7.1212  -7.0967  -7.0845  -7.0602  -7.0485  -7.0465
    -7.0431  -7.0110  -6.9995  -6.9827  -6.9591  -6.9406  -6.9398  -6.9324
    -6.9071  -6.8831  -6.8593  -6.8391  -6.8233  -6.7890  -6.7840  -6.7364
    -6.7259  -6.7001  -6.6960  -6.6959  -6.6958  -6.6952  -6.6846  -6.6643
    -6.6431  -6.6378  -6.6278  -6.6266  -6.6256  -6.6226  -6.5967  -6.5508
    -6.5463  -6.5045  -6.4968  -6.4821  -6.4769  -6.4136  -6.3689  -6.3640
    -6.3639  -6.3637  -6.3578  -6.3094  -6.3020  -6.2902  -6.2816  -6.2803
    -6.2787  -6.2768  -6.2555  -6.2455  -6.2240  -6.1987  -6.0873  -6.0520
    -6.0159  -6.0158  -5.9947  -5.9545  -5.9386  -5.9354  -5.9011  -5.8100
    -5.7791  -5.7243  -5.6559  -5.6269  -5.5714  -5.4900  -5.4303  -5.3377
    -5.1899  -4.3304  -4.0817  -4.0627  -4.0567  -4.0393  -3.9312  -3.9312
    -3.9256  -3.9153  -3.8885  -3.8666  -3.8664  -3.8382  -3.8319  -3.8213
    -3.8063  -3.7925  -3.7205  -3.6698  -3.6603  -3.6369  -3.6346  -3.6317
    -3.6298  -3.6167  -3.6165  -3.6064  -3.5961  -3.5946  -3.5546  -3.5435
    -3.5352  -3.5210  -3.5147  -3.5132  -3.5071  -3.4988  -3.4979  -3.4658
    -3.4418  -3.4303  -3.4163  -3.4006  -3.3922  -3.3849  -3.3835  -3.3787
    -3.3588  -3.3530  -3.3501  -3.3463  -3.3411  -3.3291  -3.3085  -3.3081
    -3.3079  -3.3068  -3.2919  -3.2753  -3.2681  -3.2609  -3.2573  -3.2507
    -3.2430  -3.2348  -3.2275  -3.2240  -3.2225  -3.2111  -3.1729  -3.1637
    -3.1562  -3.1495  -3.1152  -3.1028  -3.1020  -3.0913  -3.0789  -3.0644
    -3.0621  -3.0447  -3.0442  -3.0441  -3.0438  -3.0092  -3.0026  -2.9968
    -2.9959  -2.9830  -2.9782  -2.9747  -2.9610  -2.9603  -2.9547  -2.9493
    -2.9426  -2.9313  -2.9242  -2.9161  -2.9109  -2.8918  -2.8856  -2.8678
    -2.8575  -2.8553  -2.8395  -2.8379  -2.8200  -2.7829  -2.7775  -2.7484
    -2.7455  -2.7083  -2.7044  -2.6816  -2.6808  -2.6729  -2.6655  -2.6052
    -2.5977  -2.5703  -2.5629  -2.5365  -2.5352  -2.5274  -2.5169  -2.4819
    -2.4182  -2.3984  -2.3710  -2.3462  -2.3181  -2.2356

          k =-0.5000-0.8660 0.0000 (321564 PWs)   bands (ev):

  -102.9316-102.9057 -88.2974 -71.2740 -71.2674 -71.2550 -71.2512 -71.2470
   -71.2348 -71.2205 -71.2199 -71.2075 -71.1946 -71.1940 -71.1850 -71.1709
   -71.1621 -66.7195 -66.7195 -66.7089 -66.7089 -66.6940 -66.6940 -66.6940
   -66.6940 -66.6896 -66.6896 -66.6834 -66.6833 -66.6833 -66.6833 -66.6790
   -66.6790 -66.6540 -66.6534 -66.6432 -66.6431 -66.6285 -66.6283 -66.6281
   -66.6280 -66.6241 -66.6235 -66.6180 -66.6179 -66.6176 -66.6168 -66.6132
   -66.6131 -66.5859 -66.5775 -66.5680 -66.5636 -66.5582 -66.5521 -66.5442
   -66.5391 -66.5385 -66.5342 -66.5291 -66.5253 -66.5231 -66.5178 -66.5144
   -66.5009 -57.2700 -57.2211 -57.1210 -57.0835 -57.0674 -57.0278 -54.1564
   -54.1070 -54.0342 -41.0206 -41.0206 -41.0206 -41.0206 -40.9939 -40.9939
   -40.9820 -40.9820 -40.9539 -40.9539 -40.9535 -40.9531 -40.9316 -40.9316
   -40.9316 -40.9316 -40.9273 -40.9268 -40.9151 -40.9150 -40.8894 -40.8767
   -40.8736 -40.8736 -40.8654 -40.8648 -40.8647 -40.8647 -40.8647 -40.8637
   -40.8637 -40.8576 -40.8529 -40.8529 -40.8442 -40.8327 -40.8244 -40.8235
   -40.8235 -40.8235 -40.8234 -40.8157 -40.8148 -40.8148 -40.8085 -40.8080
   -40.8027 -40.8027 -40.8026 -40.8026 -40.8026 -40.8026 -40.7970 -40.7969
   -40.7939 -40.7939 -40.7876 -40.7876 -40.7829 -40.7745 -40.7723 -40.7719
   -40.7719 -40.7719 -40.7719 -40.7640 -40.7589 -40.7585 -40.7583 -40.7581
   -40.7581 -40.7498 -40.7493 -40.7472 -40.7377 -40.7377 -40.7374 -40.7374
   -40.7374 -40.7374 -40.7374 -40.7367 -40.7360 -40.7359 -40.7326 -40.7288
   -40.7287 -40.7273 -40.7253 -40.7253 -40.7131 -40.7097 -40.7062 -40.7061
   -40.7061 -40.7057 -40.7055 -40.7051 -40.7046 -40.6983 -40.6936 -40.6898
   -40.6893 -40.6892 -40.6867 -40.6771 -40.6754 -40.6743 -40.6713 -40.6708
   -40.6708 -40.6707 -40.6707 -40.6676 -40.6589 -40.6588 -40.6588 -40.6585
   -40.6584 -40.6530 -40.6509 -40.6399 -40.6391 -40.6388 -40.6266 -40.6227
   -40.6226 -40.6205 -40.6135 -40.6037 -40.5925 -40.5919 -40.5858 -40.5835
   -40.5739 -40.5713 -40.5645 -40.5520 -40.5494 -40.5420 -40.5303 -40.5210
   -40.5049 -40.4721 -20.2416 -19.9261 -19.9112 -19.8412 -19.7591 -19.7163
   -19.6331 -19.5112 -19.4776 -19.4580 -19.3347 -19.3137 -19.1733 -18.9725
   -18.8790 -18.8510 -18.8013 -18.7803 -18.7745 -18.7731 -18.7683 -18.7531
   -18.6967 -18.6665 -18.6571 -18.6482 -18.6464 -18.6399 -18.6191 -18.5879
   -18.5555 -18.5295 -18.5264 -18.5019 -18.4942 -18.4742 -18.4591 -18.4368
   -18.4168 -18.4079 -18.3618 -18.3462 -18.3302 -18.3024 -18.2777 -18.2726
   -18.2438 -18.2239 -18.2015 -18.1946 -18.1726 -18.1652 -18.1648 -18.1647
   -18.1645 -18.1548 -18.1315 -18.1212 -18.1147 -18.0939 -18.0911 -18.0841
   -18.0825 -18.0797 -18.0669 -18.0558 -18.0363 -18.0287 -18.0262 -18.0107
   -17.9917 -17.9856 -17.9820 -17.9770 -17.9665 -17.9621 -17.9307 -17.9209
   -17.9177 -17.9018 -17.9015 -17.9014 -17.8730 -17.8639 -17.8499 -17.8419
   -17.8416 -17.8319 -17.8270 -17.8248 -17.8240 -17.8126 -17.7830 -17.7810
   -17.7312 -17.7179 -12.3000 -12.2703 -11.8203 -11.7871 -11.7106 -11.6173
   -11.6082 -11.5441 -11.5137 -11.5111 -11.5094 -11.5063 -11.4946 -11.4787
   -11.4622 -11.4375 -11.4214 -11.4146 -11.4126 -11.3817 -11.3781 -11.3603
   -11.3518 -11.3308 -11.3244 -11.3038 -11.2945 -11.2945 -11.2754 -11.2506
   -11.2488 -11.2243 -11.2103 -11.1983 -11.1904 -11.1777 -11.1676 -11.1020
   -11.0679 -11.0554 -11.0335 -11.0139 -10.9952 -10.9799 -10.9672 -10.9571
   -10.9524 -10.9397 -10.9312 -10.9263 -10.8997 -10.8867 -10.8703 -10.8682
   -10.8675 -10.8667 -10.8615 -10.8577 -10.8391 -10.8269 -10.8177 -10.8029
   -10.7995 -10.7924 -10.7804 -10.6760 -10.6661 -10.6326 -10.5736 -10.5337
   -10.5257 -10.4482 -10.4085 -10.3425 -10.3326 -10.2972 -10.2687 -10.2486
   -10.1865 -10.1684 -10.1492 -10.1466 -10.1114 -10.0990 -10.0593 -10.0364
   -10.0227 -10.0036  -9.9862  -9.9764  -9.9710  -9.9672  -9.9550  -9.9431
    -9.9324  -9.9302  -9.9229  -9.8929  -9.8695  -9.8470  -9.8200  -9.8069
    -9.7899  -9.7834  -9.7575  -9.7570  -9.7537  -9.7464  -9.7387  -9.7307
    -9.7174  -9.7055  -9.7023  -9.6862  -9.6634  -9.6491  -9.6390  -9.6016
    -9.5920  -9.5794  -9.5683  -9.5633  -9.5374  -9.5196  -9.5094  -9.5080
    -9.4348  -9.4114  -9.3929  -9.3835  -9.3488  -9.3206  -9.3064  -9.2553
    -9.2457  -9.2267  -9.2195  -9.1978  -9.1890  -9.1834  -9.1780  -9.1577
    -9.1498  -9.1353  -9.1254  -9.1005  -9.0950  -9.0831  -9.0780  -9.0710
    -9.0507  -9.0395  -9.0288  -9.0126  -9.0044  -8.9955  -8.9911  -8.9842
    -8.9749  -8.9682  -8.9648  -8.9560  -8.9350  -8.9241  -8.9150  -8.9040
    -8.8968  -8.8939  -8.8911  -8.8840  -8.8772  -8.8766  -8.8752  -8.8567
    -8.8564  -8.8363  -8.8214  -8.8088  -8.8019  -8.7942  -8.7838  -8.7645
    -8.7202  -8.7099  -8.6328  -8.5918  -8.5499  -8.5496  -8.4807  -8.4700
    -8.4664  -8.4622  -8.4352  -8.3985  -8.3686  -8.2699  -8.2349  -8.2309
    -8.2309  -8.1872  -8.1591  -8.1577  -8.1342  -8.1184  -8.0851  -8.0600
    -8.0209  -7.9718  -7.9689  -7.9645  -7.9083  -7.9030  -7.8990  -7.8877
    -7.8854  -7.8842  -7.8841  -7.8836  -7.8792  -7.8711  -7.8443  -7.8392
    -7.8382  -7.8369  -7.8347  -7.8261  -7.8144  -7.8125  -7.7992  -7.7886
    -7.7847  -7.7787  -7.7756  -7.7636  -7.7628  -7.7592  -7.7565  -7.7485
    -7.7369  -7.7309  -7.7228  -7.7189  -7.6990  -7.6989  -7.6940  -7.6855
    -7.6706  -7.6633  -7.6528  -7.6371  -7.6288  -7.6230  -7.6111  -7.6035
    -7.5784  -7.5620  -7.5525  -7.5218  -7.5141  -7.4636  -7.4136  -7.3550
    -7.3226  -7.3056  -7.2821  -7.2678  -7.2581  -7.2449  -7.2217  -7.1935
    -7.1579  -7.1317  -7.1205  -7.0816  -7.0749  -7.0634  -7.0502  -7.0466
    -7.0438  -7.0176  -7.0111  -6.9961  -6.9752  -6.9493  -6.9393  -6.9334
    -6.9040  -6.8803  -6.8680  -6.8301  -6.8120  -6.7859  -6.7539  -6.7399
    -6.7261  -6.7192  -6.6968  -6.6960  -6.6959  -6.6958  -6.6931  -6.6685
    -6.6582  -6.6347  -6.6286  -6.6272  -6.6255  -6.6225  -6.6102  -6.6036
    -6.5398  -6.5165  -6.4842  -6.4621  -6.4294  -6.4265  -6.3649  -6.3644
    -6.3637  -6.3637  -6.3382  -6.3212  -6.3021  -6.2923  -6.2890  -6.2827
    -6.2791  -6.2771  -6.2705  -6.2566  -6.2393  -6.2037  -6.1509  -6.0880
    -6.0158  -6.0158  -5.9607  -5.9415  -5.9390  -5.9260  -5.8813  -5.7943
    -5.7587  -5.7226  -5.6578  -5.6119  -5.5826  -5.4932  -5.4358  -5.3334
    -5.1528  -4.2645  -4.0965  -4.0729  -4.0528  -4.0215  -3.9875  -3.9312
    -3.9312  -3.9059  -3.8879  -3.8746  -3.8665  -3.8658  -3.8160  -3.8118
    -3.8021  -3.7667  -3.7492  -3.6844  -3.6566  -3.6444  -3.6339  -3.6328
    -3.6288  -3.6200  -3.6171  -3.6164  -3.5959  -3.5798  -3.5411  -3.5394
    -3.5354  -3.5336  -3.5239  -3.5172  -3.5071  -3.5031  -3.4964  -3.4768
    -3.4610  -3.4488  -3.4232  -3.4042  -3.3975  -3.3844  -3.3834  -3.3767
    -3.3558  -3.3533  -3.3501  -3.3449  -3.3324  -3.3138  -3.3094  -3.3078
    -3.3075  -3.3071  -3.2991  -3.2788  -3.2742  -3.2633  -3.2576  -3.2529
    -3.2478  -3.2329  -3.2304  -3.2204  -3.2139  -3.1990  -3.1861  -3.1707
    -3.1621  -3.1408  -3.1118  -3.1038  -3.1004  -3.0762  -3.0755  -3.0641
    -3.0636  -3.0463  -3.0448  -3.0439  -3.0435  -3.0191  -3.0103  -3.0067
    -2.9962  -2.9939  -2.9869  -2.9818  -2.9616  -2.9576  -2.9538  -2.9501
    -2.9368  -2.9258  -2.9234  -2.9152  -2.9047  -2.8931  -2.8848  -2.8802
    -2.8483  -2.8421  -2.8384  -2.8364  -2.7850  -2.7813  -2.7676  -2.7483
    -2.7436  -2.6979  -2.6884  -2.6821  -2.6807  -2.6726  -2.6672  -2.6066
    -2.5969  -2.5571  -2.5508  -2.5440  -2.5342  -2.5298  -2.5046  -2.4560
    -2.4120  -2.3927  -2.3862  -2.3472  -2.3232  -2.2504

     the Fermi energy is    -4.7390 ev

!    total energy              =  -27706.44398190 Ry
     total all-electron energy =   -549111.706421 Ry
     estimated scf accuracy    <       0.00000014 Ry
     smearing contrib. (-TS)   =      -0.00000068 Ry
     internal energy E=F+TS    =  -27706.44398123 Ry

     The total energy is F=E-TS. E is the sum of the following terms:
     one-electron contribution =  525263.01368250 Ry
     hartree contribution      = -262814.37140407 Ry
     xc contribution           =   -1610.33387283 Ry
     ewald contribution        = -271761.01965440 Ry
     DFT-D3 Dispersion         =      -4.06329011 Ry
     one-center paw contrib.   =  -16779.66944231 Ry

     convergence has been achieved in  25 iterations

     negative rho (up, down):  9.081E-04 0.000E+00

     Forces acting on atoms (cartesian axes, Ry/au):

     atom    1 type  1   force =     0.00234786   -0.00151987    0.00103487
     atom    2 type  1   force =    -0.00000332    0.00000058    0.00191074
     atom    3 type  1   force =     0.00000212   -0.00001789    0.00005476
     atom    4 type  2   force =     0.00000161    0.00000049   -0.00321632
     atom    5 type  2   force =    -0.00003120   -0.00002766    0.00007621
     atom    6 type  2   force =    -0.00047557   -0.00040811   -0.00154307
     atom    7 type  2   force =     0.00000097   -0.00000294    0.00145684
     atom    8 type  2   force =     0.00002119   -0.00006027   -0.00003483
     atom    9 type  2   force =    -0.00007487    0.00073134   -0.00154363
     atom   10 type  1   force =     0.00059341   -0.00048206   -0.02155783
     atom   11 type  1   force =     0.00000134    0.00000358    0.00190865
     atom   12 type  1   force =     0.00003069   -0.00003212    0.00004762
     atom   13 type  2   force =    -0.00000034    0.00000148   -0.00321799
     atom   14 type  2   force =     0.00000556   -0.00001910    0.00009409
     atom   15 type  2   force =     0.00042008    0.00060352    0.00248207
     atom   16 type  2   force =     0.00000190   -0.00000411    0.00147250
     atom   17 type  2   force =     0.00001243   -0.00001095   -0.00002790
     atom   18 type  2   force =    -0.01656844   -0.00682867    0.01471830
     atom   19 type  1   force =    -0.00114289    0.00147809   -0.00269127
     atom   20 type  1   force =     0.00000126   -0.00000054    0.00191639
     atom   21 type  1   force =    -0.00006087   -0.00001442    0.00003974
     atom   22 type  2   force =    -0.00000039    0.00000074   -0.00321624
     atom   23 type  2   force =    -0.00000207   -0.00003912    0.00013312
     atom   24 type  2   force =    -0.00048773    0.00028560   -0.00130674
     atom   25 type  2   force =     0.00000368   -0.00000670    0.00146084
     atom   26 type  2   force =    -0.00005386    0.00000063    0.00002200
     atom   27 type  2   force =     0.00111584   -0.00060721   -0.00032892
     atom   28 type  1   force =    -0.00013880   -0.00009152    0.00023582
     atom   29 type  1   force =    -0.00000266   -0.00000306    0.00191108
     atom   30 type  1   force =     0.00000092   -0.00003012   -0.00000462
     atom   31 type  2   force =     0.00000056    0.00000082   -0.00321614
     atom   32 type  2   force =    -0.00002939   -0.00001424    0.00010582
     atom   33 type  2   force =    -0.00040352    0.00043847   -0.00035250
     atom   34 type  2   force =     0.00000048   -0.00000556    0.00146228
     atom   35 type  2   force =    -0.00007525   -0.00003852   -0.00001807
     atom   36 type  2   force =     0.00019036    0.00037963   -0.00009465
     atom   37 type  1   force =    -0.00146389    0.00067103    0.00064777
     atom   38 type  1   force =     0.00000033   -0.00000100    0.00190897
     atom   39 type  1   force =     0.00000850   -0.00006924   -0.00001522
     atom   40 type  2   force =    -0.00000147   -0.00000052   -0.00321582
     atom   41 type  2   force =     0.00001968   -0.00008779    0.00002357
     atom   42 type  2   force =     0.00007319    0.00010860   -0.00005497
     atom   43 type  2   force =     0.00000253    0.00000035    0.00145452
     atom   44 type  2   force =    -0.00001017   -0.00002536   -0.00013438
     atom   45 type  2   force =    -0.00016768   -0.00014127    0.00021632
     atom   46 type  1   force =     0.00268598   -0.00095568   -0.00278240
     atom   47 type  1   force =    -0.00000020    0.00000061    0.00190698
     atom   48 type  1   force =    -0.00002808   -0.00000253    0.00003878
     atom   49 type  2   force =    -0.00000137   -0.00000138   -0.00321632
     atom   50 type  2   force =    -0.00005325   -0.00001565    0.00008490
     atom   51 type  2   force =    -0.00057849    0.00006974    0.00192806
     atom   52 type  2   force =     0.00000650    0.00000048    0.00145127
     atom   53 type  2   force =     0.00003530   -0.00001675   -0.00003268
     atom   54 type  2   force =     0.02154357   -0.01234084    0.00302932
     atom   55 type  1   force =     0.00069771    0.00558652   -0.00248268
     atom   56 type  1   force =     0.00000108    0.00000077    0.00190665
     atom   57 type  1   force =     0.00000908   -0.00004107    0.00005898
     atom   58 type  2   force =    -0.00000125    0.00000035   -0.00321491
     atom   59 type  2   force =    -0.00001390   -0.00004622    0.00012321
     atom   60 type  2   force =     0.00045898    0.00037083    0.00267574
     atom   61 type  2   force =     0.00000941   -0.00000796    0.00145917
     atom   62 type  2   force =     0.00004901    0.00000088   -0.00001723
     atom   63 type  2   force =    -0.00195752    0.01598151    0.01471864
     atom   64 type  1   force =    -0.00059843   -0.00067050    0.00013583
     atom   65 type  1   force =    -0.00000023   -0.00000097    0.00190900
     atom   66 type  1   force =    -0.00004924   -0.00003516    0.00003096
     atom   67 type  2   force =    -0.00000140   -0.00000090   -0.00321669
     atom   68 type  2   force =    -0.00002512   -0.00002295    0.00010782
     atom   69 type  2   force =    -0.00015237   -0.00040941   -0.00009361
     atom   70 type  2   force =     0.00001005   -0.00000278    0.00145755
     atom   71 type  2   force =     0.00001075   -0.00003209    0.00003529
     atom   72 type  2   force =     0.00003396   -0.00008631    0.00042136
     atom   73 type  1   force =     0.00034125    0.00037597   -0.00032785
     atom   74 type  1   force =    -0.00000100   -0.00000117    0.00191432
     atom   75 type  1   force =     0.00000657   -0.00004723   -0.00007688
     atom   76 type  2   force =    -0.00000119    0.00000065   -0.00321709
     atom   77 type  2   force =     0.00002120   -0.00004079    0.00003843
     atom   78 type  2   force =    -0.00046650    0.00002419   -0.00003193
     atom   79 type  2   force =     0.00000114   -0.00000665    0.00146324
     atom   80 type  2   force =     0.00000823   -0.00001086   -0.00011646
     atom   81 type  2   force =     0.00007265   -0.00024269   -0.00013875
     atom   82 type  1   force =     0.00067974    0.00010638    0.00000274
     atom   83 type  1   force =     0.00000088    0.00000088    0.00190903
     atom   84 type  1   force =     0.00001768   -0.00000658   -0.00004562
     atom   85 type  2   force =    -0.00000024   -0.00000011   -0.00321930
     atom   86 type  2   force =     0.00000319   -0.00002870    0.00003995
     atom   87 type  2   force =     0.00030919   -0.00003814    0.00004069
     atom   88 type  2   force =     0.00000159    0.00000103    0.00146044
     atom   89 type  2   force =     0.00000921   -0.00001479   -0.00014603
     atom   90 type  2   force =     0.00161302    0.00226621    0.00096404
     atom   91 type  1   force =     0.00001608   -0.00046596    0.00069492
     atom   92 type  1   force =    -0.00000170   -0.00000053    0.00190835
     atom   93 type  1   force =     0.00002318   -0.00002656    0.00002854
     atom   94 type  2   force =    -0.00000048   -0.00000079   -0.00321554
     atom   95 type  2   force =    -0.00002204   -0.00004158    0.00002436
     atom   96 type  2   force =     0.00101455    0.00125218   -0.00072009
     atom   97 type  2   force =    -0.00000056   -0.00000281    0.00145837
     atom   98 type  2   force =    -0.00000478   -0.00006906   -0.00008176
     atom   99 type  2   force =     0.00438990    0.00216243   -0.00521269
     atom  100 type  1   force =    -0.00001815    0.00033758    0.00054119
     atom  101 type  1   force =     0.00000119    0.00000322    0.00190752
     atom  102 type  1   force =     0.00002460   -0.00002465    0.00001395
     atom  103 type  2   force =     0.00000056   -0.00000008   -0.00321604
     atom  104 type  2   force =     0.00000991   -0.00004257    0.00008928
     atom  105 type  2   force =     0.00039052   -0.00053537    0.00009528
     atom  106 type  2   force =     0.00000687   -0.00000596    0.00145895
     atom  107 type  2   force =    -0.00000979   -0.00001842   -0.00002053
     atom  108 type  2   force =    -0.00022156    0.00013167    0.00021867
     atom  109 type  1   force =    -0.00126609   -0.00175096   -0.00060104
     atom  110 type  1   force =     0.00000119   -0.00000625    0.00191281
     atom  111 type  1   force =     0.00002059   -0.00005647   -0.00000942
     atom  112 type  2   force =    -0.00000023   -0.00000011   -0.00321838
     atom  113 type  2   force =     0.00002823   -0.00001312    0.00010003
     atom  114 type  2   force =     0.00036453   -0.00009960   -0.00003081
     atom  115 type  2   force =     0.00000198   -0.00000637    0.00146667
     atom  116 type  2   force =     0.00000219   -0.00002878   -0.00005512
     atom  117 type  2   force =    -0.00026061   -0.00008214    0.00006590
     atom  118 type  1   force =    -0.00304375    0.00025683   -0.00277499
     atom  119 type  1   force =    -0.00000359    0.00000044    0.00191089
     atom  120 type  1   force =    -0.00002258    0.00000936   -0.00003207
     atom  121 type  2   force =     0.00000110    0.00000043   -0.00321681
     atom  122 type  2   force =     0.00002700   -0.00002533    0.00008717
     atom  123 type  2   force =    -0.00001922    0.00013226   -0.00007565
     atom  124 type  2   force =    -0.00000103   -0.00000593    0.00146548
     atom  125 type  2   force =    -0.00002741   -0.00001511    0.00004219
     atom  126 type  2   force =    -0.00040283   -0.00086240    0.00055254
     atom  127 type  1   force =    -0.00061771    0.00013375    0.00058099
[...]
     atom   45 type  2   force =    -0.00035678   -0.00027649    0.00050428
     atom   46 type  1   force =    -0.00070040   -0.00062052    0.00063476
     atom   47 type  1   force =     0.00000396   -0.00001339    0.00190549
     atom   48 type  1   force =    -0.00005748    0.00003041   -0.00006693
     atom   49 type  2   force =     0.00000072    0.00000421   -0.00328043
     atom   50 type  2   force =    -0.00010328    0.00001886   -0.00009832
     atom   51 type  2   force =    -0.00059063    0.00228569    0.00088397
     atom   52 type  2   force =     0.00002767   -0.00005460    0.00151975
     atom   53 type  2   force =    -0.00006164   -0.00000873   -0.00014167
     atom   54 type  2   force =    -0.00230823   -0.00119209   -0.00130581
     atom   55 type  1   force =    -0.00055935    0.00094968   -0.00031295
     atom   56 type  1   force =     0.00000359   -0.00000955    0.00190205
     atom   57 type  1   force =     0.00005545   -0.00006837   -0.00004457
     atom   58 type  2   force =     0.00000034    0.00000373   -0.00328246
     atom   59 type  2   force =    -0.00004880    0.00002376   -0.00022989
     atom   60 type  2   force =    -0.00093503   -0.00152942    0.00040729
     atom   61 type  2   force =     0.00001443   -0.00002985    0.00153175
     atom   62 type  2   force =     0.00007558    0.00001126   -0.00002397
     atom   63 type  2   force =     0.00047668   -0.00026641   -0.00126774
     atom   64 type  1   force =    -0.00002393    0.00018712   -0.00069151
     atom   65 type  1   force =    -0.00000039   -0.00000992    0.00189385
     atom   66 type  1   force =     0.00000745    0.00002555   -0.00017548
     atom   67 type  2   force =    -0.00000016    0.00000531   -0.00328224
     atom   68 type  2   force =     0.00010851   -0.00012012   -0.00009619
     atom   69 type  2   force =    -0.00012761    0.00087750   -0.00085298
     atom   70 type  2   force =     0.00000950   -0.00003375    0.00151185
     atom   71 type  2   force =    -0.00009864    0.00001801   -0.00022215
     atom   72 type  2   force =    -0.00034514    0.00093504   -0.00071636
     atom   73 type  1   force =     0.00032785   -0.00018092    0.00020286
     atom   74 type  1   force =     0.00000367   -0.00001485    0.00190710
     atom   75 type  1   force =     0.00005707    0.00005961    0.00005031
     atom   76 type  2   force =     0.00000011    0.00000576   -0.00328080
     atom   77 type  2   force =     0.00002192   -0.00005439    0.00007706
     atom   78 type  2   force =    -0.00027118    0.00031706    0.00000359
     atom   79 type  2   force =     0.00000134   -0.00006467    0.00151308
     atom   80 type  2   force =    -0.00007750    0.00000310    0.00012213
     atom   81 type  2   force =     0.00037747   -0.00098733    0.00052149
     atom   82 type  1   force =     0.00013986   -0.00030740    0.00092315
     atom   83 type  1   force =     0.00000056   -0.00000998    0.00191278
     atom   84 type  1   force =    -0.00002708   -0.00006022   -0.00005389
     atom   85 type  2   force =     0.00000035    0.00000484   -0.00327972
     atom   86 type  2   force =     0.00003700    0.00008932    0.00006296
     atom   87 type  2   force =     0.00062689   -0.00136578    0.00040473
     atom   88 type  2   force =     0.00000419   -0.00006531    0.00153013
     atom   89 type  2   force =     0.00001557    0.00006588    0.00014369
     atom   90 type  2   force =    -0.00095176    0.00039052    0.00103450
     atom   91 type  1   force =     0.00008202   -0.00066904    0.00031811
     atom   92 type  1   force =     0.00000600   -0.00000863    0.00190700
     atom   93 type  1   force =    -0.00009374   -0.00003770   -0.00015681
     atom   94 type  2   force =     0.00000108    0.00000389   -0.00328121
     atom   95 type  2   force =    -0.00009459   -0.00007720   -0.00002891
     atom   96 type  2   force =    -0.00118624    0.00114156    0.00145275
     atom   97 type  2   force =     0.00000769   -0.00004358    0.00154454
     atom   98 type  2   force =    -0.00008474   -0.00000387   -0.00008608
     atom   99 type  2   force =    -0.00114623   -0.00172134    0.00075568
     atom  100 type  1   force =     0.00030524   -0.00006041   -0.00056730
     atom  101 type  1   force =     0.00000697   -0.00001137    0.00190368
     atom  102 type  1   force =     0.00001942    0.00000304   -0.00001713
     atom  103 type  2   force =     0.00000076    0.00000458   -0.00328183
     atom  104 type  2   force =    -0.00007969    0.00001863   -0.00013585
     atom  105 type  2   force =    -0.00021540    0.00114564   -0.00132950
     atom  106 type  2   force =     0.00000054   -0.00004746    0.00153610
     atom  107 type  2   force =     0.00006917   -0.00009301   -0.00018873
     atom  108 type  2   force =     0.00011812    0.00032051   -0.00091281
     atom  109 type  1   force =     0.00024658   -0.00012656    0.00044481
     atom  110 type  1   force =     0.00000849   -0.00001606    0.00190348
     atom  111 type  1   force =    -0.00007674   -0.00001134    0.00013801
     atom  112 type  2   force =     0.00000054    0.00000522   -0.00328064
     atom  113 type  2   force =    -0.00014837    0.00004803    0.00003984
     atom  114 type  2   force =     0.00044321    0.00064138   -0.00086091
     atom  115 type  2   force =     0.00002643   -0.00006457    0.00148903
     atom  116 type  2   force =     0.00001090   -0.00012490    0.00003026
     atom  117 type  2   force =     0.00023433   -0.00080036    0.00021214
     atom  118 type  1   force =    -0.00015679   -0.00034456    0.00074553
     atom  119 type  1   force =     0.00000516   -0.00000840    0.00190502
     atom  120 type  1   force =    -0.00002982    0.00006578    0.00002195
     atom  121 type  2   force =    -0.00000043    0.00000458   -0.00327995
     atom  122 type  2   force =     0.00005625    0.00003781    0.00008988
     atom  123 type  2   force =    -0.00002770   -0.00021566   -0.00009344
     atom  124 type  2   force =     0.00001029   -0.00005121    0.00149962
     atom  125 type  2   force =    -0.00011589    0.00010137    0.00003770
     atom  126 type  2   force =     0.00021842   -0.00055357    0.00100197
     atom  127 type  1   force =    -0.00026030   -0.00004228   -0.00061679
     atom  128 type  1   force =     0.00000323   -0.00000667    0.00189972
     atom  129 type  1   force =    -0.00001632   -0.00001745   -0.00009871
     atom  130 type  2   force =     0.00000011    0.00000450   -0.00328139
     atom  131 type  2   force =     0.00005005   -0.00002915   -0.00008039
     atom  132 type  2   force =    -0.00041346   -0.00076511    0.00000097
     atom  133 type  2   force =     0.00001877   -0.00002894    0.00151697
     atom  134 type  2   force =     0.00004572    0.00011739   -0.00003102
     atom  135 type  2   force =     0.00071208    0.00027404    0.00131571
     atom  136 type  1   force =    -0.00004453   -0.00058899   -0.00008666
     atom  137 type  1   force =     0.00000751   -0.00000944    0.00189895
     atom  138 type  1   force =    -0.00001461   -0.00004700   -0.00010149
     atom  139 type  2   force =     0.00000065    0.00000480   -0.00328033
     atom  140 type  2   force =     0.00000886   -0.00001102   -0.00003712
     atom  141 type  2   force =     0.00005403   -0.00038676   -0.00046339
     atom  142 type  2   force =     0.00002488   -0.00004536    0.00152368
     atom  143 type  2   force =     0.00004841   -0.00004414   -0.00001168
     atom  144 type  2   force =    -0.00041927   -0.00044171    0.00122658
     atom  145 type  3   force =     0.00460681    0.00332047   -0.00067111
     atom  146 type  3   force =    -0.00023372    0.00019812   -0.00131025
     atom  147 type  4   force =    -0.00189371   -0.00103969    0.00087333

     Total force =     0.010865     Total SCF correction =     0.001097
     SCF correction compared to forces is large: reduce conv_thr to get better values
     Energy error            =      1.5E-04 Ry
     Gradient error          =      4.6E-03 Ry/Bohr

     number of scf cycles    =  47
     number of bfgs steps    =  46

     energy             old  =  -27706.4676354427 Ry
     energy             new  =  -27706.4677884156 Ry

     CASE: energy            _new < energy            _old

     new trust radius        =       0.0145905777 bohr
     new conv_thr            =       0.0000000153 Ry


ATOMIC_POSITIONS (angstrom)
Mo               1.5793756979        2.6878245111        6.0708935314
Mo               1.5769197498        0.9104407117       -6.0872367793    0   0   0
Mo               0.0026804973        1.8121125438       -0.0013204828
S                0.0000044503        0.0000077495       -7.6506323570    0   0   0
S                1.5803162718        0.9013764220       -1.5652262108
S               -0.0088355687        1.7908902452        4.5157902371
S                0.0000053241        0.0000068460       -4.5222282367    0   0   0
S                1.5785757764        0.9021268737        1.5671693024
S                0.0133692838        1.8158395936        7.6637196301
Mo               0.0073370524        5.4371296020        6.1272554338
Mo               0.0000011799        3.6417399547       -6.0872367793    0   0   0
Mo              -1.5741741390        4.5435105226       -0.0009946012
S               -1.5769141197        2.7313069925       -7.6506323570    0   0   0
S                0.0038481905        3.6341014230       -1.5658208444
S               -1.5599189582        4.5364732915        4.5531957384
S               -1.5769132459        2.7313060890       -4.5222282367    0   0   0
S                0.0012832908        3.6319710570        1.5662787110
S               -1.6492152167        4.4943778749        7.7102463467
Mo              -1.5921408768        8.1836514431        6.0676567878
Mo              -1.5769173901        6.3730391977       -6.0872367793    0   0   0
Mo              -3.1516955124        7.2746491226        0.0022155478
S               -3.1538326896        5.4626062355       -7.6506323570    0   0   0
S               -1.5742162901        6.3661051510       -1.5637638123
S               -3.1631056843        7.2634150645        4.5066496494
S               -3.1538318159        5.4626053320       -4.5222282367    0   0   0
S               -1.5751209846        6.3625978937        1.5689354063
S               -3.1451102006        7.2639138926        7.6534491576
Mo               3.1639437045       -0.0211947734        6.0680075839
Mo              -3.1538359601        9.1043384407       -6.0872367793    0   0   0
Mo              -4.7282615898       10.0061568993        0.0011976266
S               -4.7307512596        8.1939054785       -7.6506323570    0   0   0
S               -3.1509428417        9.0954741989       -1.5630479954
S               -4.7356200311        9.9963618267        4.5205629476
S               -4.7307503859        8.1939045750       -4.5222282367    0   0   0
S               -3.1523614565        9.0955844563        1.5696595514
S               -4.7116351539        9.9996545533        7.6537935757
Mo               4.7429200800        2.7080416030        6.0435999758
Mo               4.7307503218        0.9104407117       -6.0872367793    0   0   0
Mo               3.1564887756        1.8121299980        0.0007917468
S                3.1538350223        0.0000077495       -7.6506323570    0   0   0
S                4.7321848234        0.8996961546       -1.5650779654
S                3.1535011837        1.7900756369        4.4910373215
S                3.1538358961        0.0000068460       -4.5222282367    0   0   0
S                4.7345336751        0.9024382456        1.5668193574
S                3.1795414078        1.7932226185        7.6279699437
Mo               3.1710942943        5.3976616801        6.0195936942
Mo               3.1538317519        3.6417399547       -6.0872367793    0   0   0
Mo               1.5798193919        4.5434930008        0.0016396280
S                1.5769164523        2.7313069925       -7.6506323570    0   0   0
S                3.1567039386        3.6334246972       -1.5640207004
S                1.5427820626        4.5149966763        4.5195883880
S                1.5769173261        2.7313060890       -4.5222282367    0   0   0
S                3.1568832204        3.6329571787        1.5686999466
S                1.6973279899        4.4666716912        7.6810682604
Mo               1.5548513581        8.1903880334        6.0772423901
Mo               1.5769131819        6.3730391977       -6.0872367793    0   0   0
Mo               0.0027532535        7.2744529726        0.0031644793
S               -0.0000021176        5.4626062355       -7.6506323570    0   0   0
S                1.5796213612        6.3648421057       -1.5625716747
S               -0.0075472121        7.2395122179        4.5345208217
S               -0.0000012439        5.4626053320       -4.5222282367    0   0   0
S                1.5807636057        6.3639104831        1.5701660088
S               -0.0320792754        7.3710694381        7.6769916048
Mo               6.3153732789       -0.0199801301        6.0722774003
Mo              -0.0000053881        9.1043384407       -6.0872367793    0   0   0
Mo              -1.5742656806       10.0053273247        0.0026762544
S               -1.5769206876        8.1939054785       -7.6506323570    0   0   0
S                0.0018070081        9.0947281866       -1.5630370507
S               -1.5697054788        9.9943412120        4.5001332980
S               -1.5769198139        8.1939045750       -4.5222282367    0   0   0
S                0.0041948131        9.0953784534        1.5701309823
S               -1.5740541794       10.0046685506        7.6415109012
Mo               7.8892363829        2.7148326703        6.0679727623
Mo               7.8845808939        0.9104407117       -6.0872367793    0   0   0
Mo               6.3108218011        1.8112292598       -0.0025514468
S                6.3076655943        0.0000077495       -7.6506323570    0   0   0
S                7.8874316975        0.9002608036       -1.5677459494
S                6.3264588999        1.7914888926        4.4935631515
S                6.3076664681        0.0000068460       -4.5222282367    0   0   0
S                7.8888286659        0.9022768612        1.5641494086
S                6.3054504476        1.8080522029        7.6283185843
Mo               6.3195002792        5.4359599411        6.0648744703
Mo               6.3076623239        3.6417399547       -6.0872367793    0   0   0
Mo               4.7340237392        4.5434980191        0.0007806407
S                4.7307470244        2.7313069925       -7.6506323570    0   0   0
S                6.3099300286        3.6332542698       -1.5666495574
S                4.7641645069        4.5245275298        4.4637836612
S                4.7307478981        2.7313060890       -4.5222282367    0   0   0
S                6.3123620695        3.6308150572        1.5644296215
S                4.7439056590        4.5193695931        7.6117915249
Mo               4.7390346357        8.1832149200        6.1093517924
Mo               4.7307437539        6.3730391977       -6.0872367793    0   0   0
Mo               3.1571215838        7.2749773025        0.0019289467
S                3.1538284544        5.4626062355       -7.6506323570    0   0   0
S                4.7333776255        6.3647635996       -1.5643203869
S                3.1685243156        7.2821237104        4.5272683683
S                3.1538293281        5.4626053320       -4.5222282367    0   0   0
S                4.7345507035        6.3644738362        1.5684975908
S                3.0472238556        7.1664801964        7.5983780339
Mo               9.4614745052       -0.0107185343        6.1020841291
Mo               3.1538251839        9.1043384407       -6.0872367793    0   0   0
Mo               1.5801035667       10.0056399599        0.0001238947
S                1.5769098844        8.1939054785       -7.6506323570    0   0   0
S                3.1564829260        9.0946091757       -1.5651212756
S                1.5920591086       10.0030737591        4.5097332913
S                1.5769107581        8.1939045750       -4.5222282367    0   0   0
S                3.1578149304        9.0969693119        1.5677613011
S                1.5751173345       10.0005032709        7.6534600787
Mo              -1.5753753682        2.7036209189        6.0968551812
Mo              11.0384114659        0.9104407117       -6.0872367793    0   0   0
Mo               9.4649932597        1.8118924394       -0.0031576110
S                9.4614961663        0.0000077495       -7.6506323570    0   0   0
S               11.0423921307        0.9012166574       -1.5678263208
S                9.4743535395        1.7961543855        4.5190060884
S                9.4614970401        0.0000068460       -4.5222282367    0   0   0
S               11.0407804221        0.9015060926        1.5651582821
S                9.4447588963        1.8138815831        7.6591263358
Mo              -3.1592685852        5.4469523380        6.0851826719
Mo               9.4614928959        3.6417399547       -6.0872367793    0   0   0
Mo               7.8879486538        4.5428960379       -0.0012791005
S                7.8845775964        2.7313069925       -7.6506323570    0   0   0
S                9.4647770297        3.6337731847       -1.5676814358
S                7.8989461002        4.5371621684        4.4998937722
S                7.8845784701        2.7313060890       -4.5222282367    0   0   0
S                9.4653828407        3.6314475520        1.5657369735
S                7.8776851129        4.5281903327        7.6431125183
Mo              -4.7176167070        8.1759862877        6.0893296941
Mo               7.8845743259        6.3730391977       -6.0872367793    0   0   0
Mo               6.3102995255        7.2750028714        0.0006126092
S                6.3076590264        5.4626062355       -7.6506323570    0   0   0
S                7.8874418174        6.3652769407       -1.5647851888
S                6.3010564383        7.2866037949        4.5390638325
S                6.3076599001        5.4626053320       -4.5222282367    0   0   0
S                7.8857524292        6.3627740102        1.5676932388
S                6.3718601049        7.2221186535        7.6971478694
Mo               0.0118688726       -0.0075618378        6.1024525779
Mo               6.3076557559        9.1043384407       -6.0872367793    0   0   0
Mo               4.7336602517       10.0061648618       -0.0011189968
S                4.7307404564        8.1939054785       -7.6506323570    0   0   0
S                6.3111885926        9.0955739016       -1.5652945150
S                4.7388376500        9.9916669329        4.5591019104
S                4.7307413301        8.1939045750       -4.5222282367    0   0   0
S                6.3092639960        9.0962243224        1.5677456045
S                4.7380331345       10.1030825078        7.7373855981
Pt               2.6846347373        6.2204699916        9.5518078954
Pt               4.5218033684        8.1270665145        8.9669081994
Pd               0.1015545203        5.4467861921        9.0101072284



     Writing config-only to output data dir ./outdir/pwscf.save/ :
     XML data file
     NEW-OLD atomic charge density approx. for the potential

     negative rho (up, down):  9.339E-04 0.000E+00

     total cpu time spent up to now is   258607.9 secs

     Self-consistent Calculation

     iteration #  1     ecut=    77.00 Ry     beta= 0.20
     Davidson diagonalization with overlap
     ethr =  1.00E-06,  avg # of iterations = 10.5

     Threshold (ethr) on eigenvalues was too large:
     Diagonalizing with lowered threshold

     Davidson diagonalization with overlap
