
     Program PWSCF v.7.3 starts on  6Apr2024 at  5:49:26 

     This program is part of the open-source Quantum ESPRESSO suite
     for quantum simulation of materials; please cite
         "P. Giannozzi et al., J. Phys.:Condens. Matter 21 395502 (2009);
         "P. Giannozzi et al., J. Phys.:Condens. Matter 29 465901 (2017);
         "P. Giannozzi et al., J. Chem. Phys. 152 154105 (2020);
          URL http://www.quantum-espresso.org", 
     in publications or presentations arising from this work. More details at
     http://www.quantum-espresso.org/quote

     Parallel version (MPI & OpenMP), running on      36 processor cores
     Number of MPI processes:                36
     Threads/MPI process:                     1

     MPI processes distributed on     1 nodes
     560526 MiB available memory on the printing compute node when the environment starts
 
     Waiting for input...
     Reading input from standard input
Warning: card &CELL ignored
Warning: card / ignored

     Current dimensions of program PWSCF are:
     Max number of different atomic species (ntypx) = 10
     Max number of k-points (npk) =  40000
     Max angular momentum in pseudopotentials (lmaxx) =  4
     file Mo.pbe-spn-kjpaw_psl.1.0.0.UPF: wavefunction(s)  4S 4D renormalized
     file S.pbe-n-kjpaw_psl.1.0.0.UPF: wavefunction(s)  3S 3P renormalized
     file Pd.pbe-spn-kjpaw_psl.1.0.0.UPF: wavefunction(s)  4S 5S 4D renormalized
     file Pt.pbe-spfn-kjpaw_psl.1.0.0.UPF: wavefunction(s)  5P 4F renormalized
 
     R & G space division:  proc/nbgrp/npool/nimage =      36
     Subspace diagonalization in iterative solution of the eigenvalue problem:
     one sub-group per band group will be used
     scalapack distributed-memory algorithm (size of sub-group:  6*  6 procs)

 
     Parallelization info
     --------------------
     sticks:   dense  smooth     PW     G-vecs:    dense   smooth      PW
     Min         585     334     89               198743    85850   11735
     Max         586     335     90               198750    85861   11748
     Sum       21073   12049   3205              7154885  3090769  422587
 
     Using Slab Decomposition
 


     bravais-lattice index     =            0
     lattice parameter (alat)  =      23.8199  a.u.
     unit-cell volume          =   33861.0370 (a.u.)^3
     number of atoms/cell      =          195
     number of atomic types    =            4
     number of electrons       =      1732.00
     number of Kohn-Sham states=         1039
     kinetic-energy cutoff     =      77.0000  Ry
     charge density cutoff     =     539.0000  Ry
     scf convergence threshold =      1.0E-06
     mixing beta               =       0.2000
     number of iterations used =            8  plain     mixing
     energy convergence thresh.=      1.0E-04
     force convergence thresh. =      1.0E-03
     Exchange-correlation= SLA  PW   PBX  PBC
                           (   1   4   3   4   0   0   0)
     nstep                     =         1000


     Effective Screening Medium Method
     =================================
     Boundary Conditions: Vacuum-Slab-Vacuum
     total charge in unit cell        =   0.0000
     grid points for fit at edges     =        4 
 

     celldm(1)=  23.819920  celldm(2)=   0.000000  celldm(3)=   0.000000
     celldm(4)=   0.000000  celldm(5)=   0.000000  celldm(6)=   0.000000

     crystal axes: (cart. coord. in units of alat)
               a(1) = (   1.000000   0.000000   0.000000 )  
               a(2) = (  -0.499999   0.866026   0.000000 )  
               a(3) = (   0.000000   0.000000   2.893000 )  

     reciprocal axes: (cart. coord. in units 2 pi/alat)
               b(1) = (  1.000000  0.577349  0.000000 )  
               b(2) = (  0.000000  1.154700  0.000000 )  
               b(3) = (  0.000000  0.000000  0.345662 )  


     PseudoPot. # 1 for Mo read from file:
     ./pseudo/Mo.pbe-spn-kjpaw_psl.1.0.0.UPF
     MD5 check sum: 317bf72632116215fd98f72de1686f13
     Pseudo is Projector augmented-wave + core cor, Zval = 14.0
     Generated using 'atomic' code by A. Dal Corso  v.7.2
     Shape of augmentation charge: PSQ
     Using radial grid of 1229 points,  6 beta functions with: 
                l(1) =   0
                l(2) =   0
                l(3) =   1
                l(4) =   1
                l(5) =   2
                l(6) =   2
     Q(r) pseudized with 0 coefficients 


     PseudoPot. # 2 for S  read from file:
     ./pseudo/S.pbe-n-kjpaw_psl.1.0.0.UPF
     MD5 check sum: 8b7b5302570d38d5e87fed6a1065abda
     Pseudo is Projector augmented-wave + core cor, Zval =  6.0
     Generated using 'atomic' code by A. Dal Corso  v.7.2
     Shape of augmentation charge: PSQ
     Using radial grid of 1151 points,  6 beta functions with: 
                l(1) =   0
                l(2) =   0
                l(3) =   1
                l(4) =   1
                l(5) =   2
                l(6) =   2
     Q(r) pseudized with 0 coefficients 


     PseudoPot. # 3 for Pd read from file:
     ./pseudo/Pd.pbe-spn-kjpaw_psl.1.0.0.UPF
     MD5 check sum: a60571a671f2502b8a6a4569d20a6edb
     Pseudo is Projector augmented-wave + core cor, Zval = 18.0
     Generated using 'atomic' code by A. Dal Corso  v.7.2
     Shape of augmentation charge: PSQ
     Using radial grid of 1235 points,  6 beta functions with: 
                l(1) =   0
                l(2) =   0
                l(3) =   1
                l(4) =   1
                l(5) =   2
                l(6) =   2
     Q(r) pseudized with 0 coefficients 


     PseudoPot. # 4 for Pt read from file:
     ./pseudo/Pt.pbe-spfn-kjpaw_psl.1.0.0.UPF
     MD5 check sum: 620096ebf4e6ebacc94de60fd67efcb5
     Pseudo is Projector augmented-wave + core cor, Zval = 32.0
     Generated using 'atomic' code by A. Dal Corso  v.7.2
     Shape of augmentation charge: PSQ
     Using radial grid of 1277 points,  8 beta functions with: 
                l(1) =   0
                l(2) =   0
                l(3) =   1
                l(4) =   1
                l(5) =   2
                l(6) =   2
                l(7) =   3
                l(8) =   3
     Q(r) pseudized with 0 coefficients 


     atomic species   valence    mass     pseudopotential
     Mo               14.00    95.95000     Mo( 1.00)
     S                 6.00    32.06000     S ( 1.00)
     Pd               18.00   106.42000     Pd( 1.00)
     Pt               32.00   195.08400     Pt( 1.00)

     No symmetry found



   Cartesian axes

     site n.     atom                  positions (alat units)
         1        Mo     tau(   1) = (   0.0000010   0.1443372  -0.7272732  )
         2        Mo     tau(   2) = (   0.1249995   0.0721706  -0.2424038  )
         3        S      tau(   3) = (   0.0000015   0.1443386  -0.3667807  )
         4        S      tau(   4) = (   0.1250010   0.0721682  -0.6030489  )
         5        S      tau(   5) = (   0.1250010   0.0721683  -0.8514963  )
         6        S      tau(   6) = (   0.0000015   0.1443389  -0.1180260  )
         7        Mo     tau(   7) = (   0.0000222   0.1444187   0.2425595  )
         8        Mo     tau(   8) = (   0.1245966   0.0727010   0.7278826  )
         9        S      tau(   9) = (   0.0000166   0.1448419   0.6020343  )
        10        S      tau(  10) = (   0.1250561   0.0722903   0.3669179  )
        11        S      tau(  11) = (   0.1250140   0.0722444   0.1181576  )
        12        S      tau(  12) = (  -0.0013476   0.1442175   0.8515296  )
        13        Mo     tau(  13) = (  -0.1249989   0.3608437  -0.7272732  )
        14        Mo     tau(  14) = (   0.0000030   0.2886752  -0.2424042  )
        15        S      tau(  15) = (  -0.1249977   0.3608450  -0.3667802  )
        16        S      tau(  16) = (   0.0000012   0.2886747  -0.6030489  )
        17        S      tau(  17) = (   0.0000012   0.2886748  -0.8514963  )
        18        S      tau(  18) = (  -0.1249977   0.3608454  -0.1180274  )
        19        Mo     tau(  19) = (  -0.1249777   0.3609089   0.2425603  )
        20        Mo     tau(  20) = (  -0.0029637   0.2882853   0.7270120  )
        21        S      tau(  21) = (  -0.1256983   0.3625185   0.6019747  )
        22        S      tau(  22) = (   0.0000591   0.2887797   0.3669668  )
        23        S      tau(  23) = (   0.0000075   0.2887346   0.1181682  )
        24        S      tau(  24) = (  -0.1270233   0.3617098   0.8514678  )
        25        Mo     tau(  25) = (  -0.2499987   0.5773502  -0.7272732  )
        26        Mo     tau(  26) = (  -0.1249977   0.5051839  -0.2424055  )
        27        S      tau(  27) = (  -0.2499981   0.5773518  -0.3667809  )
        28        S      tau(  28) = (  -0.1249986   0.5051812  -0.6030489  )
        29        S      tau(  29) = (  -0.1249986   0.5051813  -0.8514963  )
        30        S      tau(  30) = (  -0.2499979   0.5773512  -0.1180266  )
        31        Mo     tau(  31) = (  -0.2499821   0.5774144   0.2425369  )
        32        Mo     tau(  32) = (  -0.1258229   0.5064885   0.7278520  )
        33        S      tau(  33) = (  -0.2493952   0.5788088   0.6023234  )
        34        S      tau(  34) = (  -0.1249462   0.5052707   0.3669162  )
        35        S      tau(  35) = (  -0.1249880   0.5052329   0.1181602  )
        36        S      tau(  36) = (  -0.2509230   0.5788413   0.8515814  )
        37        Mo     tau(  37) = (  -0.3749985   0.7938567  -0.7272732  )
        38        Mo     tau(  38) = (  -0.2500001   0.7216874  -0.2424031  )
        39        S      tau(  39) = (  -0.3749980   0.7938584  -0.3667800  )
        40        S      tau(  40) = (  -0.2499984   0.7216877  -0.6030489  )
        41        S      tau(  41) = (  -0.2499984   0.7216878  -0.8514963  )
        42        S      tau(  42) = (  -0.3749982   0.7938585  -0.1180264  )
        43        Mo     tau(  43) = (  -0.3749910   0.7939458   0.2425394  )
        44        Mo     tau(  44) = (  -0.2499391   0.7230231   0.7269923  )
        45        S      tau(  45) = (  -0.3746478   0.7955125   0.6023635  )
        46        S      tau(  46) = (  -0.2500018   0.7217675   0.3668983  )
        47        S      tau(  47) = (  -0.2499845   0.7217593   0.1181709  )
        48        S      tau(  48) = (  -0.3753625   0.7942039   0.8516391  )
        49        Mo     tau(  49) = (   0.2500010   0.1443372  -0.7272732  )
        50        Mo     tau(  50) = (   0.3750034   0.0721723  -0.2424032  )
        51        S      tau(  51) = (   0.2500017   0.1443391  -0.3667788  )
        52        S      tau(  52) = (   0.3750010   0.0721682  -0.6030489  )
        53        S      tau(  53) = (   0.3750010   0.0721683  -0.8514963  )
        54        S      tau(  54) = (   0.2500016   0.1443391  -0.1180271  )
        55        Mo     tau(  55) = (   0.2500120   0.1444423   0.2425270  )
        56        Mo     tau(  56) = (   0.3753385   0.0727176   0.7280385  )
        57        S      tau(  57) = (   0.2501061   0.1471948   0.6059873  )
        58        S      tau(  58) = (   0.3749665   0.0722824   0.3669588  )
        59        S      tau(  59) = (   0.3750194   0.0722259   0.1181828  )
        60        S      tau(  60) = (   0.2503224   0.1381707   0.8567863  )
        61        Mo     tau(  61) = (   0.1250012   0.3608437  -0.7272732  )
        62        Mo     tau(  62) = (   0.2500029   0.2886782  -0.2424031  )
        63        S      tau(  63) = (   0.1250024   0.3608455  -0.3667794  )
        64        S      tau(  64) = (   0.2500012   0.2886747  -0.6030489  )
        65        S      tau(  65) = (   0.2500012   0.2886748  -0.8514963  )
        66        S      tau(  66) = (   0.1250021   0.3608455  -0.1180270  )
        67        Mo     tau(  67) = (   0.1250146   0.3609220   0.2425310  )
        68        Mo     tau(  68) = (   0.2504060   0.2889449   0.7322230  )
        69        S      tau(  69) = (   0.1260377   0.3627995   0.6088284  )
        70        S      tau(  70) = (   0.2499668   0.2887692   0.3669710  )
        71        S      tau(  71) = (   0.2500114   0.2887581   0.1181457  )
        72        S      tau(  72) = (   0.1159817   0.3569446   0.8558923  )
        73        Mo     tau(  73) = (   0.0000014   0.5773502  -0.7272732  )
        74        Mo     tau(  74) = (   0.1250045   0.5051840  -0.2424036  )
        75        S      tau(  75) = (   0.0000030   0.5773520  -0.3667799  )
        76        S      tau(  76) = (   0.1250014   0.5051812  -0.6030489  )
        77        S      tau(  77) = (   0.1250014   0.5051813  -0.8514963  )
        78        S      tau(  78) = (   0.0000026   0.5773517  -0.1180274  )
        79        Mo     tau(  79) = (   0.0000277   0.5774027   0.2425352  )
        80        Mo     tau(  80) = (   0.1244123   0.5073284   0.7323387  )
        81        S      tau(  81) = (   0.0015839   0.5778224   0.6060731  )
        82        S      tau(  82) = (   0.1249885   0.5052105   0.3669878  )
        83        S      tau(  83) = (   0.1250163   0.5052440   0.1181546  )
        84        S      tau(  84) = (  -0.0063306   0.5826378   0.8568465  )
        85        Mo     tau(  85) = (  -0.1249984   0.7938567  -0.7272732  )
        86        Mo     tau(  86) = (   0.0000069   0.7216896  -0.2424039  )
        87        S      tau(  87) = (  -0.1249975   0.7938582  -0.3667782  )
        88        S      tau(  88) = (   0.0000016   0.7216877  -0.6030489  )
        89        S      tau(  89) = (   0.0000016   0.7216878  -0.8514963  )
        90        S      tau(  90) = (  -0.1249973   0.7938582  -0.1180279  )
        91        Mo     tau(  91) = (  -0.1249896   0.7939312   0.2425787  )
        92        Mo     tau(  92) = (  -0.0004661   0.7235602   0.7280479  )
        93        S      tau(  93) = (  -0.1246539   0.7952907   0.6028036  )
        94        S      tau(  94) = (   0.0000057   0.7217075   0.3669682  )
        95        S      tau(  95) = (  -0.0000058   0.7217536   0.1181837  )
        96        S      tau(  96) = (  -0.1254262   0.7948489   0.8523899  )
        97        Mo     tau(  97) = (   0.5000010   0.1443372  -0.7272732  )
        98        Mo     tau(  98) = (   0.6250001   0.0721662  -0.2424040  )
        99        S      tau(  99) = (   0.5000017   0.1443386  -0.3667801  )
       100        S      tau( 100) = (   0.6250010   0.0721682  -0.6030489  )
       101        S      tau( 101) = (   0.6250010   0.0721683  -0.8514963  )
       102        S      tau( 102) = (   0.5000020   0.1443388  -0.1180261  )
       103        Mo     tau( 103) = (   0.4999896   0.1444085   0.2425760  )
       104        Mo     tau( 104) = (   0.6249106   0.0734024   0.7271439  )
       105        S      tau( 105) = (   0.4997403   0.1454705   0.6028629  )
       106        S      tau( 106) = (   0.6250025   0.0722337   0.3669107  )
       107        S      tau( 107) = (   0.6249747   0.0722025   0.1181744  )
       108        S      tau( 108) = (   0.5004717   0.1456393   0.8518204  )
       109        Mo     tau( 109) = (   0.3750012   0.3608437  -0.7272732  )
       110        Mo     tau( 110) = (   0.4999991   0.2886761  -0.2424038  )
       111        S      tau( 111) = (   0.3750012   0.3608452  -0.3667804  )
       112        S      tau( 112) = (   0.5000012   0.2886747  -0.6030489  )
       113        S      tau( 113) = (   0.5000012   0.2886748  -0.8514963  )
       114        S      tau( 114) = (   0.3750014   0.3608455  -0.1180261  )
       115        Mo     tau( 115) = (   0.3749750   0.3609148   0.2425684  )
       116        Mo     tau( 116) = (   0.5011524   0.2898551   0.7275448  )
       117        S      tau( 117) = (   0.3735446   0.3613798   0.6062215  )
       118        S      tau( 118) = (   0.4999580   0.2887676   0.3669508  )
       119        S      tau( 119) = (   0.4999841   0.2887256   0.1181818  )
       120        S      tau( 120) = (   0.3822446   0.3659056   0.8554316  )
       121        Mo     tau( 121) = (   0.2500014   0.5773502  -0.7272732  )
       122        Mo     tau( 122) = (   0.3749983   0.5051825  -0.2424043  )
       123        S      tau( 123) = (   0.2500017   0.5773519  -0.3667810  )
       124        S      tau( 124) = (   0.3750014   0.5051812  -0.6030489  )
       125        S      tau( 125) = (   0.3750014   0.5051813  -0.8514963  )
       126        S      tau( 126) = (   0.2500018   0.5773519  -0.1180256  )
       127        Mo     tau( 127) = (   0.2499849   0.5773839   0.2425825  )
       128        Mo     tau( 128) = (   0.3768766   0.5074715   0.7281761  )
       129        S      tau( 129) = (   0.2486635   0.5776965   0.6062935  )
       130        S      tau( 130) = (   0.3749671   0.5052274   0.3670086  )
       131        S      tau( 131) = (   0.3749970   0.5052445   0.1181960  )
       132        S      tau( 132) = (   0.2571816   0.5830870   0.8554758  )
       133        Mo     tau( 133) = (   0.1250016   0.7938567  -0.7272732  )
       134        Mo     tau( 134) = (   0.2499995   0.7216883  -0.2424036  )
       135        S      tau( 135) = (   0.1250024   0.7938578  -0.3667813  )
       136        S      tau( 136) = (   0.2500016   0.7216877  -0.6030489  )
       137        S      tau( 137) = (   0.2500016   0.7216878  -0.8514963  )
       138        S      tau( 138) = (   0.1250024   0.7938579  -0.1180253  )
       139        Mo     tau( 139) = (   0.1249925   0.7938982   0.2425783  )
       140        Mo     tau( 140) = (   0.2504874   0.7240318   0.7276005  )
       141        S      tau( 141) = (   0.1247502   0.7949264   0.6029133  )
       142        S      tau( 142) = (   0.2499928   0.7217086   0.3669584  )
       143        S      tau( 143) = (   0.2499817   0.7217168   0.1181890  )
       144        S      tau( 144) = (   0.1251679   0.7955203   0.8518202  )
       145        Mo     tau( 145) = (   0.7500010   0.1443372  -0.7272732  )
       146        Mo     tau( 146) = (   0.8750038   0.0721696  -0.2424038  )
       147        S      tau( 147) = (   0.7500016   0.1443382  -0.3667789  )
       148        S      tau( 148) = (   0.8750010   0.0721682  -0.6030489  )
       149        S      tau( 149) = (   0.8750010   0.0721683  -0.8514963  )
       150        S      tau( 150) = (   0.7500016   0.1443384  -0.1180279  )
       151        Mo     tau( 151) = (   0.7499969   0.1443861   0.2425090  )
       152        Mo     tau( 152) = (   0.8747528   0.0730779   0.7263799  )
       153        S      tau( 153) = (   0.7495020   0.1453181   0.6020842  )
       154        S      tau( 154) = (   0.8749912   0.0722441   0.3668818  )
       155        S      tau( 155) = (   0.8750227   0.0722127   0.1181591  )
       156        S      tau( 156) = (   0.7499182   0.1456588   0.8509527  )
       157        Mo     tau( 157) = (   0.6250012   0.3608437  -0.7272732  )
       158        Mo     tau( 158) = (   0.7500028   0.2886769  -0.2424041  )
       159        S      tau( 159) = (   0.6250015   0.3608451  -0.3667792  )
       160        S      tau( 160) = (   0.7500012   0.2886747  -0.6030489  )
       161        S      tau( 161) = (   0.7500012   0.2886748  -0.8514963  )
       162        S      tau( 162) = (   0.6250016   0.3608454  -0.1180280  )
       163        Mo     tau( 163) = (   0.6249910   0.3608952   0.2425431  )
       164        Mo     tau( 164) = (   0.7494837   0.2899696   0.7262894  )
       165        S      tau( 165) = (   0.6246231   0.3621365   0.6018551  )
       166        S      tau( 166) = (   0.7500034   0.2887135   0.3668814  )
       167        S      tau( 167) = (   0.7500079   0.2887338   0.1181595  )
       168        S      tau( 168) = (   0.6260048   0.3625460   0.8512927  )
       169        Mo     tau( 169) = (   0.5000014   0.5773502  -0.7272732  )
       170        Mo     tau( 170) = (   0.6250029   0.5051841  -0.2424047  )
       171        S      tau( 171) = (   0.5000014   0.5773518  -0.3667794  )
       172        S      tau( 172) = (   0.6250014   0.5051812  -0.6030489  )
       173        S      tau( 173) = (   0.6250014   0.5051813  -0.8514963  )
       174        S      tau( 174) = (   0.5000016   0.5773516  -0.1180277  )
       175        Mo     tau( 175) = (   0.4999891   0.5774067   0.2425764  )
       176        Mo     tau( 176) = (   0.6253058   0.5066864   0.7263366  )
       177        S      tau( 177) = (   0.5001147   0.5786992   0.6018768  )
       178        S      tau( 178) = (   0.6250219   0.5052389   0.3668960  )
       179        S      tau( 179) = (   0.6249897   0.5052360   0.1181749  )
       180        S      tau( 180) = (   0.5022411   0.5798745   0.8515808  )
       181        Mo     tau( 181) = (   0.3750016   0.7938567  -0.7272732  )
       182        Mo     tau( 182) = (   0.5000025   0.7216901  -0.2424039  )
       183        S      tau( 183) = (   0.3750019   0.7938578  -0.3667793  )
       184        S      tau( 184) = (   0.5000016   0.7216877  -0.6030489  )
       185        S      tau( 185) = (   0.5000016   0.7216878  -0.8514963  )
       186        S      tau( 186) = (   0.3750020   0.7938579  -0.1180272  )
       187        Mo     tau( 187) = (   0.3749890   0.7939067   0.2425443  )
       188        Mo     tau( 188) = (   0.5002702   0.7230996   0.7264112  )
       189        S      tau( 189) = (   0.3747820   0.7948530   0.6019718  )
       190        S      tau( 190) = (   0.5000014   0.7217825   0.3669010  )
       191        S      tau( 191) = (   0.5000049   0.7217309   0.1181759  )
       192        S      tau( 192) = (   0.3757788   0.7958654   0.8513800  )
       193        Pd     tau( 193) = (   0.1298567   0.5028633   0.9631584  )
       194        Pd     tau( 194) = (   0.2489715   0.2959876   0.9631435  )
       195        Pt     tau( 195) = (   0.2504570   0.7240008   0.9744578  )

     --------------------------------------------
     DFT-D3 Dispersion Correction (3-body terms):
     --------------------------------------------
       Reference C6 values for interpolation: 

         atom   Coordination number   C6
         S          0.000           268.01
         S          0.995           261.99
         S          1.990           251.62
         Mo         0.000          1691.79
         Mo         1.942          1004.01
         Mo        11.056           674.22
         Pd         0.000          1217.01
         Pd         1.863           573.90
         Pd         5.710           531.75
         Pt         0.000           782.29
         Pt         1.919           692.72
         Pt         6.667           673.75

       Values used:

         atom   Coordination number  R0_AB[au]  C6      C8
         Mo        10.208            3.547    674.22  77634.20
         Mo        10.221            3.547    674.22  77634.20
         S          3.858            3.128    251.62  12327.25
         S          3.859            3.128    251.62  12327.25
         S          3.758            3.128    251.62  12327.25
         S          3.859            3.128    251.62  12327.25
         Mo        10.220            3.547    674.22  77634.20
         Mo        10.222            3.547    674.22  77634.20
         S          3.841            3.128    251.62  12327.25
         S          3.858            3.128    251.62  12327.25
         S          3.858            3.128    251.62  12327.25
         S          3.815            3.128    251.62  12327.25
         Mo        10.208            3.547    674.22  77634.20
         Mo        10.221            3.547    674.22  77634.20
         S          3.858            3.128    251.62  12327.25
         S          3.859            3.128    251.62  12327.25
         S          3.758            3.128    251.62  12327.25
         S          3.859            3.128    251.62  12327.25
         Mo        10.220            3.547    674.22  77634.20
         Mo        10.181            3.547    674.22  77634.20
         S          3.842            3.128    251.62  12327.25
         S          3.854            3.128    251.62  12327.25
         S          3.858            3.128    251.62  12327.25
         S          3.816            3.128    251.62  12327.25
         Mo        10.208            3.547    674.22  77634.20
         Mo        10.221            3.547    674.22  77634.20
         S          3.858            3.128    251.62  12327.25
         S          3.859            3.128    251.62  12327.25
         S          3.758            3.128    251.62  12327.25
         S          3.859            3.128    251.62  12327.25
         Mo        10.219            3.547    674.22  77634.20
         Mo        10.223            3.547    674.22  77634.20
         S          3.850            3.128    251.62  12327.25
         S          3.858            3.128    251.62  12327.25
         S          3.858            3.128    251.62  12327.25
         S          3.817            3.128    251.62  12327.25
         Mo        10.208            3.547    674.22  77634.20
         Mo        10.220            3.547    674.22  77634.20
         S          3.858            3.128    251.62  12327.25
         S          3.859            3.128    251.62  12327.25
         S          3.758            3.128    251.62  12327.25
         S          3.859            3.128    251.62  12327.25
         Mo        10.219            3.547    674.22  77634.20
         Mo        10.251            3.547    674.22  77634.20
         S          3.851            3.128    251.62  12327.25
         S          3.860            3.128    251.62  12327.25
         S          3.859            3.128    251.62  12327.25
         S          3.815            3.128    251.62  12327.25
         Mo        10.208            3.547    674.22  77634.20
         Mo        10.221            3.547    674.22  77634.20
         S          3.858            3.128    251.62  12327.25
         S          3.859            3.128    251.62  12327.25
         S          3.758            3.128    251.62  12327.25
         S          3.859            3.128    251.62  12327.25
         Mo        10.221            3.547    674.22  77634.20
         Mo        10.228            3.547    674.22  77634.20
         S          3.853            3.128    251.62  12327.25
         S          3.856            3.128    251.62  12327.25
         S          3.859            3.128    251.62  12327.25
         S          4.644            3.128    251.62  12327.25
         Mo        10.208            3.547    674.22  77634.20
         Mo        10.221            3.547    674.22  77634.20
         S          3.858            3.128    251.62  12327.25
         S          3.859            3.128    251.62  12327.25
         S          3.758            3.128    251.62  12327.25
         S          3.859            3.128    251.62  12327.25
         Mo        10.222            3.547    674.22  77634.20
         Mo        10.783            3.547    674.22  77634.20
         S          3.877            3.128    251.62  12327.25
         S          3.850            3.128    251.62  12327.25
         S          3.859            3.128    251.62  12327.25
         S          5.608            3.128    251.62  12327.25
         Mo        10.208            3.547    674.22  77634.20
         Mo        10.221            3.547    674.22  77634.20
         S          3.858            3.128    251.62  12327.25
         S          3.859            3.128    251.62  12327.25
         S          3.758            3.128    251.62  12327.25
         S          3.859            3.128    251.62  12327.25
         Mo        10.221            3.547    674.22  77634.20
         Mo        10.794            3.547    674.22  77634.20
         S          3.855            3.128    251.62  12327.25
         S          3.849            3.128    251.62  12327.25
         S          3.859            3.128    251.62  12327.25
         S          4.655            3.128    251.62  12327.25
         Mo        10.208            3.547    674.22  77634.20
         Mo        10.221            3.547    674.22  77634.20
         S          3.858            3.128    251.62  12327.25
         S          3.859            3.128    251.62  12327.25
         S          3.758            3.128    251.62  12327.25
         S          3.859            3.128    251.62  12327.25
         Mo        10.220            3.547    674.22  77634.20
         Mo        10.238            3.547    674.22  77634.20
         S          3.847            3.128    251.62  12327.25
         S          3.855            3.128    251.62  12327.25
         S          3.859            3.128    251.62  12327.25
         S          3.828            3.128    251.62  12327.25
         Mo        10.208            3.547    674.22  77634.20
         Mo        10.221            3.547    674.22  77634.20
         S          3.858            3.128    251.62  12327.25
         S          3.859            3.128    251.62  12327.25
         S          3.758            3.128    251.62  12327.25
         S          3.859            3.128    251.62  12327.25
         Mo        10.221            3.547    674.22  77634.20
         Mo        10.252            3.547    674.22  77634.20
         S          3.860            3.128    251.62  12327.25
         S          3.860            3.128    251.62  12327.25
         S          3.859            3.128    251.62  12327.25
         S          3.766            3.128    251.62  12327.25
         Mo        10.208            3.547    674.22  77634.20
         Mo        10.221            3.547    674.22  77634.20
         S          3.858            3.128    251.62  12327.25
         S          3.859            3.128    251.62  12327.25
         S          3.758            3.128    251.62  12327.25
         S          3.859            3.128    251.62  12327.25
         Mo        10.222            3.547    674.22  77634.20
         Mo        10.216            3.547    674.22  77634.20
         S          3.862            3.128    251.62  12327.25
         S          3.856            3.128    251.62  12327.25
         S          3.859            3.128    251.62  12327.25
         S          4.668            3.128    251.62  12327.25
         Mo        10.208            3.547    674.22  77634.20
         Mo        10.221            3.547    674.22  77634.20
         S          3.858            3.128    251.62  12327.25
         S          3.859            3.128    251.62  12327.25
         S          3.758            3.128    251.62  12327.25
         S          3.859            3.128    251.62  12327.25
         Mo        10.222            3.547    674.22  77634.20
         Mo        10.186            3.547    674.22  77634.20
         S          3.864            3.128    251.62  12327.25
         S          3.852            3.128    251.62  12327.25
         S          3.859            3.128    251.62  12327.25
         S          5.642            3.128    251.62  12327.25
         Mo        10.208            3.547    674.21  77634.20
         Mo        10.221            3.547    674.22  77634.20
         S          3.858            3.128    251.62  12327.25
         S          3.859            3.128    251.62  12327.25
         S          3.758            3.128    251.62  12327.25
         S          3.859            3.128    251.62  12327.25
         Mo        10.221            3.547    674.22  77634.20
         Mo        10.760            3.547    674.22  77634.20
         S          3.861            3.128    251.62  12327.25
         S          3.856            3.128    251.62  12327.25
         S          3.859            3.128    251.62  12327.25
         S          4.723            3.128    251.62  12327.25
         Mo        10.208            3.547    674.22  77634.20
         Mo        10.221            3.547    674.22  77634.20
         S          3.858            3.128    251.62  12327.25
         S          3.859            3.128    251.62  12327.25
         S          3.758            3.128    251.62  12327.25
         S          3.859            3.128    251.62  12327.25
         Mo        10.220            3.547    674.22  77634.20
         Mo        10.276            3.547    674.22  77634.20
         S          3.858            3.128    251.62  12327.25
         S          3.862            3.128    251.62  12327.25
         S          3.858            3.128    251.62  12327.25
         S          3.793            3.128    251.62  12327.25
         Mo        10.208            3.547    674.22  77634.20
         Mo        10.220            3.547    674.22  77634.20
         S          3.858            3.128    251.62  12327.25
         S          3.859            3.128    251.62  12327.25
         S          3.758            3.128    251.62  12327.25
         S          3.859            3.128    251.62  12327.25
         Mo        10.220            3.547    674.22  77634.20
         Mo        10.268            3.547    674.22  77634.20
         S          3.850            3.128    251.62  12327.25
         S          3.862            3.128    251.62  12327.25
         S          3.858            3.128    251.62  12327.25
         S          3.813            3.128    251.62  12327.25
         Mo        10.208            3.547    674.21  77634.20
         Mo        10.221            3.547    674.22  77634.20
         S          3.858            3.128    251.62  12327.25
         S          3.859            3.128    251.62  12327.25
         S          3.758            3.128    251.62  12327.25
         S          3.859            3.128    251.62  12327.25
         Mo        10.220            3.547    674.22  77634.20
         Mo        10.263            3.547    674.22  77634.20
         S          3.838            3.128    251.62  12327.25
         S          3.861            3.128    251.62  12327.25
         S          3.859            3.128    251.62  12327.25
         S          3.852            3.128    251.62  12327.25
         Mo        10.208            3.547    674.22  77634.20
         Mo        10.221            3.547    674.22  77634.20
         S          3.858            3.128    251.62  12327.25
         S          3.859            3.128    251.62  12327.25
         S          3.758            3.128    251.62  12327.25
         S          3.859            3.128    251.62  12327.25
         Mo        10.220            3.547    674.22  77634.20
         Mo        10.271            3.547    674.22  77634.20
         S          3.851            3.128    251.62  12327.25
         S          3.861            3.128    251.62  12327.25
         S          3.859            3.128    251.62  12327.25
         S          4.768            3.128    251.62  12327.25
         Pd         4.271            3.168    531.75  48720.73
         Pd         4.045            3.168    531.76  48722.00
         Pt         3.770            3.168    692.72  72035.25

         Molecular C6 ( Ry / a.u.^6 ) =  14152459.62


     number of k points=     4  Gaussian smearing, width (Ry)=  0.0100
                       cart. coord. in units 2pi/alat
        k(    1) = (   0.0000000   0.0000000   0.0000000), wk =   0.5000000
        k(    2) = (   0.0000000  -0.5773499   0.0000000), wk =   0.5000000
        k(    3) = (  -0.5000000  -0.2886744   0.0000000), wk =   0.5000000
        k(    4) = (  -0.5000000  -0.8660242   0.0000000), wk =   0.5000000

     Dense  grid:  7154885 G-vectors     FFT dimensions: ( 180, 180, 512)

     Smooth grid:  3090769 G-vectors     FFT dimensions: ( 135, 135, 400)

     Estimated max dynamical RAM per process >       4.32 GB

     Estimated total dynamical RAM >     155.52 GB

     Initial potential from superposition of free atoms

     starting charge    1731.9386, renormalised to    1732.0000

     negative rho (up, down):  1.015E-03 0.000E+00
     Starting wfcs are 1189 randomized atomic wfcs
     Checking if some PAW data can be deallocated... 

     total cpu time spent up to now is      179.0 secs

     Self-consistent Calculation

     iteration #  1     ecut=    77.00 Ry     beta= 0.20
     Davidson diagonalization with overlap
     ethr =  1.00E-02,  avg # of iterations =  2.0

     Threshold (ethr) on eigenvalues was too large:
     Diagonalizing with lowered threshold

     Davidson diagonalization with overlap
     ethr =  2.00E-04,  avg # of iterations = 17.0

     negative rho (up, down):  2.820E-04 0.000E+00

     total cpu time spent up to now is     2084.0 secs

     total energy              =  -34492.07018544 Ry
     estimated scf accuracy    <       6.44847826 Ry

     iteration #  2     ecut=    77.00 Ry     beta= 0.20
     Davidson diagonalization with overlap
     ethr =  3.72E-04,  avg # of iterations =  2.0

     negative rho (up, down):  4.009E-05 0.000E+00

     total cpu time spent up to now is     2492.9 secs

     total energy              =  -34491.00297153 Ry
     estimated scf accuracy    <       3.27817704 Ry

     iteration #  3     ecut=    77.00 Ry     beta= 0.20
     Davidson diagonalization with overlap
     ethr =  1.89E-04,  avg # of iterations = 12.5

     negative rho (up, down):  1.993E-05 0.000E+00

     total cpu time spent up to now is     2991.1 secs

     total energy              =  -34491.31374809 Ry
     estimated scf accuracy    <       1.08035049 Ry

     iteration #  4     ecut=    77.00 Ry     beta= 0.20
     Davidson diagonalization with overlap
     ethr =  6.24E-05,  avg # of iterations = 14.0

     negative rho (up, down):  2.280E-05 0.000E+00

     total cpu time spent up to now is     3902.4 secs

     total energy              =  -34491.88690489 Ry
     estimated scf accuracy    <       0.33954854 Ry

     iteration #  5     ecut=    77.00 Ry     beta= 0.20
     Davidson diagonalization with overlap
     c_bands:  1 eigenvalues not converged
     ethr =  1.96E-05,  avg # of iterations = 16.2

     negative rho (up, down):  4.432E-05 0.000E+00

     total cpu time spent up to now is     4818.1 secs

     total energy              =  -34492.15366025 Ry
     estimated scf accuracy    <       0.15458048 Ry

     iteration #  6     ecut=    77.00 Ry     beta= 0.20
     Davidson diagonalization with overlap
     c_bands:  1 eigenvalues not converged
     c_bands:  2 eigenvalues not converged
     ethr =  8.92E-06,  avg # of iterations = 18.8

     negative rho (up, down):  1.479E-04 0.000E+00

     total cpu time spent up to now is     5637.1 secs

     total energy              =  -34492.18702067 Ry
     estimated scf accuracy    <       0.10638000 Ry

     iteration #  7     ecut=    77.00 Ry     beta= 0.20
     Davidson diagonalization with overlap
     ethr =  6.14E-06,  avg # of iterations = 16.2

     negative rho (up, down):  8.239E-04 0.000E+00

     total cpu time spent up to now is     6203.1 secs

     total energy              =  -34492.19355850 Ry
     estimated scf accuracy    <       0.04807348 Ry

     iteration #  8     ecut=    77.00 Ry     beta= 0.20
     Davidson diagonalization with overlap
     c_bands:  4 eigenvalues not converged
     c_bands:  4 eigenvalues not converged
     c_bands:  4 eigenvalues not converged
     c_bands:  4 eigenvalues not converged
     ethr =  2.78E-06,  avg # of iterations = 30.0

     negative rho (up, down):  5.949E-04 0.000E+00

     total cpu time spent up to now is     7464.3 secs

     total energy              =  -34492.21645735 Ry
     estimated scf accuracy    <       0.05631451 Ry

     iteration #  9     ecut=    77.00 Ry     beta= 0.20
     Davidson diagonalization with overlap
     c_bands:  2 eigenvalues not converged
     c_bands:  3 eigenvalues not converged
     c_bands:  2 eigenvalues not converged
     ethr =  2.78E-06,  avg # of iterations = 17.0

     negative rho (up, down):  4.896E-04 0.000E+00

     total cpu time spent up to now is     7942.8 secs

     total energy              =  -34492.21620486 Ry
     estimated scf accuracy    <       0.00867587 Ry

     iteration # 10     ecut=    77.00 Ry     beta= 0.20
     Davidson diagonalization with overlap
     c_bands:  5 eigenvalues not converged
     c_bands:  4 eigenvalues not converged
     c_bands:  1 eigenvalues not converged
     c_bands:  4 eigenvalues not converged
     ethr =  5.01E-07,  avg # of iterations = 65.0

     negative rho (up, down):  5.481E-04 0.000E+00

     total cpu time spent up to now is    10452.4 secs

     total energy              =  -34492.23712366 Ry
     estimated scf accuracy    <       0.01974725 Ry

     iteration # 11     ecut=    77.00 Ry     beta= 0.20
     Davidson diagonalization with overlap
     c_bands:  1 eigenvalues not converged
     c_bands:  1 eigenvalues not converged
     c_bands:  1 eigenvalues not converged
     ethr =  5.01E-07,  avg # of iterations = 18.2

     negative rho (up, down):  7.784E-04 0.000E+00

     total cpu time spent up to now is    10920.2 secs

     total energy              =  -34492.22969333 Ry
     estimated scf accuracy    <       0.01312983 Ry

     iteration # 12     ecut=    77.00 Ry     beta= 0.20
     Davidson diagonalization with overlap
     c_bands:  2 eigenvalues not converged
     ethr =  5.01E-07,  avg # of iterations =  8.8

     negative rho (up, down):  8.100E-04 0.000E+00

     total cpu time spent up to now is    11548.9 secs

     total energy              =  -34492.23268440 Ry
     estimated scf accuracy    <       0.00064017 Ry

     iteration # 13     ecut=    77.00 Ry     beta= 0.20
     Davidson diagonalization with overlap
     c_bands:  1 eigenvalues not converged
     ethr =  3.70E-08,  avg # of iterations = 19.0

     negative rho (up, down):  7.970E-04 0.000E+00

     total cpu time spent up to now is    13537.6 secs

     total energy              =  -34492.23490505 Ry
     estimated scf accuracy    <       0.00105989 Ry

     iteration # 14     ecut=    77.00 Ry     beta= 0.20
     Davidson diagonalization with overlap
     ethr =  3.70E-08,  avg # of iterations =  1.2

     negative rho (up, down):  8.268E-04 0.000E+00

     total cpu time spent up to now is    13918.8 secs

     total energy              =  -34492.23445071 Ry
     estimated scf accuracy    <       0.00077743 Ry

     iteration # 15     ecut=    77.00 Ry     beta= 0.20
     Davidson diagonalization with overlap
     ethr =  3.70E-08,  avg # of iterations =  5.0

     negative rho (up, down):  8.979E-04 0.000E+00

     total cpu time spent up to now is    14559.7 secs

     total energy              =  -34492.23472083 Ry
     estimated scf accuracy    <       0.00007582 Ry

     iteration # 16     ecut=    77.00 Ry     beta= 0.20
     Davidson diagonalization with overlap
     c_bands:  2 eigenvalues not converged
     ethr =  4.38E-09,  avg # of iterations = 19.0

     negative rho (up, down):  9.141E-04 0.000E+00

     total cpu time spent up to now is    15769.7 secs

     total energy              =  -34492.23476598 Ry
     estimated scf accuracy    <       0.00011575 Ry

     iteration # 17     ecut=    77.00 Ry     beta= 0.20
     Davidson diagonalization with overlap
     ethr =  4.38E-09,  avg # of iterations =  7.0

     negative rho (up, down):  9.230E-04 0.000E+00

     total cpu time spent up to now is    16230.4 secs

     total energy              =  -34492.23476216 Ry
     estimated scf accuracy    <       0.00001600 Ry

     iteration # 18     ecut=    77.00 Ry     beta= 0.20
     Davidson diagonalization with overlap
     c_bands:  3 eigenvalues not converged
     c_bands:  3 eigenvalues not converged
     ethr =  9.24E-10,  avg # of iterations = 20.5

     negative rho (up, down):  9.232E-04 0.000E+00

     total cpu time spent up to now is    17737.9 secs

     total energy              =  -34492.23479610 Ry
     estimated scf accuracy    <       0.00003037 Ry

     iteration # 19     ecut=    77.00 Ry     beta= 0.20
     Davidson diagonalization with overlap
     ethr =  9.24E-10,  avg # of iterations =  1.0

     negative rho (up, down):  9.228E-04 0.000E+00

     total cpu time spent up to now is    18109.4 secs

     total energy              =  -34492.23478622 Ry
     estimated scf accuracy    <       0.00001643 Ry

     iteration # 20     ecut=    77.00 Ry     beta= 0.20
     Davidson diagonalization with overlap
     ethr =  9.24E-10,  avg # of iterations =  9.8

     negative rho (up, down):  9.277E-04 0.000E+00

     total cpu time spent up to now is    18701.6 secs

     End of self-consistent calculation

          k = 0.0000 0.0000 0.0000 (386245 PWs)   bands (ev):

  -102.2971 -88.8840 -88.7340 -70.6379 -70.6364 -70.6088 -70.6024 -70.5926
   -70.5783 -70.5676 -66.6192 -66.6189 -66.6179 -66.6100 -66.5979 -66.5979
   -66.5979 -66.5978 -66.5978 -66.5978 -66.5978 -66.5977 -66.5976 -66.5976
   -66.5975 -66.5973 -66.5966 -66.5966 -66.5966 -66.5966 -66.5966 -66.5966
   -66.5958 -66.5904 -66.5824 -66.5767 -66.5766 -66.5765 -66.5765 -66.5765
   -66.5765 -66.5764 -66.5764 -66.5764 -66.5764 -66.5764 -66.5764 -66.5763
   -66.5763 -66.5762 -66.5762 -66.5760 -66.5760 -66.5758 -66.5752 -66.5752
   -66.5752 -66.5752 -66.5752 -66.5752 -66.5752 -66.5751 -66.5751 -66.5751
   -66.5677 -66.5652 -66.5600 -66.5579 -66.5538 -66.5530 -66.5487 -66.5459
   -66.5327 -66.5181 -56.5907 -56.5170 -56.4679 -54.7432 -54.6726 -54.6069
   -54.5816 -54.5097 -54.4958 -40.9465 -40.9465 -40.9465 -40.9462 -40.9461
   -40.9460 -40.9459 -40.9459 -40.9459 -40.9276 -40.9242 -40.9214 -40.8712
   -40.8712 -40.8711 -40.8711 -40.8711 -40.8711 -40.8710 -40.8709 -40.8708
   -40.8708 -40.8708 -40.8706 -40.8705 -40.8705 -40.8705 -40.8705 -40.8705
   -40.8705 -40.8571 -40.8515 -40.8475 -40.8397 -40.8381 -40.8334 -40.7828
   -40.7788 -40.7786 -40.7782 -40.7572 -40.7454 -40.7448 -40.7448 -40.7448
   -40.7448 -40.7448 -40.7448 -40.7447 -40.7446 -40.7445 -40.7444 -40.7444
   -40.7443 -40.7440 -40.7440 -40.7440 -40.7440 -40.7440 -40.7440 -40.7416
   -40.7372 -40.7371 -40.7371 -40.7371 -40.7371 -40.7371 -40.7371 -40.7370
   -40.7369 -40.7368 -40.7367 -40.7365 -40.7365 -40.7365 -40.7365 -40.7365
   -40.7365 -40.7365 -40.7363 -40.7346 -40.7281 -40.7264 -40.7250 -40.7219
   -40.7173 -40.7111 -40.7098 -40.7098 -40.7098 -40.7098 -40.7098 -40.7097
   -40.7097 -40.7095 -40.7095 -40.7094 -40.7094 -40.7092 -40.7089 -40.7089
   -40.7089 -40.7089 -40.7089 -40.7089 -40.7072 -40.7065 -40.7026 -40.7004
   -40.6960 -40.6954 -40.6952 -40.6952 -40.6952 -40.6952 -40.6951 -40.6951
   -40.6951 -40.6951 -40.6951 -40.6951 -40.6950 -40.6950 -40.6949 -40.6948
   -40.6948 -40.6946 -40.6945 -40.6945 -40.6945 -40.6945 -40.6945 -40.6945
   -40.6944 -40.6944 -40.6944 -40.6944 -40.6930 -40.6901 -40.6885 -40.6881
   -40.6858 -40.6837 -40.6806 -40.6761 -40.6738 -40.6717 -40.6697 -40.6315
   -40.6314 -40.6314 -40.6312 -40.6311 -40.6310 -40.6305 -40.6305 -40.6305
   -40.6093 -40.6046 -40.6016 -40.5843 -40.5843 -40.5843 -40.5843 -40.5843
   -40.5843 -40.5842 -40.5841 -40.5841 -40.5839 -40.5839 -40.5838 -40.5834
   -40.5834 -40.5834 -40.5834 -40.5834 -40.5834 -40.5647 -40.5604 -40.5571
   -40.5525 -40.5487 -40.5445 -40.5367 -40.5367 -40.5364 -40.5364 -40.5357
   -40.5357 -40.5061 -40.5002 -20.2076 -20.0951 -19.9925 -19.8842 -19.5893
   -19.4861 -19.3006 -19.2748 -19.2514 -19.2449 -19.2317 -19.2307 -19.2240
   -19.2185 -19.2027 -19.1898 -19.1448 -19.1424 -19.1333 -19.1293 -19.1185
   -19.1082 -19.0401 -19.0386 -19.0340 -19.0327 -19.0289 -19.0255 -18.9179
   -18.8027 -18.7739 -18.6681 -18.6071 -18.5551 -18.5442 -18.5061 -18.4984
   -18.4889 -18.4571 -18.4369 -18.4190 -18.4148 -18.4038 -18.4018 -18.3638
   -18.3421 -18.2997 -18.2823 -18.2785 -18.2761 -18.2636 -18.2429 -18.2100
   -18.1867 -18.1810 -18.1785 -18.1766 -18.1687 -18.1605 -18.1505 -18.1223
   -18.1158 -18.1143 -18.1138 -18.1136 -18.1116 -18.1069 -18.0849 -18.0829
   -18.0783 -18.0770 -18.0722 -18.0709 -18.0700 -18.0694 -18.0677 -18.0453
   -18.0444 -18.0425 -18.0422 -18.0324 -18.0275 -18.0259 -18.0145 -18.0123
   -18.0039 -18.0003 -17.9983 -17.9957 -17.9867 -17.9843 -17.9819 -17.9516
   -17.9473 -17.9395 -17.9373 -17.9336 -17.9177 -17.9148 -17.9125 -17.9122
   -17.8919 -17.8887 -17.8874 -17.8770 -17.8753 -17.8694 -17.8659 -17.8620
   -17.8602 -17.8541 -17.8525 -17.8502 -17.8358 -17.8352 -17.8349 -17.8251
   -17.8245 -17.8220 -17.8183 -17.8156 -17.8144 -17.7919 -17.7918 -17.7911
   -17.7899 -17.7889 -17.7883 -12.1839 -12.0279 -11.9853 -11.9350 -11.8383
   -11.7938 -11.7900 -11.7841 -11.6805 -11.6704 -11.6658 -11.5873 -11.5540
   -11.5519 -11.5454 -11.4630 -11.4274 -11.3846 -11.3299 -11.2639 -11.2483
   -11.2398 -11.2332 -11.2303 -11.2180 -11.1724 -11.1564 -11.1509 -11.1328
   -11.1250 -11.1233 -11.1208 -11.1188 -11.1124 -11.0940 -11.0849 -11.0780
   -11.0692 -11.0579 -11.0545 -11.0511 -11.0426 -11.0360 -11.0356 -11.0234
   -11.0193 -10.9925 -10.9635 -10.9581 -10.9553 -10.9433 -10.9401 -10.9352
   -10.9215 -10.9005 -10.8941 -10.8928 -10.8859 -10.8807 -10.8712 -10.8676
   -10.8574 -10.8472 -10.8405 -10.8369 -10.8346 -10.8332 -10.8261 -10.8245
   -10.8226 -10.8197 -10.8184 -10.8114 -10.8074 -10.8033 -10.7998 -10.7768
   -10.7740 -10.7734 -10.7729 -10.7712 -10.7662 -10.7650 -10.7629 -10.7552
   -10.7327 -10.7324 -10.7320 -10.7314 -10.7314 -10.7287 -10.6716 -10.6611
   -10.6553 -10.6238 -10.6133 -10.6050 -10.5887 -10.5842 -10.5772 -10.5601
   -10.4750 -10.3619 -10.3106 -10.2238 -10.1579 -10.1315 -10.1069 -10.0371
    -9.9633  -9.9401  -9.9051  -9.8614  -9.8449  -9.8172  -9.8086  -9.7985
    -9.7935  -9.7875  -9.7741  -9.7685  -9.7666  -9.7654  -9.7636  -9.7580
    -9.7528  -9.7511  -9.7476  -9.7439  -9.7423  -9.7351  -9.7247  -9.7132
    -9.6976  -9.6915  -9.6645  -9.6375  -9.6286  -9.6246  -9.6208  -9.6186
    -9.6152  -9.6145  -9.6120  -9.6115  -9.6108  -9.6090  -9.6054  -9.5800
    -9.5730  -9.5500  -9.5375  -9.5364  -9.5362  -9.5362  -9.5360  -9.5356
    -9.5336  -9.5253  -9.5191  -9.5096  -9.5033  -9.5016  -9.4821  -9.4688
    -9.4491  -9.4272  -9.3835  -9.3720  -9.3629  -9.3603  -9.3526  -9.3459
    -9.3437  -9.3380  -9.3280  -9.3236  -9.3190  -9.3057  -9.2821  -9.2530
    -9.2449  -9.2404  -9.2340  -9.2244  -9.2109  -9.2000  -9.1849  -9.1787
    -9.1770  -9.1767  -9.1743  -9.1716  -9.1587  -9.1388  -9.1353  -9.1079
    -9.1034  -9.0788  -9.0466  -9.0419  -9.0135  -8.9837  -8.9774  -8.9749
    -8.9737  -8.9700  -8.9537  -8.9428  -8.9422  -8.9364  -8.9120  -8.9119
    -8.9117  -8.9081  -8.9022  -8.8931  -8.8914  -8.8858  -8.8806  -8.8171
    -8.8164  -8.8160  -8.8156  -8.8155  -8.8152  -8.7731  -8.7584  -8.7488
    -8.7445  -8.7392  -8.7336  -8.7022  -8.6775  -8.6673  -8.6625  -8.6602
    -8.6566  -8.6507  -8.6041  -8.5916  -8.5896  -8.5877  -8.5860  -8.5845
    -8.5755  -8.5533  -8.5160  -8.4865  -8.3999  -8.3610  -8.3609  -8.3560
    -8.3558  -8.3528  -8.3498  -8.3489  -8.3436  -8.3357  -8.3194  -8.2818
    -8.2704  -8.2703  -8.2701  -8.2700  -8.2694  -8.2659  -8.2445  -8.2438
    -8.2435  -8.2430  -8.2420  -8.2396  -8.2172  -8.2159  -8.2155  -8.2152
    -8.2148  -8.2140  -8.1966  -8.1678  -8.1121  -8.0387  -7.9776  -7.8979
    -7.8532  -7.8520  -7.8506  -7.7912  -7.7773  -7.7602  -7.7545  -7.7228
    -7.6946  -7.6912  -7.6675  -7.6439  -7.6422  -7.6343  -7.6199  -7.6152
    -7.6086  -7.5974  -7.5968  -7.5869  -7.5779  -7.5673  -7.5626  -7.5444
    -7.5359  -7.5291  -7.5286  -7.5282  -7.5279  -7.5273  -7.5230  -7.5053
    -7.5022  -7.5018  -7.5013  -7.5003  -7.4975  -7.4937  -7.4784  -7.4771
    -7.4769  -7.4764  -7.4760  -7.4753  -7.4703  -7.4633  -7.4600  -7.4536
    -7.4409  -7.4297  -7.4228  -7.4133  -7.4121  -7.4003  -7.3821  -7.3603
    -7.3521  -7.3475  -7.3428  -7.3313  -7.3177  -7.3113  -7.3039  -7.2968
    -7.2955  -7.2915  -7.2885  -7.2806  -7.2671  -7.2482  -7.2449  -7.2435
    -7.2262  -7.2258  -7.2081  -7.2080  -7.1805  -7.1666  -7.1519  -7.1453
    -7.1187  -7.1145  -7.0985  -7.0699  -7.0339  -6.9705  -6.9460  -6.9229
    -6.8836  -6.8753  -6.8635  -6.8543  -6.8201  -6.7771  -6.7744  -6.7734
    -6.7681  -6.7345  -6.7149  -6.6997  -6.6933  -6.6906  -6.6812  -6.6671
    -6.6506  -6.6323  -6.6227  -6.6171  -6.6162  -6.6145  -6.5907  -6.5799
    -6.5684  -6.5655  -6.5557  -6.5514  -6.5485  -6.5266  -6.5167  -6.5109
    -6.5091  -6.5076  -6.5061  -6.5029  -6.5015  -6.4996  -6.4934  -6.4924
    -6.4922  -6.4919  -6.4918  -6.4917  -6.4905  -6.4817  -6.4647  -6.4446
    -6.4385  -6.4379  -6.4111  -6.4051  -6.4042  -6.4003  -6.3752  -6.3558
    -6.3519  -6.3321  -6.3274  -6.3250  -6.3242  -6.3237  -6.3205  -6.3088
    -6.2904  -6.2847  -6.2839  -6.2837  -6.2805  -6.2758  -6.2535  -6.2503
    -6.2473  -6.2472  -6.2462  -6.2451  -6.2396  -6.2256  -6.0851  -6.0076
    -5.9619  -5.8243  -5.6729  -5.5848  -5.5742  -5.4589  -5.3864  -5.3519
    -5.2762  -5.1421  -4.3596  -3.9678  -3.8744  -3.8477  -3.8434  -3.8402
    -3.8301  -3.8259  -3.8218  -3.8192  -3.8178  -3.8159  -3.7995  -3.7788
    -3.7384  -3.7003  -3.6929  -3.6859  -3.6838  -3.6757  -3.6720  -3.6684
    -3.6674  -3.6640  -3.5808  -3.5523  -3.5325  -3.5082  -3.5043  -3.4998
    -3.4970  -3.4852  -3.4738  -3.4695  -3.4651  -3.4645  -3.4634  -3.4600
    -3.4556  -3.4485  -3.4449  -3.4385  -3.4364  -3.4361  -3.4357  -3.4247
    -3.4226  -3.4206  -3.4177  -3.4132  -3.4057  -3.4039  -3.4011  -3.3995
    -3.3968  -3.3941  -3.3898  -3.3835  -3.3796  -3.3774  -3.3532  -3.3490
    -3.3442  -3.3423  -3.3382  -3.3367  -3.3352  -3.3343  -3.3260  -3.3154
    -3.3030  -3.2982  -3.2957  -3.2810  -3.2792  -3.2768  -3.2680  -3.2626
    -3.2461  -3.2164  -3.2086  -3.2050  -3.1912  -3.1865  -3.0881  -3.0684
    -3.0646  -3.0583  -3.0556  -3.0515  -3.0482  -3.0414  -3.0389  -3.0351
    -3.0223  -2.9906  -2.9866  -2.9791  -2.9716  -2.9706  -2.9667  -2.9644
    -2.9626  -2.9620  -2.9582  -2.9565  -2.9563  -2.9497  -2.9478  -2.9462
    -2.9432  -2.9360  -2.9323  -2.9299  -2.9272  -2.9257  -2.9232  -2.9184
    -2.9178  -2.9175  -2.9160  -2.9139  -2.8979  -2.8893  -2.8859  -2.8748
    -2.8730  -2.8663  -2.8623  -2.8513  -2.8377  -2.8020  -2.7995  -2.7984
    -2.7971  -2.7954  -2.7951  -2.7949  -2.7948  -2.7941  -2.7869  -2.7827
    -2.7782  -2.7696  -2.7455  -2.7289  -2.7268  -2.7182  -2.7145  -2.7093
    -2.6632  -2.6544  -2.6349  -2.6319  -2.6249  -2.6217  -2.6178  -2.6160
    -2.6117  -2.6099  -2.6000  -2.5758  -2.5490  -2.5392  -2.5390  -2.5272
    -2.4630  -2.4398  -2.4165  -2.4066  -2.4035  -2.4026  -2.3976

          k = 0.0000-0.5773 0.0000 (386352 PWs)   bands (ev):

  -102.2971 -88.8840 -88.7340 -70.6379 -70.6364 -70.6088 -70.6024 -70.5926
   -70.5783 -70.5676 -66.6129 -66.6129 -66.6128 -66.6125 -66.6117 -66.6117
   -66.6086 -66.6023 -66.6023 -66.6020 -66.6020 -66.6010 -66.6010 -66.5991
   -66.5893 -66.5872 -66.5872 -66.5872 -66.5872 -66.5870 -66.5869 -66.5869
   -66.5869 -66.5859 -66.5859 -66.5859 -66.5859 -66.5828 -66.5827 -66.5826
   -66.5824 -66.5817 -66.5815 -66.5814 -66.5773 -66.5765 -66.5765 -66.5765
   -66.5764 -66.5764 -66.5763 -66.5761 -66.5760 -66.5752 -66.5752 -66.5752
   -66.5751 -66.5746 -66.5720 -66.5720 -66.5718 -66.5717 -66.5707 -66.5707
   -66.5671 -66.5647 -66.5601 -66.5579 -66.5551 -66.5520 -66.5489 -66.5462
   -66.5327 -66.5181 -56.5907 -56.5170 -56.4679 -54.7432 -54.6726 -54.6069
   -54.5816 -54.5097 -54.4958 -40.9149 -40.9149 -40.9148 -40.9148 -40.9147
   -40.9146 -40.9144 -40.9144 -40.9142 -40.9142 -40.9142 -40.9142 -40.8971
   -40.8933 -40.8924 -40.8905 -40.8881 -40.8880 -40.8878 -40.8876 -40.8874
   -40.8874 -40.8786 -40.8760 -40.8760 -40.8756 -40.8756 -40.8753 -40.8753
   -40.8651 -40.8492 -40.8280 -40.8253 -40.8253 -40.8253 -40.8253 -40.8250
   -40.8250 -40.8249 -40.8249 -40.8246 -40.8246 -40.8246 -40.8246 -40.8010
   -40.7979 -40.7918 -40.7899 -40.7757 -40.7667 -40.7666 -40.7665 -40.7662
   -40.7661 -40.7660 -40.7646 -40.7570 -40.7570 -40.7567 -40.7566 -40.7562
   -40.7562 -40.7554 -40.7458 -40.7458 -40.7455 -40.7455 -40.7452 -40.7452
   -40.7452 -40.7333 -40.7305 -40.7267 -40.7184 -40.7177 -40.7162 -40.7162
   -40.7162 -40.7162 -40.7160 -40.7159 -40.7159 -40.7159 -40.7155 -40.7155
   -40.7155 -40.7155 -40.7104 -40.7078 -40.7075 -40.7074 -40.7073 -40.7071
   -40.7068 -40.7068 -40.7036 -40.6979 -40.6955 -40.6955 -40.6952 -40.6952
   -40.6952 -40.6952 -40.6951 -40.6951 -40.6951 -40.6949 -40.6948 -40.6948
   -40.6947 -40.6947 -40.6946 -40.6945 -40.6945 -40.6944 -40.6944 -40.6867
   -40.6864 -40.6864 -40.6862 -40.6862 -40.6858 -40.6858 -40.6852 -40.6810
   -40.6742 -40.6723 -40.6672 -40.6646 -40.6646 -40.6646 -40.6645 -40.6645
   -40.6644 -40.6641 -40.6641 -40.6637 -40.6637 -40.6637 -40.6637 -40.6475
   -40.6449 -40.6375 -40.6306 -40.6298 -40.6298 -40.6298 -40.6298 -40.6296
   -40.6296 -40.6295 -40.6295 -40.6289 -40.6289 -40.6289 -40.6289 -40.6177
   -40.6177 -40.6175 -40.6173 -40.6168 -40.6168 -40.6079 -40.6053 -40.5991
   -40.5984 -40.5983 -40.5983 -40.5982 -40.5979 -40.5975 -40.5974 -40.5885
   -40.5829 -40.5814 -40.5814 -40.5811 -40.5810 -40.5804 -40.5804 -40.5771
   -40.5611 -40.5507 -40.5507 -40.5505 -40.5503 -40.5497 -40.5497 -40.5486
   -40.5378 -40.5252 -40.5164 -20.0581 -19.9195 -19.8622 -19.8513 -19.7641
   -19.7517 -19.6542 -19.6481 -19.5138 -19.4939 -19.4227 -19.4196 -19.3303
   -19.3262 -19.2271 -19.2242 -19.1270 -19.0146 -18.8699 -18.8046 -18.7644
   -18.7333 -18.7192 -18.7176 -18.7142 -18.7068 -18.6968 -18.6714 -18.6590
   -18.6415 -18.6390 -18.6312 -18.6205 -18.5944 -18.5882 -18.5535 -18.5489
   -18.5456 -18.5391 -18.5269 -18.5130 -18.4964 -18.4874 -18.4721 -18.4649
   -18.4461 -18.4075 -18.4040 -18.4025 -18.3915 -18.3682 -18.3587 -18.3378
   -18.3296 -18.3208 -18.3076 -18.2705 -18.2489 -18.2441 -18.2423 -18.2078
   -18.2050 -18.1857 -18.1721 -18.1578 -18.1438 -18.1163 -18.1125 -18.1039
   -18.0951 -18.0924 -18.0918 -18.0901 -18.0780 -18.0681 -18.0660 -18.0609
   -18.0597 -18.0575 -18.0551 -18.0459 -18.0411 -18.0382 -18.0333 -18.0047
   -18.0044 -18.0017 -17.9980 -17.9956 -17.9939 -17.9902 -17.9891 -17.9831
   -17.9743 -17.9459 -17.9445 -17.9328 -17.9306 -17.9288 -17.9219 -17.8913
   -17.8868 -17.8805 -17.8768 -17.8611 -17.8458 -17.8390 -17.8383 -17.8310
   -17.8244 -17.8129 -17.8127 -17.8121 -17.8119 -17.8103 -17.8098 -17.7978
   -17.7965 -17.7784 -17.7751 -17.7549 -17.7516 -17.7365 -17.7318 -17.7213
   -17.7185 -17.7131 -17.7127 -12.0848 -11.8685 -11.7713 -11.7296 -11.7154
   -11.6771 -11.6080 -11.5469 -11.5228 -11.5107 -11.4935 -11.4904 -11.4847
   -11.4810 -11.4599 -11.4416 -11.4036 -11.3871 -11.3810 -11.3761 -11.3636
   -11.3518 -11.3332 -11.3189 -11.3167 -11.2907 -11.2743 -11.2683 -11.2668
   -11.2589 -11.2542 -11.2492 -11.2462 -11.2314 -11.2036 -11.1986 -11.1923
   -11.1880 -11.1729 -11.1690 -11.1635 -11.1578 -11.1421 -11.1406 -11.1346
   -11.1245 -11.1004 -11.0975 -11.0747 -11.0627 -11.0556 -11.0348 -11.0074
   -10.9669 -10.9579 -10.9406 -10.9345 -10.9257 -10.9210 -10.9167 -10.9009
   -10.8931 -10.8646 -10.8417 -10.8353 -10.8303 -10.8239 -10.8116 -10.8082
   -10.8049 -10.8042 -10.8038 -10.8032 -10.8009 -10.7952 -10.7917 -10.7868
   -10.7861 -10.7787 -10.7770 -10.7761 -10.7749 -10.7394 -10.7373 -10.7371
   -10.7366 -10.7162 -10.6256 -10.5968 -10.5505 -10.5355 -10.5280 -10.5147
   -10.4960 -10.4494 -10.4102 -10.3735 -10.3292 -10.3011 -10.2639 -10.2395
   -10.2044 -10.1510 -10.1346 -10.1240 -10.1172 -10.1063 -10.0990 -10.0845
   -10.0658 -10.0458 -10.0310 -10.0283 -10.0263 -10.0144 -10.0134 -10.0099
    -9.9884  -9.9709  -9.9620  -9.9298  -9.9251  -9.9225  -9.8956  -9.8896
    -9.8834  -9.8813  -9.8591  -9.8526  -9.8401  -9.8241  -9.8131  -9.8043
    -9.7910  -9.7782  -9.7610  -9.7597  -9.7561  -9.7075  -9.7048  -9.6854
    -9.6824  -9.6613  -9.6537  -9.6375  -9.6253  -9.6180  -9.6029  -9.5990
    -9.5929  -9.5718  -9.5694  -9.5530  -9.5424  -9.5371  -9.5312  -9.5098
    -9.4860  -9.4840  -9.4717  -9.4688  -9.4660  -9.4606  -9.4572  -9.4529
    -9.4497  -9.4455  -9.4310  -9.4125  -9.3949  -9.3910  -9.3512  -9.3225
    -9.3037  -9.2726  -9.2581  -9.2325  -9.2160  -9.2101  -9.2041  -9.1890
    -9.1840  -9.1770  -9.1558  -9.1371  -9.1239  -9.1205  -9.1069  -9.0995
    -9.0878  -9.0646  -9.0599  -9.0494  -9.0414  -9.0369  -9.0294  -8.9993
    -8.9903  -8.9835  -8.9737  -8.9606  -8.9537  -8.9419  -8.9390  -8.9323
    -8.9222  -8.8923  -8.8866  -8.8845  -8.8827  -8.8805  -8.8790  -8.8747
    -8.8706  -8.8653  -8.8623  -8.8612  -8.8557  -8.8533  -8.8527  -8.8469
    -8.8453  -8.8379  -8.8335  -8.8328  -8.8082  -8.7869  -8.7864  -8.7854
    -8.7837  -8.7793  -8.7775  -8.7568  -8.7557  -8.7509  -8.7368  -8.7262
    -8.7260  -8.7221  -8.7163  -8.6978  -8.6596  -8.6546  -8.6438  -8.6230
    -8.5994  -8.5494  -8.4984  -8.4966  -8.4889  -8.4487  -8.4378  -8.4191
    -8.3952  -8.3579  -8.3480  -8.3389  -8.2942  -8.2780  -8.2308  -8.1751
    -8.1211  -8.1210  -8.1130  -8.1120  -8.1065  -8.1012  -8.1000  -8.0906
    -8.0673  -8.0497  -8.0235  -7.9657  -7.9628  -7.9271  -7.9154  -7.8837
    -7.8679  -7.8588  -7.8430  -7.8396  -7.8300  -7.8272  -7.8233  -7.8122
    -7.8059  -7.8016  -7.7976  -7.7943  -7.7907  -7.7900  -7.7855  -7.7814
    -7.7755  -7.7747  -7.7705  -7.7655  -7.7626  -7.7613  -7.7588  -7.7573
    -7.7564  -7.7527  -7.7516  -7.7511  -7.7434  -7.7273  -7.7251  -7.7232
    -7.7222  -7.6954  -7.6926  -7.6904  -7.6898  -7.6822  -7.6780  -7.6612
    -7.6605  -7.6591  -7.6585  -7.6471  -7.6455  -7.6402  -7.6301  -7.6144
    -7.6112  -7.6033  -7.6007  -7.6003  -7.5972  -7.5939  -7.5789  -7.5781
    -7.5710  -7.5601  -7.5576  -7.5562  -7.5513  -7.5499  -7.5228  -7.4793
    -7.4625  -7.4567  -7.4543  -7.4472  -7.4378  -7.3987  -7.3939  -7.3074
    -7.2885  -7.2214  -7.2032  -7.1682  -7.1656  -7.1617  -7.1590  -7.1533
    -7.1215  -7.1141  -7.1106  -7.1004  -7.0990  -7.0698  -7.0624  -7.0399
    -7.0285  -7.0226  -7.0195  -7.0079  -6.9924  -6.9715  -6.9684  -6.9518
    -6.9196  -6.9081  -6.9050  -6.9009  -6.8826  -6.8757  -6.8551  -6.8527
    -6.8481  -6.8456  -6.8384  -6.7886  -6.7787  -6.7652  -6.7518  -6.7421
    -6.7292  -6.6895  -6.6717  -6.6670  -6.6440  -6.6261  -6.6163  -6.6086
    -6.6014  -6.5990  -6.5984  -6.5980  -6.5871  -6.5817  -6.5809  -6.5805
    -6.5748  -6.5726  -6.5724  -6.5723  -6.5699  -6.5601  -6.5526  -6.5448
    -6.4999  -6.4699  -6.4617  -6.4225  -6.4107  -6.3863  -6.3153  -6.3141
    -6.3111  -6.3103  -6.3019  -6.2956  -6.2706  -6.2701  -6.2663  -6.2658
    -6.2608  -6.2546  -6.2503  -6.2497  -6.2443  -6.2376  -6.2098  -6.1992
    -6.1988  -6.1972  -6.1838  -6.1179  -6.0866  -6.0484  -5.9907  -5.9811
    -5.9673  -5.9286  -5.9119  -5.9042  -5.8490  -5.8479  -5.8283  -5.7901
    -5.7209  -5.6935  -5.6676  -5.6024  -5.5954  -5.5626  -5.4828  -5.4661
    -5.3903  -5.2726  -4.3864  -4.1043  -4.0859  -4.0781  -4.0653  -3.9655
    -3.9347  -3.9210  -3.9154  -3.8984  -3.8767  -3.8375  -3.8340  -3.8245
    -3.8178  -3.8061  -3.8014  -3.7916  -3.7902  -3.7887  -3.7564  -3.7181
    -3.6865  -3.6809  -3.6674  -3.6094  -3.5987  -3.5929  -3.5913  -3.5892
    -3.5494  -3.5426  -3.5417  -3.5363  -3.5287  -3.5137  -3.5106  -3.5019
    -3.4949  -3.4906  -3.4878  -3.4765  -3.4703  -3.4668  -3.4641  -3.4574
    -3.4553  -3.4400  -3.4306  -3.4254  -3.4218  -3.4113  -3.4080  -3.3960
    -3.3757  -3.3608  -3.3484  -3.3417  -3.3403  -3.3378  -3.3360  -3.3333
    -3.3253  -3.3110  -3.2992  -3.2866  -3.2822  -3.2747  -3.2726  -3.2720
    -3.2684  -3.2669  -3.2606  -3.2520  -3.2452  -3.2331  -3.2271  -3.2255
    -3.2221  -3.2138  -3.2067  -3.2016  -3.2007  -3.1997  -3.1892  -3.1812
    -3.1766  -3.1664  -3.1635  -3.1538  -3.1535  -3.1528  -3.1503  -3.1267
    -3.0975  -3.0959  -3.0918  -3.0747  -3.0645  -3.0560  -3.0534  -3.0521
    -3.0181  -3.0158  -3.0148  -3.0143  -3.0132  -3.0126  -3.0062  -3.0046
    -3.0014  -2.9976  -2.9936  -2.9889  -2.9835  -2.9811  -2.9744  -2.9722
    -2.9683  -2.9670  -2.9608  -2.9584  -2.9542  -2.9516  -2.9411  -2.9391
    -2.9367  -2.9319  -2.9228  -2.9213  -2.9127  -2.9093  -2.8922  -2.8891
    -2.8815  -2.8751  -2.8728  -2.8668  -2.8576  -2.8497  -2.7947  -2.7882
    -2.7850  -2.7816  -2.7488  -2.7342  -2.7109  -2.7070  -2.6480  -2.6184
    -2.6002  -2.5904  -2.5700  -2.5610  -2.5439  -2.5385  -2.5357  -2.5312
    -2.5273  -2.5184  -2.5179  -2.5141  -2.5013  -2.4158  -2.3975  -2.3885
    -2.3879  -2.3860  -2.3796  -2.3737  -2.3560  -2.3322  -2.3312

          k =-0.5000-0.2887 0.0000 (386352 PWs)   bands (ev):

  -102.2971 -88.8840 -88.7340 -70.6379 -70.6364 -70.6088 -70.6024 -70.5926
   -70.5783 -70.5676 -66.6129 -66.6129 -66.6127 -66.6126 -66.6117 -66.6117
   -66.6091 -66.6023 -66.6023 -66.6020 -66.6020 -66.6010 -66.6010 -66.5971
   -66.5910 -66.5872 -66.5872 -66.5872 -66.5872 -66.5871 -66.5871 -66.5868
   -66.5867 -66.5859 -66.5859 -66.5859 -66.5859 -66.5827 -66.5827 -66.5825
   -66.5824 -66.5817 -66.5815 -66.5814 -66.5797 -66.5765 -66.5765 -66.5765
   -66.5764 -66.5764 -66.5763 -66.5760 -66.5759 -66.5752 -66.5752 -66.5752
   -66.5752 -66.5720 -66.5720 -66.5719 -66.5718 -66.5717 -66.5707 -66.5707
   -66.5671 -66.5629 -66.5610 -66.5582 -66.5547 -66.5537 -66.5488 -66.5455
   -66.5327 -66.5181 -56.5907 -56.5170 -56.4679 -54.7432 -54.6726 -54.6069
   -54.5816 -54.5097 -54.4958 -40.9149 -40.9149 -40.9148 -40.9148 -40.9148
   -40.9144 -40.9144 -40.9143 -40.9142 -40.9142 -40.9142 -40.9142 -40.9101
   -40.9009 -40.8880 -40.8880 -40.8878 -40.8876 -40.8874 -40.8874 -40.8823
   -40.8796 -40.8760 -40.8760 -40.8756 -40.8756 -40.8753 -40.8753 -40.8676
   -40.8600 -40.8499 -40.8405 -40.8253 -40.8253 -40.8253 -40.8253 -40.8250
   -40.8250 -40.8249 -40.8249 -40.8246 -40.8246 -40.8246 -40.8246 -40.8046
   -40.7994 -40.7960 -40.7917 -40.7739 -40.7694 -40.7667 -40.7666 -40.7665
   -40.7663 -40.7661 -40.7660 -40.7570 -40.7570 -40.7567 -40.7567 -40.7562
   -40.7562 -40.7500 -40.7461 -40.7458 -40.7458 -40.7455 -40.7455 -40.7452
   -40.7452 -40.7316 -40.7290 -40.7266 -40.7232 -40.7162 -40.7162 -40.7162
   -40.7161 -40.7161 -40.7161 -40.7157 -40.7157 -40.7155 -40.7155 -40.7155
   -40.7155 -40.7129 -40.7113 -40.7074 -40.7074 -40.7073 -40.7071 -40.7068
   -40.7068 -40.7058 -40.7036 -40.6976 -40.6955 -40.6955 -40.6952 -40.6952
   -40.6952 -40.6952 -40.6951 -40.6951 -40.6951 -40.6949 -40.6948 -40.6947
   -40.6947 -40.6945 -40.6945 -40.6945 -40.6944 -40.6944 -40.6933 -40.6886
   -40.6864 -40.6864 -40.6863 -40.6862 -40.6862 -40.6858 -40.6858 -40.6799
   -40.6723 -40.6721 -40.6661 -40.6646 -40.6646 -40.6646 -40.6646 -40.6644
   -40.6643 -40.6642 -40.6641 -40.6637 -40.6637 -40.6637 -40.6637 -40.6490
   -40.6479 -40.6298 -40.6298 -40.6298 -40.6298 -40.6296 -40.6295 -40.6295
   -40.6295 -40.6289 -40.6289 -40.6289 -40.6289 -40.6289 -40.6276 -40.6177
   -40.6177 -40.6175 -40.6173 -40.6168 -40.6168 -40.6092 -40.6062 -40.6007
   -40.5984 -40.5984 -40.5982 -40.5979 -40.5975 -40.5974 -40.5969 -40.5926
   -40.5814 -40.5814 -40.5811 -40.5810 -40.5804 -40.5804 -40.5759 -40.5757
   -40.5682 -40.5549 -40.5507 -40.5507 -40.5505 -40.5503 -40.5498 -40.5497
   -40.5413 -40.5274 -40.5076 -20.0647 -19.9099 -19.8620 -19.8485 -19.7633
   -19.7505 -19.6535 -19.6483 -19.5151 -19.5051 -19.4224 -19.4214 -19.3298
   -19.3277 -19.2270 -19.2246 -19.1450 -18.9681 -18.8679 -18.7990 -18.7810
   -18.7682 -18.7176 -18.7172 -18.7138 -18.7124 -18.6890 -18.6708 -18.6488
   -18.6450 -18.6389 -18.6369 -18.6090 -18.5844 -18.5760 -18.5507 -18.5485
   -18.5459 -18.5408 -18.5309 -18.5118 -18.4889 -18.4853 -18.4728 -18.4639
   -18.4405 -18.4185 -18.4055 -18.4036 -18.3977 -18.3812 -18.3719 -18.3497
   -18.3254 -18.3184 -18.3068 -18.2754 -18.2606 -18.2444 -18.2310 -18.2088
   -18.1961 -18.1829 -18.1672 -18.1622 -18.1341 -18.1299 -18.1153 -18.0984
   -18.0948 -18.0921 -18.0919 -18.0870 -18.0687 -18.0679 -18.0666 -18.0641
   -18.0599 -18.0568 -18.0524 -18.0506 -18.0410 -18.0338 -18.0262 -18.0048
   -18.0032 -18.0000 -17.9974 -17.9947 -17.9931 -17.9928 -17.9863 -17.9808
   -17.9732 -17.9469 -17.9406 -17.9358 -17.9302 -17.9244 -17.9178 -17.8985
   -17.8885 -17.8830 -17.8721 -17.8682 -17.8453 -17.8413 -17.8345 -17.8338
   -17.8311 -17.8137 -17.8129 -17.8122 -17.8115 -17.8110 -17.8104 -17.7988
   -17.7970 -17.7793 -17.7761 -17.7544 -17.7520 -17.7348 -17.7317 -17.7201
   -17.7178 -17.7130 -17.7125 -12.0925 -11.8653 -11.8176 -11.7211 -11.7174
   -11.6482 -11.6011 -11.5282 -11.5182 -11.4963 -11.4921 -11.4886 -11.4830
   -11.4692 -11.4592 -11.4366 -11.4059 -11.3913 -11.3823 -11.3800 -11.3707
   -11.3415 -11.3349 -11.3276 -11.3049 -11.2943 -11.2760 -11.2683 -11.2637
   -11.2596 -11.2541 -11.2508 -11.2462 -11.2393 -11.2081 -11.1997 -11.1931
   -11.1872 -11.1774 -11.1686 -11.1643 -11.1586 -11.1480 -11.1403 -11.1339
   -11.1304 -11.1172 -11.0967 -11.0773 -11.0725 -11.0574 -11.0149 -11.0022
   -10.9735 -10.9671 -10.9474 -10.9362 -10.9248 -10.9134 -10.9006 -10.8952
   -10.8699 -10.8624 -10.8502 -10.8319 -10.8299 -10.8262 -10.8209 -10.8128
   -10.8050 -10.8041 -10.8035 -10.8028 -10.7998 -10.7965 -10.7923 -10.7861
   -10.7857 -10.7810 -10.7773 -10.7747 -10.7733 -10.7622 -10.7373 -10.7367
   -10.7365 -10.7358 -10.6115 -10.5951 -10.5445 -10.5322 -10.5129 -10.4978
   -10.4859 -10.4359 -10.4163 -10.3786 -10.3633 -10.3152 -10.2601 -10.2127
   -10.1932 -10.1654 -10.1576 -10.1236 -10.1113 -10.1078 -10.1019 -10.0773
   -10.0523 -10.0453 -10.0344 -10.0290 -10.0253 -10.0202 -10.0150 -10.0105
    -9.9996  -9.9633  -9.9392  -9.9305  -9.9217  -9.9098  -9.9073  -9.9039
    -9.8871  -9.8858  -9.8843  -9.8534  -9.8479  -9.8358  -9.8230  -9.7966
    -9.7900  -9.7734  -9.7711  -9.7693  -9.7424  -9.7372  -9.7177  -9.6980
    -9.6954  -9.6813  -9.6549  -9.6530  -9.6259  -9.6143  -9.6091  -9.5978
    -9.5840  -9.5657  -9.5627  -9.5506  -9.5434  -9.5393  -9.5252  -9.4918
    -9.4855  -9.4832  -9.4740  -9.4710  -9.4627  -9.4578  -9.4566  -9.4515
    -9.4486  -9.4324  -9.4264  -9.3990  -9.3769  -9.3662  -9.3420  -9.3297
    -9.2949  -9.2741  -9.2295  -9.2221  -9.2101  -9.2049  -9.2029  -9.1938
    -9.1819  -9.1599  -9.1499  -9.1406  -9.1304  -9.1208  -9.1157  -9.0966
    -9.0764  -9.0697  -9.0544  -9.0530  -9.0401  -9.0369  -9.0343  -9.0091
    -9.0060  -8.9860  -8.9657  -8.9574  -8.9488  -8.9472  -8.9431  -8.9377
    -8.9125  -8.9058  -8.8948  -8.8862  -8.8832  -8.8815  -8.8786  -8.8770
    -8.8735  -8.8691  -8.8626  -8.8615  -8.8608  -8.8520  -8.8491  -8.8445
    -8.8404  -8.8334  -8.8329  -8.8238  -8.8163  -8.7890  -8.7873  -8.7854
    -8.7837  -8.7817  -8.7772  -8.7570  -8.7554  -8.7400  -8.7305  -8.7267
    -8.7256  -8.7174  -8.7158  -8.7120  -8.6706  -8.6531  -8.6481  -8.6284
    -8.6151  -8.5513  -8.4996  -8.4978  -8.4746  -8.4433  -8.4294  -8.4056
    -8.3677  -8.3496  -8.3447  -8.3028  -8.2978  -8.2727  -8.2350  -8.1746
    -8.1411  -8.1210  -8.1207  -8.1125  -8.1116  -8.1100  -8.1005  -8.0999
    -8.0702  -8.0418  -8.0238  -7.9724  -7.9628  -7.9543  -7.9365  -7.9250
    -7.8830  -7.8568  -7.8399  -7.8391  -7.8286  -7.8219  -7.8204  -7.8118
    -7.8042  -7.8024  -7.7956  -7.7947  -7.7897  -7.7889  -7.7844  -7.7787
    -7.7749  -7.7748  -7.7637  -7.7632  -7.7606  -7.7598  -7.7593  -7.7580
    -7.7556  -7.7521  -7.7512  -7.7430  -7.7400  -7.7335  -7.7260  -7.7235
    -7.7205  -7.7132  -7.6918  -7.6905  -7.6900  -7.6890  -7.6790  -7.6625
    -7.6605  -7.6604  -7.6584  -7.6571  -7.6461  -7.6367  -7.6344  -7.6153
    -7.6065  -7.6019  -7.6017  -7.5999  -7.5909  -7.5795  -7.5784  -7.5744
    -7.5610  -7.5583  -7.5572  -7.5560  -7.5509  -7.5423  -7.5152  -7.5094
    -7.4646  -7.4546  -7.4511  -7.4496  -7.4377  -7.4147  -7.4013  -7.3233
    -7.2471  -7.2093  -7.1871  -7.1650  -7.1615  -7.1597  -7.1563  -7.1506
    -7.1177  -7.1111  -7.1038  -7.0942  -7.0770  -7.0694  -7.0655  -7.0493
    -7.0303  -7.0212  -7.0159  -7.0004  -6.9882  -6.9709  -6.9691  -6.9522
    -6.9359  -6.9084  -6.9064  -6.8883  -6.8824  -6.8802  -6.8693  -6.8555
    -6.8528  -6.8485  -6.8285  -6.8131  -6.7804  -6.7668  -6.7537  -6.7399
    -6.7085  -6.6966  -6.6795  -6.6581  -6.6399  -6.6302  -6.6153  -6.6114
    -6.6003  -6.5997  -6.5982  -6.5970  -6.5922  -6.5849  -6.5813  -6.5806
    -6.5795  -6.5758  -6.5725  -6.5723  -6.5722  -6.5713  -6.5448  -6.5359
    -6.5261  -6.4893  -6.4211  -6.4168  -6.3652  -6.3520  -6.3303  -6.3147
    -6.3134  -6.3101  -6.3088  -6.3064  -6.2784  -6.2737  -6.2695  -6.2690
    -6.2661  -6.2650  -6.2554  -6.2488  -6.2450  -6.2295  -6.2178  -6.2047
    -6.1984  -6.1944  -6.1937  -6.1714  -6.1364  -6.0654  -5.9845  -5.9825
    -5.9396  -5.9223  -5.9158  -5.8595  -5.8574  -5.8439  -5.8205  -5.7765
    -5.7302  -5.6776  -5.6612  -5.6025  -5.5876  -5.5491  -5.5100  -5.4431
    -5.3889  -5.2701  -4.3727  -4.0962  -4.0909  -4.0799  -4.0540  -3.9651
    -3.9356  -3.9171  -3.9167  -3.9051  -3.8495  -3.8383  -3.8355  -3.8265
    -3.8220  -3.8102  -3.8052  -3.7999  -3.7915  -3.7906  -3.7429  -3.7183
    -3.7022  -3.6779  -3.6300  -3.6165  -3.6017  -3.5973  -3.5920  -3.5916
    -3.5617  -3.5463  -3.5422  -3.5360  -3.5240  -3.5163  -3.5145  -3.5089
    -3.5026  -3.5000  -3.4802  -3.4766  -3.4737  -3.4677  -3.4649  -3.4554
    -3.4476  -3.4414  -3.4364  -3.4350  -3.4226  -3.4189  -3.4143  -3.4037
    -3.3880  -3.3766  -3.3534  -3.3443  -3.3408  -3.3377  -3.3353  -3.3291
    -3.3282  -3.3161  -3.3049  -3.2830  -3.2795  -3.2744  -3.2704  -3.2701
    -3.2696  -3.2676  -3.2629  -3.2527  -3.2363  -3.2315  -3.2270  -3.2239
    -3.2159  -3.2143  -3.2036  -3.2016  -3.1998  -3.1949  -3.1814  -3.1804
    -3.1742  -3.1672  -3.1642  -3.1560  -3.1537  -3.1537  -3.1513  -3.1346
    -3.0975  -3.0953  -3.0866  -3.0734  -3.0656  -3.0624  -3.0562  -3.0503
    -3.0203  -3.0176  -3.0151  -3.0133  -3.0128  -3.0119  -3.0072  -3.0059
    -3.0006  -2.9966  -2.9956  -2.9862  -2.9827  -2.9809  -2.9772  -2.9748
    -2.9710  -2.9690  -2.9617  -2.9598  -2.9565  -2.9528  -2.9427  -2.9388
    -2.9377  -2.9320  -2.9257  -2.9230  -2.9190  -2.8999  -2.8973  -2.8854
    -2.8791  -2.8724  -2.8679  -2.8656  -2.8596  -2.8409  -2.7949  -2.7855
    -2.7812  -2.7770  -2.7552  -2.7275  -2.7169  -2.7110  -2.6281  -2.6082
    -2.6022  -2.5812  -2.5700  -2.5687  -2.5497  -2.5404  -2.5369  -2.5253
    -2.5227  -2.5193  -2.5159  -2.5135  -2.4941  -2.4164  -2.3954  -2.3920
    -2.3881  -2.3814  -2.3780  -2.3711  -2.3458  -2.3328  -2.3316

          k =-0.5000-0.8660 0.0000 (386352 PWs)   bands (ev):

  -102.2971 -88.8840 -88.7340 -70.6379 -70.6364 -70.6088 -70.6024 -70.5926
   -70.5783 -70.5676 -66.6129 -66.6129 -66.6128 -66.6126 -66.6117 -66.6117
   -66.6089 -66.6023 -66.6023 -66.6021 -66.6020 -66.6010 -66.6010 -66.5978
   -66.5899 -66.5872 -66.5872 -66.5872 -66.5872 -66.5870 -66.5870 -66.5869
   -66.5868 -66.5859 -66.5859 -66.5859 -66.5859 -66.5845 -66.5827 -66.5827
   -66.5826 -66.5824 -66.5815 -66.5814 -66.5765 -66.5765 -66.5764 -66.5764
   -66.5763 -66.5763 -66.5761 -66.5760 -66.5758 -66.5752 -66.5752 -66.5752
   -66.5752 -66.5720 -66.5720 -66.5719 -66.5718 -66.5717 -66.5707 -66.5707
   -66.5679 -66.5655 -66.5609 -66.5583 -66.5537 -66.5524 -66.5486 -66.5465
   -66.5327 -66.5181 -56.5907 -56.5170 -56.4679 -54.7432 -54.6726 -54.6069
   -54.5816 -54.5097 -54.4958 -40.9148 -40.9148 -40.9148 -40.9148 -40.9147
   -40.9146 -40.9145 -40.9143 -40.9142 -40.9142 -40.9142 -40.9142 -40.9068
   -40.8963 -40.8880 -40.8880 -40.8878 -40.8876 -40.8874 -40.8874 -40.8842
   -40.8794 -40.8775 -40.8760 -40.8760 -40.8756 -40.8756 -40.8753 -40.8753
   -40.8667 -40.8460 -40.8382 -40.8253 -40.8253 -40.8253 -40.8253 -40.8250
   -40.8250 -40.8249 -40.8249 -40.8246 -40.8246 -40.8246 -40.8246 -40.8017
   -40.7969 -40.7958 -40.7915 -40.7737 -40.7689 -40.7666 -40.7666 -40.7665
   -40.7663 -40.7661 -40.7660 -40.7570 -40.7570 -40.7567 -40.7566 -40.7562
   -40.7562 -40.7512 -40.7463 -40.7458 -40.7458 -40.7455 -40.7455 -40.7452
   -40.7452 -40.7285 -40.7279 -40.7273 -40.7211 -40.7185 -40.7162 -40.7162
   -40.7162 -40.7161 -40.7159 -40.7159 -40.7159 -40.7159 -40.7155 -40.7155
   -40.7155 -40.7155 -40.7133 -40.7074 -40.7074 -40.7073 -40.7071 -40.7068
   -40.7068 -40.7060 -40.7016 -40.6960 -40.6955 -40.6955 -40.6953 -40.6952
   -40.6951 -40.6951 -40.6951 -40.6951 -40.6951 -40.6950 -40.6948 -40.6947
   -40.6947 -40.6947 -40.6945 -40.6945 -40.6944 -40.6944 -40.6921 -40.6903
   -40.6865 -40.6864 -40.6864 -40.6862 -40.6862 -40.6858 -40.6858 -40.6802
   -40.6725 -40.6702 -40.6682 -40.6646 -40.6646 -40.6646 -40.6646 -40.6644
   -40.6643 -40.6642 -40.6642 -40.6637 -40.6637 -40.6637 -40.6637 -40.6497
   -40.6409 -40.6396 -40.6298 -40.6298 -40.6298 -40.6298 -40.6296 -40.6296
   -40.6295 -40.6295 -40.6289 -40.6289 -40.6289 -40.6289 -40.6287 -40.6177
   -40.6177 -40.6175 -40.6173 -40.6168 -40.6168 -40.6059 -40.6045 -40.6005
   -40.5996 -40.5984 -40.5984 -40.5981 -40.5980 -40.5975 -40.5974 -40.5928
   -40.5814 -40.5814 -40.5811 -40.5810 -40.5804 -40.5804 -40.5766 -40.5729
   -40.5702 -40.5507 -40.5507 -40.5505 -40.5503 -40.5502 -40.5497 -40.5497
   -40.5437 -40.5257 -40.5094 -20.0799 -19.8850 -19.8620 -19.8290 -19.7630
   -19.7368 -19.6537 -19.6439 -19.6206 -19.4800 -19.4265 -19.4171 -19.3348
   -19.3242 -19.2283 -19.2234 -19.0511 -19.0099 -18.8573 -18.8115 -18.7849
   -18.7504 -18.7221 -18.7168 -18.7132 -18.7096 -18.7088 -18.6666 -18.6542
   -18.6475 -18.6434 -18.6307 -18.6288 -18.5851 -18.5758 -18.5552 -18.5488
   -18.5463 -18.5445 -18.5230 -18.5180 -18.4838 -18.4812 -18.4713 -18.4635
   -18.4444 -18.4261 -18.4068 -18.4011 -18.3998 -18.3767 -18.3547 -18.3408
   -18.3258 -18.3244 -18.3057 -18.2720 -18.2640 -18.2420 -18.2398 -18.2175
   -18.1894 -18.1839 -18.1730 -18.1623 -18.1302 -18.1224 -18.1127 -18.1029
   -18.0943 -18.0924 -18.0912 -18.0901 -18.0710 -18.0675 -18.0651 -18.0626
   -18.0591 -18.0575 -18.0514 -18.0469 -18.0454 -18.0343 -18.0236 -18.0053
   -18.0020 -18.0012 -17.9976 -17.9946 -17.9932 -17.9924 -17.9831 -17.9817
   -17.9720 -17.9457 -17.9397 -17.9374 -17.9303 -17.9273 -17.9143 -17.8972
   -17.8879 -17.8841 -17.8708 -17.8686 -17.8491 -17.8408 -17.8358 -17.8331
   -17.8320 -17.8134 -17.8127 -17.8124 -17.8118 -17.8115 -17.8103 -17.7983
   -17.7976 -17.7784 -17.7771 -17.7538 -17.7526 -17.7341 -17.7323 -17.7197
   -17.7182 -17.7129 -17.7126 -12.1199 -11.8775 -11.7647 -11.7318 -11.7065
   -11.6343 -11.5600 -11.5409 -11.5147 -11.4941 -11.4908 -11.4861 -11.4799
   -11.4689 -11.4568 -11.4493 -11.4059 -11.3986 -11.3882 -11.3762 -11.3709
   -11.3496 -11.3422 -11.3312 -11.3135 -11.2994 -11.2821 -11.2693 -11.2641
   -11.2596 -11.2533 -11.2514 -11.2475 -11.2306 -11.2088 -11.1999 -11.1919
   -11.1864 -11.1777 -11.1741 -11.1654 -11.1626 -11.1551 -11.1436 -11.1397
   -11.1334 -11.1254 -11.0946 -11.0704 -11.0683 -11.0599 -11.0045 -10.9913
   -10.9799 -10.9576 -10.9456 -10.9385 -10.9249 -10.9109 -10.9004 -10.8879
   -10.8803 -10.8715 -10.8461 -10.8336 -10.8308 -10.8287 -10.8233 -10.8080
   -10.8048 -10.8043 -10.8037 -10.8033 -10.7988 -10.7941 -10.7918 -10.7861
   -10.7854 -10.7787 -10.7767 -10.7750 -10.7741 -10.7394 -10.7373 -10.7369
   -10.7366 -10.7332 -10.6781 -10.5775 -10.5399 -10.5372 -10.5228 -10.4995
   -10.4741 -10.4594 -10.4176 -10.3939 -10.3541 -10.3243 -10.2502 -10.2385
   -10.1793 -10.1632 -10.1443 -10.1251 -10.1143 -10.1077 -10.1000 -10.0867
   -10.0528 -10.0469 -10.0375 -10.0266 -10.0246 -10.0217 -10.0172 -10.0059
    -9.9995  -9.9698  -9.9521  -9.9339  -9.9193  -9.9171  -9.9045  -9.8972
    -9.8884  -9.8848  -9.8759  -9.8589  -9.8476  -9.8339  -9.8148  -9.7965
    -9.7797  -9.7769  -9.7683  -9.7539  -9.7446  -9.7315  -9.7055  -9.7001
    -9.6905  -9.6634  -9.6529  -9.6297  -9.6267  -9.6205  -9.6075  -9.5965
    -9.5748  -9.5618  -9.5537  -9.5507  -9.5432  -9.5397  -9.5302  -9.4862
    -9.4848  -9.4815  -9.4786  -9.4716  -9.4610  -9.4562  -9.4549  -9.4511
    -9.4472  -9.4311  -9.4276  -9.3842  -9.3768  -9.3549  -9.3447  -9.3334
    -9.3022  -9.2814  -9.2365  -9.2264  -9.2170  -9.2090  -9.2022  -9.1942
    -9.1873  -9.1611  -9.1530  -9.1435  -9.1299  -9.1119  -9.1089  -9.1015
    -9.0835  -9.0670  -9.0570  -9.0509  -9.0409  -9.0339  -9.0294  -9.0140
    -9.0038  -8.9959  -8.9768  -8.9591  -8.9505  -8.9464  -8.9397  -8.9313
    -8.9247  -8.9154  -8.8914  -8.8865  -8.8855  -8.8809  -8.8801  -8.8798
    -8.8744  -8.8704  -8.8625  -8.8616  -8.8569  -8.8516  -8.8461  -8.8446
    -8.8363  -8.8333  -8.8332  -8.8234  -8.8107  -8.7878  -8.7874  -8.7859
    -8.7830  -8.7809  -8.7784  -8.7572  -8.7543  -8.7335  -8.7277  -8.7265
    -8.7263  -8.7227  -8.7213  -8.7088  -8.6888  -8.6528  -8.6490  -8.6257
[...]
     atom  172 type  2   force =    -0.00000045    0.00000235    0.00161527
     atom  173 type  2   force =    -0.00000057    0.00000191   -0.00235998
     atom  174 type  2   force =    -0.00000788    0.00000750    0.00002822
     atom  175 type  1   force =    -0.00000979    0.00000960    0.00000791
     atom  176 type  1   force =    -0.00011309    0.00008004    0.00019808
     atom  177 type  2   force =     0.00055633    0.00021291   -0.00029824
     atom  178 type  2   force =    -0.00001312    0.00000148   -0.00002108
     atom  179 type  2   force =     0.00000894    0.00001821    0.00003816
     atom  180 type  2   force =    -0.00042899   -0.00028971   -0.00000442
     atom  181 type  1   force =     0.00000087    0.00000122    0.00068859
     atom  182 type  1   force =    -0.00000825   -0.00000451    0.00000906
     atom  183 type  2   force =    -0.00000193    0.00000000    0.00000454
     atom  184 type  2   force =    -0.00000050    0.00000243    0.00161540
     atom  185 type  2   force =    -0.00000062    0.00000188   -0.00235994
     atom  186 type  2   force =    -0.00000627    0.00000651    0.00004227
     atom  187 type  1   force =     0.00000764    0.00001274    0.00001536
     atom  188 type  1   force =     0.00020745   -0.00004481    0.00011733
     atom  189 type  2   force =    -0.00004539   -0.00024892    0.00030721
     atom  190 type  2   force =    -0.00000370    0.00004636   -0.00001997
     atom  191 type  2   force =    -0.00000414    0.00000117    0.00001586
     atom  192 type  2   force =     0.00012950    0.00025132   -0.00005442
     atom  193 type  3   force =     0.00099808   -0.00039058    0.00006806
     atom  194 type  3   force =    -0.00004855   -0.00016451    0.00038398
     atom  195 type  4   force =     0.00018075   -0.00022160    0.00009496

     Total force =     0.002768     Total SCF correction =     0.000356
     SCF correction compared to forces is large: reduce conv_thr to get better values
     Energy error            =      1.6E-05 Ry
     Gradient error          =      1.0E-03 Ry/Bohr

     bfgs converged in  22 scf cycles and  21 bfgs steps
     (criteria: energy <  1.0E-04 Ry, force <  1.0E-03 Ry/Bohr)

     End of BFGS Geometry Optimization

     Final energy             =  -34492.2601173121 Ry

     File ./outdir/pwscf.bfgs deleted, as requested
Begin final coordinates

ATOMIC_POSITIONS (angstrom)
Mo               0.0000119917        1.8193638619       -9.1672481230    0   0   0
Mo               1.5756136568        0.9097075315       -3.0554901653    0   0   0
S                0.0000188998        1.8193822938       -4.6232556019    0   0   0
S                1.5756321638        0.9096773839       -7.6014065489    0   0   0
S                1.5756326175        0.9096785128      -10.7330757790    0   0   0
S                0.0000189190        1.8193860094       -1.4877129945    0   0   0
Mo              -0.0000808754        1.8211795057        3.0589136538
Mo               1.5686487715        0.9207038396        9.1851429608
S               -0.0060293647        1.8198631231        7.6009422463
S                1.5762378218        0.9123164023        4.6262576663
S                1.5751450944        0.9115440418        1.4904247619
S               -0.0040788547        1.8390893590       10.7498184589
Mo              -1.5756053507        4.5484193819       -9.1672481230    0   0   0
Mo               0.0000378379        3.6387394919       -3.0554952701    0   0   0
S               -1.5755913433        4.5484363582       -4.6232494962    0   0   0
S                0.0000148214        3.6387329039       -7.6014065489    0   0   0
S                0.0000152751        3.6387340328      -10.7330757790    0   0   0
S               -1.5755906502        4.5484413613       -1.4877305502    0   0   0
Mo              -1.5754449216        4.5501667817        3.0584413044
Mo              -0.0281073940        3.6388234517        9.1644355323
S               -1.5797652598        4.5651917806        7.5834499723
S                0.0001624786        3.6407346515        4.6268320535
S                0.0000843761        3.6403570053        1.4908323301
S               -1.5974703008        4.5649110829       10.7289813753
Mo              -3.1512226931        7.2774749019       -9.1672481230    0   0   0
Mo              -1.5755910988        6.3678216792       -3.0555115988    0   0   0
S               -3.1512162438        7.2774954350       -4.6232578178    0   0   0
S               -1.5756025210        6.3677884239       -7.6014065489    0   0   0
S               -1.5756020673        6.3677895528      -10.7330757790    0   0   0
S               -3.1512127704        7.2774877076       -1.4877200710    0   0   0
Mo              -3.1510272467        7.2795410702        3.0580049806
Mo              -1.5834382037        6.3853549902        9.1640308919
S               -3.1442235136        7.2990575890        7.5847605010
S               -1.5754853312        6.3698364598        4.6258157960
S               -1.5749693011        6.3697090517        1.4906896293
S               -3.1570182365        7.2931039031       10.7271112335
Mo              -4.7268400355       10.0065304219       -9.1672481230    0   0   0
Mo              -3.1512405618        9.0968403586       -3.0554816746    0   0   0
S               -4.7268341792       10.0065523623       -4.6232463762    0   0   0
S               -3.1512198634        9.0968439439       -7.6014065489    0   0   0
S               -3.1512194097        9.0968450728      -10.7330757790    0   0   0
S               -4.7268370797       10.0065537885       -1.4877176751    0   0   0
Mo              -4.7270509840       10.0087983838        3.0585552424
Mo              -3.1549943676        9.1154732852        9.1604192077
S               -4.7326416017       10.0327813199        7.5989851176
S               -3.1514847166        9.0989889695        4.6259606897
S               -3.1511885284        9.0991189095        1.4906422409
S               -4.7196764436       10.0119044523       10.7443845985
Mo               3.1512517547        1.8193638619       -9.1672481230    0   0   0
Mo               4.7269020221        0.9097289540       -3.0554823951    0   0   0
S                3.1512612351        1.8193882564       -4.6232320683    0   0   0
S                4.7268719268        0.9096773839       -7.6014065489    0   0   0
S                4.7268723805        0.9096785128      -10.7330757790    0   0   0
S                3.1512592485        1.8193890201       -1.4877261251    0   0   0
Mo               3.1511003078        1.8215997544        3.0576214979
Mo               4.7285258813        0.9205278359        9.1779211284
S                3.1466249999        1.8561639681        7.6423014164
S                4.7259525261        0.9123222430        4.6263364382
S                4.7271474730        0.9113653491        1.4905696302
S                3.1550708817        1.7613766311       10.7998236100
Mo               1.5756344123        4.5484193819       -9.1672481230    0   0   0
Mo               3.1512756394        3.6387769522       -3.0554814834    0   0   0
S                1.5756504879        4.5484423799       -4.6232390542    0   0   0
S                3.1512545844        3.6387329039       -7.6014065489    0   0   0
S                3.1512550381        3.6387340328      -10.7330757790    0   0   0
S                1.5756466253        4.5484431864       -1.4877251801    0   0   0
Mo               1.5756315412        4.5503350152        3.0586552896
Mo               3.1518928795        3.6543302203        9.2210379960
S                1.5852363051        4.5496194220        7.6408158865
S                3.1509191356        3.6404358609        4.6260919473
S                3.1511295951        3.6410798730        1.4902719187
S                1.4499586024        4.5645451615       10.7887595340
Mo               0.0000170699        7.2774749019       -9.1672481230    0   0   0
Mo               1.5756764447        6.3678236689       -3.0554877708    0   0   0
S                0.0000381981        7.2774979204       -4.6232454413    0   0   0
S                1.5756372420        6.3677884239       -7.6014065489    0   0   0
S                1.5756376957        6.3677895528      -10.7330757790    0   0   0
S                0.0000328088        7.2774946042       -1.4877307940    0   0   0
Mo               0.0003891203        7.2794776267        3.0591897246
Mo               1.5510342172        6.3763289349        9.1740661845
S               -0.0013452165        7.3013990171        7.6100241820
S                1.5756917893        6.3692638386        4.6279546210
S                1.5758728987        6.3698618950        1.4913966923
S               -0.0430990012        7.3176097797       10.7657652129
Mo              -1.5756002725       10.0065304219       -9.1672481230    0   0   0
Mo               0.0000873425        9.0968676911       -3.0554912329    0   0   0
S               -1.5755883952       10.0065504530       -4.6232240150    0   0   0
S                0.0000198996        9.0968439439       -7.6014065489    0   0   0
S                0.0000203533        9.0968450728      -10.7330757790    0   0   0
S               -1.5755859047       10.0065492576       -1.4877362381    0   0   0
Mo              -1.5755783013       10.0086774413        3.0588333193
Mo              -0.0246477887        9.1188205442        9.1800439744
S               -1.5790755818       10.0308982197        7.5951020363
S                0.0002883524        9.0991918187        4.6270536032
S                0.0001059116        9.0985902956        1.4911812816
S               -1.5991120997       10.0206161853       10.7446838658
Mo               6.3024915177        1.8193638619       -9.1672481230    0   0   0
Mo               7.8781001445        0.9096521684       -3.0554919963    0   0   0
S                6.3025008696        1.8193826232       -4.6232480596    0   0   0
S                7.8781116898        0.9096773839       -7.6014065489    0   0   0
S                7.8781121435        0.9096785128      -10.7330757790    0   0   0
S                6.3025042007        1.8193849068       -1.4877147524    0   0   0
Mo               6.3024635226        1.8210329812        3.0589171324
Mo               7.8733166495        0.9384746226        9.1749327124
S                6.3016763860        1.8212792210        7.5915251107
S                7.8783246961        0.9111356386        4.6267158489
S                7.8780137520        0.9110884036        1.4909137841
S                6.3004031179        1.8482609484       10.7372776032
Mo               4.7268741753        4.5484193819       -9.1672481230    0   0   0
Mo               6.3024679138        3.6387501714       -3.0554895197    0   0   0
S                4.7268748770        4.5484386753       -4.6232519432    0   0   0
S                6.3024943474        3.6387329039       -7.6014065489    0   0   0
S                6.3024948011        3.6387340328      -10.7330757790    0   0   0
S                4.7268770533        4.5484432419       -1.4877137856    0   0   0
Mo               4.7267002399        4.5502111462        3.0586772782
Mo               6.3219945456        3.6452830982        9.1516785802
S                4.7133808090        4.5391012942        7.6146198248
S                6.3025760006        3.6407231492        4.6263481068
S                6.3022995535        3.6402153587        1.4907761869
S                4.8390986194        4.5955645839       10.7651327815
Mo               3.1512568329        7.2774749019       -9.1672481230    0   0   0
Mo               4.7268384135        6.3678043337       -3.0554959052    0   0   0
S                3.1512606125        7.2774972547       -4.6232589675    0   0   0
S                4.7268770050        6.3677884239       -7.6014065489    0   0   0
S                4.7268774587        6.3677895528      -10.7330757790    0   0   0
S                3.1512629079        7.2774963749       -1.4877081835    0   0   0
Mo               3.1512408454        7.2793080700        3.0597108091
Mo               4.7796361760        6.3704032489        9.1524938127
S                3.1536240628        7.3090102854        7.6437858731
S                4.7270122471        6.3693801812        4.6273350190
S                4.7267052236        6.3697947448        1.4913660805
S                3.2195881761        7.1653892293       10.7390973009
Mo               1.5756394905       10.0065304219       -9.1672481230    0   0   0
Mo               3.1512330605        9.0968514907       -3.0554878870    0   0   0
S                1.5756499830       10.0065443759       -4.6232632674    0   0   0
S                3.1512596626        9.0968439439       -7.6014065489    0   0   0
S                3.1512601163        9.0968450728      -10.7330757790    0   0   0
S                1.5756503041       10.0065459699       -1.4877044377    0   0   0
Mo               1.5758476973       10.0081478563        3.0589070918
Mo               3.1557478040        9.1166618002        9.2144758899
S                1.5896199047       10.0115792050        7.6423868109
S                3.1513336779        9.0988724858        4.6274814235
S                3.1510031312        9.0980040291        1.4910109037
S                1.4732382552       10.0836988320       10.7987817524
Mo               9.4537312807        1.8193638619       -9.1672481230    0   0   0
Mo              11.0293863460        0.9096952246       -3.0554894007    0   0   0
S                9.4537395970        1.8193770750       -4.6232328036    0   0   0
S               11.0293514528        0.9096773839       -7.6014065489    0   0   0
S               11.0293519066        0.9096785128      -10.7330757790    0   0   0
S                9.4537393632        1.8193794783       -1.4877366147    0   0   0
Mo               9.4537197246        1.8208270944        3.0584760244
Mo              11.0308214767        0.9294794682        9.1852699630
S                9.4571600014        1.8239567534        7.6001008164
S               11.0290461667        0.9110580374        4.6265081759
S               11.0293385931        0.9113703132        1.4906935975
S                9.4492928986        1.8446460048       10.7374845138
Mo               7.8781139383        4.5484193819       -9.1672481230    0   0   0
Mo               9.4537539161        3.6387607911       -3.0554933032    0   0   0
S                7.8781175448        4.5484378232       -4.6232366318    0   0   0
S                9.4537341104        3.6387329039       -7.6014065489    0   0   0
S                9.4537345641        3.6387340328      -10.7330757790    0   0   0
S                7.8781194018        4.5484411585       -1.4877377057    0   0   0
Mo               7.8782196031        4.5501022596        3.0580676980
Mo               9.4527231794        3.6544401376        9.1541763790
S                7.8851866298        4.5604815734        7.5762616738
S                9.4538304813        3.6401723571        4.6257163262
S                9.4539186821        3.6401903406        1.4904697980
S                7.8915261795        4.5666331670       10.7210661978
Mo               6.3024965959        7.2774749019       -9.1672481230    0   0   0
Mo               7.8781361655        6.3678242352       -3.0555014130    0   0   0
S                6.3024973331        7.2774953556       -4.6232392528    0   0   0
S                7.8781167680        6.3677884239       -7.6014065489    0   0   0
S                7.8781172217        6.3677895528      -10.7330757790    0   0   0
S                6.3024989866        7.2774929744       -1.4877349119    0   0   0
Mo               6.3024145513        7.2795369156        3.0589430042
Mo               7.8879632235        6.3837033056        9.1487952877
S                6.3194010597        7.3055683874        7.5777234458
S                7.8786068570        6.3696237264        4.6254594914
S                7.8779138132        6.3697604590        1.4905170409
S                6.3323045718        7.2933794624       10.7268778059
Mo               4.7268792535       10.0065304219       -9.1672481230    0   0   0
Mo               6.3025111524        9.0968738021       -3.0554915260    0   0   0
S                4.7268840634       10.0065452125       -4.6232380477    0   0   0
S                6.3024994256        9.0968439439       -7.6014065489    0   0   0
S                6.3024998793        9.0968450728      -10.7330757790    0   0   0
S                4.7268847312       10.0065459141       -1.4877283294    0   0   0
Mo               4.7264280928       10.0082676123        3.0583646154
Mo               6.3129070485        9.1132537502        9.1749798425
S                4.7052404502       10.0143264810        7.6412854979
S                6.3018648116        9.0995529307        4.6263260993
S                6.3023466077        9.0986471955        1.4908006673
S                4.8092227941       10.0671271560       10.8223314907
Pd               1.7018317062        6.4418723472       12.3010115212
Pd               3.1272761286        3.7715487907       12.1172868111
Pt               3.0797510246        8.9791972297       12.0401855515
End final coordinates



     Writing all to output data dir ./outdir/pwscf.save/ :
     XML data file, charge density, pseudopotentials, collected wavefunctions
 
     init_run     :    174.87s CPU    178.24s WALL (       1 calls)
     electrons    : 181976.78s CPU 184253.18s WALL (      22 calls)
     update_pot   :     35.39s CPU     36.59s WALL (      21 calls)
     forces       :   2870.05s CPU   2921.59s WALL (      22 calls)
     force_dftd3  :     15.13s CPU     15.82s WALL (      22 calls)

     Called by init_run:
     wfcinit      :    151.10s CPU    152.99s WALL (       1 calls)
     potinit      :      1.29s CPU      1.42s WALL (       1 calls)
     hinit0       :     12.82s CPU     12.90s WALL (       1 calls)

     Called by electrons:
     c_bands      : 160627.34s CPU 162152.62s WALL (     298 calls)
     sum_band     :  19085.84s CPU  19473.16s WALL (     298 calls)
     v_of_rho     :    107.74s CPU    120.88s WALL (     303 calls)
     newd         :   1910.09s CPU   2264.94s WALL (     303 calls)
     PAW_pot      :    282.45s CPU    285.24s WALL (     324 calls)
     mix_rho      :     29.65s CPU     34.23s WALL (     298 calls)
     energy_dftd3 :      8.91s CPU      8.97s WALL (      22 calls)

     Called by c_bands:
     init_us_2    :    641.82s CPU    644.79s WALL (    2560 calls)
     init_us_2:cp :    641.80s CPU    644.77s WALL (    2560 calls)
     cegterg      : 157889.54s CPU 159396.29s WALL (    1213 calls)

     Called by *egterg:
     cdiaghg      :   9368.66s CPU   9701.30s WALL (   14696 calls)
     h_psi        :  79523.21s CPU  80013.92s WALL (   14858 calls)
     s_psi        :  18076.69s CPU  18188.81s WALL (   14858 calls)
     g_psi        :    142.65s CPU    143.28s WALL (   13641 calls)

     Called by h_psi:
     h_psi:calbec :  17957.98s CPU  18019.39s WALL (   14858 calls)
     vloc_psi     :  43097.20s CPU  43299.89s WALL (   14858 calls)
     add_vuspsi   :  18140.72s CPU  18253.81s WALL (   14858 calls)

     General routines
     calbec       :  25847.19s CPU  25935.74s WALL (   16486 calls)
     fft          :    137.10s CPU    149.35s WALL (    4175 calls)
     ffts         :      5.63s CPU      6.06s WALL (     601 calls)
     fftw         :  32504.38s CPU  32656.27s WALL ( 8520844 calls)
     interpolate  :      9.55s CPU     10.47s WALL (     303 calls)
 
     Parallel routines
 
     PWSCF        :   2d 3h38m CPU   2d 4h19m WALL

 
   This run was terminated on:  10: 8:45   8Apr2024            

=------------------------------------------------------------------------------=
   JOB DONE.
=------------------------------------------------------------------------------=
