
     Program PWSCF v.7.2 starts on  3Nov2023 at 18:33:51 

     This program is part of the open-source Quantum ESPRESSO suite
     for quantum simulation of materials; please cite
         "P. Giannozzi et al., J. Phys.:Condens. Matter 21 395502 (2009);
         "P. Giannozzi et al., J. Phys.:Condens. Matter 29 465901 (2017);
         "P. Giannozzi et al., J. Chem. Phys. 152 154105 (2020);
          URL http://www.quantum-espresso.org", 
     in publications or presentations arising from this work. More details at
     http://www.quantum-espresso.org/quote

     Parallel version (MPI), running on    36 processors

     MPI processes distributed on     1 nodes
     769310 MiB available memory on the printing compute node when the environment starts
 
     Waiting for input...
     Reading input from standard input
Warning: card &CELL ignored
Warning: card / ignored

     Current dimensions of program PWSCF are:
     Max number of different atomic species (ntypx) = 10
     Max number of k-points (npk) =  40000
     Max angular momentum in pseudopotentials (lmaxx) =  4
     file Mo.pbe-spn-kjpaw_psl.1.0.0.UPF: wavefunction(s)  4S 4D renormalized
     file S.pbe-n-kjpaw_psl.1.0.0.UPF: wavefunction(s)  3S 3P renormalized
     file Pd.pbe-spn-kjpaw_psl.1.0.0.UPF: wavefunction(s)  4S 5S 4D renormalized
 
     R & G space division:  proc/nbgrp/npool/nimage =      36
     Subspace diagonalization in iterative solution of the eigenvalue problem:
     one sub-group per band group will be used
     custom distributed-memory algorithm (size of sub-group:  6*  6 procs)

 
     Parallelization info
     --------------------
     sticks:   dense  smooth     PW     G-vecs:    dense   smooth      PW
     Min         586     335     89               165416    71459    9765
     Max         587     337     90               165425    71461    9778
     Sum       21109   12085   3205              5955087  2572543  351657
 
     Using Slab Decomposition
 


     bravais-lattice index     =            0
     lattice parameter (alat)  =      23.8395  a.u.
     unit-cell volume          =   28182.8498 (a.u.)^3
     number of atoms/cell      =          147
     number of atomic types    =            3
     number of electrons       =      1302.00
     number of Kohn-Sham states=          781
     kinetic-energy cutoff     =      77.0000  Ry
     charge density cutoff     =     539.0000  Ry
     scf convergence threshold =      1.0E-06
     mixing beta               =       0.2000
     number of iterations used =            8  plain     mixing
     energy convergence thresh.=      1.0E-04
     force convergence thresh. =      1.0E-03
     Exchange-correlation= SLA  PW   PBX  PBC
                           (   1   4   3   4   0   0   0)
     nstep                     =         1000


     Effective Screening Medium Method
     =================================
     Boundary Conditions: Vacuum-Slab-Vacuum
     total charge in unit cell        =   0.0000
     grid points for fit at edges     =        4 
 

     celldm(1)=  23.839504  celldm(2)=   0.000000  celldm(3)=   0.000000
     celldm(4)=   0.000000  celldm(5)=   0.000000  celldm(6)=   0.000000

     crystal axes: (cart. coord. in units of alat)
               a(1) = (   1.000000   0.000000   0.000000 )  
               a(2) = (  -0.500001   0.866026   0.000000 )  
               a(3) = (   0.000000   0.000000   2.401941 )  

     reciprocal axes: (cart. coord. in units 2 pi/alat)
               b(1) = (  1.000000  0.577351  0.000000 )  
               b(2) = (  0.000000  1.154700  0.000000 )  
               b(3) = (  0.000000  0.000000  0.416330 )  


     PseudoPot. # 1 for Mo read from file:
     ./pseudo/Mo.pbe-spn-kjpaw_psl.1.0.0.UPF
     MD5 check sum: 317bf72632116215fd98f72de1686f13
     Pseudo is Projector augmented-wave + core cor, Zval = 14.0
     Generated using 'atomic' code by A. Dal Corso  v.7.2
     Shape of augmentation charge: PSQ
     Using radial grid of 1229 points,  6 beta functions with: 
                l(1) =   0
                l(2) =   0
                l(3) =   1
                l(4) =   1
                l(5) =   2
                l(6) =   2
     Q(r) pseudized with 0 coefficients 


     PseudoPot. # 2 for S  read from file:
     ./pseudo/S.pbe-n-kjpaw_psl.1.0.0.UPF
     MD5 check sum: 8b7b5302570d38d5e87fed6a1065abda
     Pseudo is Projector augmented-wave + core cor, Zval =  6.0
     Generated using 'atomic' code by A. Dal Corso  v.7.2
     Shape of augmentation charge: PSQ
     Using radial grid of 1151 points,  6 beta functions with: 
                l(1) =   0
                l(2) =   0
                l(3) =   1
                l(4) =   1
                l(5) =   2
                l(6) =   2
     Q(r) pseudized with 0 coefficients 


     PseudoPot. # 3 for Pd read from file:
     ./pseudo/Pd.pbe-spn-kjpaw_psl.1.0.0.UPF
     MD5 check sum: a60571a671f2502b8a6a4569d20a6edb
     Pseudo is Projector augmented-wave + core cor, Zval = 18.0
     Generated using 'atomic' code by A. Dal Corso  v.7.2
     Shape of augmentation charge: PSQ
     Using radial grid of 1235 points,  6 beta functions with: 
                l(1) =   0
                l(2) =   0
                l(3) =   1
                l(4) =   1
                l(5) =   2
                l(6) =   2
     Q(r) pseudized with 0 coefficients 


     atomic species   valence    mass     pseudopotential
        Mo            14.00    95.95000     Mo( 1.00)
        S              6.00    32.06000     S ( 1.00)
        Pd            18.00   106.42000     Pd( 1.00)

     No symmetry found



   Cartesian axes

     site n.     atom                  positions (alat units)
         1           Mo  tau(   1) = (   0.1248625   0.2131281   0.4810783  )
         2           Mo  tau(   2) = (   0.1250004   0.0721694  -0.4825273  )
         3           Mo  tau(   3) = (  -0.0000005   0.1443526  -0.0000490  )
         4           S   tau(   4) = (   0.0000004   0.0000006  -0.6064556  )
         5           S   tau(   5) = (   0.1249809   0.0722325  -0.1242083  )
         6           S   tau(   6) = (  -0.0008091   0.1437924   0.3564499  )
         7           S   tau(   7) = (   0.0000004   0.0000005  -0.3584711  )
         8           S   tau(   8) = (   0.1250266   0.0721270   0.1240857  )
         9           S   tau(   9) = (  -0.0005942   0.1424836   0.6054838  )
        10           Mo  tau(  10) = (  -0.0011099   0.4328730   0.4866737  )
        11           Mo  tau(  11) = (   0.0000001   0.2886759  -0.4825273  )
        12           Mo  tau(  12) = (  -0.1249710   0.3608625  -0.0000153  )
        13           S   tau(  13) = (  -0.1249999   0.2165071  -0.6064556  )
        14           S   tau(  14) = (   0.0000009   0.2886909  -0.1241159  )
        15           S   tau(  15) = (  -0.1236884   0.3618446   0.3606188  )
        16           S   tau(  16) = (  -0.1249998   0.2165070  -0.3584711  )
        17           S   tau(  17) = (   0.0000530   0.2887092   0.1242638  )
        18           S   tau(  18) = (  -0.1316249   0.3573130   0.6109420  )
        19           Mo  tau(  19) = (  -0.1257401   0.6504248   0.4820927  )
        20           Mo  tau(  20) = (  -0.1250002   0.5051824  -0.4825273  )
        21           Mo  tau(  21) = (  -0.2499958   0.5773353  -0.0001714  )
        22           S   tau(  22) = (  -0.2500002   0.4330136  -0.6064556  )
        23           S   tau(  23) = (  -0.1249719   0.5051311  -0.1241932  )
        24           S   tau(  24) = (  -0.2500164   0.5770675   0.3576049  )
        25           S   tau(  25) = (  -0.2500001   0.4330135  -0.3584711  )
        26           S   tau(  26) = (  -0.1250100   0.5052346   0.1241515  )
        27           S   tau(  27) = (  -0.2503695   0.5776584   0.6061514  )
        28           Mo  tau(  28) = (   0.2502170  -0.0003953   0.4806411  )
        29           Mo  tau(  29) = (  -0.2500004   0.7216889  -0.4825273  )
        30           Mo  tau(  30) = (  -0.3749978   0.7938641  -0.0002041  )
        31           S   tau(  31) = (  -0.3750004   0.6495201  -0.6064556  )
        32           S   tau(  32) = (  -0.2499890   0.7216755  -0.1242803  )
        33           S   tau(  33) = (  -0.3749740   0.7932749   0.3566586  )
        34           S   tau(  34) = (  -0.3750004   0.6495200  -0.3584711  )
        35           S   tau(  35) = (  -0.2500089   0.7216778   0.1239952  )
        36           S   tau(  36) = (  -0.3749998   0.7939174   0.6051309  )
        37           Mo  tau(  37) = (   0.3753608   0.2157704   0.4822604  )
        38           Mo  tau(  38) = (   0.3750004   0.0721694  -0.4825273  )
        39           Mo  tau(  39) = (   0.2499960   0.1443611  -0.0001003  )
        40           S   tau(  40) = (   0.2500004   0.0000006  -0.6064556  )
        41           S   tau(  41) = (   0.3750017   0.0721909  -0.1242276  )
        42           S   tau(  42) = (   0.2507085   0.1439928   0.3565793  )
        43           S   tau(  43) = (   0.2500004   0.0000005  -0.3584711  )
        44           S   tau(  44) = (   0.3750105   0.0721153   0.1240138  )
        45           S   tau(  45) = (   0.2503040   0.1425185   0.6055897  )
        46           Mo  tau(  46) = (   0.2508295   0.4328457   0.4866827  )
        47           Mo  tau(  47) = (   0.2500001   0.2886759  -0.4825273  )
        48           Mo  tau(  48) = (   0.1249947   0.3608692  -0.0000343  )
        49           S   tau(  49) = (   0.1250001   0.2165071  -0.6064556  )
        50           S   tau(  50) = (   0.2499709   0.2887106  -0.1241515  )
        51           S   tau(  51) = (   0.1248475   0.3620695   0.3632119  )
        52           S   tau(  52) = (   0.1250002   0.2165070  -0.3584711  )
        53           S   tau(  53) = (   0.2499461   0.2887051   0.1242364  )
        54           S   tau(  54) = (   0.1248217   0.3502704   0.6102012  )
        55           Mo  tau(  55) = (   0.1249300   0.6515066   0.4828014  )
        56           Mo  tau(  56) = (   0.1249998   0.5051824  -0.4825273  )
        57           Mo  tau(  57) = (   0.0000129   0.5773133  -0.0000993  )
        58           S   tau(  58) = (  -0.0000002   0.4330136  -0.6064556  )
        59           S   tau(  59) = (   0.1250046   0.5051576  -0.1241791  )
        60           S   tau(  60) = (   0.0000991   0.5758547   0.3610070  )
        61           S   tau(  61) = (  -0.0000001   0.4330135  -0.3584711  )
        62           S   tau(  62) = (   0.1249978   0.5051967   0.1242137  )
        63           S   tau(  63) = (  -0.0004561   0.5855879   0.6099183  )
        64           Mo  tau(  64) = (   0.4999896   0.0002543   0.4809432  )
        65           Mo  tau(  65) = (  -0.0000004   0.7216889  -0.4825273  )
        66           Mo  tau(  66) = (  -0.1249822   0.7938260  -0.0001787  )
        67           S   tau(  67) = (  -0.1250004   0.6495201  -0.6064556  )
        68           S   tau(  68) = (   0.0000560   0.7216541  -0.1241922  )
        69           S   tau(  69) = (  -0.1247643   0.7934174   0.3566857  )
        70           S   tau(  70) = (  -0.1250004   0.6495200  -0.3584711  )
        71           S   tau(  71) = (  -0.0000442   0.7215876   0.1241439  )
        72           S   tau(  72) = (  -0.1253483   0.7949346   0.6057201  )
        73           Mo  tau(  73) = (   0.6249017   0.2165129   0.4812697  )
        74           Mo  tau(  74) = (   0.6250004   0.0721694  -0.4825273  )
        75           Mo  tau(  75) = (   0.4999952   0.1443533  -0.0001098  )
        76           S   tau(  76) = (   0.5000004   0.0000006  -0.6064556  )
        77           S   tau(  77) = (   0.6250318   0.0721540  -0.1241362  )
        78           S   tau(  78) = (   0.4996954   0.1447446   0.3570727  )
        79           S   tau(  79) = (   0.5000004   0.0000005  -0.3584711  )
        80           S   tau(  80) = (   0.6249569   0.0721720   0.1241430  )
        81           S   tau(  81) = (   0.5006050   0.1436236   0.6059489  )
        82           Mo  tau(  82) = (   0.5006857   0.4329470   0.4824369  )
        83           Mo  tau(  83) = (   0.5000001   0.2886759  -0.4825273  )
        84           Mo  tau(  84) = (   0.3749597   0.3608609  -0.0000517  )
        85           S   tau(  85) = (   0.3750001   0.2165071  -0.6064556  )
        86           S   tau(  86) = (   0.4999928   0.2887170  -0.1241435  )
        87           S   tau(  87) = (   0.3733222   0.3618437   0.3607838  )
        88           S   tau(  88) = (   0.3750002   0.2165070  -0.3584711  )
        89           S   tau(  89) = (   0.4999211   0.2887076   0.1241935  )
        90           S   tau(  90) = (   0.3816191   0.3573238   0.6109900  )
        91           Mo  tau(  91) = (   0.3756235   0.6503811   0.4821918  )
        92           Mo  tau(  92) = (   0.3749998   0.5051824  -0.4825273  )
        93           Mo  tau(  93) = (   0.2499864   0.5773188  -0.0000834  )
        94           S   tau(  94) = (   0.2499998   0.4330136  -0.6064556  )
        95           S   tau(  95) = (   0.3749642   0.5051523  -0.1241979  )
        96           S   tau(  96) = (   0.2498138   0.5757592   0.3610614  )
        97           S   tau(  97) = (   0.2499999   0.4330135  -0.3584711  )
        98           S   tau(  98) = (   0.3750061   0.5052047   0.1241511  )
        99           S   tau(  99) = (   0.2502814   0.5855194   0.6099661  )
       100           Mo  tau( 100) = (   0.7499287   0.0002139   0.4807633  )
       101           Mo  tau( 101) = (   0.2499996   0.7216889  -0.4825273  )
       102           Mo  tau( 102) = (   0.1249938   0.7938245  -0.0000338  )
       103           S   tau( 103) = (   0.1249996   0.6495201  -0.6064556  )
       104           S   tau( 104) = (   0.2499613   0.7216724  -0.1241590  )
       105           S   tau( 105) = (   0.1248898   0.7937393   0.3567607  )
       106           S   tau( 106) = (   0.1249996   0.6495200  -0.3584711  )
       107           S   tau( 107) = (   0.2500082   0.7215902   0.1241792  )
       108           S   tau( 108) = (   0.1250505   0.7963098   0.6059971  )
       109           Mo  tau( 109) = (  -0.1255078   0.2157673   0.4820262  )
       110           Mo  tau( 110) = (   0.8750004   0.0721694  -0.4825273  )
       111           Mo  tau( 111) = (   0.7499955   0.1443569  -0.0000274  )
       112           S   tau( 112) = (   0.7500004   0.0000006  -0.6064556  )
       113           S   tau( 113) = (   0.8749777   0.0721989  -0.1241465  )
       114           S   tau( 114) = (   0.7500467   0.1447298   0.3568874  )
       115           S   tau( 115) = (   0.7500004   0.0000005  -0.3584711  )
       116           S   tau( 116) = (   0.8749903   0.0721117   0.1240970  )
       117           S   tau( 117) = (   0.7493677   0.1435906   0.6057073  )
       118           Mo  tau( 118) = (  -0.2508787   0.4328922   0.4823938  )
       119           Mo  tau( 119) = (   0.7500001   0.2886759  -0.4825273  )
       120           Mo  tau( 120) = (   0.6249968   0.3608571  -0.0000279  )
       121           S   tau( 121) = (   0.6250001   0.2165071  -0.6064556  )
       122           S   tau( 122) = (   0.7500208   0.2886896  -0.1240956  )
       123           S   tau( 123) = (   0.6248005   0.3612471   0.3574315  )
       124           S   tau( 124) = (   0.6250002   0.2165070  -0.3584711  )
       125           S   tau( 125) = (   0.7500493   0.2887427   0.1242427  )
       126           S   tau( 126) = (   0.6249033   0.3601959   0.6065890  )
       127           Mo  tau( 127) = (  -0.3750379   0.6494479   0.4815491  )
       128           Mo  tau( 128) = (   0.6249998   0.5051824  -0.4825273  )
       129           Mo  tau( 129) = (   0.4999893   0.5773309  -0.0001634  )
       130           S   tau( 130) = (   0.4999998   0.4330136  -0.6064556  )
       131           S   tau( 131) = (   0.6249961   0.5051217  -0.1242214  )
       132           S   tau( 132) = (   0.4998255   0.5770883   0.3576879  )
       133           S   tau( 133) = (   0.4999999   0.4330135  -0.3584711  )
       134           S   tau( 134) = (   0.6249981   0.5052504   0.1240736  )
       135           S   tau( 135) = (   0.5003122   0.5776902   0.6062470  )
       136           Mo  tau( 136) = (  -0.0002805  -0.0004824   0.4806096  )
       137           Mo  tau( 137) = (   0.4999996   0.7216889  -0.4825273  )
       138           Mo  tau( 138) = (   0.3749756   0.7938309  -0.0001159  )
       139           S   tau( 139) = (   0.3749996   0.6495201  -0.6064556  )
       140           S   tau( 140) = (   0.4999628   0.7216864  -0.1242513  )
       141           S   tau( 141) = (   0.3747357   0.7932164   0.3566619  )
       142           S   tau( 142) = (   0.3749996   0.6495200  -0.3584711  )
       143           S   tau( 143) = (   0.5000348   0.7216656   0.1240143  )
       144           S   tau( 144) = (   0.3751928   0.7949639   0.6056664  )
       145           Pd  tau( 145) = (   0.2448410   0.4348549   0.7173028  )
       146           Pd  tau( 146) = (   0.0055759   0.4353384   0.7172832  )
       147           Pd  tau( 147) = (   0.1249274   0.6515093   0.7275280  )

     --------------------------------------------
     DFT-D3 Dispersion Correction (3-body terms):
     --------------------------------------------
       Reference C6 values for interpolation: 

         atom   Coordination number   C6
         S          0.000           268.01
         S          0.995           261.99
         S          1.990           251.62
         Mo         0.000          1691.79
         Mo         1.942          1004.01
         Mo        11.056           674.22
         Pd         0.000          1217.01
         Pd         1.863           573.90
         Pd         5.710           531.75

       Values used:

         atom   Coordination number  R0_AB[au]  C6      C8
         Mo        10.164            3.547    674.22  77634.20
         Mo        10.189            3.547    674.22  77634.20
         Mo        10.201            3.547    674.22  77634.20
         S          3.753            3.128    251.62  12327.25
         S          3.858            3.128    251.62  12327.25
         S          3.843            3.128    251.62  12327.25
         S          3.859            3.128    251.62  12327.25
         S          3.863            3.128    251.62  12327.25
         S          3.813            3.128    251.62  12327.25
         Mo        10.777            3.547    674.22  77634.20
         Mo        10.189            3.547    674.22  77634.20
         Mo        10.202            3.547    674.22  77634.20
         S          3.753            3.128    251.62  12327.25
         S          3.859            3.128    251.62  12327.25
         S          3.854            3.128    251.62  12327.25
         S          3.858            3.128    251.62  12327.25
         S          3.851            3.128    251.62  12327.25
         S          4.639            3.128    251.62  12327.25
         Mo        10.205            3.547    674.22  77634.20
         Mo        10.189            3.547    674.22  77634.20
         Mo        10.201            3.547    674.22  77634.20
         S          3.753            3.128    251.62  12327.25
         S          3.859            3.128    251.62  12327.25
         S          3.862            3.128    251.62  12327.25
         S          3.859            3.128    251.62  12327.25
         S          3.855            3.128    251.62  12327.25
         S          3.759            3.128    251.62  12327.25
         Mo        10.248            3.547    674.22  77634.20
         Mo        10.189            3.547    674.22  77634.20
         Mo        10.200            3.547    674.22  77634.20
         S          3.753            3.128    251.62  12327.25
         S          3.858            3.128    251.62  12327.25
         S          3.860            3.128    251.62  12327.25
         S          3.859            3.128    251.62  12327.25
         S          3.864            3.128    251.62  12327.25
         S          3.776            3.128    251.62  12327.25
         Mo        10.201            3.547    674.22  77634.20
         Mo        10.189            3.547    674.22  77634.20
         Mo        10.201            3.547    674.22  77634.20
         S          3.753            3.128    251.62  12327.25
         S          3.858            3.128    251.62  12327.25
         S          3.845            3.128    251.62  12327.25
         S          3.859            3.128    251.62  12327.25
         S          3.864            3.128    251.62  12327.25
         S          3.811            3.128    251.62  12327.25
         Mo        10.775            3.547    674.22  77634.20
         Mo        10.189            3.547    674.22  77634.20
         Mo        10.203            3.547    674.22  77634.20
         S          3.753            3.128    251.62  12327.25
         S          3.859            3.128    251.62  12327.25
         S          3.877            3.128    251.62  12327.25
         S          3.859            3.128    251.62  12327.25
         S          3.852            3.128    251.62  12327.25
         S          5.608            3.128    251.62  12327.25
         Mo        10.668            3.547    674.22  77634.20
         Mo        10.189            3.547    674.22  77634.20
         Mo        10.203            3.547    674.21  77634.20
         S          3.753            3.128    251.62  12327.25
         S          3.859            3.128    251.62  12327.25
         S          3.866            3.128    251.62  12327.25
         S          3.859            3.128    251.62  12327.25
         S          3.849            3.128    251.62  12327.25
         S          5.623            3.128    251.62  12327.25
         Mo        10.251            3.547    674.22  77634.20
         Mo        10.189            3.547    674.22  77634.20
         Mo        10.200            3.547    674.22  77634.20
         S          3.753            3.128    251.62  12327.25
         S          3.858            3.128    251.62  12327.25
         S          3.855            3.128    251.62  12327.25
         S          3.859            3.128    251.62  12327.25
         S          3.859            3.128    251.62  12327.25
         S          3.813            3.128    251.62  12327.25
         Mo        10.229            3.547    674.22  77634.20
         Mo        10.189            3.547    674.22  77634.20
         Mo        10.200            3.547    674.22  77634.20
         S          3.753            3.128    251.62  12327.25
         S          3.858            3.128    251.62  12327.25
         S          3.852            3.128    251.62  12327.25
         S          3.859            3.128    251.62  12327.25
         S          3.861            3.128    251.62  12327.25
         S          3.808            3.128    251.62  12327.25
         Mo        10.207            3.547    674.22  77634.20
         Mo        10.189            3.547    674.22  77634.20
         Mo        10.202            3.547    674.22  77634.20
         S          3.753            3.128    251.62  12327.25
         S          3.858            3.128    251.62  12327.25
         S          3.856            3.128    251.62  12327.25
         S          3.859            3.128    251.62  12327.25
         S          3.856            3.128    251.62  12327.25
         S          4.642            3.128    251.62  12327.25
         Mo        10.205            3.547    674.22  77634.20
         Mo        10.189            3.547    674.22  77634.20
         Mo        10.203            3.547    674.22  77634.20
         S          3.753            3.128    251.62  12327.25
         S          3.859            3.128    251.62  12327.25
         S          3.868            3.128    251.62  12327.25
         S          3.859            3.128    251.62  12327.25
         S          3.855            3.128    251.62  12327.25
         S          5.622            3.128    251.62  12327.25
         Mo        10.249            3.547    674.22  77634.20
         Mo        10.189            3.547    674.22  77634.20
         Mo        10.201            3.547    674.22  77634.20
         S          3.753            3.128    251.62  12327.25
         S          3.859            3.128    251.62  12327.25
         S          3.844            3.128    251.62  12327.25
         S          3.859            3.128    251.62  12327.25
         S          3.858            3.128    251.62  12327.25
         S          4.774            3.128    251.62  12327.25
         Mo        10.201            3.547    674.22  77634.20
         Mo        10.189            3.547    674.22  77634.20
         Mo        10.200            3.547    674.22  77634.20
         S          3.753            3.128    251.62  12327.25
         S          3.859            3.128    251.62  12327.25
         S          3.851            3.128    251.62  12327.25
         S          3.859            3.128    251.62  12327.25
         S          3.863            3.128    251.62  12327.25
         S          3.810            3.128    251.62  12327.25
         Mo        10.207            3.547    674.22  77634.20
         Mo        10.189            3.547    674.22  77634.20
         Mo        10.201            3.547    674.22  77634.20
         S          3.753            3.128    251.62  12327.25
         S          3.859            3.128    251.62  12327.25
         S          3.847            3.128    251.62  12327.25
         S          3.858            3.128    251.62  12327.25
         S          3.856            3.128    251.62  12327.25
         S          3.821            3.128    251.62  12327.25
         Mo        10.224            3.547    674.22  77634.20
         Mo        10.189            3.547    674.22  77634.20
         Mo        10.201            3.547    674.22  77634.20
         S          3.753            3.128    251.62  12327.25
         S          3.859            3.128    251.62  12327.25
         S          3.864            3.128    251.62  12327.25
         S          3.859            3.128    251.62  12327.25
         S          3.861            3.128    251.62  12327.25
         S          3.758            3.128    251.62  12327.25
         Mo        10.248            3.547    674.22  77634.20
         Mo        10.189            3.547    674.22  77634.20
         Mo        10.200            3.547    674.22  77634.20
         S          3.753            3.128    251.62  12327.25
         S          3.858            3.128    251.62  12327.25
         S          3.855            3.128    251.62  12327.25
         S          3.859            3.128    251.62  12327.25
         S          3.864            3.128    251.62  12327.25
         S          3.814            3.128    251.62  12327.25
         Pd         4.256            3.168    531.75  48720.73
         Pd         4.262            3.168    531.75  48720.73
         Pd         3.917            3.168    532.45  48784.85

         Molecular C6 ( Ry / a.u.^6 ) =   8044638.42


     number of k points=     4  Gaussian smearing, width (Ry)=  0.0100
                       cart. coord. in units 2pi/alat
        k(    1) = (   0.0000000   0.0000000   0.0000000), wk =   0.5000000
        k(    2) = (   0.0000000  -0.5773499   0.0000000), wk =   0.5000000
        k(    3) = (  -0.5000000  -0.2886755   0.0000000), wk =   0.5000000
        k(    4) = (  -0.5000000  -0.8660254   0.0000000), wk =   0.5000000

     Dense  grid:  5955087 G-vectors     FFT dimensions: ( 180, 180, 432)

     Smooth grid:  2572543 G-vectors     FFT dimensions: ( 135, 135, 320)

     Estimated max dynamical RAM per process >       2.14 GB

     Estimated total dynamical RAM >      77.21 GB

     Initial potential from superposition of free atoms

     starting charge    1301.9534, renormalised to    1302.0000

     negative rho (up, down):  1.179E-03 0.000E+00
     Starting wfcs are  894 randomized atomic wfcs
     Checking if some PAW data can be deallocated... 

     total cpu time spent up to now is      108.5 secs

     Self-consistent Calculation

     iteration #  1     ecut=    77.00 Ry     beta= 0.20
     Davidson diagonalization with overlap
     ethr =  1.00E-02,  avg # of iterations =  2.0

     Threshold (ethr) on eigenvalues was too large:
     Diagonalizing with lowered threshold

     Davidson diagonalization with overlap
     ethr =  2.64E-04,  avg # of iterations = 15.2

     negative rho (up, down):  3.832E-04 0.000E+00

     total cpu time spent up to now is     1100.7 secs

     total energy              =  -25380.77459574 Ry
     estimated scf accuracy    <       4.86166533 Ry

     iteration #  2     ecut=    77.00 Ry     beta= 0.20
     Davidson diagonalization with overlap
     ethr =  3.73E-04,  avg # of iterations =  8.2

     negative rho (up, down):  1.188E-04 0.000E+00

     total cpu time spent up to now is     1356.7 secs

     total energy              =  -25380.38755176 Ry
     estimated scf accuracy    <       2.32486246 Ry

     iteration #  3     ecut=    77.00 Ry     beta= 0.20
     Davidson diagonalization with overlap
     ethr =  1.79E-04,  avg # of iterations = 10.0

     negative rho (up, down):  3.511E-05 0.000E+00

     total cpu time spent up to now is     1617.0 secs

     total energy              =  -25380.17765703 Ry
     estimated scf accuracy    <       1.20707633 Ry

     iteration #  4     ecut=    77.00 Ry     beta= 0.20
     Davidson diagonalization with overlap
     ethr =  9.27E-05,  avg # of iterations = 18.5

     negative rho (up, down):  4.055E-05 0.000E+00

     total cpu time spent up to now is     2079.9 secs

     total energy              =  -25380.68459070 Ry
     estimated scf accuracy    <       0.49066272 Ry

     iteration #  5     ecut=    77.00 Ry     beta= 0.20
     Davidson diagonalization with overlap
     c_bands:  1 eigenvalues not converged
     ethr =  3.77E-05,  avg # of iterations = 15.2

     negative rho (up, down):  5.137E-05 0.000E+00

     total cpu time spent up to now is     2475.6 secs

     total energy              =  -25380.93167917 Ry
     estimated scf accuracy    <       0.14219115 Ry

     iteration #  6     ecut=    77.00 Ry     beta= 0.20
     Davidson diagonalization with overlap
     c_bands:  3 eigenvalues not converged
     c_bands:  5 eigenvalues not converged
     c_bands:  5 eigenvalues not converged
     ethr =  1.09E-05,  avg # of iterations = 54.2

     negative rho (up, down):  9.183E-05 0.000E+00

     total cpu time spent up to now is     3572.6 secs

     total energy              =  -25381.06532108 Ry
     estimated scf accuracy    <       0.08865985 Ry

     iteration #  7     ecut=    77.00 Ry     beta= 0.20
     Davidson diagonalization with overlap
     c_bands:  3 eigenvalues not converged
     c_bands:  2 eigenvalues not converged
     c_bands:  5 eigenvalues not converged
     ethr =  6.81E-06,  avg # of iterations = 18.0

     negative rho (up, down):  4.981E-04 0.000E+00

     total cpu time spent up to now is     3866.2 secs

     total energy              =  -25381.04972418 Ry
     estimated scf accuracy    <       0.06191694 Ry

     iteration #  8     ecut=    77.00 Ry     beta= 0.20
     Davidson diagonalization with overlap
     c_bands:  2 eigenvalues not converged
     c_bands:  1 eigenvalues not converged
     c_bands:  5 eigenvalues not converged
     ethr =  4.76E-06,  avg # of iterations = 17.8

     negative rho (up, down):  6.665E-04 0.000E+00

     total cpu time spent up to now is     4289.0 secs

     total energy              =  -25381.07385385 Ry
     estimated scf accuracy    <       0.03356322 Ry

     iteration #  9     ecut=    77.00 Ry     beta= 0.20
     Davidson diagonalization with overlap
     c_bands:  4 eigenvalues not converged
     c_bands:  2 eigenvalues not converged
     c_bands:  2 eigenvalues not converged
     ethr =  2.58E-06,  avg # of iterations = 33.5

     negative rho (up, down):  6.301E-04 0.000E+00

     total cpu time spent up to now is     4805.4 secs

     total energy              =  -25381.07861414 Ry
     estimated scf accuracy    <       0.00516341 Ry

     iteration # 10     ecut=    77.00 Ry     beta= 0.20
     Davidson diagonalization with overlap
     c_bands:  4 eigenvalues not converged
     c_bands:  2 eigenvalues not converged
     ethr =  3.97E-07,  avg # of iterations = 30.5

     negative rho (up, down):  6.974E-04 0.000E+00

     total cpu time spent up to now is     5862.6 secs

     total energy              =  -25381.09089104 Ry
     estimated scf accuracy    <       0.00388388 Ry

     iteration # 11     ecut=    77.00 Ry     beta= 0.20
     Davidson diagonalization with overlap
     c_bands:  1 eigenvalues not converged
     c_bands:  3 eigenvalues not converged
     ethr =  2.98E-07,  avg # of iterations = 11.8

     negative rho (up, down):  8.105E-04 0.000E+00

     total cpu time spent up to now is     6127.0 secs

     total energy              =  -25381.09040339 Ry
     estimated scf accuracy    <       0.00144039 Ry

     iteration # 12     ecut=    77.00 Ry     beta= 0.20
     Davidson diagonalization with overlap
     c_bands:  2 eigenvalues not converged
     ethr =  1.11E-07,  avg # of iterations = 15.8

     negative rho (up, down):  8.349E-04 0.000E+00

     total cpu time spent up to now is     6665.5 secs

     total energy              =  -25381.09180263 Ry
     estimated scf accuracy    <       0.00039330 Ry

     iteration # 13     ecut=    77.00 Ry     beta= 0.20
     Davidson diagonalization with overlap
     ethr =  3.02E-08,  avg # of iterations = 12.0

     negative rho (up, down):  8.697E-04 0.000E+00

     total cpu time spent up to now is     7146.0 secs

     total energy              =  -25381.09199429 Ry
     estimated scf accuracy    <       0.00023184 Ry

     iteration # 14     ecut=    77.00 Ry     beta= 0.20
     Davidson diagonalization with overlap
     ethr =  1.78E-08,  avg # of iterations = 13.8

     negative rho (up, down):  9.702E-04 0.000E+00

     total cpu time spent up to now is     7578.9 secs

     total energy              =  -25381.09207396 Ry
     estimated scf accuracy    <       0.00008936 Ry

     iteration # 15     ecut=    77.00 Ry     beta= 0.20
     Davidson diagonalization with overlap
     ethr =  6.86E-09,  avg # of iterations = 14.0

     negative rho (up, down):  9.817E-04 0.000E+00

     total cpu time spent up to now is     7990.6 secs

     total energy              =  -25381.09210771 Ry
     estimated scf accuracy    <       0.00002130 Ry

     iteration # 16     ecut=    77.00 Ry     beta= 0.20
     Davidson diagonalization with overlap
     c_bands:  3 eigenvalues not converged
     ethr =  1.64E-09,  avg # of iterations = 21.8

     negative rho (up, down):  9.967E-04 0.000E+00

     total cpu time spent up to now is     8640.5 secs

     total energy              =  -25381.09212976 Ry
     estimated scf accuracy    <       0.00001130 Ry

     iteration # 17     ecut=    77.00 Ry     beta= 0.20
     Davidson diagonalization with overlap
     ethr =  8.68E-10,  avg # of iterations = 13.2

     negative rho (up, down):  1.005E-03 0.000E+00

     total cpu time spent up to now is     9072.0 secs

     total energy              =  -25381.09213079 Ry
     estimated scf accuracy    <       0.00001202 Ry

     iteration # 18     ecut=    77.00 Ry     beta= 0.20
     Davidson diagonalization with overlap
     ethr =  8.68E-10,  avg # of iterations =  1.0

     negative rho (up, down):  1.014E-03 0.000E+00

     total cpu time spent up to now is     9286.7 secs

     total energy              =  -25381.09212476 Ry
     estimated scf accuracy    <       0.00000724 Ry

     iteration # 19     ecut=    77.00 Ry     beta= 0.20
     Davidson diagonalization with overlap
     ethr =  5.56E-10,  avg # of iterations =  3.8

     negative rho (up, down):  1.014E-03 0.000E+00

     total cpu time spent up to now is     9526.5 secs

     total energy              =  -25381.09212384 Ry
     estimated scf accuracy    <       0.00000216 Ry

     iteration # 20     ecut=    77.00 Ry     beta= 0.20
     Davidson diagonalization with overlap
     ethr =  1.66E-10,  avg # of iterations = 17.0

     negative rho (up, down):  1.013E-03 0.000E+00

     total cpu time spent up to now is    10121.1 secs

     total energy              =  -25381.09212763 Ry
     estimated scf accuracy    <       0.00000105 Ry

     iteration # 21     ecut=    77.00 Ry     beta= 0.20
     Davidson diagonalization with overlap
     c_bands:  1 eigenvalues not converged
     ethr =  8.09E-11,  avg # of iterations = 11.0

     negative rho (up, down):  1.016E-03 0.000E+00

     total cpu time spent up to now is    10401.6 secs

     End of self-consistent calculation

          k = 0.0000 0.0000 0.0000 (321495 PWs)   bands (ev):

   -88.7109 -88.7054 -88.5016 -66.6591 -66.6380 -66.6380 -66.6380 -66.6380
   -66.6380 -66.6380 -66.6168 -66.6168 -66.6168 -66.6168 -66.6168 -66.6168
   -66.6168 -66.6168 -66.6168 -66.5929 -66.5722 -66.5720 -66.5719 -66.5717
   -66.5716 -66.5715 -66.5512 -66.5510 -66.5509 -66.5507 -66.5506 -66.5506
   -66.5505 -66.5502 -66.5501 -66.5179 -66.5029 -66.4995 -66.4995 -66.4840
   -66.4817 -66.4796 -66.4755 -66.4721 -66.4652 -66.4639 -66.4567 -66.4565
   -66.4508 -66.4488 -66.4319 -54.5495 -54.5344 -54.5040 -54.4908 -54.4782
   -54.4534 -54.3152 -54.3099 -54.2751 -40.9855 -40.9855 -40.9855 -40.9183
   -40.9182 -40.9180 -40.9107 -40.9107 -40.9107 -40.9107 -40.9107 -40.9107
   -40.8437 -40.8435 -40.8434 -40.8433 -40.8433 -40.8432 -40.8377 -40.8317
   -40.8295 -40.8193 -40.7851 -40.7851 -40.7851 -40.7851 -40.7851 -40.7851
   -40.7779 -40.7779 -40.7779 -40.7778 -40.7778 -40.7778 -40.7637 -40.7612
   -40.7551 -40.7536 -40.7503 -40.7503 -40.7503 -40.7503 -40.7503 -40.7503
   -40.7482 -40.7460 -40.7418 -40.7362 -40.7362 -40.7362 -40.7362 -40.7362
   -40.7362 -40.7361 -40.7361 -40.7361 -40.7182 -40.7180 -40.7180 -40.7179
   -40.7179 -40.7178 -40.7126 -40.7123 -40.7122 -40.7121 -40.7120 -40.7118
   -40.6872 -40.6834 -40.6833 -40.6831 -40.6831 -40.6831 -40.6830 -40.6725
   -40.6725 -40.6725 -40.6710 -40.6709 -40.6708 -40.6705 -40.6705 -40.6705
   -40.6704 -40.6701 -40.6700 -40.6579 -40.6474 -40.6471 -40.6451 -40.6434
   -40.6406 -40.6384 -40.6364 -40.6362 -40.6257 -40.6257 -40.6257 -40.6257
   -40.6257 -40.6257 -40.6216 -40.6214 -40.6107 -40.6104 -40.6079 -40.6065
   -40.6055 -40.6055 -40.6054 -40.6051 -40.6028 -40.6002 -40.5997 -40.5962
   -40.5953 -40.5929 -40.5904 -40.5888 -40.5825 -40.5810 -40.5784 -40.5784
   -40.5753 -40.5590 -40.5589 -40.5587 -40.5586 -40.5585 -40.5584 -40.5204
   -40.5180 -40.5158 -40.5114 -40.5114 -40.4699 -40.4687 -40.4666 -40.4624
   -40.4611 -40.4579 -40.4130 -40.4120 -20.1174 -20.0531 -19.9008 -19.4204
   -19.3745 -19.2829 -19.2257 -19.2256 -19.2247 -19.2160 -19.2147 -19.2090
   -19.1291 -19.1283 -19.1188 -19.0690 -19.0669 -19.0621 -19.0197 -19.0188
   -19.0039 -18.8538 -18.7055 -18.6394 -18.6250 -18.5450 -18.4724 -18.4628
   -18.4562 -18.4307 -18.4071 -18.4062 -18.3693 -18.3411 -18.3339 -18.2934
   -18.2542 -18.2511 -18.2044 -18.1825 -18.1804 -18.1622 -18.1280 -18.1217
   -18.1191 -18.1190 -18.1186 -18.1183 -18.1179 -18.1171 -18.0924 -18.0783
   -18.0783 -18.0783 -18.0450 -18.0437 -18.0362 -18.0355 -18.0323 -18.0319
   -18.0064 -18.0055 -18.0047 -17.9886 -17.9805 -17.9498 -17.9484 -17.9403
   -17.9367 -17.9236 -17.9210 -17.9208 -17.9091 -17.9078 -17.8946 -17.8937
   -17.8936 -17.8907 -17.8670 -17.8608 -17.8599 -17.8411 -17.8407 -17.8267
   -17.8262 -17.8254 -17.8191 -17.7997 -17.7912 -17.7902 -17.7624 -17.7599
   -17.7463 -17.7457 -17.7401 -17.7312 -11.9702 -11.9136 -11.8889 -11.8636
   -11.7320 -11.7318 -11.7315 -11.6513 -11.6470 -11.6463 -11.6182 -11.3578
   -11.3372 -11.3069 -11.2572 -11.1953 -11.1880 -11.1845 -11.1800 -11.1675
   -11.1661 -11.1399 -11.1085 -11.1081 -11.1026 -11.0987 -11.0973 -11.0954
   -11.0545 -11.0207 -11.0061 -11.0006 -10.9746 -10.9651 -10.9645 -10.9538
   -10.9531 -10.9455 -10.9410 -10.9019 -10.8967 -10.8946 -10.8602 -10.8592
   -10.8511 -10.8408 -10.8181 -10.8168 -10.8100 -10.8097 -10.8093 -10.8091
   -10.8012 -10.7987 -10.7937 -10.7809 -10.7808 -10.7766 -10.7644 -10.7630
   -10.7617 -10.7588 -10.7581 -10.7513 -10.7339 -10.7296 -10.6858 -10.6842
   -10.6840 -10.6620 -10.6189 -10.6167 -10.5993 -10.5910 -10.5748 -10.4499
   -10.4108 -10.2732 -10.0495 -10.0468 -10.0245 -10.0242 -10.0222  -9.8758
    -9.8731  -9.8597  -9.8409  -9.7709  -9.7628  -9.7603  -9.7543  -9.7499
    -9.7487  -9.7187  -9.7106  -9.6932  -9.6821  -9.6787  -9.6736  -9.6716
    -9.6653  -9.6194  -9.6157  -9.6056  -9.5993  -9.5979  -9.5971  -9.5895
    -9.5872  -9.5644  -9.5562  -9.5531  -9.5524  -9.5500  -9.5490  -9.5488
    -9.5467  -9.5179  -9.5016  -9.4985  -9.4459  -9.4450  -9.4197  -9.4177
    -9.4149  -9.4100  -9.3979  -9.3638  -9.3568  -9.3355  -9.3292  -9.3124
    -9.3110  -9.3029  -9.2943  -9.2725  -9.2627  -9.2221  -9.2076  -9.2053
    -9.1901  -9.1838  -9.1719  -9.1685  -9.1552  -9.1098  -9.0785  -9.0141
    -9.0111  -8.9990  -8.9990  -8.9976  -8.9975  -8.9966  -8.9960  -8.9789
    -8.9784  -8.9211  -8.9199  -8.9175  -8.8955  -8.8942  -8.8793  -8.8677
    -8.8550  -8.8092  -8.7851  -8.7843  -8.7827  -8.7768  -8.7726  -8.7709
    -8.7628  -8.7523  -8.7369  -8.7292  -8.7274  -8.7184  -8.7165  -8.7135
    -8.6952  -8.6922  -8.6790  -8.6062  -8.5202  -8.5188  -8.4083  -8.4083
    -8.3356  -8.3356  -8.3214  -8.3044  -8.2986  -8.2978  -8.2961  -8.2961
    -8.2961  -8.2950  -8.2946  -8.2898  -8.2536  -8.2491  -8.2421  -8.2247
    -8.2214  -8.2183  -8.2177  -8.2176  -8.2172  -8.1638  -8.1478  -8.1306
    -7.9313  -7.9293  -7.9086  -7.8783  -7.8526  -7.6890  -7.6796  -7.6643
    -7.6489  -7.6190  -7.6164  -7.5868  -7.5610  -7.5609  -7.5606  -7.5601
    -7.5600  -7.5599  -7.5331  -7.5181  -7.5145  -7.5144  -7.5143  -7.5142
    -7.5131  -7.5120  -7.4883  -7.4879  -7.4871  -7.4809  -7.4808  -7.4802
    -7.4800  -7.4681  -7.4675  -7.4440  -7.4399  -7.4383  -7.4359  -7.4294
    -7.4290  -7.4203  -7.4075  -7.4046  -7.4025  -7.3980  -7.3963  -7.3873
    -7.3641  -7.3025  -7.2922  -7.2794  -7.2794  -7.2577  -7.2468  -7.2300
    -7.2222  -7.2138  -7.2066  -7.2039  -7.1675  -7.1475  -7.1244  -7.0994
    -6.9900  -6.9736  -6.9478  -6.9276  -6.9125  -6.8790  -6.8473  -6.8412
    -6.8089  -6.7748  -6.7724  -6.7687  -6.7363  -6.7040  -6.6634  -6.6469
    -6.6457  -6.6426  -6.6368  -6.6073  -6.6048  -6.5949  -6.5933  -6.5842
    -6.5402  -6.5209  -6.5166  -6.5010  -6.4993  -6.4951  -6.4853  -6.4846
    -6.4749  -6.4465  -6.4435  -6.4420  -6.4228  -6.4178  -6.4171  -6.4013
    -6.3982  -6.3951  -6.3883  -6.3398  -6.3351  -6.3274  -6.3274  -6.3274
    -6.3273  -6.3273  -6.3273  -6.2967  -6.2933  -6.2762  -6.2543  -6.2506
    -6.2492  -6.2488  -6.2477  -6.2445  -6.2434  -6.1970  -6.1896  -6.1782
    -6.1490  -6.1265  -5.9218  -5.6399  -5.6040  -5.5417  -5.4663  -5.3683
    -5.2896  -5.2674  -5.0961  -3.9976  -3.8534  -3.8295  -3.8102  -3.8102
    -3.8082  -3.7871  -3.7842  -3.7826  -3.7799  -3.7758  -3.7748  -3.7385
    -3.6754  -3.6426  -3.5848  -3.5744  -3.5652  -3.5576  -3.5557  -3.5550
    -3.5468  -3.5442  -3.5406  -3.4678  -3.4678  -3.4678  -3.4510  -3.4506
    -3.4493  -3.4487  -3.4486  -3.4478  -3.4006  -3.4006  -3.4003  -3.3954
    -3.3843  -3.3784  -3.3657  -3.3573  -3.3549  -3.3527  -3.3422  -3.3390
    -3.3351  -3.3334  -3.3278  -3.3256  -3.3108  -3.3086  -3.3022  -3.2762
    -3.2739  -3.2580  -3.2395  -3.2381  -3.2171  -3.2100  -3.1971  -3.1881
    -3.1610  -3.1473  -3.0171  -3.0024  -3.0023  -2.9999  -2.9966  -2.9966
    -2.9320  -2.9312  -2.9302  -2.9297  -2.9296  -2.9295  -2.9289  -2.9288
    -2.9277  -2.9270  -2.9153  -2.9094  -2.9091  -2.8965  -2.8831  -2.8752
    -2.8671  -2.8640  -2.8607  -2.8601  -2.8553  -2.8550  -2.8495  -2.8436
    -2.8411  -2.8398  -2.8379  -2.8062  -2.7978  -2.7873  -2.7666  -2.7643
    -2.7514  -2.7436  -2.7401  -2.7203  -2.7193  -2.7152  -2.7141  -2.7029
    -2.6995  -2.6842  -2.6708  -2.6688  -2.6402  -2.6388  -2.6067  -2.5993
    -2.5992  -2.5699  -2.5673  -2.5343  -2.5168  -2.4993  -2.4926  -2.4757
    -2.4514  -2.4471  -2.4277  -2.4194  -2.4154

          k = 0.0000-0.5773 0.0000 (321564 PWs)   bands (ev):

   -88.7109 -88.7054 -88.5016 -66.6530 -66.6529 -66.6424 -66.6424 -66.6274
   -66.6274 -66.6274 -66.6274 -66.6231 -66.6230 -66.6168 -66.6168 -66.6168
   -66.6168 -66.6124 -66.6124 -66.5869 -66.5866 -66.5762 -66.5762 -66.5615
   -66.5615 -66.5610 -66.5610 -66.5570 -66.5567 -66.5509 -66.5508 -66.5507
   -66.5502 -66.5462 -66.5462 -66.5165 -66.5070 -66.4998 -66.4964 -66.4863
   -66.4813 -66.4783 -66.4733 -66.4708 -66.4683 -66.4639 -66.4567 -66.4561
   -66.4513 -66.4485 -66.4319 -54.5495 -54.5344 -54.5040 -54.4908 -54.4782
   -54.4534 -54.3152 -54.3099 -54.2751 -40.9541 -40.9541 -40.9541 -40.9541
   -40.9275 -40.9274 -40.9155 -40.9155 -40.8870 -40.8868 -40.8868 -40.8865
   -40.8651 -40.8651 -40.8651 -40.8651 -40.8602 -40.8601 -40.8482 -40.8482
   -40.8193 -40.8072 -40.8072 -40.8046 -40.7979 -40.7979 -40.7978 -40.7978
   -40.7972 -40.7972 -40.7961 -40.7865 -40.7865 -40.7858 -40.7798 -40.7748
   -40.7591 -40.7570 -40.7570 -40.7570 -40.7570 -40.7484 -40.7484 -40.7416
   -40.7415 -40.7414 -40.7362 -40.7362 -40.7361 -40.7361 -40.7361 -40.7361
   -40.7300 -40.7300 -40.7275 -40.7275 -40.7208 -40.7208 -40.7107 -40.7077
   -40.7054 -40.7054 -40.7054 -40.7054 -40.7013 -40.6986 -40.6916 -40.6916
   -40.6912 -40.6912 -40.6828 -40.6826 -40.6766 -40.6742 -40.6709 -40.6709
   -40.6709 -40.6709 -40.6709 -40.6706 -40.6705 -40.6702 -40.6691 -40.6690
   -40.6619 -40.6619 -40.6588 -40.6588 -40.6561 -40.6530 -40.6396 -40.6396
   -40.6385 -40.6385 -40.6385 -40.6383 -40.6380 -40.6340 -40.6330 -40.6314
   -40.6262 -40.6228 -40.6228 -40.6142 -40.6132 -40.6116 -40.6075 -40.6039
   -40.6039 -40.6038 -40.6038 -40.6012 -40.5980 -40.5954 -40.5925 -40.5923
   -40.5923 -40.5919 -40.5917 -40.5864 -40.5821 -40.5772 -40.5729 -40.5724
   -40.5558 -40.5557 -40.5547 -40.5542 -40.5475 -40.5421 -40.5255 -40.5252
   -40.5178 -40.5118 -40.5118 -40.5051 -40.5049 -40.4868 -40.4823 -40.4805
   -40.4597 -40.4498 -40.4398 -40.4186 -19.9495 -19.8603 -19.8382 -19.7770
   -19.6786 -19.6506 -19.4311 -19.4308 -19.3759 -19.3711 -19.2428 -19.2391
   -19.0540 -18.8573 -18.8504 -18.7219 -18.7193 -18.7141 -18.7078 -18.7074
   -18.6992 -18.6533 -18.6242 -18.5920 -18.5879 -18.5735 -18.5627 -18.5613
   -18.5226 -18.5153 -18.4664 -18.4641 -18.4517 -18.4350 -18.4111 -18.4037
   -18.3729 -18.3681 -18.3480 -18.3099 -18.2938 -18.2838 -18.2404 -18.2213
   -18.1969 -18.1928 -18.1611 -18.1580 -18.1340 -18.1006 -18.0991 -18.0989
   -18.0988 -18.0975 -18.0932 -18.0737 -18.0666 -18.0438 -18.0313 -18.0238
   -18.0216 -18.0175 -18.0160 -18.0077 -17.9814 -17.9747 -17.9622 -17.9543
   -17.9522 -17.9404 -17.9209 -17.9160 -17.9134 -17.9045 -17.8984 -17.8879
   -17.8597 -17.8518 -17.8425 -17.8355 -17.8355 -17.8344 -17.7948 -17.7892
   -17.7767 -17.7757 -17.7745 -17.7601 -17.7592 -17.7551 -17.7417 -17.7324
   -17.7152 -17.7150 -17.6548 -17.6532 -11.8346 -11.7489 -11.7268 -11.6525
   -11.6440 -11.5166 -11.4504 -11.4462 -11.4440 -11.4424 -11.4284 -11.4211
   -11.4200 -11.3951 -11.3564 -11.3504 -11.3457 -11.3456 -11.3250 -11.3052
   -11.2908 -11.2810 -11.2551 -11.2409 -11.2353 -11.2284 -11.2283 -11.1860
   -11.1827 -11.1826 -11.1411 -11.1343 -11.1290 -11.1265 -11.1016 -11.0626
   -11.0487 -10.9904 -10.9662 -10.9582 -10.9353 -10.9303 -10.9191 -10.8867
   -10.8832 -10.8763 -10.8684 -10.8539 -10.8416 -10.8378 -10.8153 -10.8043
   -10.8024 -10.8021 -10.8011 -10.8010 -10.7928 -10.7891 -10.7665 -10.7441
   -10.7366 -10.7342 -10.7265 -10.7152 -10.6557 -10.5854 -10.5716 -10.5058
   -10.4676 -10.4477 -10.4302 -10.3742 -10.3288 -10.2635 -10.2607 -10.2119
   -10.1151 -10.1074 -10.0943 -10.0777 -10.0571 -10.0459 -10.0068  -9.9881
    -9.9648  -9.9412  -9.9217  -9.9123  -9.9092  -9.9023  -9.8952  -9.8832
    -9.8789  -9.8670  -9.8557  -9.8490  -9.8369  -9.7854  -9.7837  -9.7802
    -9.7455  -9.7252  -9.7182  -9.7020  -9.6963  -9.6834  -9.6806  -9.6750
    -9.6687  -9.6465  -9.6464  -9.6325  -9.6231  -9.5898  -9.5859  -9.5774
    -9.5580  -9.5167  -9.5133  -9.5099  -9.5019  -9.4986  -9.4591  -9.4438
    -9.4435  -9.4352  -9.3585  -9.3516  -9.3016  -9.2621  -9.2424  -9.2235
    -9.1974  -9.1775  -9.1669  -9.1542  -9.1220  -9.1148  -9.1064  -9.1018
    -9.0930  -9.0749  -9.0714  -9.0465  -9.0364  -9.0132  -9.0085  -8.9963
    -8.9922  -8.9755  -8.9722  -8.9663  -8.9524  -8.9327  -8.9299  -8.9178
    -8.9145  -8.9055  -8.9049  -8.9041  -8.8943  -8.8804  -8.8515  -8.8401
    -8.8305  -8.8280  -8.8251  -8.8190  -8.8151  -8.8107  -8.8099  -8.8033
    -8.7923  -8.7898  -8.7829  -8.7697  -8.7654  -8.7375  -8.7336  -8.7176
    -8.7060  -8.6831  -8.5992  -8.5548  -8.5155  -8.4832  -8.4831  -8.4348
    -8.4163  -8.4096  -8.3950  -8.3917  -8.2915  -8.2293  -8.2133  -8.1695
    -8.1647  -8.1647  -8.1564  -8.0933  -8.0933  -8.0918  -8.0558  -8.0463
    -7.9407  -7.9159  -7.9017  -7.8990  -7.8752  -7.8465  -7.8312  -7.8294
    -7.8259  -7.8222  -7.8187  -7.8180  -7.8180  -7.8177  -7.8024  -7.7763
    -7.7737  -7.7721  -7.7704  -7.7517  -7.7484  -7.7449  -7.7406  -7.7351
    -7.7259  -7.7168  -7.7134  -7.7092  -7.6949  -7.6938  -7.6884  -7.6824
    -7.6779  -7.6684  -7.6645  -7.6475  -7.6425  -7.6328  -7.6324  -7.6264
    -7.6187  -7.6051  -7.5999  -7.5753  -7.5668  -7.5657  -7.5585  -7.5435
    -7.5361  -7.5238  -7.5044  -7.5039  -7.4403  -7.4399  -7.3667  -7.3517
    -7.3349  -7.2585  -7.2390  -7.2158  -7.2147  -7.1988  -7.1839  -7.1537
    -7.1392  -7.1095  -7.1032  -7.0734  -7.0459  -7.0357  -6.9861  -6.9827
    -6.9812  -6.9768  -6.9688  -6.9396  -6.9241  -6.9064  -6.8834  -6.8737
    -6.8703  -6.8480  -6.8273  -6.8075  -6.8025  -6.7636  -6.7503  -6.7378
    -6.7087  -6.6882  -6.6612  -6.6609  -6.6307  -6.6296  -6.6296  -6.6296
    -6.6261  -6.6155  -6.5953  -6.5621  -6.5606  -6.5596  -6.5595  -6.5395
    -6.5231  -6.5014  -6.4637  -6.4604  -6.4381  -6.3991  -6.3990  -6.3647
    -6.3425  -6.2983  -6.2979  -6.2977  -6.2974  -6.2499  -6.2349  -6.2327
    -6.2202  -6.2199  -6.2169  -6.2114  -6.2050  -6.1854  -6.1751  -6.1699
    -6.1323  -6.0994  -6.0262  -5.9495  -5.9495  -5.9121  -5.8724  -5.8692
    -5.8043  -5.7680  -5.7073  -5.5945  -5.5900  -5.5366  -5.4521  -5.4136
    -5.3411  -5.2916  -5.2909  -4.0551  -3.9962  -3.9914  -3.9892  -3.9226
    -3.8651  -3.8648  -3.8538  -3.8256  -3.8001  -3.8000  -3.7820  -3.7656
    -3.7499  -3.7366  -3.7312  -3.6865  -3.6582  -3.5858  -3.5734  -3.5712
    -3.5671  -3.5635  -3.5508  -3.5505  -3.5435  -3.5366  -3.5236  -3.4860
    -3.4765  -3.4708  -3.4598  -3.4544  -3.4499  -3.4448  -3.4397  -3.4333
    -3.4325  -3.3942  -3.3621  -3.3551  -3.3402  -3.3265  -3.3262  -3.3224
    -3.3175  -3.3171  -3.2899  -3.2856  -3.2804  -3.2772  -3.2706  -3.2527
    -3.2420  -3.2411  -3.2409  -3.2409  -3.2229  -3.2132  -3.2022  -3.1943
    -3.1752  -3.1746  -3.1714  -3.1657  -3.1535  -3.1529  -3.1491  -3.1278
    -3.1135  -3.0919  -3.0814  -3.0779  -3.0690  -3.0386  -3.0355  -3.0104
    -3.0078  -2.9970  -2.9968  -2.9791  -2.9784  -2.9777  -2.9774  -2.9463
    -2.9329  -2.9295  -2.9265  -2.9239  -2.9142  -2.8956  -2.8934  -2.8837
    -2.8827  -2.8746  -2.8663  -2.8639  -2.8576  -2.8441  -2.8438  -2.8365
    -2.8104  -2.7961  -2.7774  -2.7751  -2.7709  -2.7682  -2.7561  -2.7251
    -2.6980  -2.6826  -2.6664  -2.6216  -2.6184  -2.6153  -2.6139  -2.6038
    -2.5998  -2.5374  -2.5298  -2.4958  -2.4776  -2.4683  -2.4615  -2.4534
    -2.4272  -2.3615  -2.3180  -2.3074  -2.2804

          k =-0.5000-0.2887 0.0000 (321564 PWs)   bands (ev):

   -88.7109 -88.7054 -88.5016 -66.6530 -66.6529 -66.6424 -66.6424 -66.6274
   -66.6274 -66.6274 -66.6274 -66.6230 -66.6230 -66.6168 -66.6168 -66.6168
   -66.6168 -66.6124 -66.6124 -66.5869 -66.5866 -66.5763 -66.5761 -66.5614
   -66.5612 -66.5612 -66.5611 -66.5570 -66.5567 -66.5510 -66.5506 -66.5506
   -66.5505 -66.5463 -66.5462 -66.5163 -66.5074 -66.5003 -66.4956 -66.4851
   -66.4825 -66.4770 -66.4758 -66.4706 -66.4685 -66.4614 -66.4586 -66.4559
   -66.4511 -66.4485 -66.4319 -54.5495 -54.5344 -54.5040 -54.4908 -54.4782
   -54.4534 -54.3152 -54.3099 -54.2751 -40.9541 -40.9541 -40.9541 -40.9541
   -40.9274 -40.9274 -40.9155 -40.9155 -40.8871 -40.8868 -40.8866 -40.8866
   -40.8651 -40.8651 -40.8651 -40.8651 -40.8603 -40.8600 -40.8483 -40.8481
   -40.8163 -40.8072 -40.8072 -40.8040 -40.7979 -40.7979 -40.7978 -40.7978
   -40.7972 -40.7972 -40.7928 -40.7899 -40.7865 -40.7865 -40.7840 -40.7773
   -40.7601 -40.7570 -40.7570 -40.7570 -40.7570 -40.7484 -40.7484 -40.7416
   -40.7413 -40.7384 -40.7362 -40.7362 -40.7361 -40.7361 -40.7361 -40.7361
   -40.7301 -40.7300 -40.7275 -40.7275 -40.7208 -40.7207 -40.7127 -40.7054
   -40.7054 -40.7054 -40.7054 -40.7047 -40.7022 -40.6952 -40.6915 -40.6914
   -40.6913 -40.6913 -40.6829 -40.6826 -40.6771 -40.6734 -40.6709 -40.6709
   -40.6709 -40.6709 -40.6709 -40.6705 -40.6704 -40.6703 -40.6691 -40.6690
   -40.6619 -40.6619 -40.6588 -40.6588 -40.6586 -40.6517 -40.6396 -40.6396
   -40.6389 -40.6385 -40.6384 -40.6382 -40.6382 -40.6340 -40.6325 -40.6292
   -40.6270 -40.6228 -40.6227 -40.6175 -40.6146 -40.6096 -40.6046 -40.6039
   -40.6039 -40.6038 -40.6037 -40.6012 -40.5983 -40.5965 -40.5923 -40.5923
   -40.5920 -40.5919 -40.5916 -40.5862 -40.5832 -40.5766 -40.5727 -40.5725
   -40.5558 -40.5557 -40.5542 -40.5530 -40.5498 -40.5455 -40.5254 -40.5252
   -40.5149 -40.5136 -40.5121 -40.5058 -40.5024 -40.4873 -40.4851 -40.4770
   -40.4610 -40.4494 -40.4376 -40.4201 -19.9584 -19.8571 -19.8385 -19.7598
   -19.6783 -19.6398 -19.4663 -19.4269 -19.4002 -19.3629 -19.2509 -19.2378
   -18.9643 -18.8830 -18.8794 -18.7208 -18.7177 -18.7156 -18.7079 -18.7074
   -18.6982 -18.6718 -18.6115 -18.5951 -18.5873 -18.5706 -18.5632 -18.5625
   -18.5234 -18.5124 -18.4687 -18.4635 -18.4539 -18.4320 -18.4043 -18.4025
   -18.3728 -18.3711 -18.3469 -18.3090 -18.2955 -18.2870 -18.2394 -18.2259
   -18.1983 -18.1903 -18.1663 -18.1608 -18.1323 -18.1029 -18.0990 -18.0990
   -18.0988 -18.0985 -18.0888 -18.0769 -18.0663 -18.0451 -18.0308 -18.0226
   -18.0225 -18.0184 -18.0171 -18.0013 -17.9789 -17.9743 -17.9651 -17.9557
   -17.9496 -17.9390 -17.9214 -17.9163 -17.9139 -17.9035 -17.8966 -17.8875
   -17.8607 -17.8524 -17.8395 -17.8355 -17.8355 -17.8322 -17.7943 -17.7897
   -17.7757 -17.7755 -17.7708 -17.7599 -17.7593 -17.7521 -17.7475 -17.7367
   -17.7153 -17.7149 -17.6579 -17.6509 -11.8374 -11.7930 -11.6927 -11.6539
   -11.6371 -11.4854 -11.4484 -11.4460 -11.4438 -11.4428 -11.4280 -11.4228
   -11.4144 -11.3824 -11.3662 -11.3509 -11.3473 -11.3428 -11.3213 -11.3012
   -11.2966 -11.2799 -11.2573 -11.2557 -11.2324 -11.2284 -11.2283 -11.1870
   -11.1845 -11.1817 -11.1668 -11.1387 -11.1288 -11.1267 -11.1189 -11.0566
   -11.0360 -10.9835 -10.9799 -10.9566 -10.9447 -10.9261 -10.9071 -10.8870
   -10.8852 -10.8780 -10.8685 -10.8498 -10.8431 -10.8351 -10.8140 -10.8078
   -10.8050 -10.8016 -10.8013 -10.8007 -10.7901 -10.7874 -10.7598 -10.7442
   -10.7364 -10.7346 -10.7263 -10.7114 -10.6341 -10.5841 -10.5679 -10.5344
   -10.4737 -10.4644 -10.4509 -10.3620 -10.3282 -10.2568 -10.2385 -10.1787
   -10.1297 -10.1088 -10.0920 -10.0815 -10.0662 -10.0491 -10.0143  -9.9833
    -9.9725  -9.9426  -9.9261  -9.9141  -9.9078  -9.9016  -9.8967  -9.8818
    -9.8801  -9.8654  -9.8556  -9.8528  -9.8410  -9.7942  -9.7710  -9.7685
    -9.7380  -9.7292  -9.7201  -9.7084  -9.6968  -9.6837  -9.6817  -9.6713
    -9.6701  -9.6452  -9.6422  -9.6312  -9.6198  -9.5945  -9.5868  -9.5763
    -9.5585  -9.5266  -9.5138  -9.5110  -9.5027  -9.4995  -9.4584  -9.4441
    -9.4422  -9.4258  -9.3561  -9.3475  -9.2975  -9.2645  -9.2584  -9.2012
    -9.1964  -9.1775  -9.1664  -9.1569  -9.1233  -9.1159  -9.1131  -9.1008
    -9.0911  -9.0744  -9.0667  -9.0497  -9.0384  -9.0155  -9.0098  -9.0044
    -9.0007  -8.9742  -8.9731  -8.9624  -8.9436  -8.9335  -8.9282  -8.9193
    -8.9177  -8.9069  -8.9034  -8.8988  -8.8973  -8.8837  -8.8522  -8.8453
    -8.8304  -8.8290  -8.8269  -8.8196  -8.8171  -8.8109  -8.8101  -8.8029
    -8.7917  -8.7898  -8.7773  -8.7691  -8.7638  -8.7352  -8.7339  -8.7172
    -8.7044  -8.6801  -8.6029  -8.5586  -8.5200  -8.4833  -8.4832  -8.4221
    -8.4086  -8.4074  -8.3886  -8.3762  -8.3025  -8.2402  -8.2138  -8.1773
    -8.1647  -8.1647  -8.1309  -8.0927  -8.0921  -8.0901  -8.0584  -8.0495
    -7.9522  -7.9068  -7.9002  -7.8941  -7.8803  -7.8501  -7.8304  -7.8301
    -7.8258  -7.8211  -7.8180  -7.8180  -7.8169  -7.8157  -7.8036  -7.7771
    -7.7742  -7.7721  -7.7704  -7.7586  -7.7489  -7.7472  -7.7373  -7.7342
    -7.7264  -7.7176  -7.7136  -7.7106  -7.6975  -7.6942  -7.6901  -7.6868
    -7.6789  -7.6676  -7.6634  -7.6490  -7.6408  -7.6328  -7.6324  -7.6321
    -7.6213  -7.6016  -7.5921  -7.5814  -7.5657  -7.5618  -7.5584  -7.5506
    -7.5377  -7.5207  -7.4993  -7.4908  -7.4420  -7.4383  -7.3866  -7.3506
    -7.3203  -7.2578  -7.2377  -7.2194  -7.2110  -7.2033  -7.1966  -7.1629
    -7.1379  -7.1248  -7.1051  -7.0750  -7.0433  -7.0362  -6.9863  -6.9839
    -6.9809  -6.9728  -6.9620  -6.9446  -6.9275  -6.9079  -6.9017  -6.8742
    -6.8677  -6.8520  -6.8204  -6.8084  -6.8015  -6.7689  -6.7500  -6.7272
    -6.7077  -6.6835  -6.6658  -6.6321  -6.6297  -6.6297  -6.6296  -6.6275
    -6.6194  -6.6032  -6.5783  -6.5624  -6.5606  -6.5594  -6.5585  -6.5507
    -6.5290  -6.4930  -6.4752  -6.4586  -6.4407  -6.4098  -6.3982  -6.3492
    -6.3172  -6.2982  -6.2980  -6.2973  -6.2971  -6.2533  -6.2399  -6.2334
    -6.2244  -6.2192  -6.2162  -6.2109  -6.2081  -6.2022  -6.1790  -6.1663
    -6.1202  -6.0749  -6.0535  -5.9528  -5.9495  -5.9488  -5.8723  -5.8703
    -5.8020  -5.7541  -5.7111  -5.5987  -5.5745  -5.5317  -5.4903  -5.3883
    -5.3273  -5.3011  -5.2927  -4.0588  -3.9989  -3.9911  -3.9880  -3.9278
    -3.8650  -3.8650  -3.8595  -3.8221  -3.8004  -3.8001  -3.7889  -3.7665
    -3.7474  -3.7391  -3.7247  -3.6879  -3.6596  -3.5853  -3.5724  -3.5685
    -3.5671  -3.5644  -3.5507  -3.5505  -3.5454  -3.5398  -3.5219  -3.4873
    -3.4733  -3.4693  -3.4596  -3.4536  -3.4483  -3.4428  -3.4407  -3.4320
    -3.4307  -3.3873  -3.3623  -3.3596  -3.3339  -3.3296  -3.3242  -3.3220
    -3.3177  -3.3172  -3.2899  -3.2846  -3.2784  -3.2749  -3.2674  -3.2484
    -3.2428  -3.2413  -3.2405  -3.2401  -3.2204  -3.2132  -3.2030  -3.1938
    -3.1895  -3.1797  -3.1753  -3.1636  -3.1612  -3.1518  -3.1487  -3.1295
    -3.1016  -3.0959  -3.0862  -3.0717  -3.0520  -3.0377  -3.0358  -3.0106
    -3.0065  -2.9979  -2.9959  -2.9789  -2.9781  -2.9775  -2.9773  -2.9427
    -2.9340  -2.9293  -2.9281  -2.9193  -2.9122  -2.9032  -2.8906  -2.8853
    -2.8807  -2.8668  -2.8637  -2.8600  -2.8553  -2.8517  -2.8436  -2.8244
    -2.8174  -2.7915  -2.7878  -2.7776  -2.7691  -2.7675  -2.7581  -2.7147
    -2.6988  -2.6791  -2.6709  -2.6267  -2.6200  -2.6158  -2.6136  -2.6053
    -2.5995  -2.5341  -2.5322  -2.4994  -2.4853  -2.4689  -2.4638  -2.4537
    -2.4430  -2.3613  -2.3286  -2.3169  -2.2669

          k =-0.5000-0.8660 0.0000 (321564 PWs)   bands (ev):

   -88.7109 -88.7054 -88.5016 -66.6530 -66.6529 -66.6424 -66.6424 -66.6274
   -66.6274 -66.6274 -66.6274 -66.6230 -66.6230 -66.6168 -66.6168 -66.6168
   -66.6168 -66.6124 -66.6124 -66.5869 -66.5866 -66.5763 -66.5761 -66.5614
   -66.5612 -66.5612 -66.5611 -66.5570 -66.5567 -66.5510 -66.5506 -66.5505
   -66.5504 -66.5463 -66.5462 -66.5163 -66.5074 -66.5003 -66.4956 -66.4849
   -66.4826 -66.4771 -66.4758 -66.4707 -66.4683 -66.4614 -66.4586 -66.4559
   -66.4511 -66.4485 -66.4319 -54.5495 -54.5344 -54.5040 -54.4908 -54.4782
   -54.4534 -54.3152 -54.3099 -54.2751 -40.9541 -40.9541 -40.9541 -40.9541
   -40.9275 -40.9274 -40.9155 -40.9155 -40.8871 -40.8868 -40.8866 -40.8866
   -40.8651 -40.8651 -40.8651 -40.8651 -40.8603 -40.8600 -40.8483 -40.8481
   -40.8163 -40.8072 -40.8072 -40.8040 -40.7979 -40.7979 -40.7978 -40.7978
   -40.7972 -40.7972 -40.7928 -40.7899 -40.7865 -40.7865 -40.7840 -40.7773
   -40.7601 -40.7570 -40.7570 -40.7570 -40.7570 -40.7484 -40.7484 -40.7416
   -40.7413 -40.7383 -40.7362 -40.7362 -40.7361 -40.7361 -40.7361 -40.7361
   -40.7301 -40.7300 -40.7275 -40.7275 -40.7208 -40.7207 -40.7128 -40.7054
   -40.7054 -40.7054 -40.7054 -40.7047 -40.7022 -40.6951 -40.6915 -40.6914
   -40.6913 -40.6913 -40.6829 -40.6826 -40.6771 -40.6734 -40.6709 -40.6709
   -40.6709 -40.6709 -40.6709 -40.6705 -40.6704 -40.6703 -40.6691 -40.6690
   -40.6619 -40.6619 -40.6588 -40.6588 -40.6586 -40.6517 -40.6396 -40.6396
   -40.6390 -40.6385 -40.6384 -40.6383 -40.6382 -40.6340 -40.6323 -40.6292
   -40.6271 -40.6228 -40.6227 -40.6175 -40.6146 -40.6095 -40.6046 -40.6039
   -40.6039 -40.6038 -40.6037 -40.6012 -40.5984 -40.5965 -40.5923 -40.5923
   -40.5920 -40.5920 -40.5916 -40.5862 -40.5832 -40.5765 -40.5727 -40.5725
   -40.5558 -40.5557 -40.5542 -40.5530 -40.5497 -40.5457 -40.5254 -40.5252
   -40.5149 -40.5134 -40.5121 -40.5058 -40.5023 -40.4874 -40.4853 -40.4769
   -40.4608 -40.4492 -40.4377 -40.4202 -19.9584 -19.8571 -19.8385 -19.7600
   -19.6783 -19.6399 -19.4655 -19.4270 -19.4000 -19.3634 -19.2508 -19.2379
   -18.9653 -18.8822 -18.8788 -18.7207 -18.7180 -18.7156 -18.7079 -18.7074
   -18.6985 -18.6716 -18.6118 -18.5951 -18.5872 -18.5707 -18.5642 -18.5620
   -18.5234 -18.5121 -18.4688 -18.4635 -18.4540 -18.4322 -18.4044 -18.4018
   -18.3726 -18.3712 -18.3470 -18.3092 -18.2954 -18.2868 -18.2390 -18.2260
   -18.1985 -18.1902 -18.1664 -18.1608 -18.1325 -18.1031 -18.0990 -18.0989
   -18.0989 -18.0985 -18.0887 -18.0771 -18.0663 -18.0452 -18.0309 -18.0226
   -18.0224 -18.0183 -18.0170 -18.0015 -17.9790 -17.9743 -17.9651 -17.9560
   -17.9500 -17.9388 -17.9212 -17.9163 -17.9139 -17.9035 -17.8964 -17.8875
   -17.8605 -17.8523 -17.8395 -17.8355 -17.8355 -17.8321 -17.7941 -17.7896
   -17.7758 -17.7755 -17.7715 -17.7600 -17.7593 -17.7521 -17.7471 -17.7371
   -17.7154 -17.7150 -17.6575 -17.6510 -11.8373 -11.7932 -11.6925 -11.6539
   -11.6370 -11.4849 -11.4484 -11.4460 -11.4438 -11.4427 -11.4280 -11.4228
   -11.4143 -11.3828 -11.3663 -11.3510 -11.3473 -11.3431 -11.3215 -11.3014
   -11.2967 -11.2800 -11.2575 -11.2557 -11.2329 -11.2284 -11.2283 -11.1876
   -11.1847 -11.1819 -11.1657 -11.1387 -11.1288 -11.1267 -11.1187 -11.0572
   -11.0354 -10.9833 -10.9797 -10.9564 -10.9444 -10.9260 -10.9069 -10.8870
   -10.8851 -10.8778 -10.8683 -10.8493 -10.8433 -10.8356 -10.8140 -10.8073
   -10.8046 -10.8016 -10.8012 -10.8007 -10.7898 -10.7872 -10.7602 -10.7445
   -10.7365 -10.7346 -10.7263 -10.7123 -10.6350 -10.5833 -10.5681 -10.5363
   -10.4723 -10.4644 -10.4512 -10.3620 -10.3282 -10.2553 -10.2381 -10.1789
   -10.1298 -10.1092 -10.0919 -10.0812 -10.0663 -10.0499 -10.0145  -9.9840
    -9.9719  -9.9428  -9.9268  -9.9142  -9.9077  -9.9015  -9.8968  -9.8823
    -9.8802  -9.8653  -9.8558  -9.8526  -9.8402  -9.7940  -9.7708  -9.7679
    -9.7376  -9.7291  -9.7203  -9.7086  -9.6972  -9.6837  -9.6817  -9.6714
    -9.6702  -9.6450  -9.6416  -9.6317  -9.6197  -9.5942  -9.5867  -9.5764
    -9.5586  -9.5264  -9.5138  -9.5104  -9.5027  -9.4994  -9.4585  -9.4440
    -9.4423  -9.4262  -9.3559  -9.3478  -9.2974  -9.2649  -9.2582  -9.1999
    -9.1966  -9.1773  -9.1665  -9.1571  -9.1234  -9.1158  -9.1135  -9.1008
    -9.0908  -9.0747  -9.0667  -9.0497  -9.0392  -9.0156  -9.0100  -9.0043
    -9.0006  -8.9742  -8.9730  -8.9624  -8.9436  -8.9339  -8.9285  -8.9194
    -8.9179  -8.9070  -8.9035  -8.8989  -8.8977  -8.8835  -8.8523  -8.8454
    -8.8307  -8.8290  -8.8270  -8.8196  -8.8167  -8.8109  -8.8101  -8.8022
    -8.7920  -8.7895  -8.7772  -8.7687  -8.7632  -8.7354  -8.7338  -8.7171
    -8.7044  -8.6802  -8.6033  -8.5582  -8.5195  -8.4833  -8.4832  -8.4223
    -8.4082  -8.4073  -8.3886  -8.3765  -8.3025  -8.2406  -8.2138  -8.1776
    -8.1647  -8.1647  -8.1322  -8.0927  -8.0922  -8.0905  -8.0583  -8.0492
    -7.9519  -7.9071  -7.9001  -7.8953  -7.8805  -7.8502  -7.8304  -7.8301
    -7.8255  -7.8211  -7.8180  -7.8180  -7.8174  -7.8162  -7.8036  -7.7772
    -7.7743  -7.7721  -7.7704  -7.7587  -7.7489  -7.7472  -7.7379  -7.7345
    -7.7264  -7.7176  -7.7135  -7.7106  -7.6974  -7.6942  -7.6902  -7.6865
    -7.6790  -7.6678  -7.6632  -7.6491  -7.6404  -7.6328  -7.6324  -7.6319
    -7.6214  -7.6011  -7.5919  -7.5811  -7.5655  -7.5615  -7.5583  -7.5504
    -7.5374  -7.5209  -7.4991  -7.4913  -7.4421  -7.4389  -7.3858  -7.3492
    -7.3202  -7.2579  -7.2373  -7.2189  -7.2107  -7.2029  -7.1960  -7.1621
    -7.1376  -7.1247  -7.1050  -7.0757  -7.0430  -7.0360  -6.9863  -6.9839
    -6.9808  -6.9727  -6.9621  -6.9448  -6.9277  -6.9077  -6.9018  -6.8742
    -6.8677  -6.8531  -6.8201  -6.8082  -6.8016  -6.7689  -6.7501  -6.7274
    -6.7081  -6.6841  -6.6658  -6.6320  -6.6297  -6.6297  -6.6296  -6.6274
    -6.6195  -6.6033  -6.5785  -6.5624  -6.5607  -6.5594  -6.5584  -6.5509
    -6.5292  -6.4930  -6.4756  -6.4592  -6.4401  -6.4097  -6.3983  -6.3494
    -6.3178  -6.2982  -6.2980  -6.2974  -6.2971  -6.2539  -6.2399  -6.2334
    -6.2243  -6.2193  -6.2164  -6.2109  -6.2079  -6.2022  -6.1792  -6.1661
    -6.1198  -6.0751  -6.0529  -5.9527  -5.9495  -5.9487  -5.8723  -5.8703
    -5.8012  -5.7543  -5.7110  -5.5986  -5.5745  -5.5322  -5.4904  -5.3884
    -5.3282  -5.2998  -5.2926  -4.0590  -3.9990  -3.9909  -3.9880  -3.9279
    -3.8650  -3.8648  -3.8594  -3.8219  -3.8005  -3.8001  -3.7891  -3.7661
    -3.7479  -3.7391  -3.7246  -3.6882  -3.6592  -3.5851  -3.5726  -3.5686
    -3.5671  -3.5645  -3.5507  -3.5504  -3.5455  -3.5397  -3.5220  -3.4877
    -3.4733  -3.4693  -3.4597  -3.4534  -3.4480  -3.4427  -3.4405  -3.4319
    -3.4307  -3.3874  -3.3624  -3.3598  -3.3339  -3.3297  -3.3242  -3.3217
    -3.3178  -3.3170  -3.2900  -3.2846  -3.2784  -3.2749  -3.2674  -3.2485
    -3.2429  -3.2414  -3.2405  -3.2400  -3.2204  -3.2132  -3.2031  -3.1937
    -3.1895  -3.1798  -3.1753  -3.1637  -3.1610  -3.1515  -3.1486  -3.1299
    -3.1010  -3.0958  -3.0865  -3.0718  -3.0520  -3.0378  -3.0362  -3.0103
    -3.0064  -2.9980  -2.9956  -2.9790  -2.9783  -2.9778  -2.9775  -2.9426
    -2.9340  -2.9292  -2.9282  -2.9192  -2.9125  -2.9023  -2.8904  -2.8848
    -2.8809  -2.8667  -2.8635  -2.8599  -2.8553  -2.8519  -2.8435  -2.8248
    -2.8173  -2.7918  -2.7886  -2.7777  -2.7701  -2.7671  -2.7592  -2.7151
    -2.6982  -2.6778  -2.6688  -2.6271  -2.6204  -2.6159  -2.6138  -2.6053
    -2.5999  -2.5343  -2.5322  -2.4994  -2.4855  -2.4690  -2.4641  -2.4535
    -2.4430  -2.3578  -2.3352  -2.3164  -2.2560

     the Fermi energy is    -4.5869 ev

!    total energy              =  -25381.09212573 Ry
     total all-electron energy =   -495641.022302 Ry
     estimated scf accuracy    <       0.00000047 Ry
     smearing contrib. (-TS)   =      -0.00000000 Ry
     internal energy E=F+TS    =  -25381.09212572 Ry

     The total energy is F=E-TS. E is the sum of the following terms:
     one-electron contribution =  497276.97834357 Ry
     hartree contribution      = -248746.32229771 Ry
     xc contribution           =   -1521.08991984 Ry
     ewald contribution        = -256278.37602798 Ry
     DFT-D3 Dispersion         =      -4.05707028 Ry
     one-center paw contrib.   =  -16108.22515348 Ry

     convergence has been achieved in  21 iterations

     negative rho (up, down):  1.016E-03 0.000E+00

     Forces acting on atoms (cartesian axes, Ry/au):

     atom    1 type  1   force =     0.00022015   -0.00052414   -0.00023343
     atom    2 type  1   force =    -0.00000011    0.00002972    0.00192376
     atom    3 type  1   force =    -0.00004137    0.00003857   -0.00002897
     atom    4 type  2   force =    -0.00000399    0.00000311   -0.00331778
     atom    5 type  2   force =    -0.00000284   -0.00001069   -0.00001504
     atom    6 type  2   force =    -0.00014221    0.00053567   -0.00038088
     atom    7 type  2   force =    -0.00000718    0.00000783    0.00148745
     atom    8 type  2   force =    -0.00002911   -0.00003487    0.00002072
     atom    9 type  2   force =    -0.00036084    0.00032395    0.00031469
     atom   10 type  1   force =    -0.00190973   -0.00228526   -0.00266171
     atom   11 type  1   force =     0.00001538    0.00000021    0.00191998
     atom   12 type  1   force =     0.00001650   -0.00003253    0.00000025
     atom   13 type  2   force =     0.00000133   -0.00000490   -0.00331579
     atom   14 type  2   force =    -0.00000591   -0.00001362   -0.00002192
     atom   15 type  2   force =     0.00044511   -0.00001199    0.00005302
     atom   16 type  2   force =     0.00000000    0.00000209    0.00149713
     atom   17 type  2   force =    -0.00000848   -0.00000232    0.00003851
     atom   18 type  2   force =     0.00050569   -0.00068376    0.00182017
     atom   19 type  1   force =    -0.00308364    0.00008498   -0.00070393
     atom   20 type  1   force =     0.00000036   -0.00000100    0.00191862
     atom   21 type  1   force =    -0.00001794   -0.00000915   -0.00001226
     atom   22 type  2   force =    -0.00000386    0.00000140   -0.00331179
     atom   23 type  2   force =    -0.00000914   -0.00000560   -0.00002776
     atom   24 type  2   force =     0.00022692    0.00005460   -0.00007903
     atom   25 type  2   force =    -0.00000063   -0.00000778    0.00148232
     atom   26 type  2   force =     0.00001449   -0.00002247    0.00006937
     atom   27 type  2   force =     0.00038901   -0.00022759    0.00050683
     atom   28 type  1   force =    -0.00046438    0.00004198    0.00044407
     atom   29 type  1   force =     0.00002630   -0.00000237    0.00192774
     atom   30 type  1   force =    -0.00000813   -0.00003960   -0.00003581
     atom   31 type  2   force =     0.00000170   -0.00000573   -0.00332847
     atom   32 type  2   force =     0.00000575   -0.00000298   -0.00003611
     atom   33 type  2   force =    -0.00013607   -0.00031180   -0.00026962
     atom   34 type  2   force =    -0.00000378   -0.00000952    0.00149025
     atom   35 type  2   force =    -0.00001480    0.00000442    0.00002158
     atom   36 type  2   force =    -0.00018523   -0.00024240    0.00004794
     atom   37 type  1   force =    -0.00011107    0.00003593    0.00021789
     atom   38 type  1   force =    -0.00000947   -0.00000139    0.00192918
     atom   39 type  1   force =     0.00004448    0.00000601   -0.00001114
     atom   40 type  2   force =     0.00000648    0.00000210   -0.00331714
     atom   41 type  2   force =     0.00003466    0.00002561    0.00001901
     atom   42 type  2   force =     0.00008038    0.00000570   -0.00057701
     atom   43 type  2   force =     0.00000030    0.00000709    0.00148295
     atom   44 type  2   force =    -0.00004960   -0.00000506    0.00010088
     atom   45 type  2   force =     0.00050807    0.00043623    0.00024595
     atom   46 type  1   force =     0.00198426   -0.00243300   -0.00153492
     atom   47 type  1   force =    -0.00001104    0.00000050    0.00191776
     atom   48 type  1   force =     0.00000236   -0.00004514    0.00000921
     atom   49 type  2   force =     0.00000072    0.00000039   -0.00330842
     atom   50 type  2   force =     0.00002679   -0.00002507   -0.00000750
     atom   51 type  2   force =     0.00006367   -0.00083733    0.00007731
     atom   52 type  2   force =    -0.00000159    0.00000999    0.00148263
     atom   53 type  2   force =     0.00002328   -0.00002573    0.00001860
     atom   54 type  2   force =     0.00074170   -0.00257790   -0.00620039
     atom   55 type  1   force =     0.00018539   -0.00097781   -0.02363402
     atom   56 type  1   force =     0.00000046   -0.00002074    0.00191499
     atom   57 type  1   force =     0.00001501   -0.00002126   -0.00001882
     atom   58 type  2   force =     0.00000166   -0.00000092   -0.00331443
     atom   59 type  2   force =    -0.00000314   -0.00003286   -0.00003264
     atom   60 type  2   force =    -0.00006770   -0.00058074    0.00274404
     atom   61 type  2   force =     0.00000560   -0.00000803    0.00148353
     atom   62 type  2   force =    -0.00001623   -0.00003973    0.00002476
     atom   63 type  2   force =    -0.02979227   -0.01424484   -0.00255826
     atom   64 type  1   force =    -0.00170260    0.00222186   -0.00204242
     atom   65 type  1   force =    -0.00002004   -0.00000668    0.00192331
     atom   66 type  1   force =    -0.00002606    0.00006749    0.00003333
     atom   67 type  2   force =    -0.00000234    0.00000180   -0.00331405
     atom   68 type  2   force =    -0.00001778    0.00002342   -0.00003035
     atom   69 type  2   force =    -0.00070567    0.00054998   -0.00124255
     atom   70 type  2   force =     0.00000547   -0.00000321    0.00148733
     atom   71 type  2   force =     0.00000609    0.00003523    0.00005146
     atom   72 type  2   force =     0.00058536   -0.00025350   -0.00111836
     atom   73 type  1   force =     0.00008983   -0.00054695    0.00007908
     atom   74 type  1   force =    -0.00000295    0.00003685    0.00192543
     atom   75 type  1   force =    -0.00006941    0.00001296    0.00010826
     atom   76 type  2   force =    -0.00000316    0.00000391   -0.00332535
     atom   77 type  2   force =    -0.00005036    0.00004743   -0.00000376
     atom   78 type  2   force =     0.00005161   -0.00014285   -0.00038590
     atom   79 type  2   force =     0.00000009    0.00000515    0.00149673
     atom   80 type  2   force =     0.00004172   -0.00003064    0.00008469
     atom   81 type  2   force =    -0.00023288   -0.00007856    0.00077437
     atom   82 type  1   force =    -0.00076407    0.00049030    0.00066922
     atom   83 type  1   force =     0.00002305    0.00000647    0.00192910
     atom   84 type  1   force =    -0.00000758   -0.00002536    0.00000589
     atom   85 type  2   force =     0.00000086   -0.00000109   -0.00332050
     atom   86 type  2   force =     0.00000258   -0.00004423    0.00000996
     atom   87 type  2   force =     0.00045276   -0.00030535   -0.00030066
     atom   88 type  2   force =     0.00000158    0.00000839    0.00149629
     atom   89 type  2   force =    -0.00000253    0.00004014    0.00006289
     atom   90 type  2   force =    -0.00098427   -0.00070475    0.00216784
     atom   91 type  1   force =     0.00289045   -0.00012363   -0.00087007
     atom   92 type  1   force =     0.00000496    0.00000118    0.00191764
     atom   93 type  1   force =    -0.00002931   -0.00003441   -0.00002524
     atom   94 type  2   force =    -0.00000029   -0.00000102   -0.00331496
     atom   95 type  2   force =     0.00000740   -0.00001070   -0.00002674
     atom   96 type  2   force =    -0.00021262   -0.00017771    0.00271417
     atom   97 type  2   force =    -0.00000131   -0.00000518    0.00147955
     atom   98 type  2   force =    -0.00001184    0.00001203    0.00005854
     atom   99 type  2   force =     0.02980293   -0.01478127   -0.00232722
     atom  100 type  1   force =     0.00168146    0.00233872   -0.00172539
     atom  101 type  1   force =     0.00002547   -0.00001200    0.00191809
     atom  102 type  1   force =     0.00000424   -0.00001635   -0.00004679
     atom  103 type  2   force =     0.00000043   -0.00000157   -0.00332869
     atom  104 type  2   force =     0.00001243   -0.00001099   -0.00005524
     atom  105 type  2   force =     0.00005471   -0.00025030    0.00277473
     atom  106 type  2   force =     0.00000346   -0.00000632    0.00148498
     atom  107 type  2   force =     0.00001409    0.00000494    0.00002170
     atom  108 type  2   force =    -0.00025137    0.02793320    0.01169969
     atom  109 type  1   force =    -0.00001282   -0.00012252    0.00057776
     atom  110 type  1   force =     0.00001593    0.00000775    0.00192875
     atom  111 type  1   force =     0.00005893    0.00000023   -0.00002220
     atom  112 type  2   force =     0.00000307    0.00000360   -0.00332597
     atom  113 type  2   force =     0.00000172   -0.00000728   -0.00005017
     atom  114 type  2   force =     0.00009471   -0.00007389   -0.00005662
     atom  115 type  2   force =     0.00000674    0.00000262    0.00149487
     atom  116 type  2   force =     0.00002193   -0.00000092    0.00003140
     atom  117 type  2   force =     0.00002829    0.00004007    0.00119821
     atom  118 type  1   force =     0.00066893    0.00056344    0.00062225
     atom  119 type  1   force =    -0.00002100    0.00000508    0.00192818
     atom  120 type  1   force =    -0.00001196    0.00001002   -0.00002313
     atom  121 type  2   force =    -0.00000167    0.00000030   -0.00330551
     atom  122 type  2   force =    -0.00004432   -0.00000842   -0.00002587
     atom  123 type  2   force =     0.00034736   -0.00022482   -0.00021253
     atom  124 type  2   force =     0.00000065    0.00000370    0.00150246
     atom  125 type  2   force =    -0.00000302   -0.00000920    0.00001786
     atom  126 type  2   force =     0.00017132    0.00021627    0.00041824
     atom  127 type  1   force =    -0.00008614   -0.00022291    0.00049515
     atom  128 type  1   force =     0.00000357   -0.00002674    0.00192574
     atom  129 type  1   force =     0.00002074    0.00001274   -0.00000968
     atom  130 type  2   force =     0.00000397   -0.00000147   -0.00331156
     atom  131 type  2   force =    -0.00000443   -0.00000483   -0.00003837
     atom  132 type  2   force =     0.00004783    0.00003814   -0.00035646
     atom  133 type  2   force =    -0.00000131   -0.00000289    0.00147639
     atom  134 type  2   force =    -0.00000871    0.00001146    0.00001720
     atom  135 type  2   force =    -0.00046211   -0.00021137    0.00033902
     atom  136 type  1   force =     0.00028840    0.00013607    0.00035865
     atom  137 type  1   force =    -0.00002897   -0.00000735    0.00192942
     atom  138 type  1   force =     0.00001868    0.00003290    0.00000103
     atom  139 type  2   force =     0.00000111    0.00000008   -0.00331159
     atom  140 type  2   force =    -0.00000191    0.00000009   -0.00004241
     atom  141 type  2   force =     0.00057271    0.00091755   -0.00136053
     atom  142 type  2   force =    -0.00000623   -0.00000180    0.00148475
     atom  143 type  2   force =    -0.00001213    0.00000781    0.00003124
     atom  144 type  2   force =    -0.00038591   -0.00029291   -0.00100071
     atom  145 type  3   force =    -0.00021596    0.00930167    0.00342768
     atom  146 type  3   force =    -0.00080811    0.00891266    0.00421887
     atom  147 type  3   force =    -0.00001688   -0.01056023    0.01132744
     The non-local contrib.  to forces
     atom    1 type  1   force =    -0.00020133    0.00015305    0.00083835
     atom    2 type  1   force =     0.00000185   -0.00000093   -0.00195327
     atom    3 type  1   force =    -0.00000354   -0.00012697   -0.00066650
     atom    4 type  2   force =     0.00000252   -0.00000150    0.26314379
     atom    5 type  2   force =     0.00004236   -0.00014948    0.26640899
     atom    6 type  2   force =    -0.00006302   -0.00278483    0.26680114
     atom    7 type  2   force =     0.00000165   -0.00000351   -0.26455179
     atom    8 type  2   force =    -0.00007348    0.00024569   -0.26458513
     atom    9 type  2   force =    -0.00401554   -0.00337951   -0.25351892
     atom   10 type  1   force =     0.00519453    0.00489126   -0.01824759
     atom   11 type  1   force =     0.00000771   -0.00000401   -0.00195327
     atom   12 type  1   force =    -0.00004756    0.00010940   -0.00089700
     atom   13 type  2   force =    -0.00000169    0.00000186    0.26314391
     atom   14 type  2   force =     0.00001115   -0.00003952    0.26628896
     atom   15 type  2   force =    -0.00202786   -0.00152173    0.26537725
     atom   16 type  2   force =    -0.00000086   -0.00000569   -0.26456075
     atom   17 type  2   force =    -0.00023246   -0.00036908   -0.26478894
     atom   18 type  2   force =     0.11356897    0.06383861   -0.19016460
     atom   19 type  1   force =     0.00388388   -0.00317409   -0.00180446
[...]
     atom   65 type  1   force =    -0.00000013   -0.00000029    0.00260490
     atom   66 type  1   force =    -0.00001294    0.00001048   -0.00001390
     atom   67 type  2   force =    -0.00000006    0.00000003    0.00441035
     atom   68 type  2   force =    -0.00000220   -0.00000007   -0.00005204
     atom   69 type  2   force =     0.00001245   -0.00003710   -0.00005788
     atom   70 type  2   force =    -0.00000017   -0.00000023    0.00023746
     atom   71 type  2   force =    -0.00002396    0.00002470    0.00009276
     atom   72 type  2   force =     0.00058110   -0.00051757   -0.00406410
     atom   73 type  1   force =     0.00000025    0.00000080   -0.00238561
     atom   74 type  1   force =    -0.00000004   -0.00000026    0.00260420
     atom   75 type  1   force =    -0.00000117   -0.00000392   -0.00001603
     atom   76 type  2   force =    -0.00000000    0.00000003    0.00441026
     atom   77 type  2   force =    -0.00000013   -0.00000087   -0.00004822
     atom   78 type  2   force =     0.00000385   -0.00000414   -0.00011006
     atom   79 type  2   force =    -0.00000031   -0.00000057    0.00023719
     atom   80 type  2   force =     0.00000010    0.00000054    0.00011600
     atom   81 type  2   force =    -0.00008592   -0.00005036   -0.00423392
     atom   82 type  1   force =    -0.00043047    0.00004868   -0.00209765
     atom   83 type  1   force =    -0.00000016    0.00000032    0.00260444
     atom   84 type  1   force =     0.00001636   -0.00000901   -0.00004597
     atom   85 type  2   force =     0.00000002   -0.00000002    0.00441026
     atom   86 type  2   force =    -0.00000015    0.00000071   -0.00004925
     atom   87 type  2   force =    -0.00007005    0.00003958    0.00021162
     atom   88 type  2   force =    -0.00000051    0.00000028    0.00023706
     atom   89 type  2   force =     0.00000314   -0.00000280    0.00011588
     atom   90 type  2   force =    -0.00059707    0.00034875   -0.00421314
     atom   91 type  1   force =    -0.00058604   -0.00033410   -0.00176600
     atom   92 type  1   force =     0.00000001    0.00000019    0.00260509
     atom   93 type  1   force =     0.00001592    0.00001211   -0.00007064
     atom   94 type  2   force =     0.00000003   -0.00000001    0.00441009
     atom   95 type  2   force =     0.00000144    0.00000221   -0.00005292
     atom   96 type  2   force =    -0.00010244   -0.00004975    0.00055572
     atom   97 type  2   force =    -0.00000005    0.00000018    0.00023731
     atom   98 type  2   force =     0.00003245    0.00001339    0.00009191
     atom   99 type  2   force =    -0.00063093   -0.00036904   -0.00406376
     atom  100 type  1   force =    -0.00017606   -0.00039751   -0.00209101
     atom  101 type  1   force =     0.00000009   -0.00000032    0.00260486
     atom  102 type  1   force =     0.00000001    0.00001858   -0.00003835
     atom  103 type  2   force =     0.00000000    0.00000001    0.00441011
     atom  104 type  2   force =     0.00000210   -0.00000016   -0.00005204
     atom  105 type  2   force =     0.00000015   -0.00008281    0.00021052
     atom  106 type  2   force =     0.00000000   -0.00000046    0.00023739
     atom  107 type  2   force =     0.00002388    0.00002474    0.00009279
     atom  108 type  2   force =     0.00000001   -0.00069623   -0.00420166
     atom  109 type  1   force =     0.00025345    0.00034957   -0.00209534
     atom  110 type  1   force =     0.00000025   -0.00000024    0.00260452
     atom  111 type  1   force =     0.00000122   -0.00000390   -0.00001578
     atom  112 type  2   force =     0.00000000    0.00000003    0.00441024
     atom  113 type  2   force =     0.00000228   -0.00000190   -0.00004657
     atom  114 type  2   force =    -0.00000368   -0.00000412   -0.00011001
     atom  115 type  2   force =     0.00000024   -0.00000060    0.00023719
     atom  116 type  2   force =     0.00001080   -0.00001036    0.00009885
     atom  117 type  2   force =     0.00008580   -0.00005026   -0.00423383
     atom  118 type  1   force =     0.00043070    0.00004876   -0.00209746
     atom  119 type  1   force =     0.00000011    0.00000034    0.00260438
     atom  120 type  1   force =     0.00000005    0.00000204   -0.00002044
     atom  121 type  2   force =    -0.00000000    0.00000001    0.00441029
     atom  122 type  2   force =     0.00000006    0.00000078   -0.00004921
     atom  123 type  2   force =     0.00000009   -0.00000848   -0.00011056
     atom  124 type  2   force =    -0.00000005    0.00000032    0.00023743
     atom  125 type  2   force =    -0.00000309   -0.00000291    0.00011587
     atom  126 type  2   force =     0.00000003    0.00010611   -0.00424178
     atom  127 type  1   force =    -0.00000009   -0.00010139   -0.00238479
     atom  128 type  1   force =    -0.00000000    0.00000039    0.00260515
     atom  129 type  1   force =     0.00001577    0.00000886   -0.00001772
     atom  130 type  2   force =     0.00000004   -0.00000001    0.00441034
     atom  131 type  2   force =     0.00000004    0.00000296   -0.00004730
     atom  132 type  2   force =    -0.00004083    0.00001558   -0.00005900
     atom  133 type  2   force =    -0.00000026    0.00000061    0.00023713
     atom  134 type  2   force =    -0.00000004    0.00001715    0.00009708
     atom  135 type  2   force =    -0.00073267   -0.00024916   -0.00407127
     atom  136 type  1   force =    -0.00008963    0.00004527   -0.00238484
     atom  137 type  1   force =     0.00000019   -0.00000018    0.00260527
     atom  138 type  1   force =     0.00001292    0.00001052   -0.00001359
     atom  139 type  2   force =     0.00000007    0.00000003    0.00441034
     atom  140 type  2   force =     0.00000119    0.00000006   -0.00004498
     atom  141 type  2   force =    -0.00001230   -0.00003694   -0.00005782
     atom  142 type  2   force =     0.00000016   -0.00000028    0.00023744
     atom  143 type  2   force =     0.00002475    0.00001532    0.00011275
     atom  144 type  2   force =    -0.00058098   -0.00051751   -0.00406421
     atom  145 type  3   force =    -0.00025415    0.00014564   -0.00628617
     atom  146 type  3   force =     0.00025403    0.00014562   -0.00628619
     atom  147 type  3   force =    -0.00000007   -0.00029346   -0.00628538

     Total force =     0.003973     Total SCF correction =     0.000171
     Energy error            =      2.8E-05 Ry
     Gradient error          =      1.0E-03 Ry/Bohr

     bfgs converged in  14 scf cycles and  13 bfgs steps
     (criteria: energy <  1.0E-04 Ry, force <  1.0E-03 Ry/Bohr)

     End of BFGS Geometry Optimization

     Final energy             =  -25381.1020392049 Ry

     File ./outdir/pwscf.bfgs deleted, as requested
Begin final coordinates

ATOMIC_POSITIONS (angstrom)
Mo            1.5761177061        2.6933183960        6.0691978833
Mo            1.5769197498        0.9104407117       -6.0872367793    0   0   0
Mo           -0.0001293472        1.8211315009       -0.0012069207
S             0.0000044503        0.0000077495       -7.6506323570    0   0   0
S             1.5767894234        0.9109688296       -1.5670762511
S            -0.0085937787        1.8211023255        4.4954408528
S             0.0000053241        0.0000068460       -4.5222282367    0   0   0
S             1.5768888497        0.9098221141        1.5650229629
S            -0.0044080036        1.7997237675        7.6384075059
Mo           -0.0211515353        5.4510589627        6.1292354694
Mo            0.0000011799        3.6417399547       -6.0872367793    0   0   0
Mo           -1.5765842349        4.5523934720       -0.0003072875
S            -1.5769141197        2.7313069925       -7.6506323570    0   0   0
S            -0.0000943715        3.6420240683       -1.5660897600
S            -1.5642808858        4.5608061953        4.5437076764
S            -1.5769132459        2.7313060890       -4.5222282367    0   0   0
S             0.0005857998        3.6421089928        1.5671515014
S            -1.6513056446        4.5071840840        7.7110132368
Mo           -1.6108935691        8.2129733811        6.0639951967
Mo           -1.5769173901        6.3730391977       -6.0872367793    0   0   0
Mo           -3.1535400033        7.2831425895       -0.0023005398
S            -3.1538326896        5.4626062355       -7.6506323570    0   0   0
S            -1.5763423903        6.3724356840       -1.5667588142
S            -3.1604068259        7.2711092097        4.4973809880
S            -3.1538318159        5.4626053320       -4.5222282367    0   0   0
S            -1.5764204350        6.3737689204        1.5666307922
S            -3.1692285024        7.2901566417        7.6403714819
Mo            3.1535174679       -0.0008981979        6.0580370440
Mo           -3.1538359601        9.1043384407       -6.0872367793    0   0   0
Mo           -4.7308340730       10.0145609107       -0.0025579750
S            -4.7307512596        8.1939054785       -7.6506323570    0   0   0
S            -3.1535298239        9.1042268238       -1.5677245768
S            -4.7316556143       10.0100105711        4.4916298752
S            -4.7307503859        8.1939045750       -4.5222282367    0   0   0
S            -3.1539636457        9.1039574532        1.5643923573
S            -4.7316681016       10.0141322705        7.6255932893
Mo            4.7353855473        2.7240224355        6.0827758463
Mo            4.7307503218        0.9104407117       -6.0872367793    0   0   0
Mo            3.1538243674        1.8211200992       -0.0013510393
S             3.1538350223        0.0000077495       -7.6506323570    0   0   0
S             4.7310844152        0.9108203004       -1.5667769005
S             3.1608784448        1.8211237367        4.4955272594
S             3.1538358961        0.0000068460       -4.5222282367    0   0   0
S             4.7305594197        0.9100853824        1.5647115385
S             3.1565865562        1.7996520299        7.6384153102
Mo            3.1735239559        5.4509388795        6.1294796197
Mo            3.1538317519        3.6417399547       -6.0872367793    0   0   0
Mo            1.5768479198        4.5524102286       -0.0007090003
S             1.5769164523        2.7313069925       -7.6506323570    0   0   0
S             3.1537409163        3.6420641703       -1.5661955472
S             1.5762989909        4.5657963908        4.5745238475
S             1.5769173261        2.7313060890       -4.5222282367    0   0   0
S             3.1531398882        3.6420725550        1.5670516629
S             1.5759994993        4.4348999750        7.6891516430
Mo            1.5762007350        8.2206912792        6.1210262304
Mo            1.5769131819        6.3730391977       -6.0872367793    0   0   0
Mo            0.0003330529        7.2830639762       -0.0012065159
S            -0.0000021176        5.4626062355       -7.6506323570    0   0   0
S             1.5768502898        6.3726600474       -1.5667722132
S             0.0102446646        7.2758338481        4.5680187584
S            -0.0000012439        5.4626053320       -4.5222282367    0   0   0
S             1.5768203280        6.3729847419        1.5669316202
S            -0.1020718068        7.3458718993        7.6794631937
Mo            6.3041007119        0.0089964880        6.0772995271
Mo           -0.0000053881        9.1043384407       -6.0872367793    0   0   0
Mo           -1.5766592264       10.0145348840       -0.0018569742
S            -1.5769206876        8.1939054785       -7.6506323570    0   0   0
S             0.0005391699        9.1040425789       -1.5666272922
S            -1.5734559279       10.0223998245        4.4916374900
S            -1.5769198139        8.1939045750       -4.5222282367    0   0   0
S            -0.0002828374        9.1032548012        1.5664833547
S            -1.5911250181       10.0271623234        7.6351895621
Mo            7.8838799350        2.7312643078        6.0768435915
Mo            7.8845808939        0.9104407117       -6.0872367793    0   0   0
Mo            6.3076932363        1.8209400575       -0.0005969450
S             6.3076655943        0.0000077495       -7.6506323570    0   0   0
S             7.8845620173        0.9102337294       -1.5657571628
S             6.3067756290        1.8231474658        4.5075940040
S             6.3076664681        0.0000068460       -4.5222282367    0   0   0
S             7.8844440750        0.9096037158        1.5670435922
S             6.3101303537        1.8202749062        7.6499530256
Mo            6.3153470110        5.4591193061        6.0870213852
Mo            6.3076623239        3.6417399547       -6.0872367793    0   0   0
Mo            4.7302730868        4.5523964068       -0.0004164435
S             4.7307470244        2.7313069925       -7.6506323570    0   0   0
S             6.3072207233        3.6417255161       -1.5660450391
S             4.7166016180        4.5606880582        4.5439730398
S             4.7307478981        2.7313060890       -4.5222282367    0   0   0
S             6.3071558976        3.6424092132        1.5668420271
S             4.8037790844        4.5069929604        7.7111697858
Mo            4.7631690985        8.2128928637        6.0640701143
Mo            4.7307437539        6.3730391977       -6.0872367793    0   0   0
Mo            3.1533395255        7.2830627515       -0.0011754801
S             3.1538284544        5.4626062355       -7.6506323570    0   0   0
S             4.7300445450        6.3725051872       -1.5667774388
S             3.1422021150        7.2755690959        4.5681335493
S             3.1538293281        5.4626053320       -4.5222282367    0   0   0
S             4.7300782235        6.3736916748        1.5666152838
S             3.2543852031        7.3458396150        7.6795879557
Mo            9.4634434303        0.0090352275        6.0772793603
Mo            3.1538251839        9.1043384407       -6.0872367793    0   0   0
Mo            1.5768363733       10.0142302358       -0.0004698003
S             1.5769098844        8.1939054785       -7.6506323570    0   0   0
S             3.1532172185        9.1040749491       -1.5665316221
S             1.5761040725       10.0030686107        4.5323879804
S             1.5769107581        8.1939045750       -4.5222282367    0   0   0
S             3.1538539381        9.1032063807        1.5665786588
S             1.5760998205       10.1037877811        7.7009037178
Mo           -1.5829985604        2.7241742373        6.0826458720
Mo           11.0384114659        0.9104407117       -6.0872367793    0   0   0
Mo            9.4613192770        1.8209394819       -0.0004966060
S             9.4614961663        0.0000077495       -7.6506323570    0   0   0
S            11.0379216904        0.9107866232       -1.5665910743
S             9.4609419629        1.8231942068        4.5075750108
S             9.4614970401        0.0000068460       -4.5222282367    0   0   0
S            11.0384199519        0.9100964816        1.5648999951
S             9.4576872148        1.8204003978        7.6498708787
Mo           -3.1628950804        5.4592489596        6.0869020910
Mo            9.4614928959        3.6417399547       -6.0872367793    0   0   0
Mo            7.8844984605        4.5521087582       -0.0012124823
S             7.8845775964        2.7313069925       -7.6506323570    0   0   0
S             9.4618535191        3.6416834075       -1.5659583970
S             7.8838887493        4.5532960629        4.5125791376
S             7.8845784701        2.7313060890       -4.5222282367    0   0   0
S             9.4617934120        3.6424326809        1.5669405494
S             7.8840286569        4.5458806944        7.6562958431
Mo           -4.7315950118        8.1902223759        6.0624990466
Mo            7.8845743259        6.3730391977       -6.0872367793    0   0   0
Mo            6.3072167607        7.2831579684       -0.0022454068
S             6.3076590264        5.4626062355       -7.6506323570    0   0   0
S             7.8844870135        6.3724680836       -1.5675916393
S             6.3126328261        7.2709006292        4.4974284868
S             6.3076599001        5.4626053320       -4.5222282367    0   0   0
S             7.8845148550        6.3733344330        1.5638590829
S             6.3215035569        7.2900273266        7.6404556981
Mo           -0.0014337312       -0.0008662528        6.0580243197
Mo            6.3076557559        9.1043384407       -6.0872367793    0   0   0
Mo            4.7303225699       10.0145354342       -0.0016715806
S             4.7307404564        8.1939054785       -7.6506323570    0   0   0
S             6.3071345994        9.1042399948       -1.5676133252
S             4.7255581064       10.0223276189        4.4916257418
S             4.7307413301        8.1939045750       -4.5222282367    0   0   0
S             6.3076864033        9.1039278895        1.5644978067
S             4.7432116057       10.0272096146        7.6352100141
Pd            3.0724114518        5.5203340829        9.0843176614
Pd            0.0795451098        5.5205523060        9.0846041933
Pd            1.5761065351        8.1035848170        9.0823100247
End final coordinates



     Writing all to output data dir ./outdir/pwscf.save/
 
     init_run     :    105.70s CPU    108.19s WALL (       1 calls)
     electrons    :  63395.96s CPU  64171.33s WALL (      14 calls)
     update_pot   :     55.12s CPU     55.32s WALL (      13 calls)
     forces       :    967.54s CPU    996.22s WALL (      14 calls)
     force_dftd3  :      6.60s CPU      6.62s WALL (      14 calls)

     Called by init_run:
     wfcinit      :     87.04s CPU     88.33s WALL (       1 calls)
     potinit      :      1.84s CPU      1.91s WALL (       1 calls)
     hinit0       :     11.57s CPU     11.59s WALL (       1 calls)

     Called by electrons:
     c_bands      :  56582.82s CPU  56949.81s WALL (     172 calls)
     sum_band     :   6261.34s CPU   6499.40s WALL (     172 calls)
     v_of_rho     :     69.64s CPU     70.76s WALL (     172 calls)
     newd         :    356.51s CPU    534.80s WALL (     172 calls)
     PAW_pot      :    104.32s CPU    104.32s WALL (     185 calls)
     mix_rho      :     16.13s CPU     16.12s WALL (     172 calls)
     energy_dftd3 :      2.97s CPU      2.98s WALL (      14 calls)

     Called by c_bands:
     init_us_2    :    274.76s CPU    275.04s WALL (    1488 calls)
     init_us_2:cp :    274.75s CPU    275.03s WALL (    1488 calls)
     cegterg      :  55658.68s CPU  56021.19s WALL (     702 calls)

     Called by *egterg:
     cdiaghg      :   3563.70s CPU   3575.54s WALL (    8756 calls)
     h_psi        :  29721.65s CPU  29825.25s WALL (    8868 calls)
     s_psi        :   6032.30s CPU   6032.63s WALL (    8868 calls)
     g_psi        :     64.87s CPU     64.88s WALL (    8162 calls)

     Called by h_psi:
     h_psi:calbec :   6076.11s CPU   6077.23s WALL (    8868 calls)
     vloc_psi     :  17494.63s CPU  17532.97s WALL (    8868 calls)
     add_vuspsi   :   6074.61s CPU   6076.44s WALL (    8868 calls)

     General routines
     calbec       :   8635.82s CPU   8637.45s WALL (    9832 calls)
     fft          :     63.58s CPU     65.06s WALL (    2389 calls)
     ffts         :      3.06s CPU      3.10s WALL (     344 calls)
     fftw         :  13941.79s CPU  13972.45s WALL ( 3856120 calls)
     interpolate  :      6.94s CPU      7.03s WALL (     172 calls)
 
     Parallel routines
 
     PWSCF        :     18h 0m CPU     18h14m WALL

 
   This run was terminated on:  12:48:30   4Nov2023            

=------------------------------------------------------------------------------=
   JOB DONE.
=------------------------------------------------------------------------------=
Application 11372275 resources: utime ~2334687s, stime ~29601s, Rss ~2383904, inblocks ~0, outblocks ~36477712
