ITEM: TIMESTEP
0
ITEM: NUMBER OF ATOMS
557
ITEM: BOX BOUNDS xy xz yz pp pp ff
-9.8299323600000008e+00 2.9489797079999999e+01 -9.8299323600000008e+00
0.0000000000000000e+00 2.7601942391000001e+01 0.0000000000000000e+00
0.0000000000000000e+00 3.6159325252999999e+01 0.0000000000000000e+00
ITEM: ATOMS id type element x y z ix iy iz
1 6 Si 0.0107922 5.40113 5.83817 0 0 0
2 6 Si 1.38607 1.27865 6.4883 0 0 0
3 6 Si 3.89733 2.51221 5 0 0 0
4 5 O 0.867075 4.68982 7.12125 0 0 0
5 5 O -1.13785 6.50901 6.45469 0 0 0
6 5 O 2.94713 1.78388 6.22748 0 0 0
7 5 O -0.952567 4.11933 5.15665 0 0 0
8 5 O 0.442021 1.86105 5.21008 0 0 0
9 5 O 0.873461 1.79135 7.98682 0 0 0
10 6 Si 0.106333 1.06354 9.29484 0 0 0
11 6 Si -0.936148 3.88733 9.95414 0 0 0
12 6 Si 1.5328 5.10101 8.58267 0 0 0
13 5 O 1.2519 0.53822 10.3708 0 0 0
14 5 O 4.04756 2.23288 9.98862 0 0 0
15 5 O 0.615217 4.50128 9.85687 0 0 0
16 5 O 1.55924 6.74966 8.75312 0 0 0
17 5 O 3.04078 4.40192 8.66853 0 0 0
18 5 O 3.37544 4.54793 11.3781 0 0 0
19 6 Si -2.44719 12.3017 5.83776 0 0 0
20 6 Si -1.07171 8.1796 6.48794 0 0 0
21 6 Si 1.43985 9.41269 5 0 0 0
22 5 O -1.58977 11.5914 7.12085 0 0 0
23 5 O -3.59505 13.4093 6.45441 0 0 0
24 5 O 0.489697 8.68453 6.22774 0 0 0
25 5 O -3.41005 11.0198 5.15665 0 0 0
26 5 O -2.01546 8.76153 5.21008 0 0 0
27 5 O -1.58429 8.69198 7.98684 0 0 0
28 6 Si -2.35071 7.96432 9.29492 0 0 0
29 6 Si -3.39387 10.7881 9.95343 0 0 0
30 6 Si -0.924329 12.0009 8.58262 0 0 0
31 5 O -1.20554 7.43922 10.3712 0 0 0
32 5 O 1.59046 9.13369 9.98802 0 0 0
33 5 O -1.84248 11.4013 9.85711 0 0 0
34 5 O -0.89815 13.6499 8.75399 0 0 0
35 5 O 0.583795 11.3015 8.66807 0 0 0
36 5 O 0.917505 11.4486 11.3777 0 0 0
73 6 Si 4.92561 5.40104 5.83762 0 0 0
74 6 Si 6.30066 1.27925 6.48837 0 0 0
75 6 Si 8.8123 2.51221 5 0 0 0
76 5 O 5.78203 4.69005 7.12116 0 0 0
77 5 O 3.77736 6.50846 6.45466 0 0 0
78 5 O 7.86214 1.78439 6.22758 0 0 0
79 5 O 3.9624 4.11933 5.15665 0 0 0
80 5 O 5.35699 1.86105 5.21008 0 0 0
81 5 O 5.78714 1.79172 7.98671 0 0 0
82 6 Si 5.02097 1.06397 9.29511 0 0 0
83 6 Si 3.97823 3.88735 9.95366 0 0 0
84 6 Si 6.44797 5.10064 8.5827 0 0 0
85 5 O 6.16679 0.537717 10.3706 0 0 0
86 5 O 8.96265 2.23297 9.98799 0 0 0
87 5 O 5.52971 4.50119 9.85706 0 0 0
88 5 O 6.47456 6.74963 8.75361 0 0 0
89 5 O 7.95633 4.40149 8.66913 0 0 0
90 5 O 8.29047 4.54781 11.3787 0 0 0
91 6 Si 2.46834 12.302 5.83846 0 0 0
92 6 Si 3.84297 8.17941 6.48826 0 0 0
93 6 Si 6.35482 9.41269 5 0 0 0
94 5 O 3.32503 11.5909 7.12137 0 0 0
95 5 O 1.31951 13.409 6.45595 0 0 0
96 5 O 5.40467 8.68407 6.22733 0 0 0
97 5 O 1.50492 11.0198 5.15665 0 0 0
98 5 O 2.8995 8.76153 5.21008 0 0 0
99 5 O 3.32994 8.69151 7.9871 0 0 0
100 6 Si 2.56339 7.9639 9.29463 0 0 0
101 6 Si 1.52141 10.7879 9.95374 0 0 0
102 6 Si 3.99045 12.0012 8.58253 0 0 0
103 5 O 3.7087 7.43844 10.3703 0 0 0
104 5 O 6.5051 9.13363 9.98785 0 0 0
105 5 O 3.07203 11.4015 9.85696 0 0 0
106 5 O 4.01787 13.6498 8.75401 0 0 0
107 5 O 5.49843 11.3019 8.66833 0 0 0
108 5 O 5.83238 11.4488 11.378 0 0 0
145 6 Si 9.84093 5.40119 5.83848 0 0 0
146 6 Si 11.215 1.27945 6.48766 0 0 0
147 6 Si 13.7273 2.51221 5 0 0 0
148 5 O 10.697 4.69073 7.1214 0 0 0
149 5 O 8.69188 6.50904 6.45438 0 0 0
150 5 O 12.7771 1.78388 6.22765 0 0 0
151 5 O 8.87737 4.11933 5.15665 0 0 0
152 5 O 10.272 1.86105 5.21008 0 0 0
153 5 O 10.7023 1.79139 7.98661 0 0 0
154 6 Si 9.93606 1.06409 9.29477 0 0 0
155 6 Si 8.894 3.88753 9.9546 0 0 0
156 6 Si 11.3626 5.10093 8.58284 0 0 0
157 5 O 11.0816 0.538007 10.3701 0 0 0
158 5 O 13.8778 2.23355 9.98781 0 0 0
159 5 O 10.4446 4.50153 9.85753 0 0 0
160 5 O 11.3895 6.74963 8.75396 0 0 0
161 5 O 12.8708 4.40231 8.66902 0 0 0
163 6 Si 7.38298 12.302 5.83754 0 0 0
164 6 Si 8.75835 8.17994 6.48772 0 0 0
165 6 Si 11.2698 9.41269 5 0 0 0
166 5 O 8.23977 11.591 7.12067 0 0 0
167 5 O 6.23441 13.4094 6.45406 0 0 0
168 5 O 10.3199 8.68479 6.22756 0 0 0
169 5 O 6.41988 11.0198 5.15665 0 0 0
170 5 O 7.81447 8.76153 5.21008 0 0 0
171 5 O 8.24532 8.69231 7.98664 0 0 0
172 6 Si 7.47884 7.96439 9.29488 0 0 0
173 6 Si 6.43616 10.7879 9.95362 0 0 0
174 6 Si 8.90542 12.0012 8.58213 0 0 0
175 5 O 8.6243 7.43919 10.371 0 0 0
176 5 O 11.4202 9.13318 9.9884 0 0 0
177 5 O 7.98757 11.401 9.85681 0 0 0
178 5 O 8.93217 13.6503 8.75357 0 0 0
179 5 O 10.4138 11.3018 8.66764 0 0 0
378 5 O -1.54029 4.54807 11.3779 1 0 0
396 5 O -3.99672 11.4487 11.3778 1 0 0
434 2 H 2.4322 4.35102 11.5434 0 0 0
435 2 H -1.3749 6.62271 10.8878 0 0 0
436 2 H -0.0261351 11.252 11.542 0 0 0
437 2 H -3.83211 13.5235 10.8882 0 0 0
442 2 H 7.34691 4.35148 11.5436 0 0 0
443 2 H 3.53962 6.62336 10.8884 0 0 0
444 2 H 4.88955 11.2514 11.5429 0 0 0
445 2 H 1.08268 13.5237 10.8885 0 0 0
450 2 H 12.2619 4.35118 11.543 0 0 0
451 2 H 8.45511 6.62307 10.8878 0 0 0
452 2 H 9.80286 11.2513 11.541 0 0 0
453 2 H 5.9986 13.5235 10.8883 0 0 0
490 1 C 12.0392 5.82913 14.2406 0 0 0
498 1 C 10.4939 11.5069 18.0629 0 0 0
526 2 H 11.1392 6.10432 13.6377 0 0 0
527 2 H 11.6778 5.30466 15.1591 0 0 0
528 2 H 12.6315 5.09484 13.643 0 0 0
531 2 H 11.2098 8.48249 14.7769 0 0 0
532 2 H 11.652 7.67806 16.3086 0 0 0
537 2 H 10.6771 9.45165 17.5389 0 0 0
547 2 H 7.07796 11.6439 17.2311 0 0 0
548 2 H 4.83977 10.5825 17.9009 0 0 0
556 5 O 9.72193 11.9998 17.1462 0 0 0
504 1 C 6.80255 12.9743 20.3145 0 0 0
505 1 C 6.60516 11.8464 18.2122 0 0 0
506 1 C 5.37737 11.2525 18.5994 0 0 0
507 1 C 4.86499 11.5314 19.891 0 0 0
508 1 C 5.58125 12.393 20.7591 0 0 0
549 2 H 3.91242 11.0767 20.2282 0 0 0
550 2 H 5.18486 12.6041 21.7694 0 0 0
551 3 Mg 9.31683 13.5881 18.4974 0 0 0
553 4 N 7.31925 12.7047 19.037 0 0 0
37 6 Si -4.90393 19.2026 5.83843 0 0 0
38 6 Si -3.5291 15.0795 6.48858 0 0 0
39 6 Si -1.01763 16.3132 5 0 0 0
40 5 O -4.04722 18.4912 7.12105 0 0 0
41 5 O -6.0527 20.31 6.45511 0 0 0
42 5 O -1.96775 15.5845 6.22751 0 0 0
43 5 O -5.86753 17.9203 5.15665 0 0 0
44 5 O -4.47294 15.662 5.21008 0 0 0
45 5 O -4.04233 15.5922 7.98701 0 0 0
46 6 Si -4.80911 14.8643 9.29486 0 0 0
47 6 Si -5.85111 17.6884 9.95409 0 0 0
48 6 Si -3.38212 18.9015 8.58226 0 0 0
49 5 O -3.66348 14.3393 10.3706 0 0 0
50 5 O -0.867535 16.0336 9.98963 0 0 0
51 5 O -4.30012 18.3023 9.85657 0 0 0
52 5 O -3.35515 20.5504 8.75371 0 0 0
53 5 O -1.87415 18.2023 8.66908 0 0 0
54 5 O -1.53925 18.3489 11.3792 0 0 0
55 6 Si -7.3617 26.1028 5.8374 0 0 0
56 6 Si -5.98688 21.9804 6.48815 0 0 0
57 6 Si -3.47512 23.2137 5 0 0 0
58 5 O -6.50504 25.3918 7.12048 0 0 0
59 5 O -8.51005 27.2102 6.45398 0 0 0
60 5 O -4.42552 22.4852 6.22764 0 0 0
61 5 O -8.32502 24.8208 5.15665 0 0 0
62 5 O -6.93043 22.5625 5.21008 0 0 0
63 5 O -6.49944 22.4925 7.98685 0 0 0
64 6 Si -7.26617 21.7655 9.29489 0 0 0
65 6 Si -8.30923 24.5887 9.95384 0 0 0
66 6 Si -5.83981 25.8021 8.58259 0 0 0
67 5 O -6.12088 21.2397 10.3708 0 0 0
68 5 O -3.32473 22.9332 9.98883 0 0 0
69 5 O -6.75779 25.202 9.85696 0 0 0
70 5 O -5.81288 27.4506 8.75355 0 0 0
71 5 O -4.33109 25.1022 8.66817 0 0 0
72 5 O -3.99738 25.2496 11.3788 0 0 0
109 6 Si 0.0108661 19.202 5.83813 0 0 0
110 6 Si 1.38606 15.0801 6.48789 0 0 0
111 6 Si 3.89733 16.3132 5 0 0 0
112 5 O 0.867209 18.4911 7.12164 0 0 0
113 5 O -1.13721 20.3098 6.45463 0 0 0
114 5 O 2.94713 15.5856 6.22714 0 0 0
115 5 O -0.952567 17.9203 5.15665 0 0 0
116 5 O 0.442021 15.662 5.21008 0 0 0
117 5 O 0.872268 15.593 7.98673 0 0 0
118 6 Si 0.106406 14.8647 9.29525 0 0 0
119 6 Si -0.936318 17.6886 9.9545 0 0 0
120 6 Si 1.53284 18.9018 8.58274 0 0 0
121 5 O 1.25305 14.3388 10.3703 0 0 0
122 5 O 4.04732 16.0336 9.98872 0 0 0
123 5 O 0.614997 18.3021 9.85706 0 0 0
124 5 O 1.55965 20.5507 8.75363 0 0 0
125 5 O 3.04089 18.2024 8.66876 0 0 0
126 5 O 3.37515 18.3489 11.3784 0 0 0
127 6 Si -2.44686 26.1026 5.83809 0 0 0
128 6 Si -1.07224 21.9804 6.48823 0 0 0
129 6 Si 1.43985 23.2137 5 0 0 0
130 5 O -1.59076 25.391 7.12146 0 0 0
131 5 O -3.59553 27.2104 6.45501 0 0 0
132 5 O 0.489112 22.4852 6.22822 0 0 0
133 5 O -3.41005 24.8208 5.15665 0 0 0
134 5 O -2.01546 22.5625 5.21008 0 0 0
135 5 O -1.5849 22.4928 7.98704 0 0 0
136 6 Si -2.35127 21.7647 9.29445 0 0 0
137 6 Si -3.39433 24.5882 9.95469 0 0 0
138 6 Si -0.924899 25.8025 8.58272 0 0 0
139 5 O -1.20599 21.2393 10.3709 0 0 0
140 5 O 1.59022 22.934 9.98877 0 0 0
141 5 O -1.84255 25.202 9.85695 0 0 0
142 5 O -0.897709 27.451 8.75363 0 0 0
143 5 O 0.583637 25.103 8.66846 0 0 0
144 5 O 0.917399 25.2496 11.3788 0 0 0
181 6 Si 4.92574 19.2022 5.83732 0 0 0
182 6 Si 6.30096 15.0798 6.48864 0 0 0
183 6 Si 8.8123 16.3132 5 0 0 0
184 5 O 5.78239 18.4914 7.12102 0 0 0
185 5 O 3.77739 20.3099 6.45425 0 0 0
186 5 O 7.86219 15.5847 6.22751 0 0 0
187 5 O 3.9624 17.9203 5.15665 0 0 0
188 5 O 5.35699 15.662 5.21008 0 0 0
189 5 O 5.78774 15.5923 7.98695 0 0 0
190 6 Si 5.02142 14.8646 9.29539 0 0 0
191 6 Si 3.97853 17.6881 9.9542 0 0 0
192 6 Si 6.44801 18.9016 8.58245 0 0 0
193 5 O 6.16695 14.3395 10.3716 0 0 0
194 5 O 8.96282 16.0336 9.9887 0 0 0
195 5 O 5.52974 18.3016 9.85681 0 0 0
196 5 O 6.47426 20.5503 8.75366 0 0 0
197 5 O 7.9561 18.2022 8.66846 0 0 0
199 6 Si 2.46808 26.1025 5.83816 0 0 0
200 6 Si 3.84314 21.9804 6.48834 0 0 0
201 6 Si 6.35482 23.2137 5 0 0 0
202 5 O 3.32417 25.3915 7.12105 0 0 0
203 5 O 1.31936 27.2104 6.45423 0 0 0
204 5 O 5.40436 22.4855 6.22782 0 0 0
205 5 O 1.50492 24.8208 5.15665 0 0 0
206 5 O 2.8995 22.5625 5.21008 0 0 0
207 5 O 3.33 22.4932 7.98686 0 0 0
208 6 Si 2.56387 21.765 9.2948 0 0 0
209 6 Si 1.52057 24.5884 9.95445 0 0 0
210 6 Si 3.99003 25.8029 8.58238 0 0 0
211 5 O 3.70922 21.2397 10.3703 0 0 0
212 5 O 6.5047 22.9341 9.98861 0 0 0
213 5 O 3.07202 25.2025 9.85695 0 0 0
214 5 O 4.01689 27.4512 8.75369 0 0 0
215 5 O 5.49849 25.103 8.6687 0 0 0
414 5 O -6.45517 18.3489 11.3779 1 0 0
432 5 O -8.91261 25.2493 11.3776 1 0 0
433 2 H -8.74705 27.3244 10.888 0 -1 0
438 2 H -2.4828 18.1519 11.5443 0 0 0
439 2 H -6.28939 20.4235 10.8877 0 0 0
440 2 H -4.94165 25.0525 11.5431 0 0 0
441 2 H -3.8332 27.3245 10.8881 0 -1 0
446 2 H 2.43152 18.1517 11.5428 0 0 0
447 2 H -1.37513 20.4242 10.8883 0 0 0
448 2 H -0.0263854 25.0526 11.5435 0 0 0
449 2 H 1.08187 27.325 10.8882 0 -1 0
454 2 H 7.34693 18.1521 11.5432 0 0 0
455 2 H 3.53995 20.4241 10.888 0 0 0
456 2 H 4.8885 25.0522 11.5439 0 0 0
555 5 O 8.74734 15.2102 17.2926 0 0 0
501 1 C 7.63918 13.9062 21.1522 0 0 0
502 1 C 7.3088 14.3007 22.4788 0 0 0
503 1 C 8.16048 15.1974 23.1719 0 0 0
545 2 H 6.40064 13.9184 22.9781 0 0 0
546 2 H 7.90811 15.5157 24.2024 0 0 0
552 4 N 8.8005 14.3759 20.5227 0 0 0
162 5 O 13.2052 4.548 11.3775 0 0 0
180 5 O 10.7467 11.4486 11.3775 0 0 0
217 6 Si 14.7557 5.40078 5.83746 0 0 0
218 6 Si 16.1303 1.27915 6.48826 0 0 0
219 6 Si 18.6422 2.51221 5 0 0 0
220 5 O 15.6123 4.69016 7.12107 0 0 0
221 5 O 13.6067 6.50844 6.45357 0 0 0
222 5 O 17.6919 1.78395 6.22768 0 0 0
223 5 O 13.7923 4.11933 5.15665 0 0 0
224 5 O 15.1869 1.86105 5.21008 0 0 0
225 5 O 15.6175 1.79138 7.98674 0 0 0
226 6 Si 14.851 1.06427 9.29504 0 0 0
227 6 Si 13.8082 3.88764 9.95375 0 0 0
228 6 Si 16.2772 5.10111 8.58281 0 0 0
229 5 O 15.9963 0.538186 10.3701 0 0 0
230 5 O 18.7924 2.23238 9.98881 0 0 0
231 5 O 15.3593 4.501 9.85701 0 0 0
232 5 O 16.3042 6.74986 8.75341 0 0 0
233 5 O 17.7861 4.40159 8.66809 0 0 0
234 5 O 18.12 4.54846 11.3787 0 0 0
235 6 Si 12.2981 12.3015 5.83808 0 0 0
236 6 Si 13.6736 8.17884 6.48837 0 0 0
237 6 Si 16.1847 9.41269 5 0 0 0
238 5 O 13.1549 11.5905 7.12138 0 0 0
239 5 O 11.1497 13.4095 6.45452 0 0 0
240 5 O 15.2348 8.68417 6.22682 0 0 0
241 5 O 11.3348 11.0198 5.15665 0 0 0
242 5 O 12.7294 8.76153 5.21008 0 0 0
243 5 O 13.1609 8.69168 7.98714 0 0 0
244 6 Si 12.394 7.96384 9.29498 0 0 0
245 6 Si 11.3511 10.7876 9.95354 0 0 0
246 6 Si 13.8204 12.0014 8.58261 0 0 0
247 5 O 13.5396 7.43887 10.371 0 0 0
248 5 O 16.335 9.13314 9.98872 0 0 0
249 5 O 12.9026 11.4009 9.85672 0 0 0
250 5 O 13.8466 13.65 8.75382 0 0 0
251 5 O 15.3287 11.3024 8.66847 0 0 0
252 5 O 15.663 11.449 11.3786 0 0 0
289 6 Si 19.6705 5.40078 5.83807 0 0 0
290 6 Si 21.045 1.27918 6.48817 0 0 0
291 6 Si 23.5572 2.51221 5 0 0 0
292 5 O 20.527 4.68985 7.12147 0 0 0
293 5 O 18.5217 6.50884 6.45458 0 0 0
294 5 O 22.6067 1.78367 6.22749 0 0 0
295 5 O 18.7073 4.11933 5.15665 0 0 0
296 5 O 20.1019 1.86105 5.21008 0 0 0
297 5 O 20.5321 1.79162 7.98692 0 0 0
298 6 Si 19.7661 1.06333 9.29472 0 0 0
299 6 Si 18.7231 3.8871 9.95412 0 0 0
300 6 Si 21.1925 5.10143 8.58286 0 0 0
301 5 O 20.9118 0.538127 10.3712 0 0 0
302 5 O 23.7075 2.23236 9.98785 0 0 0
303 5 O 20.2748 4.50117 9.85726 0 0 0
304 5 O 21.2199 6.75048 8.75359 0 0 0
305 5 O 22.7007 4.40178 8.66857 0 0 0
306 5 O 23.0349 4.54799 11.3782 0 0 0
307 6 Si 17.2129 12.3019 5.83718 0 0 0
308 6 Si 18.5877 8.17943 6.48807 0 0 0
309 6 Si 21.0997 9.41269 5 0 0 0
310 5 O 18.07 11.5912 7.12061 0 0 0
311 5 O 16.0646 13.4094 6.45429 0 0 0
312 5 O 20.1492 8.68412 6.22773 0 0 0
313 5 O 16.2498 11.0198 5.15665 0 0 0
314 5 O 17.6444 8.76153 5.21008 0 0 0
315 5 O 18.075 8.69178 7.98657 0 0 0
316 6 Si 17.3085 7.96433 9.2946 0 0 0
317 6 Si 16.2663 10.7878 9.95407 0 0 0
318 6 Si 18.7357 12.0013 8.58231 0 0 0
319 5 O 18.4537 7.43849 10.3708 0 0 0
320 5 O 21.2502 9.13359 9.98844 0 0 0
321 5 O 17.8178 11.4011 9.85668 0 0 0
322 5 O 18.762 13.6502 8.75373 0 0 0
323 5 O 20.2439 11.3017 8.66875 0 0 0
324 5 O 20.5778 11.4482 11.3781 0 0 0
361 6 Si 24.5855 5.40159 5.83748 0 0 0
362 6 Si 25.9603 1.27923 6.48787 0 0 0
363 6 Si 28.4722 2.51221 5 0 0 0
364 5 O 25.4423 4.69079 7.12074 0 0 0
365 5 O 23.437 6.50932 6.45466 0 0 0
366 5 O 27.5222 1.78385 6.22813 0 0 0
367 5 O 23.6223 4.11933 5.15665 0 0 0
368 5 O 25.0169 1.86105 5.21008 0 0 0
369 5 O 25.4471 1.7914 7.9866 0 0 0
370 6 Si 24.6812 1.06315 9.29464 0 0 0
371 6 Si 23.6381 3.887 9.95379 0 0 0
372 6 Si 26.1079 5.10048 8.58261 0 0 0
373 5 O 25.8267 0.53864 10.3709 0 0 0
374 5 O 28.623 2.23283 9.98829 0 0 0
375 5 O 25.1898 4.5008 9.85693 0 0 0
376 5 O 26.1349 6.74933 8.75415 0 0 0
377 5 O 27.6159 4.40067 8.66855 0 0 0
379 6 Si 22.128 12.302 5.83855 0 0 0
380 6 Si 23.5028 8.1797 6.48837 0 0 0
381 6 Si 26.0147 9.41269 5 0 0 0
382 5 O 22.985 11.5904 7.12135 0 0 0
383 5 O 20.9797 13.4094 6.45519 0 0 0
384 5 O 25.0641 8.68433 6.22796 0 0 0
385 5 O 21.1648 11.0198 5.15665 0 0 0
386 5 O 22.5594 8.76153 5.21008 0 0 0
387 5 O 22.9902 8.69165 7.98714 0 0 0
388 6 Si 22.2237 7.96454 9.29504 0 0 0
389 6 Si 21.1816 10.788 9.95408 0 0 0
390 6 Si 23.6504 12.0012 8.58258 0 0 0
391 5 O 23.3686 7.43908 10.371 0 0 0
392 5 O 26.1651 9.13344 9.98777 0 0 0
393 5 O 22.7326 11.4017 9.85667 0 0 0
394 5 O 23.6772 13.65 8.75369 0 0 0
395 5 O 25.1584 11.3028 8.66854 0 0 0
458 2 H 17.176 4.3513 11.5422 0 0 0
459 2 H 13.3713 6.62306 10.8886 0 0 0
460 2 H 14.7201 11.2514 11.5439 0 0 0
461 2 H 10.9122 13.5235 10.8879 0 0 0
466 2 H 22.0911 4.35091 11.5423 0 0 0
467 2 H 18.285 6.62345 10.8882 0 0 0
468 2 H 19.634 11.2517 11.5426 0 0 0
469 2 H 15.8271 13.5238 10.888 0 0 0
474 2 H 27.0059 4.35078 11.5421 0 0 0
475 2 H 23.2003 6.62297 10.8881 0 0 0
476 2 H 24.5499 11.2513 11.5436 0 0 0
477 2 H 20.7425 13.5236 10.8883 0 0 0
491 1 C 12.8814 7.07757 14.6009 0 0 0
492 1 C 12.086 8.15022 15.391 0 0 0
493 1 C 12.9399 9.38751 15.7791 0 0 0
494 1 C 12.1387 10.5772 16.3757 0 0 0
495 1 C 11.3958 10.2927 17.7217 0 0 0
529 2 H 13.777 6.76356 15.1957 0 0 0
530 2 H 13.2838 7.53808 13.6634 0 0 0
533 2 H 13.7482 9.06758 16.4837 0 0 0
534 2 H 13.469 9.76064 14.8654 0 0 0
535 2 H 11.373 10.9247 15.6429 0 0 0
536 2 H 12.8322 11.4415 16.5234 0 0 0
496 1 C 12.3139 9.88476 18.9158 0 0 0
497 1 C 13.4395 10.8916 19.2706 0 0 0
538 2 H 11.6612 9.74894 19.8115 0 0 0
539 2 H 12.765 8.88467 18.6974 0 0 0
540 2 H 14.165 11.0313 18.4328 0 0 0
541 2 H 14.0237 10.5269 20.1496 0 0 0
542 2 H 13.0081 11.8861 19.531 0 0 0
557 5 O 10.5237 12.0289 19.243 0 0 0
198 5 O 8.29014 18.3494 11.378 0 0 0
216 5 O 5.83211 25.2496 11.378 0 0 0
253 6 Si 9.84079 19.2021 5.83761 0 0 0
254 6 Si 11.2153 15.08 6.48817 0 0 0
255 6 Si 13.7273 16.3132 5 0 0 0
256 5 O 10.6967 18.4912 7.12124 0 0 0
257 5 O 8.69236 20.3098 6.45402 0 0 0
258 5 O 12.7767 15.5844 6.22771 0 0 0
259 5 O 8.87737 17.9203 5.15665 0 0 0
260 5 O 10.272 15.662 5.21008 0 0 0
261 5 O 10.7023 15.5922 7.98695 0 0 0
262 6 Si 9.93597 14.8649 9.2947 0 0 0
263 6 Si 8.89351 17.6882 9.95412 0 0 0
264 6 Si 11.3629 18.9017 8.58253 0 0 0
265 5 O 11.0812 14.3387 10.3708 0 0 0
266 5 O 13.8779 16.0337 9.98836 0 0 0
267 5 O 10.4445 18.3024 9.85703 0 0 0
268 5 O 11.3893 20.5506 8.75301 0 0 0
269 5 O 12.8712 18.2025 8.66857 0 0 0
270 5 O 13.2051 18.3487 11.3782 0 0 0
271 6 Si 7.38326 26.1026 5.83875 0 0 0
272 6 Si 8.75772 21.9805 6.48782 0 0 0
273 6 Si 11.2698 23.2137 5 0 0 0
274 5 O 8.23916 25.3916 7.12161 0 0 0
275 5 O 6.23434 27.2105 6.45473 0 0 0
276 5 O 10.3194 22.4854 6.22779 0 0 0
277 5 O 6.41988 24.8208 5.15665 0 0 0
278 5 O 7.81447 22.5625 5.21008 0 0 0
279 5 O 8.24466 22.4931 7.98674 0 0 0
280 6 Si 7.47836 21.7651 9.29492 0 0 0
281 6 Si 6.43593 24.5888 9.95436 0 0 0
282 6 Si 8.90515 25.802 8.58275 0 0 0
283 5 O 8.62429 21.2395 10.3709 0 0 0
284 5 O 11.4204 22.9342 9.98843 0 0 0
285 5 O 7.9869 25.2027 9.85671 0 0 0
286 5 O 8.93216 27.4505 8.75388 0 0 0
287 5 O 10.4132 25.1024 8.66908 0 0 0
288 5 O 10.7473 25.2489 11.3786 0 0 0
325 6 Si 14.756 19.2018 5.83805 0 0 0
326 6 Si 16.1302 15.0798 6.48822 0 0 0
327 6 Si 18.6422 16.3132 5 0 0 0
328 5 O 15.6122 18.4914 7.12145 0 0 0
329 5 O 13.6071 20.3096 6.45403 0 0 0
330 5 O 17.6918 15.5847 6.22833 0 0 0
331 5 O 13.7923 17.9203 5.15665 0 0 0
332 5 O 15.1869 15.662 5.21008 0 0 0
333 5 O 15.6168 15.5924 7.98657 0 0 0
334 6 Si 14.8507 14.8646 9.29462 0 0 0
335 6 Si 13.8084 17.6882 9.95443 0 0 0
336 6 Si 16.2776 18.9017 8.58277 0 0 0
337 5 O 15.9965 14.3386 10.3702 0 0 0
338 5 O 18.7925 16.0337 9.98893 0 0 0
339 5 O 15.3597 18.3016 9.85702 0 0 0
340 5 O 16.3046 20.5505 8.75357 0 0 0
341 5 O 17.7861 18.2026 8.66869 0 0 0
342 5 O 18.1199 18.3488 11.3791 0 0 0
343 6 Si 12.2979 26.1025 5.83815 0 0 0
344 6 Si 13.673 21.9804 6.48748 0 0 0
345 6 Si 16.1847 23.2137 5 0 0 0
346 5 O 13.1546 25.3916 7.1215 0 0 0
347 5 O 11.1494 27.2104 6.455 0 0 0
348 5 O 15.2347 22.4852 6.22737 0 0 0
349 5 O 11.3348 24.8208 5.15665 0 0 0
350 5 O 12.7294 22.5625 5.21008 0 0 0
351 5 O 13.1606 22.4928 7.98687 0 0 0
352 6 Si 12.3938 21.765 9.29469 0 0 0
353 6 Si 11.3508 24.5887 9.95418 0 0 0
354 6 Si 13.8202 25.8017 8.58286 0 0 0
355 5 O 13.5397 21.2387 10.3702 0 0 0
356 5 O 16.335 22.9342 9.9888 0 0 0
357 5 O 12.902 25.2024 9.85725 0 0 0
358 5 O 13.8472 27.4505 8.75372 0 0 0
359 5 O 15.3282 25.1027 8.6691 0 0 0
360 5 O 15.6625 25.2495 11.3786 0 0 0
397 6 Si 19.6702 19.202 5.83837 0 0 0
398 6 Si 21.0456 15.08 6.48797 0 0 0
399 6 Si 23.5572 16.3132 5 0 0 0
400 5 O 20.5269 18.491 7.12144 0 0 0
401 5 O 18.522 20.3101 6.45442 0 0 0
402 5 O 22.607 15.5846 6.22744 0 0 0
403 5 O 18.7073 17.9203 5.15665 0 0 0
404 5 O 20.1019 15.662 5.21008 0 0 0
405 5 O 20.5329 15.5924 7.9866 0 0 0
406 6 Si 19.7663 14.8651 9.29483 0 0 0
407 6 Si 18.7232 17.6883 9.95461 0 0 0
408 6 Si 21.1927 18.9017 8.58301 0 0 0
409 5 O 20.9119 14.3389 10.3709 0 0 0
410 5 O 23.7078 16.0338 9.98826 0 0 0
411 5 O 20.2747 18.3021 9.85744 0 0 0
412 5 O 21.2198 20.551 8.75379 0 0 0
413 5 O 22.7008 18.2021 8.66902 0 0 0
415 6 Si 17.213 26.1021 5.83842 0 0 0
416 6 Si 18.5883 21.9805 6.4882 0 0 0
417 6 Si 21.0997 23.2137 5 0 0 0
418 5 O 18.0692 25.3913 7.12188 0 0 0
419 5 O 16.0642 27.2103 6.4543 0 0 0
420 5 O 20.1495 22.4855 6.22766 0 0 0
421 5 O 16.2498 24.8208 5.15665 0 0 0
422 5 O 17.6444 22.5625 5.21008 0 0 0
423 5 O 18.0748 22.4929 7.98681 0 0 0
424 6 Si 17.3084 21.7655 9.29494 0 0 0
425 6 Si 16.2658 24.5888 9.95452 0 0 0
426 6 Si 18.7353 25.8021 8.58294 0 0 0
427 5 O 18.4544 21.2393 10.3706 0 0 0
428 5 O 21.2505 22.9344 9.9881 0 0 0
429 5 O 17.8173 25.2027 9.85671 0 0 0
430 5 O 18.762 27.4508 8.75352 0 0 0
431 5 O 20.2432 25.1033 8.66864 0 0 0
457 2 H 5.99679 27.3244 10.8879 0 -1 0
462 2 H 12.2611 18.1519 11.5428 0 0 0
463 2 H 8.45458 20.424 10.888 0 0 0
464 2 H 9.80382 25.0526 11.5435 0 0 0
465 2 H 10.9126 27.325 10.8884 0 -1 0
470 2 H 17.1767 18.1515 11.5438 0 0 0
471 2 H 13.3692 20.4239 10.8885 0 0 0
472 2 H 14.7189 25.0529 11.5438 0 0 0
473 2 H 15.8278 27.3244 10.888 0 -1 0
478 2 H 22.0908 18.1515 11.5427 0 0 0
479 2 H 18.2846 20.4244 10.8883 0 0 0
480 2 H 19.6342 25.0522 11.5427 0 0 0
481 1 C 11.397 23.0221 16.8176 0 0 0
482 1 C 10.1795 22.0657 16.8788 0 0 0
483 1 C 10.5705 20.5751 17.0718 0 0 0
484 1 C 9.33714 19.6254 17.0977 0 0 0
485 1 C 9.52851 18.2033 17.7113 0 0 0
486 1 C 10.2442 17.1039 16.848 0 0 0
487 1 C 11.7787 17.2909 16.6759 0 0 0
488 1 C 12.4382 16.2529 15.731 0 0 0
489 1 C 9.90943 15.7348 17.4962 0 0 0
509 2 H 12.0226 22.9491 17.7411 0 0 0
510 2 H 11.0749 24.086 16.7119 0 0 0
511 2 H 12.0586 22.7847 15.9489 0 0 0
512 2 H 9.506 22.3761 17.7183 0 0 0
513 2 H 9.57345 22.1763 15.9432 0 0 0
514 2 H 11.2827 20.281 16.2615 0 0 0
515 2 H 11.1422 20.4741 18.0301 0 0 0
516 2 H 8.5401 20.1273 17.7047 0 0 0
517 2 H 8.91147 19.5361 16.0662 0 0 0
518 2 H 8.50939 17.8071 17.9424 0 0 0
520 2 H 9.7531 17.0948 15.8426 0 0 0
521 2 H 11.9778 18.3134 16.2767 0 0 0
522 2 H 12.2618 17.2318 17.6824 0 0 0
523 2 H 11.9619 16.2609 14.7194 0 0 0
524 2 H 12.3591 15.2194 16.1426 0 0 0
525 2 H 13.522 16.4828 15.59 0 0 0
499 1 C 9.33157 15.6839 22.5372 0 0 0
500 1 C 9.62295 15.2481 21.221 0 0 0
519 2 H 10.0529 18.2992 18.6971 0 0 0
543 2 H 10.0123 16.3891 23.0493 0 0 0
544 2 H 10.5217 15.5778 20.6611 0 0 0
554 5 O 10.7707 15.1521 18.2659 0 0 0
ITEM: TIMESTEP
100000
ITEM: NUMBER OF ATOMS
557
ITEM: BOX BOUNDS xy xz yz pp pp ff
-9.8299323600000008e+00 2.9489797079999999e+01 -9.8299323600000008e+00
0.0000000000000000e+00 2.7601942391000001e+01 0.0000000000000000e+00
0.0000000000000000e+00 3.6159325252999999e+01 0.0000000000000000e+00
ITEM: ATOMS id type element x y z ix iy iz
1 6 Si 0.0107922 5.40113 5.83817 0 0 0
2 6 Si 1.38607 1.27865 6.4883 0 0 0
3 6 Si 3.89733 2.51221 5 0 0 0
4 5 O 0.867075 4.68982 7.12125 0 0 0
5 5 O -1.13785 6.50901 6.45469 0 0 0
6 5 O 2.94713 1.78388 6.22748 0 0 0
7 5 O -0.952567 4.11933 5.15665 0 0 0
8 5 O 0.442021 1.86105 5.21008 0 0 0
9 5 O 0.873461 1.79135 7.98682 0 0 0
10 6 Si 0.106333 1.06354 9.29484 0 0 0
11 6 Si -0.936148 3.88733 9.95414 0 0 0
12 6 Si 1.5328 5.10101 8.58267 0 0 0
13 5 O 1.2519 0.53822 10.3708 0 0 0
14 5 O 4.04756 2.23288 9.98862 0 0 0
15 5 O 0.615217 4.50128 9.85687 0 0 0
16 5 O 1.55924 6.74966 8.75312 0 0 0
17 5 O 3.04078 4.40192 8.66853 0 0 0
18 5 O 3.37544 4.54793 11.3781 0 0 0
19 6 Si -2.44719 12.3017 5.83776 0 0 0
20 6 Si -1.07171 8.1796 6.48794 0 0 0
21 6 Si 1.43985 9.41269 5 0 0 0
22 5 O -1.58977 11.5914 7.12085 0 0 0
23 5 O -3.59505 13.4093 6.45441 0 0 0
24 5 O 0.489697 8.68453 6.22774 0 0 0
25 5 O -3.41005 11.0198 5.15665 0 0 0
26 5 O -2.01546 8.76153 5.21008 0 0 0
27 5 O -1.58429 8.69198 7.98684 0 0 0
28 6 Si -2.35071 7.96432 9.29492 0 0 0
29 6 Si -3.39387 10.7881 9.95343 0 0 0
30 6 Si -0.924329 12.0009 8.58262 0 0 0
31 5 O -1.20554 7.43922 10.3712 0 0 0
32 5 O 1.59046 9.13369 9.98802 0 0 0
33 5 O -1.84248 11.4013 9.85711 0 0 0
34 5 O -0.89815 13.6499 8.75399 0 0 0
35 5 O 0.583795 11.3015 8.66807 0 0 0
36 5 O 0.917505 11.4486 11.3777 0 0 0
73 6 Si 4.92561 5.40104 5.83762 0 0 0
74 6 Si 6.30066 1.27925 6.48837 0 0 0
75 6 Si 8.8123 2.51221 5 0 0 0
76 5 O 5.78203 4.69005 7.12116 0 0 0
77 5 O 3.77736 6.50846 6.45466 0 0 0
78 5 O 7.86214 1.78439 6.22758 0 0 0
79 5 O 3.9624 4.11933 5.15665 0 0 0
80 5 O 5.35699 1.86105 5.21008 0 0 0
81 5 O 5.78714 1.79172 7.98671 0 0 0
82 6 Si 5.02097 1.06397 9.29511 0 0 0
83 6 Si 3.97823 3.88735 9.95366 0 0 0
84 6 Si 6.44797 5.10064 8.5827 0 0 0
85 5 O 6.16679 0.537717 10.3706 0 0 0
86 5 O 8.96265 2.23297 9.98799 0 0 0
87 5 O 5.52971 4.50119 9.85706 0 0 0
88 5 O 6.47456 6.74963 8.75361 0 0 0
89 5 O 7.95633 4.40149 8.66913 0 0 0
90 5 O 8.29047 4.54781 11.3787 0 0 0
91 6 Si 2.46834 12.302 5.83846 0 0 0
92 6 Si 3.84297 8.17941 6.48826 0 0 0
93 6 Si 6.35482 9.41269 5 0 0 0
94 5 O 3.32503 11.5909 7.12137 0 0 0
95 5 O 1.31951 13.409 6.45595 0 0 0
96 5 O 5.40467 8.68407 6.22733 0 0 0
97 5 O 1.50492 11.0198 5.15665 0 0 0
98 5 O 2.8995 8.76153 5.21008 0 0 0
99 5 O 3.32994 8.69151 7.9871 0 0 0
100 6 Si 2.56339 7.9639 9.29463 0 0 0
101 6 Si 1.52141 10.7879 9.95374 0 0 0
102 6 Si 3.99045 12.0012 8.58253 0 0 0
103 5 O 3.7087 7.43844 10.3703 0 0 0
104 5 O 6.5051 9.13363 9.98785 0 0 0
105 5 O 3.07203 11.4015 9.85696 0 0 0
106 5 O 4.01787 13.6498 8.75401 0 0 0
107 5 O 5.49843 11.3019 8.66833 0 0 0
108 5 O 5.83238 11.4488 11.378 0 0 0
145 6 Si 9.84093 5.40119 5.83848 0 0 0
146 6 Si 11.215 1.27945 6.48766 0 0 0
147 6 Si 13.7273 2.51221 5 0 0 0
148 5 O 10.697 4.69073 7.1214 0 0 0
149 5 O 8.69188 6.50904 6.45438 0 0 0
150 5 O 12.7771 1.78388 6.22765 0 0 0
151 5 O 8.87737 4.11933 5.15665 0 0 0
152 5 O 10.272 1.86105 5.21008 0 0 0
153 5 O 10.7023 1.79139 7.98661 0 0 0
154 6 Si 9.93606 1.06409 9.29477 0 0 0
155 6 Si 8.894 3.88753 9.9546 0 0 0
156 6 Si 11.3626 5.10093 8.58284 0 0 0
157 5 O 11.0816 0.538007 10.3701 0 0 0
158 5 O 13.8778 2.23355 9.98781 0 0 0
159 5 O 10.4446 4.50153 9.85753 0 0 0
160 5 O 11.3895 6.74963 8.75396 0 0 0
161 5 O 12.8708 4.40231 8.66902 0 0 0
163 6 Si 7.38298 12.302 5.83754 0 0 0
164 6 Si 8.75835 8.17994 6.48772 0 0 0
165 6 Si 11.2698 9.41269 5 0 0 0
166 5 O 8.23977 11.591 7.12067 0 0 0
167 5 O 6.23441 13.4094 6.45406 0 0 0
168 5 O 10.3199 8.68479 6.22756 0 0 0
169 5 O 6.41988 11.0198 5.15665 0 0 0
170 5 O 7.81447 8.76153 5.21008 0 0 0
171 5 O 8.24532 8.69231 7.98664 0 0 0
172 6 Si 7.47884 7.96439 9.29488 0 0 0
173 6 Si 6.43616 10.7879 9.95362 0 0 0
174 6 Si 8.90542 12.0012 8.58213 0 0 0
175 5 O 8.6243 7.43919 10.371 0 0 0
176 5 O 11.4202 9.13318 9.9884 0 0 0
177 5 O 7.98757 11.401 9.85681 0 0 0
178 5 O 8.93217 13.6503 8.75357 0 0 0
179 5 O 10.4138 11.3018 8.66764 0 0 0
378 5 O -1.54029 4.54807 11.3779 1 0 0
396 5 O -3.99672 11.4487 11.3778 1 0 0
434 2 H 2.4322 4.35102 11.5434 0 0 0
435 2 H -1.3749 6.62271 10.8878 0 0 0
436 2 H -0.0261351 11.252 11.542 0 0 0
437 2 H -3.83211 13.5235 10.8882 0 0 0
442 2 H 7.34691 4.35148 11.5436 0 0 0
443 2 H 3.53962 6.62336 10.8884 0 0 0
444 2 H 4.88955 11.2514 11.5429 0 0 0
445 2 H 1.08268 13.5237 10.8885 0 0 0
450 2 H 12.2619 4.35118 11.543 0 0 0
451 2 H 8.45511 6.62307 10.8878 0 0 0
452 2 H 9.80286 11.2513 11.541 0 0 0
453 2 H 5.9986 13.5235 10.8883 0 0 0
490 1 C 10.2893 5.34201 13.7546 0 0 0
529 2 H 12.1736 6.38618 13.3491 0 0 0
526 2 H 9.18752 5.52959 13.7606 0 0 0
527 2 H 10.5741 4.99488 14.7782 0 0 0
528 2 H 10.4825 4.50047 13.0463 0 0 0
531 2 H 9.70934 8.06767 14.255 0 0 0
532 2 H 11.0244 7.53241 15.338 0 0 0
537 2 H 10.803 9.51674 16.6121 0 0 0
547 2 H 7.52855 11.7087 18.1379 0 0 0
556 5 O 9.58996 11.9797 16.4641 0 0 0
492 1 C 10.8031 7.82644 14.2807 0 0 0
535 2 H 10.142 10.6188 14.4679 0 0 0
491 1 C 11.0769 6.61328 13.3529 0 0 0
551 3 Mg 9.91548 13.7889 17.5287 0 0 0
530 2 H 10.8195 6.89314 12.3001 0 0 0
504 1 C 8.98722 13.5631 20.5433 0 0 0
505 1 C 7.69925 12.0907 19.1636 0 0 0
506 1 C 6.97965 11.6036 20.2838 0 0 0
507 1 C 7.29244 12.1161 21.5676 0 0 0
508 1 C 8.30526 13.0983 21.7035 0 0 0
549 2 H 6.75505 11.7506 22.4651 0 0 0
550 2 H 8.55407 13.4921 22.7062 0 0 0
548 2 H 6.19412 10.8352 20.1481 0 0 0
553 4 N 8.68541 13.0621 19.2668 0 0 0
37 6 Si -4.90393 19.2026 5.83843 0 0 0
38 6 Si -3.5291 15.0795 6.48858 0 0 0
39 6 Si -1.01763 16.3132 5 0 0 0
40 5 O -4.04722 18.4912 7.12105 0 0 0
41 5 O -6.0527 20.31 6.45511 0 0 0
42 5 O -1.96775 15.5845 6.22751 0 0 0
43 5 O -5.86753 17.9203 5.15665 0 0 0
44 5 O -4.47294 15.662 5.21008 0 0 0
45 5 O -4.04233 15.5922 7.98701 0 0 0
46 6 Si -4.80911 14.8643 9.29486 0 0 0
47 6 Si -5.85111 17.6884 9.95409 0 0 0
48 6 Si -3.38212 18.9015 8.58226 0 0 0
49 5 O -3.66348 14.3393 10.3706 0 0 0
50 5 O -0.867535 16.0336 9.98963 0 0 0
51 5 O -4.30012 18.3023 9.85657 0 0 0
52 5 O -3.35515 20.5504 8.75371 0 0 0
53 5 O -1.87415 18.2023 8.66908 0 0 0
54 5 O -1.53925 18.3489 11.3792 0 0 0
55 6 Si -7.3617 26.1028 5.8374 0 0 0
56 6 Si -5.98688 21.9804 6.48815 0 0 0
57 6 Si -3.47512 23.2137 5 0 0 0
58 5 O -6.50504 25.3918 7.12048 0 0 0
59 5 O -8.51005 27.2102 6.45398 0 0 0
60 5 O -4.42552 22.4852 6.22764 0 0 0
61 5 O -8.32502 24.8208 5.15665 0 0 0
62 5 O -6.93043 22.5625 5.21008 0 0 0
63 5 O -6.49944 22.4925 7.98685 0 0 0
64 6 Si -7.26617 21.7655 9.29489 0 0 0
65 6 Si -8.30923 24.5887 9.95384 0 0 0
66 6 Si -5.83981 25.8021 8.58259 0 0 0
67 5 O -6.12088 21.2397 10.3708 0 0 0
68 5 O -3.32473 22.9332 9.98883 0 0 0
69 5 O -6.75779 25.202 9.85696 0 0 0
70 5 O -5.81288 27.4506 8.75355 0 0 0
71 5 O -4.33109 25.1022 8.66817 0 0 0
72 5 O -3.99738 25.2496 11.3788 0 0 0
109 6 Si 0.0108661 19.202 5.83813 0 0 0
110 6 Si 1.38606 15.0801 6.48789 0 0 0
111 6 Si 3.89733 16.3132 5 0 0 0
112 5 O 0.867209 18.4911 7.12164 0 0 0
113 5 O -1.13721 20.3098 6.45463 0 0 0
114 5 O 2.94713 15.5856 6.22714 0 0 0
115 5 O -0.952567 17.9203 5.15665 0 0 0
116 5 O 0.442021 15.662 5.21008 0 0 0
117 5 O 0.872268 15.593 7.98673 0 0 0
118 6 Si 0.106406 14.8647 9.29525 0 0 0
119 6 Si -0.936318 17.6886 9.9545 0 0 0
120 6 Si 1.53284 18.9018 8.58274 0 0 0
121 5 O 1.25305 14.3388 10.3703 0 0 0
122 5 O 4.04732 16.0336 9.98872 0 0 0
123 5 O 0.614997 18.3021 9.85706 0 0 0
124 5 O 1.55965 20.5507 8.75363 0 0 0
125 5 O 3.04089 18.2024 8.66876 0 0 0
126 5 O 3.37515 18.3489 11.3784 0 0 0
127 6 Si -2.44686 26.1026 5.83809 0 0 0
128 6 Si -1.07224 21.9804 6.48823 0 0 0
129 6 Si 1.43985 23.2137 5 0 0 0
130 5 O -1.59076 25.391 7.12146 0 0 0
131 5 O -3.59553 27.2104 6.45501 0 0 0
132 5 O 0.489112 22.4852 6.22822 0 0 0
133 5 O -3.41005 24.8208 5.15665 0 0 0
134 5 O -2.01546 22.5625 5.21008 0 0 0
135 5 O -1.5849 22.4928 7.98704 0 0 0
136 6 Si -2.35127 21.7647 9.29445 0 0 0
137 6 Si -3.39433 24.5882 9.95469 0 0 0
138 6 Si -0.924899 25.8025 8.58272 0 0 0
139 5 O -1.20599 21.2393 10.3709 0 0 0
140 5 O 1.59022 22.934 9.98877 0 0 0
141 5 O -1.84255 25.202 9.85695 0 0 0
142 5 O -0.897709 27.451 8.75363 0 0 0
143 5 O 0.583637 25.103 8.66846 0 0 0
144 5 O 0.917399 25.2496 11.3788 0 0 0
181 6 Si 4.92574 19.2022 5.83732 0 0 0
182 6 Si 6.30096 15.0798 6.48864 0 0 0
183 6 Si 8.8123 16.3132 5 0 0 0
184 5 O 5.78239 18.4914 7.12102 0 0 0
185 5 O 3.77739 20.3099 6.45425 0 0 0