
     Program PWSCF v.7.3 starts on 19Mar2024 at 15:36:39 

     This program is part of the open-source Quantum ESPRESSO suite
     for quantum simulation of materials; please cite
         "P. Giannozzi et al., J. Phys.:Condens. Matter 21 395502 (2009);
         "P. Giannozzi et al., J. Phys.:Condens. Matter 29 465901 (2017);
         "P. Giannozzi et al., J. Chem. Phys. 152 154105 (2020);
          URL http://www.quantum-espresso.org", 
     in publications or presentations arising from this work. More details at
     http://www.quantum-espresso.org/quote

     Parallel version (MPI & OpenMP), running on      36 processor cores
     Number of MPI processes:                36
     Threads/MPI process:                     1

     MPI processes distributed on     1 nodes
     560379 MiB available memory on the printing compute node when the environment starts
 
     Waiting for input...
     Reading input from standard input
Warning: card &CELL ignored
Warning: card / ignored

     Current dimensions of program PWSCF are:
     Max number of different atomic species (ntypx) = 10
     Max number of k-points (npk) =  40000
     Max angular momentum in pseudopotentials (lmaxx) =  4
     file Mo.pbe-spn-kjpaw_psl.1.0.0.UPF: wavefunction(s)  4S 4D renormalized
     file S.pbe-n-kjpaw_psl.1.0.0.UPF: wavefunction(s)  3S 3P renormalized
     file Pd.pbe-spn-kjpaw_psl.1.0.0.UPF: wavefunction(s)  4S 5S 4D renormalized
     file Pt.pbe-spfn-kjpaw_psl.1.0.0.UPF: wavefunction(s)  5P 4F renormalized
 
     R & G space division:  proc/nbgrp/npool/nimage =      36
     Subspace diagonalization in iterative solution of the eigenvalue problem:
     one sub-group per band group will be used
     scalapack distributed-memory algorithm (size of sub-group:  6*  6 procs)

 
     Parallelization info
     --------------------
     sticks:   dense  smooth     PW     G-vecs:    dense   smooth      PW
     Min         585     334     89               198743    85850   11735
     Max         586     335     90               198750    85861   11748
     Sum       21073   12049   3205              7154885  3090769  422587
 
     Using Slab Decomposition
 


     bravais-lattice index     =            0
     lattice parameter (alat)  =      23.8199  a.u.
     unit-cell volume          =   33861.0370 (a.u.)^3
     number of atoms/cell      =          194
     number of atomic types    =            4
     number of electrons       =      1714.00
     number of Kohn-Sham states=         1028
     kinetic-energy cutoff     =      77.0000  Ry
     charge density cutoff     =     539.0000  Ry
     scf convergence threshold =      1.0E-06
     mixing beta               =       0.2000
     number of iterations used =            8  plain     mixing
     energy convergence thresh.=      1.0E-04
     force convergence thresh. =      1.0E-03
     Exchange-correlation= SLA  PW   PBX  PBC
                           (   1   4   3   4   0   0   0)
     nstep                     =         1000


     Effective Screening Medium Method
     =================================
     Boundary Conditions: Vacuum-Slab-Vacuum
     total charge in unit cell        =   0.0000
     grid points for fit at edges     =        4 
 

     celldm(1)=  23.819920  celldm(2)=   0.000000  celldm(3)=   0.000000
     celldm(4)=   0.000000  celldm(5)=   0.000000  celldm(6)=   0.000000

     crystal axes: (cart. coord. in units of alat)
               a(1) = (   1.000000   0.000000   0.000000 )  
               a(2) = (  -0.499999   0.866026   0.000000 )  
               a(3) = (   0.000000   0.000000   2.893000 )  

     reciprocal axes: (cart. coord. in units 2 pi/alat)
               b(1) = (  1.000000  0.577349  0.000000 )  
               b(2) = (  0.000000  1.154700  0.000000 )  
               b(3) = (  0.000000  0.000000  0.345662 )  


     PseudoPot. # 1 for Mo read from file:
     ./pseudo/Mo.pbe-spn-kjpaw_psl.1.0.0.UPF
     MD5 check sum: 317bf72632116215fd98f72de1686f13
     Pseudo is Projector augmented-wave + core cor, Zval = 14.0
     Generated using 'atomic' code by A. Dal Corso  v.7.2
     Shape of augmentation charge: PSQ
     Using radial grid of 1229 points,  6 beta functions with: 
                l(1) =   0
                l(2) =   0
                l(3) =   1
                l(4) =   1
                l(5) =   2
                l(6) =   2
     Q(r) pseudized with 0 coefficients 


     PseudoPot. # 2 for S  read from file:
     ./pseudo/S.pbe-n-kjpaw_psl.1.0.0.UPF
     MD5 check sum: 8b7b5302570d38d5e87fed6a1065abda
     Pseudo is Projector augmented-wave + core cor, Zval =  6.0
     Generated using 'atomic' code by A. Dal Corso  v.7.2
     Shape of augmentation charge: PSQ
     Using radial grid of 1151 points,  6 beta functions with: 
                l(1) =   0
                l(2) =   0
                l(3) =   1
                l(4) =   1
                l(5) =   2
                l(6) =   2
     Q(r) pseudized with 0 coefficients 


     PseudoPot. # 3 for Pd read from file:
     ./pseudo/Pd.pbe-spn-kjpaw_psl.1.0.0.UPF
     MD5 check sum: a60571a671f2502b8a6a4569d20a6edb
     Pseudo is Projector augmented-wave + core cor, Zval = 18.0
     Generated using 'atomic' code by A. Dal Corso  v.7.2
     Shape of augmentation charge: PSQ
     Using radial grid of 1235 points,  6 beta functions with: 
                l(1) =   0
                l(2) =   0
                l(3) =   1
                l(4) =   1
                l(5) =   2
                l(6) =   2
     Q(r) pseudized with 0 coefficients 


     PseudoPot. # 4 for Pt read from file:
     ./pseudo/Pt.pbe-spfn-kjpaw_psl.1.0.0.UPF
     MD5 check sum: 620096ebf4e6ebacc94de60fd67efcb5
     Pseudo is Projector augmented-wave + core cor, Zval = 32.0
     Generated using 'atomic' code by A. Dal Corso  v.7.2
     Shape of augmentation charge: PSQ
     Using radial grid of 1277 points,  8 beta functions with: 
                l(1) =   0
                l(2) =   0
                l(3) =   1
                l(4) =   1
                l(5) =   2
                l(6) =   2
                l(7) =   3
                l(8) =   3
     Q(r) pseudized with 0 coefficients 


     atomic species   valence    mass     pseudopotential
     Mo               14.00    95.95000     Mo( 1.00)
     S                 6.00    32.06000     S ( 1.00)
     Pd               18.00   106.42000     Pd( 1.00)
     Pt               32.00   195.08400     Pt( 1.00)

     No symmetry found



   Cartesian axes

     site n.     atom                  positions (alat units)
         1        Mo     tau(   1) = (   0.0000010   0.1443372  -0.7272732  )
         2        Mo     tau(   2) = (   0.1249995   0.0721706  -0.2424038  )
         3        S      tau(   3) = (   0.0000015   0.1443386  -0.3667807  )
         4        S      tau(   4) = (   0.1250010   0.0721682  -0.6030489  )
         5        S      tau(   5) = (   0.1250010   0.0721683  -0.8514963  )
         6        S      tau(   6) = (   0.0000015   0.1443389  -0.1180260  )
         7        Mo     tau(   7) = (   0.0000007   0.1443589   0.2424205  )
         8        Mo     tau(   8) = (   0.1250041   0.0720322   0.7266168  )
         9        S      tau(   9) = (   0.0000742   0.1444871   0.6020949  )
        10        S      tau(  10) = (   0.1250024   0.0721701   0.3667478  )
        11        S      tau(  11) = (   0.1250035   0.0721876   0.1180348  )
        12        S      tau(  12) = (  -0.0004118   0.1430864   0.8514340  )
        13        Mo     tau(  13) = (  -0.1249989   0.3608437  -0.7272732  )
        14        Mo     tau(  14) = (   0.0000030   0.2886752  -0.2424042  )
        15        S      tau(  15) = (  -0.1249977   0.3608450  -0.3667802  )
        16        S      tau(  16) = (   0.0000012   0.2886747  -0.6030489  )
        17        S      tau(  17) = (   0.0000012   0.2886748  -0.8514963  )
        18        S      tau(  18) = (  -0.1249977   0.3608454  -0.1180274  )
        19        Mo     tau(  19) = (  -0.1249729   0.3608584   0.2424608  )
        20        Mo     tau(  20) = (  -0.0007193   0.2876626   0.7275440  )
        21        S      tau(  21) = (  -0.1251115   0.3607789   0.6027257  )
        22        S      tau(  22) = (   0.0000621   0.2887099   0.3668377  )
        23        S      tau(  23) = (  -0.0000096   0.2886902   0.1180527  )
        24        S      tau(  24) = (  -0.1254673   0.3605734   0.8517408  )
        25        Mo     tau(  25) = (  -0.2499987   0.5773502  -0.7272732  )
        26        Mo     tau(  26) = (  -0.1249977   0.5051839  -0.2424055  )
        27        S      tau(  27) = (  -0.2499981   0.5773518  -0.3667809  )
        28        S      tau(  28) = (  -0.1249986   0.5051812  -0.6030489  )
        29        S      tau(  29) = (  -0.1249986   0.5051813  -0.8514963  )
        30        S      tau(  30) = (  -0.2499979   0.5773512  -0.1180266  )
        31        Mo     tau(  31) = (  -0.2499795   0.5773389   0.2424205  )
        32        Mo     tau(  32) = (  -0.1262356   0.5050639   0.7275441  )
        33        S      tau(  33) = (  -0.2498323   0.5773390   0.6020948  )
        34        S      tau(  34) = (  -0.1249376   0.5052159   0.3668377  )
        35        S      tau(  35) = (  -0.1249905   0.5051638   0.1180531  )
        36        S      tau(  36) = (  -0.2512883   0.5776183   0.8514340  )
        37        Mo     tau(  37) = (  -0.3749985   0.7938567  -0.7272732  )
        38        Mo     tau(  38) = (  -0.2500001   0.7216874  -0.2424031  )
        39        S      tau(  39) = (  -0.3749980   0.7938584  -0.3667800  )
        40        S      tau(  40) = (  -0.2499984   0.7216877  -0.6030489  )
        41        S      tau(  41) = (  -0.2499984   0.7216878  -0.8514963  )
        42        S      tau(  42) = (  -0.3749982   0.7938585  -0.1180264  )
        43        Mo     tau(  43) = (  -0.3749962   0.7938568   0.2423838  )
        44        Mo     tau(  44) = (  -0.2501148   0.7217588   0.7266170  )
        45        S      tau(  45) = (  -0.3749945   0.7938590   0.6021274  )
        46        S      tau(  46) = (  -0.2499958   0.7216877   0.3667488  )
        47        S      tau(  47) = (  -0.2499810   0.7216794   0.1180323  )
        48        S      tau(  48) = (  -0.3749953   0.7938585   0.8511588  )
        49        Mo     tau(  49) = (   0.2500010   0.1443372  -0.7272732  )
        50        Mo     tau(  50) = (   0.3750034   0.0721723  -0.2424032  )
        51        S      tau(  51) = (   0.2500017   0.1443391  -0.3667788  )
        52        S      tau(  52) = (   0.3750010   0.0721682  -0.6030489  )
        53        S      tau(  53) = (   0.3750010   0.0721683  -0.8514963  )
        54        S      tau(  54) = (   0.2500016   0.1443391  -0.1180271  )
        55        Mo     tau(  55) = (   0.2500054   0.1443594   0.2424211  )
        56        Mo     tau(  56) = (   0.3749279   0.0721263   0.7263991  )
        57        S      tau(  57) = (   0.2499344   0.1444864   0.6020948  )
        58        S      tau(  58) = (   0.3750316   0.0721860   0.3667597  )
        59        S      tau(  59) = (   0.3749924   0.0721644   0.1180346  )
        60        S      tau(  60) = (   0.2504199   0.1430865   0.8514340  )
        61        Mo     tau(  61) = (   0.1250012   0.3608437  -0.7272732  )
        62        Mo     tau(  62) = (   0.2500029   0.2886782  -0.2424031  )
        63        S      tau(  63) = (   0.1250024   0.3608455  -0.3667794  )
        64        S      tau(  64) = (   0.2500012   0.2886747  -0.6030489  )
        65        S      tau(  65) = (   0.2500012   0.2886748  -0.8514963  )
        66        S      tau(  66) = (   0.1250021   0.3608455  -0.1180270  )
        67        Mo     tau(  67) = (   0.1250038   0.3608653   0.2423963  )
        68        Mo     tau(  68) = (   0.2507284   0.2876625   0.7275438  )
        69        S      tau(  69) = (   0.1250046   0.3627170   0.6061948  )
        70        S      tau(  70) = (   0.2499461   0.2887116   0.3668373  )
        71        S      tau(  71) = (   0.2500171   0.2886900   0.1180543  )
        72        S      tau(  72) = (   0.1250046   0.3519103   0.8557806  )
        73        Mo     tau(  73) = (   0.0000014   0.5773502  -0.7272732  )
        74        Mo     tau(  74) = (   0.1250045   0.5051840  -0.2424036  )
        75        S      tau(  75) = (   0.0000030   0.5773520  -0.3667799  )
        76        S      tau(  76) = (   0.1250014   0.5051812  -0.6030489  )
        77        S      tau(  77) = (   0.1250014   0.5051813  -0.8514963  )
        78        S      tau(  78) = (   0.0000026   0.5773517  -0.1180274  )
        79        Mo     tau(  79) = (   0.0000222   0.5773400   0.2423964  )
        80        Mo     tau(  80) = (   0.1250047   0.5051836   0.7321380  )
        81        S      tau(  81) = (   0.0016251   0.5764170   0.6061946  )
        82        S      tau(  82) = (   0.1250047   0.5051815   0.3667777  )
        83        S      tau(  83) = (   0.1250048   0.5051819   0.1179962  )
        84        S      tau(  84) = (  -0.0077335   0.5818202   0.8557807  )
        85        Mo     tau(  85) = (  -0.1249984   0.7938567  -0.7272732  )
        86        Mo     tau(  86) = (   0.0000069   0.7216896  -0.2424039  )
        87        S      tau(  87) = (  -0.1249975   0.7938582  -0.3667782  )
        88        S      tau(  88) = (   0.0000016   0.7216877  -0.6030489  )
        89        S      tau(  89) = (   0.0000016   0.7216878  -0.8514963  )
        90        S      tau(  90) = (  -0.1249973   0.7938582  -0.1180279  )
        91        Mo     tau(  91) = (  -0.1249774   0.7938494   0.2424207  )
        92        Mo     tau(  92) = (  -0.0005116   0.7228241   0.7275438  )
        93        S      tau(  93) = (  -0.1249026   0.7937246   0.6020948  )
        94        S      tau(  94) = (   0.0000043   0.7216209   0.3668361  )
        95        S      tau(  95) = (   0.0000226   0.7216928   0.1180549  )
        96        S      tau(  96) = (  -0.1258721   0.7948451   0.8514341  )
        97        Mo     tau(  97) = (   0.5000010   0.1443372  -0.7272732  )
        98        Mo     tau(  98) = (   0.6250001   0.0721662  -0.2424040  )
        99        S      tau(  99) = (   0.5000017   0.1443386  -0.3667801  )
       100        S      tau( 100) = (   0.6250010   0.0721682  -0.6030489  )
       101        S      tau( 101) = (   0.6250010   0.0721683  -0.8514963  )
       102        S      tau( 102) = (   0.5000020   0.1443388  -0.1180261  )
       103        Mo     tau( 103) = (   0.5000075   0.1443411   0.2423793  )
       104        Mo     tau( 104) = (   0.6250042   0.0723339   0.7270464  )
       105        S      tau( 105) = (   0.5002366   0.1444733   0.6023595  )
       106        S      tau( 106) = (   0.6250029   0.0721787   0.3667562  )
       107        S      tau( 107) = (   0.6250040   0.0721260   0.1180315  )
       108        S      tau( 108) = (   0.4998752   0.1442648   0.8512770  )
       109        Mo     tau( 109) = (   0.3750012   0.3608437  -0.7272732  )
       110        Mo     tau( 110) = (   0.4999991   0.2886761  -0.2424038  )
       111        S      tau( 111) = (   0.3750012   0.3608452  -0.3667804  )
       112        S      tau( 112) = (   0.5000012   0.2886747  -0.6030489  )
       113        S      tau( 113) = (   0.5000012   0.2886748  -0.8514963  )
       114        S      tau( 114) = (   0.3750014   0.3608455  -0.1180261  )
       115        Mo     tau( 115) = (   0.3749795   0.3608597   0.2424601  )
       116        Mo     tau( 116) = (   0.5001461   0.2885951   0.7270464  )
       117        S      tau( 117) = (   0.3751205   0.3607791   0.6027254  )
       118        S      tau( 118) = (   0.5000105   0.2886721   0.3667569  )
       119        S      tau( 119) = (   0.4999655   0.2886989   0.1180297  )
       120        S      tau( 120) = (   0.3754765   0.3605739   0.8517402  )
       121        Mo     tau( 121) = (   0.2500014   0.5773502  -0.7272732  )
       122        Mo     tau( 122) = (   0.3749983   0.5051825  -0.2424043  )
       123        S      tau( 123) = (   0.2500017   0.5773519  -0.3667810  )
       124        S      tau( 124) = (   0.3750014   0.5051812  -0.6030489  )
       125        S      tau( 125) = (   0.3750014   0.5051813  -0.8514963  )
       126        S      tau( 126) = (   0.2500018   0.5773519  -0.1180256  )
       127        Mo     tau( 127) = (   0.2499863   0.5773402   0.2423965  )
       128        Mo     tau( 128) = (   0.3762454   0.5050642   0.7275433  )
       129        S      tau( 129) = (   0.2483844   0.5764169   0.6061944  )
       130        S      tau( 130) = (   0.3749442   0.5052158   0.3668400  )
       131        S      tau( 131) = (   0.3749972   0.5051650   0.1180510  )
       132        S      tau( 132) = (   0.2577438   0.5818204   0.8557797  )
       133        Mo     tau( 133) = (   0.1250016   0.7938567  -0.7272732  )
       134        Mo     tau( 134) = (   0.2499995   0.7216883  -0.2424036  )
       135        S      tau( 135) = (   0.1250024   0.7938578  -0.3667813  )
       136        S      tau( 136) = (   0.2500016   0.7216877  -0.6030489  )
       137        S      tau( 137) = (   0.2500016   0.7216878  -0.8514963  )
       138        S      tau( 138) = (   0.1250024   0.7938579  -0.1180253  )
       139        Mo     tau( 139) = (   0.1250047   0.7938294   0.2424606  )
       140        Mo     tau( 140) = (   0.2505220   0.7228241   0.7275433  )
       141        S      tau( 141) = (   0.1250053   0.7939926   0.6027252  )
       142        S      tau( 142) = (   0.2500048   0.7216200   0.3668387  )
       143        S      tau( 143) = (   0.2499864   0.7216915   0.1180524  )
       144        S      tau( 144) = (   0.1250054   0.7944033   0.8517402  )
       145        Mo     tau( 145) = (   0.7500010   0.1443372  -0.7272732  )
       146        Mo     tau( 146) = (   0.8750038   0.0721696  -0.2424038  )
       147        S      tau( 147) = (   0.7500016   0.1443382  -0.3667789  )
       148        S      tau( 148) = (   0.8750010   0.0721682  -0.6030489  )
       149        S      tau( 149) = (   0.8750010   0.0721683  -0.8514963  )
       150        S      tau( 150) = (   0.7500016   0.1443384  -0.1180279  )
       151        Mo     tau( 151) = (   0.7499986   0.1443409   0.2423802  )
       152        Mo     tau( 152) = (   0.8750804   0.0721266   0.7263988  )
       153        S      tau( 153) = (   0.7497713   0.1444738   0.6023592  )
       154        S      tau( 154) = (   0.8749758   0.0721848   0.3667595  )
       155        S      tau( 155) = (   0.8750127   0.0721632   0.1180342  )
       156        S      tau( 156) = (   0.7501331   0.1442647   0.8512770  )
       157        Mo     tau( 157) = (   0.6250012   0.3608437  -0.7272732  )
       158        Mo     tau( 158) = (   0.7500028   0.2886769  -0.2424041  )
       159        S      tau( 159) = (   0.6250015   0.3608451  -0.3667792  )
       160        S      tau( 160) = (   0.7500012   0.2886747  -0.6030489  )
       161        S      tau( 161) = (   0.7500012   0.2886748  -0.8514963  )
       162        S      tau( 162) = (   0.6250016   0.3608454  -0.1180280  )
       163        Mo     tau( 163) = (   0.6250032   0.3608391   0.2423797  )
       164        Mo     tau( 164) = (   0.7498627   0.2885951   0.7270467  )
       165        S      tau( 165) = (   0.6250046   0.3605769   0.6023590  )
       166        S      tau( 166) = (   0.7499943   0.2886711   0.3667569  )
       167        S      tau( 167) = (   0.7500399   0.2886970   0.1180318  )
       168        S      tau( 168) = (   0.6250043   0.3609947   0.8512770  )
       169        Mo     tau( 169) = (   0.5000014   0.5773502  -0.7272732  )
       170        Mo     tau( 170) = (   0.6250029   0.5051841  -0.2424047  )
       171        S      tau( 171) = (   0.5000014   0.5773518  -0.3667794  )
       172        S      tau( 172) = (   0.6250014   0.5051812  -0.6030489  )
       173        S      tau( 173) = (   0.6250014   0.5051813  -0.8514963  )
       174        S      tau( 174) = (   0.5000016   0.5773516  -0.1180277  )
       175        Mo     tau( 175) = (   0.4999855   0.5773383   0.2424207  )
       176        Mo     tau( 176) = (   0.6250049   0.5052713   0.7263986  )
       177        S      tau( 177) = (   0.4998428   0.5773389   0.6020941  )
       178        S      tau( 178) = (   0.6250030   0.5051500   0.3667588  )
       179        S      tau( 179) = (   0.6250025   0.5051935   0.1180351  )
       180        S      tau( 180) = (   0.5012979   0.5776190   0.8514332  )
       181        Mo     tau( 181) = (   0.3750016   0.7938567  -0.7272732  )
       182        Mo     tau( 182) = (   0.5000025   0.7216901  -0.2424039  )
       183        S      tau( 183) = (   0.3750019   0.7938578  -0.3667793  )
       184        S      tau( 184) = (   0.5000016   0.7216877  -0.6030489  )
       185        S      tau( 185) = (   0.5000016   0.7216878  -0.8514963  )
       186        S      tau( 186) = (   0.3750020   0.7938579  -0.1180272  )
       187        Mo     tau( 187) = (   0.3749848   0.7938487   0.2424206  )
       188        Mo     tau( 188) = (   0.5001249   0.7217591   0.7266160  )
       189        S      tau( 189) = (   0.3749125   0.7937251   0.6020942  )
       190        S      tau( 190) = (   0.5000021   0.7216868   0.3667472  )
       191        S      tau( 191) = (   0.4999874   0.7216780   0.1180346  )
       192        S      tau( 192) = (   0.3758826   0.7948451   0.8514332  )
       193        Pd     tau( 193) = (   0.1250063   0.5051842   0.9601361  )
       194        Pt     tau( 194) = (   0.2527577   0.4314440   1.0779091  )

     --------------------------------------------
     DFT-D3 Dispersion Correction (3-body terms):
     --------------------------------------------
       Reference C6 values for interpolation: 

         atom   Coordination number   C6
         S          0.000           268.01
         S          0.995           261.99
         S          1.990           251.62
         Mo         0.000          1691.79
         Mo         1.942          1004.01
         Mo        11.056           674.22
         Pd         0.000          1217.01
         Pd         1.863           573.90
         Pd         5.710           531.75
         Pt         0.000           782.29
         Pt         1.919           692.72
         Pt         6.667           673.75

       Values used:

         atom   Coordination number  R0_AB[au]  C6      C8
         Mo        10.208            3.547    674.22  77634.20
         Mo        10.221            3.547    674.22  77634.20
         S          3.858            3.128    251.62  12327.25
         S          3.859            3.128    251.62  12327.25
         S          3.758            3.128    251.62  12327.25
         S          3.859            3.128    251.62  12327.25
         Mo        10.220            3.547    674.22  77634.20
         Mo        10.234            3.547    674.22  77634.20
         S          3.847            3.128    251.62  12327.25
         S          3.861            3.128    251.62  12327.25
         S          3.859            3.128    251.62  12327.25
         S          3.805            3.128    251.62  12327.25
         Mo        10.208            3.547    674.22  77634.20
         Mo        10.221            3.547    674.22  77634.20
         S          3.858            3.128    251.62  12327.25
         S          3.859            3.128    251.62  12327.25
         S          3.758            3.128    251.62  12327.25
         S          3.859            3.128    251.62  12327.25
         Mo        10.221            3.547    674.22  77634.20
         Mo        10.192            3.547    674.22  77634.20
         S          3.855            3.128    251.62  12327.25
         S          3.856            3.128    251.62  12327.25
         S          3.859            3.128    251.62  12327.25
         S          3.757            3.128    251.62  12327.25
         Mo        10.208            3.547    674.22  77634.20
         Mo        10.221            3.547    674.22  77634.20
         S          3.858            3.128    251.62  12327.25
         S          3.859            3.128    251.62  12327.25
         S          3.758            3.128    251.62  12327.25
         S          3.859            3.128    251.62  12327.25
         Mo        10.220            3.547    674.22  77634.20
         Mo        10.191            3.547    674.22  77634.20
         S          3.847            3.128    251.62  12327.25
         S          3.856            3.128    251.62  12327.25
         S          3.859            3.128    251.62  12327.25
         S          3.805            3.128    251.62  12327.25
         Mo        10.208            3.547    674.21  77634.20
         Mo        10.221            3.547    674.22  77634.20
         S          3.858            3.128    251.62  12327.25
         S          3.859            3.128    251.62  12327.25
         S          3.758            3.128    251.62  12327.25
         S          3.859            3.128    251.62  12327.25
         Mo        10.219            3.547    674.22  77634.20
         Mo        10.233            3.547    674.22  77634.20
         S          3.856            3.128    251.62  12327.25
         S          3.861            3.128    251.62  12327.25
         S          3.859            3.128    251.62  12327.25
         S          3.782            3.128    251.62  12327.25
         Mo        10.208            3.547    674.22  77634.20
         Mo        10.221            3.547    674.22  77634.20
         S          3.858            3.128    251.62  12327.25
         S          3.859            3.128    251.62  12327.25
         S          3.758            3.128    251.62  12327.25
         S          3.859            3.128    251.62  12327.25
         Mo        10.220            3.547    674.22  77634.20
         Mo        10.244            3.547    674.22  77634.20
         S          3.847            3.128    251.62  12327.25
         S          3.860            3.128    251.62  12327.25
         S          3.859            3.128    251.62  12327.25
         S          3.807            3.128    251.62  12327.25
         Mo        10.208            3.547    674.22  77634.20
         Mo        10.221            3.547    674.22  77634.20
         S          3.858            3.128    251.62  12327.25
         S          3.859            3.128    251.62  12327.25
         S          3.758            3.128    251.62  12327.25
         S          3.859            3.128    251.62  12327.25
         Mo        10.222            3.547    674.22  77634.20
         Mo        10.195            3.547    674.22  77634.20
         S          3.865            3.128    251.62  12327.25
         S          3.856            3.128    251.62  12327.25
         S          3.859            3.128    251.62  12327.25
         S          4.728            3.128    251.62  12327.25
         Mo        10.208            3.547    674.22  77634.20
         Mo        10.221            3.547    674.22  77634.20
         S          3.858            3.128    251.62  12327.25
         S          3.859            3.128    251.62  12327.25
         S          3.758            3.128    251.62  12327.25
         S          3.859            3.128    251.62  12327.25
         Mo        10.222            3.547    674.22  77634.20
         Mo        10.826            3.547    674.22  77634.20
         S          3.865            3.128    251.62  12327.25
         S          3.853            3.128    251.62  12327.25
         S          3.859            3.128    251.62  12327.25
         S          4.654            3.128    251.62  12327.25
         Mo        10.208            3.547    674.22  77634.20
         Mo        10.221            3.547    674.22  77634.20
         S          3.858            3.128    251.62  12327.25
         S          3.859            3.128    251.62  12327.25
         S          3.758            3.128    251.62  12327.25
         S          3.859            3.128    251.62  12327.25
         Mo        10.220            3.547    674.22  77634.20
         Mo        10.191            3.547    674.22  77634.20
         S          3.847            3.128    251.62  12327.25
         S          3.856            3.128    251.62  12327.25
         S          3.859            3.128    251.62  12327.25
         S          3.805            3.128    251.62  12327.25
         Mo        10.208            3.547    674.22  77634.20
         Mo        10.221            3.547    674.22  77634.20
         S          3.858            3.128    251.62  12327.25
         S          3.859            3.128    251.62  12327.25
         S          3.758            3.128    251.62  12327.25
         S          3.859            3.128    251.62  12327.25
         Mo        10.220            3.547    674.22  77634.20
         Mo        10.229            3.547    674.22  77634.20
         S          3.862            3.128    251.62  12327.25
         S          3.860            3.128    251.62  12327.25
         S          3.859            3.128    251.62  12327.25
         S          3.765            3.128    251.62  12327.25
         Mo        10.208            3.547    674.22  77634.20
         Mo        10.221            3.547    674.22  77634.20
         S          3.858            3.128    251.62  12327.25
         S          3.859            3.128    251.62  12327.25
         S          3.758            3.128    251.62  12327.25
         S          3.859            3.128    251.62  12327.25
         Mo        10.221            3.547    674.22  77634.20
         Mo        10.230            3.547    674.22  77634.20
         S          3.855            3.128    251.62  12327.25
         S          3.860            3.128    251.62  12327.25
         S          3.859            3.128    251.62  12327.25
         S          3.837            3.128    251.62  12327.25
         Mo        10.208            3.547    674.22  77634.20
         Mo        10.221            3.547    674.22  77634.20
         S          3.858            3.128    251.62  12327.25
         S          3.859            3.128    251.62  12327.25
         S          3.758            3.128    251.62  12327.25
         S          3.859            3.128    251.62  12327.25
         Mo        10.222            3.547    674.22  77634.20
         Mo        10.195            3.547    674.22  77634.20
         S          3.865            3.128    251.62  12327.25
         S          3.856            3.128    251.62  12327.25
         S          3.859            3.128    251.62  12327.25
         S          4.728            3.128    251.62  12327.25
         Mo        10.208            3.547    674.22  77634.20
         Mo        10.221            3.547    674.22  77634.20
         S          3.858            3.128    251.62  12327.25
         S          3.859            3.128    251.62  12327.25
         S          3.758            3.128    251.62  12327.25
         S          3.859            3.128    251.62  12327.25
         Mo        10.221            3.547    674.22  77634.20
         Mo        10.192            3.547    674.22  77634.20
         S          3.855            3.128    251.62  12327.25
         S          3.856            3.128    251.62  12327.25
         S          3.859            3.128    251.62  12327.25
         S          3.757            3.128    251.62  12327.25
         Mo        10.208            3.547    674.22  77634.20
         Mo        10.221            3.547    674.22  77634.20
         S          3.858            3.128    251.62  12327.25
         S          3.859            3.128    251.62  12327.25
         S          3.758            3.128    251.62  12327.25
         S          3.859            3.128    251.62  12327.25
         Mo        10.220            3.547    674.22  77634.20
         Mo        10.244            3.547    674.22  77634.20
         S          3.862            3.128    251.62  12327.25
         S          3.860            3.128    251.62  12327.25
         S          3.859            3.128    251.62  12327.25
         S          3.765            3.128    251.62  12327.25
         Mo        10.208            3.547    674.22  77634.20
         Mo        10.220            3.547    674.22  77634.20
         S          3.858            3.128    251.62  12327.25
         S          3.859            3.128    251.62  12327.25
         S          3.758            3.128    251.62  12327.25
         S          3.859            3.128    251.62  12327.25
         Mo        10.220            3.547    674.22  77634.20
         Mo        10.229            3.547    674.22  77634.20
         S          3.862            3.128    251.62  12327.25
         S          3.860            3.128    251.62  12327.25
         S          3.859            3.128    251.62  12327.25
         S          3.765            3.128    251.62  12327.25
         Mo        10.208            3.547    674.22  77634.20
         Mo        10.221            3.547    674.22  77634.20
         S          3.858            3.128    251.62  12327.25
         S          3.859            3.128    251.62  12327.25
         S          3.758            3.128    251.62  12327.25
         S          3.859            3.128    251.62  12327.25
         Mo        10.220            3.547    674.22  77634.20
         Mo        10.244            3.547    674.22  77634.20
         S          3.847            3.128    251.62  12327.25
         S          3.860            3.128    251.62  12327.25
         S          3.859            3.128    251.62  12327.25
         S          3.807            3.128    251.62  12327.25
         Mo        10.208            3.547    674.22  77634.20
         Mo        10.221            3.547    674.22  77634.20
         S          3.858            3.128    251.62  12327.25
         S          3.859            3.128    251.62  12327.25
         S          3.758            3.128    251.62  12327.25
         S          3.859            3.128    251.62  12327.25
         Mo        10.220            3.547    674.21  77634.20
         Mo        10.234            3.547    674.22  77634.20
         S          3.847            3.128    251.62  12327.25
         S          3.861            3.128    251.62  12327.25
         S          3.859            3.128    251.62  12327.25
         S          3.805            3.128    251.62  12327.25
         Pd         4.743            3.168    531.75  48720.73
         Pt         1.240            3.168    693.83  72150.05

         Molecular C6 ( Ry / a.u.^6 ) =  13979993.97


     number of k points=     4  Gaussian smearing, width (Ry)=  0.0100
                       cart. coord. in units 2pi/alat
        k(    1) = (   0.0000000   0.0000000   0.0000000), wk =   0.5000000
        k(    2) = (   0.0000000  -0.5773499   0.0000000), wk =   0.5000000
        k(    3) = (  -0.5000000  -0.2886744   0.0000000), wk =   0.5000000
        k(    4) = (  -0.5000000  -0.8660242   0.0000000), wk =   0.5000000

     Dense  grid:  7154885 G-vectors     FFT dimensions: ( 180, 180, 512)

     Smooth grid:  3090769 G-vectors     FFT dimensions: ( 135, 135, 400)

     Estimated max dynamical RAM per process >       4.31 GB

     Estimated total dynamical RAM >     155.10 GB

     Atomic positions and unit cell read from directory:
     ./outdir/pwscf.save/
     Atomic positions from file used, from input discarded
 

     The initial density is read from file :
     ./outdir/pwscf.save/charge-density


     negative rho (up, down):  8.879E-04 0.000E+00
     Cannot read wfcs: file not found
     Starting wfcs are 1179 randomized atomic wfcs
     Checking if some PAW data can be deallocated... 

     total cpu time spent up to now is      178.5 secs

     Self-consistent Calculation

     iteration #  1     ecut=    77.00 Ry     beta= 0.20
     Davidson diagonalization with overlap
     c_bands:  5 eigenvalues not converged
     c_bands: 25 eigenvalues not converged
     c_bands: 25 eigenvalues not converged
     c_bands: 23 eigenvalues not converged
     ethr =  1.00E-05,  avg # of iterations =115.0

     negative rho (up, down):  8.266E-04 0.000E+00

     total cpu time spent up to now is    10759.1 secs

     total energy              =  -33980.49961813 Ry
     estimated scf accuracy    <       8.15631474 Ry

     iteration #  2     ecut=    77.00 Ry     beta= 0.20
     Davidson diagonalization with overlap
     ethr =  4.76E-04,  avg # of iterations =  4.2

     negative rho (up, down):  7.935E-04 0.000E+00

     total cpu time spent up to now is    11183.6 secs

     total energy              =  -33980.35755955 Ry
     estimated scf accuracy    <       3.82801034 Ry

     iteration #  3     ecut=    77.00 Ry     beta= 0.20
     Davidson diagonalization with overlap
     ethr =  2.23E-04,  avg # of iterations =  8.0

     negative rho (up, down):  7.599E-04 0.000E+00

     total cpu time spent up to now is    11620.9 secs

     total energy              =  -33980.25261234 Ry
     estimated scf accuracy    <       1.31693209 Ry

     iteration #  4     ecut=    77.00 Ry     beta= 0.20
     Davidson diagonalization with overlap
     c_bands:  2 eigenvalues not converged
     c_bands:  1 eigenvalues not converged
     c_bands:  1 eigenvalues not converged
     c_bands:  2 eigenvalues not converged
     ethr =  7.68E-05,  avg # of iterations = 20.0

     negative rho (up, down):  7.415E-04 0.000E+00

     total cpu time spent up to now is    12124.1 secs

     total energy              =  -33980.25276018 Ry
     estimated scf accuracy    <       0.36540092 Ry

     iteration #  5     ecut=    77.00 Ry     beta= 0.20
     Davidson diagonalization with overlap
     ethr =  2.13E-05,  avg # of iterations =  9.2

     negative rho (up, down):  7.324E-04 0.000E+00

     total cpu time spent up to now is    12579.7 secs

     total energy              =  -33980.22668333 Ry
     estimated scf accuracy    <       0.13974204 Ry

     iteration #  6     ecut=    77.00 Ry     beta= 0.20
     Davidson diagonalization with overlap
     c_bands:  4 eigenvalues not converged
     c_bands:  4 eigenvalues not converged
     c_bands:  3 eigenvalues not converged
     c_bands:  3 eigenvalues not converged
     ethr =  8.15E-06,  avg # of iterations = 40.0

     negative rho (up, down):  7.341E-04 0.000E+00

     total cpu time spent up to now is    13653.7 secs

     total energy              =  -33980.25219427 Ry
     estimated scf accuracy    <       0.07654141 Ry

     iteration #  7     ecut=    77.00 Ry     beta= 0.20
     Davidson diagonalization with overlap
     c_bands:  2 eigenvalues not converged
     c_bands:  3 eigenvalues not converged
     ethr =  4.47E-06,  avg # of iterations = 12.0

     negative rho (up, down):  7.462E-04 0.000E+00

     total cpu time spent up to now is    14109.1 secs

     total energy              =  -33980.24143962 Ry
     estimated scf accuracy    <       0.03073221 Ry

     iteration #  8     ecut=    77.00 Ry     beta= 0.20
     Davidson diagonalization with overlap
     c_bands:  5 eigenvalues not converged
     c_bands:  4 eigenvalues not converged
     c_bands:  3 eigenvalues not converged
     ethr =  1.79E-06,  avg # of iterations = 50.5

     negative rho (up, down):  7.617E-04 0.000E+00

     total cpu time spent up to now is    15498.0 secs

     total energy              =  -33980.25274051 Ry
     estimated scf accuracy    <       0.00969641 Ry

     iteration #  9     ecut=    77.00 Ry     beta= 0.20
     Davidson diagonalization with overlap
     c_bands:  2 eigenvalues not converged
     ethr =  5.66E-07,  avg # of iterations = 12.0

     negative rho (up, down):  7.804E-04 0.000E+00

     total cpu time spent up to now is    15982.1 secs

     total energy              =  -33980.25314957 Ry
     estimated scf accuracy    <       0.00365109 Ry

     iteration # 10     ecut=    77.00 Ry     beta= 0.20
     Davidson diagonalization with overlap
     ethr =  2.13E-07,  avg # of iterations =  9.8

     negative rho (up, down):  8.198E-04 0.000E+00

     total cpu time spent up to now is    16618.1 secs

     total energy              =  -33980.25443245 Ry
     estimated scf accuracy    <       0.00183360 Ry

     iteration # 11     ecut=    77.00 Ry     beta= 0.20
     Davidson diagonalization with overlap
     ethr =  1.07E-07,  avg # of iterations =  9.5

     negative rho (up, down):  8.328E-04 0.000E+00

     total cpu time spent up to now is    17150.9 secs

     total energy              =  -33980.25483744 Ry
     estimated scf accuracy    <       0.00061882 Ry

     iteration # 12     ecut=    77.00 Ry     beta= 0.20
     Davidson diagonalization with overlap
     ethr =  3.61E-08,  avg # of iterations = 12.5

     negative rho (up, down):  8.474E-04 0.000E+00

     total cpu time spent up to now is    17903.9 secs

     total energy              =  -33980.25517689 Ry
     estimated scf accuracy    <       0.00024609 Ry

     iteration # 13     ecut=    77.00 Ry     beta= 0.20
     Davidson diagonalization with overlap
     ethr =  1.44E-08,  avg # of iterations = 10.0

     negative rho (up, down):  8.637E-04 0.000E+00

     total cpu time spent up to now is    18531.4 secs

     total energy              =  -33980.25523753 Ry
     estimated scf accuracy    <       0.00010667 Ry

     iteration # 14     ecut=    77.00 Ry     beta= 0.20
     Davidson diagonalization with overlap
     ethr =  6.22E-09,  avg # of iterations = 10.0

     negative rho (up, down):  8.744E-04 0.000E+00

     total cpu time spent up to now is    19292.6 secs

     total energy              =  -33980.25529165 Ry
     estimated scf accuracy    <       0.00003663 Ry

     iteration # 15     ecut=    77.00 Ry     beta= 0.20
     Davidson diagonalization with overlap
     ethr =  2.14E-09,  avg # of iterations = 15.8

     negative rho (up, down):  8.779E-04 0.000E+00

     total cpu time spent up to now is    20094.8 secs

     total energy              =  -33980.25531542 Ry
     estimated scf accuracy    <       0.00001334 Ry

     iteration # 16     ecut=    77.00 Ry     beta= 0.20
     Davidson diagonalization with overlap
     c_bands:  3 eigenvalues not converged
     ethr =  7.78E-10,  avg # of iterations = 16.2

     negative rho (up, down):  8.817E-04 0.000E+00

     total cpu time spent up to now is    20856.2 secs

     total energy              =  -33980.25531860 Ry
     estimated scf accuracy    <       0.00000787 Ry

     iteration # 17     ecut=    77.00 Ry     beta= 0.20
     Davidson diagonalization with overlap
     c_bands:  3 eigenvalues not converged
     ethr =  4.59E-10,  avg # of iterations = 14.2

     negative rho (up, down):  8.859E-04 0.000E+00

     total cpu time spent up to now is    21415.1 secs

     total energy              =  -33980.25531784 Ry
     estimated scf accuracy    <       0.00000272 Ry

     iteration # 18     ecut=    77.00 Ry     beta= 0.20
     Davidson diagonalization with overlap
     c_bands:  2 eigenvalues not converged
     ethr =  1.59E-10,  avg # of iterations = 13.5

     negative rho (up, down):  8.906E-04 0.000E+00

     total cpu time spent up to now is    22348.4 secs

     End of self-consistent calculation

          k = 0.0000 0.0000 0.0000 (386245 PWs)   bands (ev):

  -101.5808 -88.8816 -70.0204 -69.9973 -69.9803 -69.9130 -69.9088 -69.8187
   -69.8183 -66.6092 -66.6080 -66.6070 -66.6044 -66.5926 -66.5879 -66.5879
   -66.5879 -66.5879 -66.5878 -66.5878 -66.5867 -66.5867 -66.5866 -66.5866
   -66.5866 -66.5866 -66.5864 -66.5859 -66.5858 -66.5857 -66.5856 -66.5855
   -66.5853 -66.5837 -66.5806 -66.5803 -66.5762 -66.5695 -66.5668 -66.5665
   -66.5665 -66.5665 -66.5665 -66.5665 -66.5665 -66.5664 -66.5664 -66.5664
   -66.5662 -66.5653 -66.5652 -66.5652 -66.5652 -66.5652 -66.5652 -66.5652
   -66.5652 -66.5652 -66.5647 -66.5646 -66.5645 -66.5644 -66.5643 -66.5642
   -66.5641 -66.5638 -66.5638 -66.5473 -66.5437 -66.5336 -66.5333 -66.5004
   -66.4910 -56.3317 -55.5856 -55.4808 -54.7442 -54.6477 -54.6265 -40.9366
   -40.9366 -40.9365 -40.9360 -40.9360 -40.9360 -40.9342 -40.9342 -40.9341
   -40.9233 -40.9221 -40.9200 -40.8613 -40.8612 -40.8612 -40.8612 -40.8612
   -40.8612 -40.8606 -40.8606 -40.8606 -40.8606 -40.8606 -40.8606 -40.8591
   -40.8589 -40.8588 -40.8588 -40.8588 -40.8587 -40.8539 -40.8503 -40.8454
   -40.8373 -40.8346 -40.8315 -40.7731 -40.7687 -40.7682 -40.7665 -40.7556
   -40.7349 -40.7349 -40.7349 -40.7349 -40.7349 -40.7349 -40.7342 -40.7342
   -40.7342 -40.7342 -40.7342 -40.7342 -40.7329 -40.7327 -40.7326 -40.7325
   -40.7325 -40.7325 -40.7323 -40.7296 -40.7290 -40.7271 -40.7270 -40.7270
   -40.7270 -40.7270 -40.7270 -40.7265 -40.7265 -40.7265 -40.7265 -40.7264
   -40.7264 -40.7250 -40.7249 -40.7248 -40.7248 -40.7247 -40.7247 -40.7240
   -40.7236 -40.7207 -40.7196 -40.7161 -40.7153 -40.7102 -40.6999 -40.6999
   -40.6999 -40.6999 -40.6999 -40.6999 -40.6991 -40.6991 -40.6991 -40.6991
   -40.6991 -40.6991 -40.6977 -40.6976 -40.6975 -40.6975 -40.6974 -40.6974
   -40.6966 -40.6927 -40.6900 -40.6893 -40.6876 -40.6868 -40.6851 -40.6851
   -40.6851 -40.6851 -40.6851 -40.6851 -40.6850 -40.6850 -40.6850 -40.6845
   -40.6845 -40.6845 -40.6844 -40.6844 -40.6844 -40.6844 -40.6844 -40.6844
   -40.6839 -40.6831 -40.6830 -40.6830 -40.6829 -40.6829 -40.6828 -40.6828
   -40.6826 -40.6826 -40.6814 -40.6812 -40.6805 -40.6726 -40.6701 -40.6655
   -40.6603 -40.6401 -40.6244 -40.6215 -40.6215 -40.6215 -40.6207 -40.6207
   -40.6207 -40.6192 -40.6192 -40.6191 -40.6054 -40.6051 -40.6021 -40.5744
   -40.5744 -40.5744 -40.5744 -40.5744 -40.5744 -40.5735 -40.5735 -40.5735
   -40.5735 -40.5735 -40.5735 -40.5724 -40.5722 -40.5722 -40.5720 -40.5719
   -40.5717 -40.5597 -40.5585 -40.5556 -40.5479 -40.5445 -40.5388 -40.5268
   -40.5268 -40.5259 -40.5259 -40.5244 -40.5244 -40.4980 -40.4978 -20.1122
   -20.0572 -19.9629 -19.8672 -19.3609 -19.2604 -19.2481 -19.2332 -19.2303
   -19.2297 -19.2185 -19.2077 -19.2016 -19.1791 -19.1673 -19.1670 -19.1283
   -19.1173 -19.1136 -19.0991 -19.0847 -19.0830 -19.0269 -19.0218 -19.0202
   -19.0159 -19.0096 -19.0081 -18.8884 -18.7865 -18.6559 -18.5761 -18.5038
   -18.4992 -18.4929 -18.4616 -18.4526 -18.4519 -18.4221 -18.4025 -18.3970
   -18.3862 -18.3441 -18.3440 -18.3078 -18.2743 -18.2741 -18.2632 -18.2340
   -18.2331 -18.2169 -18.1836 -18.1725 -18.1672 -18.1580 -18.1573 -18.1539
   -18.1451 -18.1119 -18.1066 -18.1046 -18.1044 -18.1022 -18.1014 -18.0944
   -18.0788 -18.0727 -18.0714 -18.0650 -18.0625 -18.0625 -18.0598 -18.0580
   -18.0566 -18.0353 -18.0334 -18.0332 -18.0310 -18.0283 -18.0248 -18.0142
   -18.0083 -18.0072 -17.9934 -17.9932 -17.9876 -17.9841 -17.9830 -17.9784
   -17.9703 -17.9662 -17.9657 -17.9363 -17.9251 -17.9224 -17.9035 -17.9026
   -17.8995 -17.8986 -17.8970 -17.8946 -17.8794 -17.8765 -17.8745 -17.8569
   -17.8558 -17.8529 -17.8484 -17.8465 -17.8429 -17.8397 -17.8387 -17.8356
   -17.8243 -17.8243 -17.8239 -17.8108 -17.8085 -17.8056 -17.8035 -17.8021
   -17.8014 -17.7804 -17.7799 -17.7784 -17.7777 -17.7769 -17.7761 -11.9938
   -11.8903 -11.8178 -11.8086 -11.7852 -11.7540 -11.7400 -11.7340 -11.6476
   -11.6408 -11.6324 -11.5437 -11.5363 -11.5325 -11.5071 -11.3507 -11.2457
   -11.2261 -11.2191 -11.2181 -11.2178 -11.1994 -11.1776 -11.1345 -11.1336
   -11.1273 -11.1175 -11.1165 -11.1077 -11.1046 -11.0986 -11.0761 -11.0630
   -11.0550 -11.0528 -11.0444 -11.0431 -11.0377 -11.0353 -11.0339 -11.0270
   -11.0052 -11.0037 -10.9883 -10.9850 -10.9684 -10.9556 -10.9375 -10.9286
   -10.9220 -10.9083 -10.9038 -10.9029 -10.8837 -10.8747 -10.8661 -10.8524
   -10.8440 -10.8328 -10.8327 -10.8313 -10.8310 -10.8285 -10.8187 -10.8167
   -10.8123 -10.8088 -10.8081 -10.7962 -10.7924 -10.7892 -10.7866 -10.7849
   -10.7811 -10.7805 -10.7778 -10.7618 -10.7617 -10.7580 -10.7515 -10.7496
   -10.7475 -10.7406 -10.7308 -10.7272 -10.7212 -10.7209 -10.7182 -10.7174
   -10.7105 -10.7090 -10.6530 -10.6368 -10.6360 -10.6113 -10.5825 -10.5686
   -10.5637 -10.5595 -10.5570 -10.4610 -10.2940 -10.2727 -10.1466 -10.1107
   -10.1100  -9.9389  -9.9275  -9.9119  -9.8065  -9.7985  -9.7919  -9.7859
    -9.7858  -9.7831  -9.7692  -9.7575  -9.7549  -9.7513  -9.7497  -9.7492
    -9.7461  -9.7410  -9.7409  -9.7391  -9.7324  -9.7292  -9.7281  -9.7055
    -9.7017  -9.6906  -9.6407  -9.6296  -9.6144  -9.6128  -9.6126  -9.6104
    -9.6018  -9.6016  -9.6003  -9.6002  -9.5990  -9.5982  -9.5923  -9.5839
    -9.5821  -9.5725  -9.5690  -9.5268  -9.5266  -9.5264  -9.5262  -9.5256
    -9.5256  -9.5137  -9.5137  -9.5092  -9.5069  -9.4946  -9.4938  -9.4832
    -9.4700  -9.4583  -9.4343  -9.4272  -9.4239  -9.3539  -9.3353  -9.3336
    -9.3328  -9.3304  -9.3207  -9.3147  -9.3093  -9.3027  -9.2919  -9.2870
    -9.2800  -9.2302  -9.2281  -9.2169  -9.2132  -9.2092  -9.1985  -9.1767
    -9.1675  -9.1673  -9.1657  -9.1651  -9.1606  -9.1597  -9.1289  -9.1161
    -9.1063  -9.0847  -9.0832  -9.0497  -9.0373  -9.0063  -8.9932  -8.9662
    -8.9647  -8.9645  -8.9468  -8.9359  -8.9356  -8.9295  -8.9232  -8.9168
    -8.9089  -8.9083  -8.9004  -8.8999  -8.8922  -8.8844  -8.8730  -8.8729
    -8.8543  -8.8504  -8.8200  -8.8056  -8.8054  -8.8054  -8.8045  -8.8040
    -8.8037  -8.7347  -8.7254  -8.7251  -8.7227  -8.7192  -8.7037  -8.6527
    -8.6457  -8.6429  -8.6421  -8.6378  -8.6204  -8.5791  -8.5759  -8.5746
    -8.5742  -8.5725  -8.5665  -8.5451  -8.5069  -8.4533  -8.3511  -8.3511
    -8.3448  -8.3447  -8.3387  -8.3384  -8.3351  -8.3292  -8.3252  -8.2951
    -8.2684  -8.2640  -8.2623  -8.2595  -8.2594  -8.2582  -8.2536  -8.2503
    -8.2423  -8.2387  -8.2319  -8.2309  -8.2295  -8.2266  -8.2264  -8.2184
    -8.2048  -8.2045  -8.2035  -8.2029  -8.2025  -8.1992  -8.0335  -8.0191
    -7.8991  -7.8442  -7.8435  -7.8402  -7.7664  -7.7651  -7.7532  -7.7117
    -7.6825  -7.6657  -7.6389  -7.6323  -7.6228  -7.6227  -7.6132  -7.6056
    -7.5949  -7.5899  -7.5896  -7.5762  -7.5734  -7.5539  -7.5389  -7.5306
    -7.5218  -7.5210  -7.5199  -7.5188  -7.5168  -7.5153  -7.5089  -7.5071
    -7.5020  -7.4991  -7.4908  -7.4885  -7.4884  -7.4876  -7.4858  -7.4780
    -7.4697  -7.4664  -7.4658  -7.4649  -7.4646  -7.4618  -7.4614  -7.4431
    -7.4370  -7.4084  -7.4024  -7.3947  -7.3947  -7.3918  -7.3913  -7.3854
    -7.3819  -7.3777  -7.3322  -7.3267  -7.3150  -7.2960  -7.2916  -7.2879
    -7.2795  -7.2767  -7.2720  -7.2680  -7.2630  -7.2629  -7.2553  -7.2402
    -7.2342  -7.2317  -7.2146  -7.2134  -7.1971  -7.1967  -7.1872  -7.1256
    -7.1129  -7.0819  -7.0801  -7.0733  -7.0246  -6.9833  -6.9727  -6.8853
    -6.8578  -6.8519  -6.8323  -6.8305  -6.7793  -6.7777  -6.7687  -6.7659
    -6.7547  -6.7338  -6.7101  -6.7051  -6.6938  -6.6750  -6.6699  -6.6537
    -6.6301  -6.6241  -6.6050  -6.6049  -6.5979  -6.5912  -6.5898  -6.5790
    -6.5646  -6.5484  -6.5433  -6.5266  -6.5252  -6.5154  -6.5064  -6.4979
    -6.4959  -6.4936  -6.4917  -6.4911  -6.4897  -6.4877  -6.4843  -6.4821
    -6.4814  -6.4813  -6.4809  -6.4807  -6.4789  -6.4627  -6.4435  -6.4369
    -6.4247  -6.4019  -6.3984  -6.3934  -6.3844  -6.3778  -6.3773  -6.3227
    -6.3221  -6.3175  -6.3171  -6.3153  -6.3133  -6.2985  -6.2978  -6.2816
    -6.2788  -6.2742  -6.2712  -6.2644  -6.2639  -6.2475  -6.2406  -6.2373
    -6.2358  -6.2342  -6.2338  -6.2268  -6.2065  -6.1935  -6.1328  -5.9860
    -5.9653  -5.8350  -5.7975  -5.6317  -5.5252  -5.5211  -5.3302  -5.2778
    -5.1415  -4.4077  -3.8725  -3.8372  -3.8302  -3.8297  -3.8254  -3.8161
    -3.8075  -3.8054  -3.8045  -3.8035  -3.8021  -3.7913  -3.7365  -3.6827
    -3.6690  -3.6667  -3.6640  -3.6566  -3.6560  -3.6552  -3.6527  -3.6526
    -3.6489  -3.5870  -3.5199  -3.4897  -3.4877  -3.4829  -3.4731  -3.4725
    -3.4632  -3.4579  -3.4574  -3.4562  -3.4531  -3.4523  -3.4493  -3.4424
    -3.4349  -3.4309  -3.4289  -3.4258  -3.4256  -3.4255  -3.4180  -3.4107
    -3.4106  -3.4098  -3.3995  -3.3959  -3.3956  -3.3938  -3.3932  -3.3923
    -3.3840  -3.3829  -3.3807  -3.3746  -3.3712  -3.3587  -3.3413  -3.3277
    -3.3277  -3.3268  -3.3249  -3.3238  -3.3184  -3.3166  -3.3152  -3.2976
    -3.2941  -3.2893  -3.2712  -3.2668  -3.2653  -3.2607  -3.2438  -3.2427
    -3.2243  -3.1991  -3.1894  -3.1833  -3.1766  -3.1374  -3.0516  -3.0439
    -3.0420  -3.0407  -3.0398  -3.0380  -3.0270  -3.0235  -3.0226  -2.9900
    -2.9744  -2.9657  -2.9562  -2.9560  -2.9554  -2.9530  -2.9515  -2.9476
    -2.9466  -2.9466  -2.9457  -2.9424  -2.9365  -2.9354  -2.9314  -2.9273
    -2.9248  -2.9191  -2.9175  -2.9166  -2.9155  -2.9140  -2.9133  -2.9127
    -2.9121  -2.9036  -2.8974  -2.8936  -2.8616  -2.8544  -2.8538  -2.8339
    -2.8291  -2.8208  -2.8187  -2.7953  -2.7909  -2.7906  -2.7905  -2.7902
    -2.7891  -2.7891  -2.7887  -2.7868  -2.7843  -2.7822  -2.7703  -2.7691
    -2.7355  -2.7344  -2.7227  -2.7207  -2.7180  -2.7061  -2.7008  -2.6806
    -2.6576  -2.6522  -2.6216  -2.6214  -2.6079  -2.6067  -2.5985  -2.5978
    -2.5970  -2.5948  -2.5490  -2.5377  -2.5238  -2.5173  -2.5148  -2.5053
    -2.4271  -2.4081  -2.4020  -2.3993

          k = 0.0000-0.5773 0.0000 (386352 PWs)   bands (ev):

  -101.5808 -88.8816 -70.0204 -69.9973 -69.9803 -69.9130 -69.9088 -69.8187
   -69.8183 -66.6029 -66.6029 -66.6017 -66.6017 -66.6015 -66.6009 -66.6006
   -66.5979 -66.5923 -66.5923 -66.5911 -66.5911 -66.5901 -66.5900 -66.5861
   -66.5847 -66.5787 -66.5782 -66.5772 -66.5772 -66.5772 -66.5772 -66.5760
   -66.5759 -66.5759 -66.5759 -66.5757 -66.5751 -66.5750 -66.5749 -66.5749
   -66.5727 -66.5727 -66.5715 -66.5715 -66.5707 -66.5704 -66.5689 -66.5680
   -66.5670 -66.5665 -66.5665 -66.5665 -66.5665 -66.5652 -66.5652 -66.5652
   -66.5652 -66.5645 -66.5644 -66.5641 -66.5640 -66.5620 -66.5620 -66.5608
   -66.5608 -66.5598 -66.5598 -66.5471 -66.5439 -66.5341 -66.5328 -66.5004
   -66.4910 -56.3317 -55.5856 -55.4808 -54.7442 -54.6477 -54.6265 -40.9049
   -40.9049 -40.9049 -40.9049 -40.9044 -40.9044 -40.9044 -40.9044 -40.9032
   -40.9027 -40.9026 -40.9025 -40.9023 -40.8924 -40.8871 -40.8781 -40.8781
   -40.8775 -40.8775 -40.8759 -40.8756 -40.8740 -40.8707 -40.8676 -40.8661
   -40.8661 -40.8655 -40.8655 -40.8637 -40.8637 -40.8465 -40.8355 -40.8154
   -40.8154 -40.8154 -40.8154 -40.8147 -40.8147 -40.8147 -40.8147 -40.8130
   -40.8130 -40.8130 -40.8129 -40.7998 -40.7946 -40.7919 -40.7898 -40.7685
   -40.7566 -40.7566 -40.7560 -40.7560 -40.7557 -40.7544 -40.7543 -40.7471
   -40.7471 -40.7463 -40.7463 -40.7459 -40.7448 -40.7447 -40.7357 -40.7357
   -40.7351 -40.7351 -40.7335 -40.7335 -40.7321 -40.7280 -40.7212 -40.7188
   -40.7085 -40.7061 -40.7061 -40.7061 -40.7061 -40.7055 -40.7055 -40.7055
   -40.7055 -40.7039 -40.7039 -40.7039 -40.7038 -40.7030 -40.6974 -40.6973
   -40.6967 -40.6967 -40.6966 -40.6952 -40.6951 -40.6941 -40.6882 -40.6856
   -40.6856 -40.6851 -40.6850 -40.6850 -40.6850 -40.6848 -40.6848 -40.6844
   -40.6844 -40.6844 -40.6844 -40.6836 -40.6833 -40.6832 -40.6830 -40.6829
   -40.6828 -40.6827 -40.6787 -40.6764 -40.6764 -40.6757 -40.6757 -40.6757
   -40.6742 -40.6741 -40.6723 -40.6678 -40.6640 -40.6547 -40.6547 -40.6547
   -40.6547 -40.6538 -40.6538 -40.6538 -40.6538 -40.6526 -40.6525 -40.6521
   -40.6521 -40.6485 -40.6426 -40.6407 -40.6351 -40.6313 -40.6237 -40.6199
   -40.6199 -40.6199 -40.6199 -40.6191 -40.6191 -40.6191 -40.6191 -40.6177
   -40.6176 -40.6175 -40.6175 -40.6080 -40.6078 -40.6078 -40.6069 -40.6069
   -40.6055 -40.6053 -40.6045 -40.5975 -40.5921 -40.5887 -40.5885 -40.5884
   -40.5876 -40.5876 -40.5864 -40.5859 -40.5733 -40.5717 -40.5715 -40.5715
   -40.5706 -40.5706 -40.5692 -40.5691 -40.5649 -40.5491 -40.5408 -40.5408
   -40.5399 -40.5399 -40.5386 -40.5383 -40.5282 -40.5236 -40.5049 -19.8972
   -19.8662 -19.8384 -19.8017 -19.7388 -19.7127 -19.6367 -19.6278 -19.4501
   -19.4314 -19.4006 -19.3772 -19.3090 -19.2924 -19.2112 -19.2048 -18.9283
   -18.8017 -18.7515 -18.7472 -18.7341 -18.7143 -18.7066 -18.7004 -18.6972
   -18.6820 -18.6593 -18.6399 -18.6269 -18.6230 -18.6095 -18.5974 -18.5626
   -18.5565 -18.5415 -18.5386 -18.5294 -18.5264 -18.5148 -18.4931 -18.4678
   -18.4637 -18.4595 -18.4478 -18.4365 -18.4170 -18.3952 -18.3892 -18.3778
   -18.3586 -18.3484 -18.3271 -18.3130 -18.3077 -18.2916 -18.2488 -18.2327
   -18.2239 -18.2118 -18.2065 -18.1805 -18.1626 -18.1516 -18.1298 -18.1034
   -18.0988 -18.0898 -18.0877 -18.0837 -18.0832 -18.0803 -18.0780 -18.0588
   -18.0555 -18.0532 -18.0491 -18.0469 -18.0438 -18.0302 -18.0281 -18.0250
   -18.0188 -18.0124 -18.0105 -17.9934 -17.9896 -17.9840 -17.9831 -17.9789
   -17.9780 -17.9714 -17.9700 -17.9648 -17.9570 -17.9288 -17.9186 -17.9178
   -17.9151 -17.9012 -17.8994 -17.8763 -17.8703 -17.8541 -17.8536 -17.8314
   -17.8289 -17.8203 -17.8193 -17.8076 -17.8038 -17.8022 -17.8015 -17.8005
   -17.7986 -17.7950 -17.7923 -17.7847 -17.7827 -17.7648 -17.7637 -17.7404
   -17.7397 -17.7223 -17.7205 -17.7086 -17.7074 -17.7025 -17.7019 -11.8307
   -11.6984 -11.6588 -11.5985 -11.5291 -11.4974 -11.4952 -11.4847 -11.4784
   -11.4675 -11.4637 -11.4575 -11.4311 -11.4211 -11.4197 -11.3772 -11.3735
   -11.3607 -11.3445 -11.3272 -11.3169 -11.3110 -11.2988 -11.2856 -11.2701
   -11.2570 -11.2543 -11.2489 -11.2450 -11.2402 -11.2378 -11.2307 -11.2261
   -11.1900 -11.1823 -11.1741 -11.1692 -11.1650 -11.1496 -11.1482 -11.1461
   -11.1375 -11.1286 -11.1278 -11.1145 -11.0900 -11.0607 -11.0446 -11.0401
   -11.0377 -10.9943 -10.9483 -10.9335 -10.9222 -10.9050 -10.9018 -10.8903
   -10.8787 -10.8741 -10.8621 -10.8468 -10.8411 -10.8217 -10.8128 -10.8114
   -10.8053 -10.7947 -10.7938 -10.7931 -10.7928 -10.7916 -10.7802 -10.7780
   -10.7776 -10.7755 -10.7712 -10.7708 -10.7687 -10.7651 -10.7621 -10.7612
   -10.7425 -10.7269 -10.7263 -10.7260 -10.7233 -10.6277 -10.5462 -10.5170
   -10.5140 -10.4990 -10.4902 -10.4616 -10.4214 -10.3695 -10.3316 -10.3047
   -10.2207 -10.1989 -10.1347 -10.1235 -10.1212 -10.1140 -10.0856 -10.0761
   -10.0723 -10.0645 -10.0366 -10.0323 -10.0180 -10.0117 -10.0045 -10.0009
    -9.9979  -9.9874  -9.9791  -9.9598  -9.9150  -9.9092  -9.9048  -9.8982
    -9.8855  -9.8817  -9.8772  -9.8744  -9.8513  -9.8298  -9.8218  -9.8109
    -9.7907  -9.7750  -9.7707  -9.7526  -9.7486  -9.7479  -9.7245  -9.7001
    -9.6992  -9.6849  -9.6698  -9.6578  -9.6519  -9.6313  -9.6235  -9.6035
    -9.5920  -9.5866  -9.5667  -9.5486  -9.5428  -9.5261  -9.5210  -9.5166
    -9.5154  -9.4984  -9.4935  -9.4699  -9.4692  -9.4591  -9.4507  -9.4483
    -9.4451  -9.4380  -9.4351  -9.4264  -9.4114  -9.4060  -9.4040  -9.3463
    -9.3389  -9.2915  -9.2559  -9.2416  -9.2335  -9.2115  -9.1914  -9.1910
    -9.1790  -9.1710  -9.1631  -9.1500  -9.1390  -9.1216  -9.1156  -9.0956
    -9.0911  -9.0733  -9.0670  -9.0598  -9.0376  -9.0334  -9.0185  -9.0093
    -9.0084  -9.0044  -8.9982  -8.9681  -8.9537  -8.9460  -8.9382  -8.9292
    -8.9258  -8.9176  -8.9068  -8.8951  -8.8774  -8.8726  -8.8708  -8.8684
    -8.8665  -8.8623  -8.8576  -8.8533  -8.8522  -8.8483  -8.8407  -8.8365
    -8.8322  -8.8285  -8.8229  -8.8221  -8.8175  -8.8121  -8.8063  -8.7941
    -8.7813  -8.7752  -8.7693  -8.7669  -8.7645  -8.7638  -8.7606  -8.7443
    -8.7372  -8.7159  -8.7134  -8.7073  -8.7046  -8.6956  -8.6803  -8.6408
    -8.6355  -8.6284  -8.5990  -8.5605  -8.5447  -8.4868  -8.4855  -8.4358
    -8.4239  -8.3945  -8.3407  -8.3398  -8.3105  -8.3018  -8.2584  -8.1965
    -8.1329  -8.1115  -8.1108  -8.1070  -8.1007  -8.0982  -8.0900  -8.0885
    -8.0544  -8.0410  -8.0185  -7.9740  -7.9545  -7.9488  -7.9089  -7.8832
    -7.8701  -7.8263  -7.8244  -7.8197  -7.8137  -7.8128  -7.8102  -7.7995
    -7.7928  -7.7867  -7.7845  -7.7810  -7.7777  -7.7758  -7.7689  -7.7661
    -7.7652  -7.7639  -7.7621  -7.7562  -7.7522  -7.7506  -7.7485  -7.7474
    -7.7460  -7.7456  -7.7408  -7.7401  -7.7318  -7.7185  -7.7164  -7.7149
    -7.7091  -7.7051  -7.6988  -7.6954  -7.6870  -7.6792  -7.6780  -7.6772
    -7.6717  -7.6505  -7.6498  -7.6479  -7.6473  -7.6398  -7.6360  -7.6187
    -7.6145  -7.5965  -7.5922  -7.5894  -7.5865  -7.5819  -7.5780  -7.5723
    -7.5700  -7.5668  -7.5629  -7.5467  -7.5451  -7.5413  -7.5366  -7.5191
    -7.5158  -7.4976  -7.4488  -7.4453  -7.4361  -7.4298  -7.4257  -7.3810
    -7.3261  -7.2937  -7.2174  -7.1644  -7.1550  -7.1515  -7.1506  -7.1395
    -7.1127  -7.1119  -7.0961  -7.0933  -7.0848  -7.0783  -7.0518  -7.0417
    -7.0169  -7.0135  -7.0040  -7.0028  -6.9797  -6.9685  -6.9585  -6.9511
    -6.9187  -6.9074  -6.8966  -6.8840  -6.8797  -6.8646  -6.8561  -6.8477
    -6.8422  -6.8349  -6.8150  -6.7942  -6.7833  -6.7542  -6.7394  -6.7360
    -6.6885  -6.6771  -6.6711  -6.6577  -6.6347  -6.6204  -6.6064  -6.6025
    -6.5894  -6.5878  -6.5876  -6.5861  -6.5797  -6.5704  -6.5696  -6.5692
    -6.5684  -6.5624  -6.5621  -6.5621  -6.5618  -6.5213  -6.4969  -6.4724
    -6.4584  -6.4411  -6.4202  -6.3924  -6.3817  -6.3326  -6.3098  -6.3046
    -6.3016  -6.2960  -6.2901  -6.2681  -6.2656  -6.2602  -6.2573  -6.2562
    -6.2518  -6.2448  -6.2376  -6.2357  -6.2192  -6.2134  -6.2005  -6.1890
    -6.1876  -6.1837  -6.1807  -6.1700  -6.0469  -5.9918  -5.9800  -5.9715
    -5.9568  -5.9152  -5.9021  -5.8755  -5.8500  -5.8389  -5.8176  -5.8079
    -5.7479  -5.7255  -5.6432  -5.6106  -5.5710  -5.5671  -5.5197  -5.4994
    -5.2917  -4.3988  -4.0711  -4.0695  -4.0663  -4.0459  -3.9321  -3.9136
    -3.8940  -3.8907  -3.8846  -3.8396  -3.8244  -3.8225  -3.8105  -3.8037
    -3.7936  -3.7869  -3.7817  -3.7795  -3.7746  -3.7472  -3.6803  -3.6597
    -3.6579  -3.6156  -3.5984  -3.5825  -3.5811  -3.5804  -3.5779  -3.5577
    -3.5342  -3.5327  -3.5159  -3.5049  -3.4975  -3.4951  -3.4946  -3.4930
    -3.4669  -3.4644  -3.4589  -3.4544  -3.4526  -3.4514  -3.4487  -3.4320
    -3.4297  -3.4277  -3.4218  -3.4037  -3.4006  -3.3978  -3.3884  -3.3782
    -3.3415  -3.3314  -3.3289  -3.3265  -3.3260  -3.3225  -3.3207  -3.3164
    -3.2984  -3.2824  -3.2747  -3.2728  -3.2662  -3.2635  -3.2624  -3.2583
    -3.2555  -3.2536  -3.2339  -3.2307  -3.2261  -3.2177  -3.2145  -3.2121
    -3.1968  -3.1938  -3.1926  -3.1905  -3.1827  -3.1771  -3.1651  -3.1602
    -3.1543  -3.1512  -3.1447  -3.1440  -3.1440  -3.1332  -3.1232  -3.1110
    -3.0776  -3.0701  -3.0504  -3.0463  -3.0435  -3.0418  -3.0407  -3.0130
    -3.0098  -3.0045  -3.0039  -3.0033  -3.0015  -2.9997  -2.9992  -2.9884
    -2.9855  -2.9851  -2.9798  -2.9754  -2.9730  -2.9610  -2.9554  -2.9541
    -2.9507  -2.9492  -2.9455  -2.9410  -2.9322  -2.9314  -2.9298  -2.9275
    -2.9193  -2.9161  -2.9127  -2.9054  -2.9020  -2.8840  -2.8761  -2.8717
    -2.8656  -2.8592  -2.8550  -2.8409  -2.8339  -2.8267  -2.7767  -2.7721
    -2.7678  -2.7639  -2.7070  -2.6959  -2.6883  -2.6839  -2.5930  -2.5910
    -2.5653  -2.5578  -2.5457  -2.5343  -2.5247  -2.5133  -2.5082  -2.5060
    -2.5010  -2.4942  -2.4882  -2.4724  -2.4228  -2.4107  -2.3949  -2.3929
    -2.3784  -2.3633  -2.3547  -2.3459

          k =-0.5000-0.2887 0.0000 (386352 PWs)   bands (ev):

  -101.5808 -88.8816 -70.0204 -69.9973 -69.9803 -69.9130 -69.9088 -69.8187
   -69.8183 -66.6029 -66.6029 -66.6017 -66.6017 -66.6015 -66.6009 -66.6006
   -66.5979 -66.5923 -66.5923 -66.5911 -66.5911 -66.5901 -66.5900 -66.5861
   -66.5847 -66.5787 -66.5782 -66.5772 -66.5772 -66.5772 -66.5772 -66.5760
   -66.5759 -66.5759 -66.5759 -66.5757 -66.5751 -66.5750 -66.5749 -66.5749
   -66.5728 -66.5727 -66.5715 -66.5715 -66.5707 -66.5704 -66.5689 -66.5680
   -66.5670 -66.5665 -66.5665 -66.5665 -66.5664 -66.5652 -66.5652 -66.5652
   -66.5652 -66.5645 -66.5645 -66.5641 -66.5640 -66.5620 -66.5620 -66.5608
   -66.5608 -66.5598 -66.5598 -66.5471 -66.5439 -66.5341 -66.5328 -66.5004
   -66.4910 -56.3317 -55.5856 -55.4808 -54.7442 -54.6477 -54.6265 -40.9049
   -40.9049 -40.9049 -40.9049 -40.9044 -40.9044 -40.9044 -40.9044 -40.9032
   -40.9027 -40.9026 -40.9025 -40.9023 -40.8925 -40.8871 -40.8781 -40.8781
   -40.8775 -40.8775 -40.8759 -40.8756 -40.8740 -40.8707 -40.8676 -40.8661
   -40.8661 -40.8655 -40.8655 -40.8637 -40.8637 -40.8465 -40.8355 -40.8154
   -40.8154 -40.8154 -40.8154 -40.8147 -40.8147 -40.8147 -40.8147 -40.8130
   -40.8130 -40.8130 -40.8129 -40.7998 -40.7946 -40.7919 -40.7898 -40.7685
   -40.7566 -40.7566 -40.7560 -40.7560 -40.7557 -40.7544 -40.7543 -40.7471
   -40.7471 -40.7463 -40.7463 -40.7459 -40.7448 -40.7447 -40.7357 -40.7357
   -40.7351 -40.7351 -40.7335 -40.7335 -40.7321 -40.7280 -40.7212 -40.7188
   -40.7085 -40.7061 -40.7061 -40.7061 -40.7061 -40.7055 -40.7055 -40.7055
   -40.7055 -40.7039 -40.7039 -40.7039 -40.7038 -40.7030 -40.6974 -40.6973
   -40.6967 -40.6967 -40.6966 -40.6953 -40.6950 -40.6941 -40.6882 -40.6856
   -40.6856 -40.6851 -40.6851 -40.6850 -40.6850 -40.6848 -40.6848 -40.6844
   -40.6844 -40.6844 -40.6844 -40.6836 -40.6833 -40.6832 -40.6830 -40.6830
   -40.6828 -40.6826 -40.6787 -40.6764 -40.6764 -40.6757 -40.6757 -40.6757
   -40.6742 -40.6741 -40.6723 -40.6678 -40.6640 -40.6547 -40.6547 -40.6547
   -40.6546 -40.6538 -40.6538 -40.6538 -40.6538 -40.6526 -40.6525 -40.6521
   -40.6520 -40.6485 -40.6426 -40.6407 -40.6351 -40.6313 -40.6237 -40.6199
   -40.6199 -40.6199 -40.6199 -40.6191 -40.6191 -40.6191 -40.6191 -40.6177
   -40.6176 -40.6175 -40.6175 -40.6080 -40.6078 -40.6078 -40.6069 -40.6069
   -40.6055 -40.6053 -40.6045 -40.5975 -40.5921 -40.5887 -40.5885 -40.5884
   -40.5876 -40.5876 -40.5864 -40.5858 -40.5733 -40.5717 -40.5715 -40.5715
   -40.5706 -40.5706 -40.5692 -40.5691 -40.5649 -40.5491 -40.5408 -40.5408
   -40.5399 -40.5399 -40.5386 -40.5383 -40.5282 -40.5236 -40.5049 -19.8972
   -19.8662 -19.8384 -19.8017 -19.7388 -19.7127 -19.6367 -19.6278 -19.4501
   -19.4314 -19.4006 -19.3772 -19.3090 -19.2924 -19.2113 -19.2048 -18.9283
   -18.8017 -18.7515 -18.7472 -18.7341 -18.7143 -18.7067 -18.7004 -18.6972
   -18.6820 -18.6593 -18.6399 -18.6269 -18.6230 -18.6095 -18.5974 -18.5626
   -18.5565 -18.5415 -18.5386 -18.5294 -18.5264 -18.5148 -18.4931 -18.4678
   -18.4637 -18.4595 -18.4478 -18.4365 -18.4170 -18.3952 -18.3892 -18.3778
   -18.3586 -18.3484 -18.3271 -18.3130 -18.3077 -18.2916 -18.2488 -18.2327
   -18.2239 -18.2118 -18.2065 -18.1805 -18.1626 -18.1516 -18.1297 -18.1034
   -18.0988 -18.0898 -18.0877 -18.0837 -18.0832 -18.0803 -18.0780 -18.0588
   -18.0555 -18.0532 -18.0491 -18.0469 -18.0438 -18.0303 -18.0281 -18.0250
   -18.0189 -18.0124 -18.0105 -17.9935 -17.9896 -17.9840 -17.9831 -17.9789
   -17.9780 -17.9714 -17.9700 -17.9648 -17.9570 -17.9288 -17.9186 -17.9178
   -17.9151 -17.9012 -17.8994 -17.8763 -17.8703 -17.8541 -17.8536 -17.8314
   -17.8289 -17.8203 -17.8193 -17.8076 -17.8038 -17.8022 -17.8015 -17.8005
   -17.7986 -17.7950 -17.7923 -17.7847 -17.7827 -17.7648 -17.7637 -17.7404
   -17.7397 -17.7223 -17.7206 -17.7086 -17.7074 -17.7024 -17.7019 -11.8307
   -11.6984 -11.6588 -11.5984 -11.5291 -11.4975 -11.4952 -11.4848 -11.4784
   -11.4675 -11.4637 -11.4575 -11.4311 -11.4211 -11.4197 -11.3772 -11.3735
   -11.3607 -11.3445 -11.3272 -11.3169 -11.3110 -11.2988 -11.2856 -11.2701
   -11.2570 -11.2543 -11.2489 -11.2450 -11.2402 -11.2377 -11.2307 -11.2261
   -11.1900 -11.1823 -11.1741 -11.1692 -11.1650 -11.1495 -11.1482 -11.1461
   -11.1375 -11.1286 -11.1278 -11.1145 -11.0900 -11.0607 -11.0446 -11.0401
   -11.0377 -10.9943 -10.9483 -10.9335 -10.9222 -10.9050 -10.9018 -10.8903
   -10.8787 -10.8742 -10.8621 -10.8468 -10.8411 -10.8218 -10.8128 -10.8114
   -10.8053 -10.7947 -10.7938 -10.7931 -10.7929 -10.7916 -10.7802 -10.7780
   -10.7776 -10.7755 -10.7712 -10.7708 -10.7687 -10.7651 -10.7621 -10.7612
   -10.7425 -10.7269 -10.7263 -10.7260 -10.7233 -10.6277 -10.5462 -10.5170
   -10.5140 -10.4990 -10.4902 -10.4616 -10.4214 -10.3695 -10.3316 -10.3047
   -10.2207 -10.1989 -10.1348 -10.1235 -10.1212 -10.1140 -10.0856 -10.0761
   -10.0723 -10.0645 -10.0366 -10.0323 -10.0180 -10.0117 -10.0045 -10.0009
    -9.9979  -9.9874  -9.9791  -9.9598  -9.9149  -9.9092  -9.9049  -9.8982
    -9.8855  -9.8817  -9.8772  -9.8744  -9.8513  -9.8298  -9.8218  -9.8109
    -9.7907  -9.7750  -9.7707  -9.7526  -9.7486  -9.7479  -9.7245  -9.7001
    -9.6992  -9.6849  -9.6698  -9.6578  -9.6519  -9.6313  -9.6235  -9.6035
    -9.5920  -9.5866  -9.5667  -9.5486  -9.5428  -9.5261  -9.5210  -9.5166
    -9.5154  -9.4984  -9.4935  -9.4699  -9.4692  -9.4591  -9.4507  -9.4483
    -9.4450  -9.4380  -9.4351  -9.4264  -9.4114  -9.4060  -9.4040  -9.3463
    -9.3389  -9.2915  -9.2559  -9.2416  -9.2335  -9.2115  -9.1914  -9.1910
    -9.1789  -9.1710  -9.1631  -9.1501  -9.1390  -9.1216  -9.1156  -9.0956
    -9.0911  -9.0733  -9.0670  -9.0598  -9.0376  -9.0334  -9.0185  -9.0093
    -9.0084  -9.0044  -8.9982  -8.9681  -8.9537  -8.9460  -8.9382  -8.9292
    -8.9257  -8.9176  -8.9068  -8.8950  -8.8774  -8.8726  -8.8708  -8.8684
    -8.8665  -8.8623  -8.8576  -8.8533  -8.8522  -8.8483  -8.8406  -8.8365
    -8.8321  -8.8285  -8.8229  -8.8221  -8.8175  -8.8121  -8.8063  -8.7941
    -8.7813  -8.7752  -8.7693  -8.7670  -8.7645  -8.7638  -8.7606  -8.7443
    -8.7372  -8.7159  -8.7134  -8.7073  -8.7046  -8.6956  -8.6803  -8.6408
    -8.6355  -8.6284  -8.5990  -8.5604  -8.5447  -8.4868  -8.4855  -8.4358
    -8.4239  -8.3946  -8.3406  -8.3398  -8.3105  -8.3018  -8.2584  -8.1965
    -8.1329  -8.1116  -8.1108  -8.1070  -8.1007  -8.0983  -8.0900  -8.0885
    -8.0544  -8.0410  -8.0185  -7.9739  -7.9545  -7.9488  -7.9088  -7.8832
    -7.8701  -7.8263  -7.8244  -7.8196  -7.8137  -7.8127  -7.8102  -7.7995
    -7.7928  -7.7867  -7.7844  -7.7810  -7.7777  -7.7758  -7.7688  -7.7661
    -7.7652  -7.7639  -7.7621  -7.7562  -7.7522  -7.7506  -7.7485  -7.7474
    -7.7460  -7.7457  -7.7408  -7.7401  -7.7318  -7.7185  -7.7164  -7.7149
    -7.7091  -7.7051  -7.6988  -7.6954  -7.6870  -7.6792  -7.6780  -7.6772
    -7.6717  -7.6505  -7.6498  -7.6479  -7.6473  -7.6398  -7.6360  -7.6187
    -7.6145  -7.5965  -7.5922  -7.5894  -7.5865  -7.5819  -7.5780  -7.5723
    -7.5699  -7.5668  -7.5629  -7.5466  -7.5451  -7.5413  -7.5366  -7.5191
    -7.5158  -7.4975  -7.4488  -7.4453  -7.4361  -7.4298  -7.4257  -7.3810
    -7.3261  -7.2937  -7.2174  -7.1644  -7.1550  -7.1515  -7.1506  -7.1395
    -7.1127  -7.1119  -7.0961  -7.0933  -7.0848  -7.0783  -7.0518  -7.0417
    -7.0170  -7.0135  -7.0039  -7.0028  -6.9797  -6.9685  -6.9585  -6.9511
    -6.9187  -6.9075  -6.8966  -6.8840  -6.8797  -6.8646  -6.8561  -6.8477
    -6.8422  -6.8349  -6.8150  -6.7942  -6.7833  -6.7542  -6.7394  -6.7360
    -6.6885  -6.6771  -6.6711  -6.6577  -6.6347  -6.6204  -6.6064  -6.6025
    -6.5894  -6.5878  -6.5875  -6.5861  -6.5797  -6.5704  -6.5696  -6.5692
    -6.5684  -6.5624  -6.5621  -6.5621  -6.5618  -6.5213  -6.4970  -6.4724
    -6.4583  -6.4411  -6.4202  -6.3924  -6.3818  -6.3326  -6.3097  -6.3046
    -6.3016  -6.2960  -6.2901  -6.2681  -6.2656  -6.2602  -6.2573  -6.2562
    -6.2518  -6.2448  -6.2376  -6.2358  -6.2191  -6.2134  -6.2006  -6.1890
    -6.1875  -6.1838  -6.1806  -6.1700  -6.0469  -5.9918  -5.9800  -5.9716
    -5.9568  -5.9152  -5.9021  -5.8755  -5.8500  -5.8389  -5.8176  -5.8079
    -5.7479  -5.7255  -5.6432  -5.6106  -5.5710  -5.5671  -5.5197  -5.4994
    -5.2917  -4.3988  -4.0712  -4.0695  -4.0663  -4.0459  -3.9321  -3.9136
    -3.8940  -3.8906  -3.8845  -3.8396  -3.8244  -3.8225  -3.8105  -3.8037
    -3.7936  -3.7869  -3.7817  -3.7795  -3.7746  -3.7472  -3.6803  -3.6596
    -3.6579  -3.6156  -3.5984  -3.5825  -3.5811  -3.5804  -3.5779  -3.5577
    -3.5342  -3.5327  -3.5159  -3.5049  -3.4974  -3.4951  -3.4946  -3.4930
    -3.4669  -3.4644  -3.4589  -3.4544  -3.4525  -3.4514  -3.4487  -3.4320
    -3.4297  -3.4277  -3.4219  -3.4037  -3.4006  -3.3978  -3.3884  -3.3782
    -3.3415  -3.3314  -3.3289  -3.3265  -3.3260  -3.3225  -3.3207  -3.3164
    -3.2984  -3.2824  -3.2747  -3.2728  -3.2662  -3.2635  -3.2624  -3.2583
    -3.2555  -3.2537  -3.2340  -3.2307  -3.2261  -3.2177  -3.2145  -3.2121
    -3.1968  -3.1938  -3.1926  -3.1905  -3.1827  -3.1771  -3.1650  -3.1602
    -3.1543  -3.1511  -3.1447  -3.1440  -3.1440  -3.1331  -3.1231  -3.1109
    -3.0775  -3.0700  -3.0504  -3.0463  -3.0435  -3.0418  -3.0406  -3.0130
    -3.0098  -3.0045  -3.0039  -3.0033  -3.0015  -2.9997  -2.9992  -2.9883
    -2.9855  -2.9851  -2.9798  -2.9754  -2.9730  -2.9609  -2.9554  -2.9541
    -2.9506  -2.9492  -2.9455  -2.9409  -2.9321  -2.9314  -2.9299  -2.9275
    -2.9192  -2.9161  -2.9126  -2.9053  -2.9017  -2.8838  -2.8760  -2.8716
    -2.8656  -2.8592  -2.8549  -2.8395  -2.8335  -2.8257  -2.7766  -2.7720
    -2.7677  -2.7638  -2.7068  -2.6957  -2.6882  -2.6836  -2.5928  -2.5909
    -2.5639  -2.5564  -2.5335  -2.5324  -2.5239  -2.5123  -2.5081  -2.5055
    -2.4997  -2.4941  -2.4875  -2.4721  -2.4273  -2.4148  -2.4004  -2.3980
    -2.3784  -2.3620  -2.3532  -2.3453

          k =-0.5000-0.8660 0.0000 (386352 PWs)   bands (ev):

  -101.5808 -88.8816 -70.0204 -69.9973 -69.9803 -69.9130 -69.9088 -69.8187
   -69.8183 -66.6030 -66.6029 -66.6017 -66.6017 -66.6013 -66.6008 -66.6006
   -66.5981 -66.5923 -66.5923 -66.5911 -66.5911 -66.5901 -66.5900 -66.5873
   -66.5826 -66.5786 -66.5786 -66.5772 -66.5772 -66.5772 -66.5772 -66.5761
   -66.5760 -66.5759 -66.5759 -66.5759 -66.5752 -66.5750 -66.5749 -66.5749
   -66.5728 -66.5727 -66.5715 -66.5715 -66.5707 -66.5704 -66.5702 -66.5676
   -66.5665 -66.5665 -66.5665 -66.5664 -66.5663 -66.5653 -66.5652 -66.5652
   -66.5652 -66.5645 -66.5643 -66.5642 -66.5640 -66.5620 -66.5620 -66.5608
   -66.5608 -66.5599 -66.5597 -66.5471 -66.5438 -66.5336 -66.5333 -66.5004
   -66.4910 -56.3317 -55.5856 -55.4808 -54.7442 -54.6477 -54.6265 -40.9049
   -40.9049 -40.9049 -40.9049 -40.9044 -40.9044 -40.9044 -40.9043 -40.9030
   -40.9026 -40.9025 -40.9025 -40.9025 -40.8981 -40.8844 -40.8781 -40.8781
   -40.8775 -40.8775 -40.8758 -40.8757 -40.8735 -40.8695 -40.8661 -40.8661
   -40.8659 -40.8655 -40.8655 -40.8637 -40.8636 -40.8501 -40.8277 -40.8154
   -40.8154 -40.8154 -40.8154 -40.8147 -40.8147 -40.8147 -40.8147 -40.8130
   -40.8130 -40.8130 -40.8129 -40.8037 -40.7957 -40.7914 -40.7881 -40.7689
   -40.7566 -40.7565 -40.7560 -40.7560 -40.7553 -40.7544 -40.7543 -40.7471
   -40.7471 -40.7463 -40.7463 -40.7448 -40.7447 -40.7447 -40.7357 -40.7357
   -40.7351 -40.7351 -40.7346 -40.7335 -40.7335 -40.7310 -40.7220 -40.7168
   -40.7061 -40.7061 -40.7061 -40.7061 -40.7060 -40.7055 -40.7055 -40.7055
   -40.7055 -40.7048 -40.7039 -40.7039 -40.7038 -40.7038 -40.6996 -40.6974
   -40.6973 -40.6967 -40.6967 -40.6952 -40.6951 -40.6911 -40.6882 -40.6856
   -40.6856 -40.6851 -40.6851 -40.6850 -40.6850 -40.6848 -40.6848 -40.6844
   -40.6844 -40.6844 -40.6844 -40.6833 -40.6832 -40.6829 -40.6829 -40.6828
   -40.6827 -40.6813 -40.6809 -40.6764 -40.6764 -40.6757 -40.6757 -40.6756
   -40.6747 -40.6742 -40.6742 -40.6690 -40.6649 -40.6547 -40.6547 -40.6547
   -40.6546 -40.6538 -40.6538 -40.6538 -40.6538 -40.6526 -40.6525 -40.6521
   -40.6520 -40.6432 -40.6429 -40.6375 -40.6370 -40.6326 -40.6236 -40.6199
   -40.6199 -40.6199 -40.6199 -40.6191 -40.6191 -40.6191 -40.6191 -40.6176
   -40.6176 -40.6175 -40.6175 -40.6135 -40.6078 -40.6078 -40.6069 -40.6069
   -40.6055 -40.6054 -40.5994 -40.5982 -40.5921 -40.5885 -40.5884 -40.5877
   -40.5876 -40.5876 -40.5864 -40.5858 -40.5777 -40.5721 -40.5715 -40.5715
   -40.5706 -40.5706 -40.5692 -40.5690 -40.5599 -40.5427 -40.5408 -40.5408
   -40.5399 -40.5399 -40.5386 -40.5383 -40.5338 -40.5260 -40.5039 -19.8912
   -19.8685 -19.8361 -19.8085 -19.7377 -19.7191 -19.6365 -19.6302 -19.4400
   -19.4319 -19.3931 -19.3786 -19.3048 -19.2939 -19.2098 -19.2055 -18.9645
   -18.7885 -18.7450 -18.7439 -18.7232 -18.7104 -18.7078 -18.6971 -18.6951
   -18.6841 -18.6564 -18.6406 -18.6291 -18.6229 -18.6114 -18.5855 -18.5823
   -18.5525 -18.5413 -18.5398 -18.5323 -18.5199 -18.5177 -18.5007 -18.4909
   -18.4605 -18.4553 -18.4461 -18.4374 -18.4223 -18.3931 -18.3916 -18.3859
   -18.3641 -18.3315 -18.3296 -18.3117 -18.3082 -18.2647 -18.2503 -18.2328
   -18.2191 -18.2186 -18.2024 -18.1770 -18.1671 -18.1604 -18.1160 -18.1118
   -18.0940 -18.0887 -18.0848 -18.0834 -18.0833 -18.0771 -18.0740 -18.0694
   -18.0536 -18.0520 -18.0486 -18.0468 -18.0376 -18.0338 -18.0256 -18.0251
   -18.0194 -18.0161 -18.0134 -17.9896 -17.9889 -17.9877 -17.9828 -17.9792
   -17.9776 -17.9761 -17.9733 -17.9661 -17.9566 -17.9257 -17.9199 -17.9162
   -17.9129 -17.9083 -17.9019 -17.8751 -17.8729 -17.8615 -17.8551 -17.8338
   -17.8302 -17.8233 -17.8197 -17.8085 -17.8027 -17.8016 -17.8015 -17.8004
   -17.7985 -17.7964 -17.7889 -17.7844 -17.7751 -17.7661 -17.7614 -17.7417
   -17.7390 -17.7232 -17.7186 -17.7086 -17.7057 -17.7024 -17.7004 -11.8264
   -11.7042 -11.6629 -11.5774 -11.5221 -11.5177 -11.4987 -11.4925 -11.4726
   -11.4690 -11.4619 -11.4611 -11.4408 -11.4276 -11.4114 -11.3851 -11.3673
   -11.3566 -11.3492 -11.3314 -11.3250 -11.3018 -11.2987 -11.2774 -11.2672
   -11.2643 -11.2535 -11.2468 -11.2454 -11.2430 -11.2386 -11.2258 -11.2241
   -11.1888 -11.1794 -11.1749 -11.1722 -11.1575 -11.1503 -11.1474 -11.1463
   -11.1396 -11.1272 -11.1270 -11.0979 -11.0884 -11.0623 -11.0493 -11.0485
   -11.0344 -10.9893 -10.9609 -10.9414 -10.9231 -10.9127 -10.8943 -10.8931
   -10.8769 -10.8741 -10.8542 -10.8428 -10.8257 -10.8222 -10.8116 -10.8111
   -10.8019 -10.7947 -10.7940 -10.7935 -10.7931 -10.7903 -10.7841 -10.7789
   -10.7774 -10.7760 -10.7756 -10.7729 -10.7701 -10.7635 -10.7623 -10.7613
   -10.7480 -10.7267 -10.7262 -10.7261 -10.7242 -10.6337 -10.5235 -10.5172
   -10.5114 -10.5000 -10.4647 -10.4608 -10.4089 -10.3652 -10.3594 -10.3245
   -10.2331 -10.2025 -10.1476 -10.1231 -10.1169 -10.1125 -10.0910 -10.0767
   -10.0653 -10.0624 -10.0345 -10.0278 -10.0254 -10.0112 -10.0076 -10.0066
    -9.9986  -9.9785  -9.9750  -9.9629  -9.9171  -9.9090  -9.9033  -9.8972
    -9.8859  -9.8822  -9.8807  -9.8657  -9.8533  -9.8456  -9.8212  -9.8200
    -9.7843  -9.7728  -9.7623  -9.7563  -9.7520  -9.7442  -9.7300  -9.7120
    -9.7019  -9.6758  -9.6633  -9.6614  -9.6394  -9.6331  -9.6305  -9.5971
    -9.5919  -9.5917  -9.5657  -9.5426  -9.5376  -9.5318  -9.5221  -9.5186
    -9.5115  -9.5005  -9.4918  -9.4713  -9.4688  -9.4667  -9.4494  -9.4477
    -9.4464  -9.4400  -9.4334  -9.4222  -9.4123  -9.4048  -9.4000  -9.3734
    -9.3304  -9.2882  -9.2797  -9.2337  -9.2188  -9.2048  -9.1968  -9.1924
    -9.1762  -9.1652  -9.1650  -9.1572  -9.1389  -9.1294  -9.1177  -9.0982
    -9.0835  -9.0724  -9.0510  -9.0497  -9.0353  -9.0308  -9.0261  -9.0200
    -9.0030  -9.0011  -8.9946  -8.9563  -8.9514  -8.9465  -8.9381  -8.9333
    -8.9288  -8.9215  -8.9137  -8.8929  -8.8741  -8.8716  -8.8698  -8.8684
    -8.8629  -8.8552  -8.8547  -8.8522  -8.8487  -8.8480  -8.8470  -8.8404
    -8.8357  -8.8292  -8.8291  -8.8227  -8.8222  -8.8148  -8.8077  -8.7846
    -8.7821  -8.7725  -8.7718  -8.7707  -8.7647  -8.7641  -8.7596  -8.7435
    -8.7376  -8.7159  -8.7133  -8.7099  -8.7082  -8.7045  -8.6683  -8.6431
    -8.6310  -8.6229  -8.5958  -8.5629  -8.5111  -8.4865  -8.4770  -8.4263
    -8.4194  -8.4083  -8.3427  -8.3403  -8.3266  -8.3015  -8.2689  -8.2174
    -8.1116  -8.1109  -8.1074  -8.1008  -8.0995  -8.0984  -8.0901  -8.0885
    -8.0475  -8.0170  -8.0130  -7.9562  -7.9534  -7.9462  -7.9416  -7.9189
    -7.8616  -7.8395  -7.8227  -7.8212  -7.8165  -7.8140  -7.8024  -7.7933
    -7.7903  -7.7854  -7.7827  -7.7774  -7.7743  -7.7717  -7.7703  -7.7684
    -7.7653  -7.7644  -7.7587  -7.7573  -7.7554  -7.7511  -7.7493  -7.7490
    -7.7471  -7.7467  -7.7431  -7.7403  -7.7389  -7.7253  -7.7194  -7.7149
    -7.7106  -7.7014  -7.6976  -7.6926  -7.6903  -7.6790  -7.6786  -7.6769
    -7.6752  -7.6507  -7.6500  -7.6497  -7.6474  -7.6322  -7.6297  -7.6134
    -7.6111  -7.6028  -7.5972  -7.5901  -7.5881  -7.5786  -7.5782  -7.5743
    -7.5718  -7.5662  -7.5625  -7.5538  -7.5466  -7.5451  -7.5420  -7.5285
    -7.5203  -7.5010  -7.4592  -7.4427  -7.4369  -7.4330  -7.4165  -7.3996
    -7.3469  -7.2220  -7.1823  -7.1608  -7.1598  -7.1520  -7.1462  -7.1393
    -7.1360  -7.1145  -7.0941  -7.0864  -7.0859  -7.0840  -7.0654  -7.0327
    -7.0146  -7.0142  -7.0079  -7.0034  -6.9798  -6.9684  -6.9589  -6.9501
    -6.9232  -6.9074  -6.8971  -6.8964  -6.8893  -6.8628  -6.8571  -6.8469
    -6.8423  -6.8395  -6.8229  -6.8100  -6.7665  -6.7421  -6.7400  -6.7391
[...]
     atom  170 type  1   force =    -0.00001750   -0.00001060    0.00001675
     atom  171 type  2   force =    -0.00000504    0.00000108    0.00000231
     atom  172 type  2   force =    -0.00000245    0.00000184    0.00161539
     atom  173 type  2   force =    -0.00000267    0.00000133   -0.00235988
     atom  174 type  2   force =    -0.00001159    0.00000389    0.00004686
     atom  175 type  1   force =    -0.00003454    0.00001356   -0.00000485
     atom  176 type  1   force =    -0.00007583   -0.00004509   -0.00014628
     atom  177 type  2   force =     0.00022106    0.00018300   -0.00033746
     atom  178 type  2   force =    -0.00002770    0.00000779    0.00006134
     atom  179 type  2   force =    -0.00004501    0.00001665    0.00008247
     atom  180 type  2   force =    -0.00022928    0.00009281   -0.00001574
     atom  181 type  1   force =    -0.00000050    0.00000142    0.00068782
     atom  182 type  1   force =    -0.00001362   -0.00000752    0.00000962
     atom  183 type  2   force =    -0.00000393   -0.00000028    0.00000299
     atom  184 type  2   force =    -0.00000254    0.00000190    0.00161545
     atom  185 type  2   force =    -0.00000278    0.00000134   -0.00235992
     atom  186 type  2   force =    -0.00000971    0.00000143    0.00005376
     atom  187 type  1   force =    -0.00003090    0.00003871   -0.00003017
     atom  188 type  1   force =     0.00001594   -0.00002982   -0.00005943
     atom  189 type  2   force =     0.00012442   -0.00037240   -0.00000664
     atom  190 type  2   force =    -0.00005391    0.00005010    0.00006554
     atom  191 type  2   force =    -0.00002798   -0.00000297    0.00009005
     atom  192 type  2   force =     0.00022960   -0.00009549    0.00009352
     atom  193 type  3   force =     0.00048637   -0.00028161   -0.00096386
     atom  194 type  4   force =     0.00032543   -0.00019331    0.00057150

     Total force =     0.003432     Total SCF correction =     0.000505
     SCF correction compared to forces is large: reduce conv_thr to get better values
     Energy error            =      3.4E-05 Ry
     Gradient error          =      9.6E-04 Ry/Bohr

     bfgs converged in  33 scf cycles and  31 bfgs steps
     (criteria: energy <  1.0E-04 Ry, force <  1.0E-03 Ry/Bohr)

     End of BFGS Geometry Optimization

     Final energy             =  -33980.2769986187 Ry

     File ./outdir/pwscf.bfgs deleted, as requested
Begin final coordinates

ATOMIC_POSITIONS (angstrom)
Mo               0.0000119917        1.8193638619       -9.1672481230    0   0   0
Mo               1.5756136568        0.9097075315       -3.0554901653    0   0   0
S                0.0000188998        1.8193822938       -4.6232556019    0   0   0
S                1.5756321638        0.9096773839       -7.6014065489    0   0   0
S                1.5756326175        0.9096785128      -10.7330757790    0   0   0
S                0.0000189190        1.8193860094       -1.4877129945    0   0   0
Mo              -0.0014934549        1.8203606721        3.0600979332
Mo               1.5549562851        0.9157575460        9.1636367724
S               -0.0255648491        1.8263632284        7.5888691049
S                1.5741861500        0.9103638164        4.6273629395
S                1.5744469152        0.9104634740        1.4921799753
S               -0.0287185648        1.8142199538       10.7327420248
Mo              -1.5756053507        4.5484193819       -9.1672481230    0   0   0
Mo               0.0000378379        3.6387394919       -3.0554952701    0   0   0
S               -1.5755913433        4.5484363582       -4.6232494962    0   0   0
S                0.0000148214        3.6387329039       -7.6014065489    0   0   0
S                0.0000152751        3.6387340328      -10.7330757790    0   0   0
S               -1.5755906502        4.5484413613       -1.4877305502    0   0   0
Mo              -1.5770267501        4.5495049086        3.0602486673
Mo              -0.0444823342        3.6334401422        9.1632114091
S               -1.6163255440        4.5760354709        7.6168802349
S               -0.0016751381        3.6400297992        4.6282295520
S               -0.0013156771        3.6395528531        1.4922619605
S               -1.5969452760        4.5446160721       10.7570624863
Mo              -3.1512226931        7.2774749019       -9.1672481230    0   0   0
Mo              -1.5755910988        6.3678216792       -3.0555115988    0   0   0
S               -3.1512162438        7.2774954350       -4.6232578178    0   0   0
S               -1.5756025210        6.3677884239       -7.6014065489    0   0   0
S               -1.5756020673        6.3677895528      -10.7330757790    0   0   0
S               -3.1512127704        7.2774877076       -1.4877200710    0   0   0
Mo              -3.1520934760        7.2781897596        3.0599338473
Mo              -1.5955413273        6.3769423235        9.2127971254
S               -3.1540018669        7.2834164986        7.6267870874
S               -1.5762007942        6.3692009374        4.6281963685
S               -1.5766798204        6.3683733351        1.4918250843
S               -3.1800529523        7.2941202435       10.7681795233
Mo              -4.7268400355       10.0065304219       -9.1672481230    0   0   0
Mo              -3.1512405618        9.0968403586       -3.0554816746    0   0   0
S               -4.7268341792       10.0065523623       -4.6232463762    0   0   0
S               -3.1512198634        9.0968439439       -7.6014065489    0   0   0
S               -3.1512194097        9.0968450728      -10.7330757790    0   0   0
S               -4.7268370797       10.0065537885       -1.4877176751    0   0   0
Mo              -4.7278751713       10.0071623892        3.0598790486
Mo              -3.1674596220        9.1062695140        9.1879900279
S               -4.7329719892       10.0101260841        7.6028029505
S               -3.1520803405        9.0973734528        4.6279899581
S               -3.1522274509        9.0974593791        1.4919730523
S               -4.7532303254       10.0218111000       10.7401856080
Mo               3.1512517547        1.8193638619       -9.1672481230    0   0   0
Mo               4.7269020221        0.9097289540       -3.0554823951    0   0   0
S                3.1512612351        1.8193882564       -4.6232320683    0   0   0
S                4.7268719268        0.9096773839       -7.6014065489    0   0   0
S                4.7268723805        0.9096785128      -10.7330757790    0   0   0
S                3.1512592485        1.8193890201       -1.4877261251    0   0   0
Mo               3.1501268555        1.8200748224        3.0602553283
Mo               4.7033598921        0.9165271069        9.1878820480
S                3.1378593174        1.8084712389        7.5933275061
S                4.7261551690        0.9100947091        4.6277338860
S                4.7255393167        0.9101929073        1.4919346023
S                3.1226836094        1.8211405618       10.7412244478
Mo               1.5756344123        4.5484193819       -9.1672481230    0   0   0
Mo               3.1512756394        3.6387769522       -3.0554814834    0   0   0
S                1.5756504879        4.5484423799       -4.6232390542    0   0   0
S                3.1512545844        3.6387329039       -7.6014065489    0   0   0
S                3.1512550381        3.6387340328      -10.7330757790    0   0   0
S                1.5756466253        4.5484431864       -1.4877251801    0   0   0
Mo               1.5741668755        4.5493825673        3.0600250716
Mo               3.1174458549        3.6247009962        9.1550321417
S                1.5412145798        4.5795859193        7.6296041940
S                3.1496390318        3.6398404103        4.6282676803
S                3.1499355581        3.6393723508        1.4922181894
S                1.5355396169        4.4203509756       10.7647445951
Mo               0.0000170699        7.2774749019       -9.1672481230    0   0   0
Mo               1.5756764447        6.3678236689       -3.0554877708    0   0   0
S                0.0000381981        7.2774979204       -4.6232454413    0   0   0
S                1.5756372420        6.3677884239       -7.6014065489    0   0   0
S                1.5756376957        6.3677895528      -10.7330757790    0   0   0
S                0.0000328088        7.2774946042       -1.4877307940    0   0   0
Mo              -0.0010719145        7.2781357584        3.0593515504
Mo               1.5714204450        6.3702756936        9.2351021401
S                0.0043602075        7.2750130651        7.6721645378
S                1.5739300051        6.3688065336        4.6275569344
S                1.5747036737        6.3683595249        1.4916557428
S               -0.0559035399        7.3098116774       10.8349630049
Mo              -1.5756002725       10.0065304219       -9.1672481230    0   0   0
Mo               0.0000873425        9.0968676911       -3.0554912329    0   0   0
S               -1.5755883952       10.0065504530       -4.6232240150    0   0   0
S                0.0000198996        9.0968439439       -7.6014065489    0   0   0
S                0.0000203533        9.0968450728      -10.7330757790    0   0   0
S               -1.5755859047       10.0065492576       -1.4877362381    0   0   0
Mo              -1.5766258538       10.0069772173        3.0599343952
Mo              -0.0178333075        9.1096082527        9.2127953303
S               -1.5820962204       10.0060442744        7.6267884087
S               -0.0014762669        9.0967048023        4.6281955329
S               -0.0009977022        9.0975339871        1.4918240358
S               -1.6043863309       10.0232448327       10.7681809414
Mo               6.3024915177        1.8193638619       -9.1672481230    0   0   0
Mo               7.8781001445        0.9096521684       -3.0554919963    0   0   0
S                6.3025008696        1.8193826232       -4.6232480596    0   0   0
S                7.8781116898        0.9096773839       -7.6014065489    0   0   0
S                7.8781121435        0.9096785128      -10.7330757790    0   0   0
S                6.3025042007        1.8193849068       -1.4877147524    0   0   0
Mo               6.3010884926        1.8201765195        3.0595243983
Mo               7.8483791558        0.9281874071        9.1897738293
S                6.2750079699        1.8424252034        7.6271083891
S                7.8761883104        0.9107922277        4.6278218309
S                7.8768289527        0.9102327217        1.4918372538
S                6.2715547432        1.8291472096       10.7664052884
Mo               4.7268741753        4.5484193819       -9.1672481230    0   0   0
Mo               6.3024679138        3.6387501714       -3.0554895197    0   0   0
S                4.7268748770        4.5484386753       -4.6232519432    0   0   0
S                6.3024943474        3.6387329039       -7.6014065489    0   0   0
S                6.3024948011        3.6387340328      -10.7330757790    0   0   0
S                4.7268770533        4.5484432419       -1.4877137856    0   0   0
Mo               4.7253624265        4.5493235423        3.0600418428
Mo               6.2770894270        3.6534519795        9.2110497280
S                4.7104678247        4.5579332937        7.6181273486
S                6.3009882887        3.6396360389        4.6271925926
S                6.3009247599        3.6396696419        1.4916339702
S                4.6466456836        4.5948051523       10.7273579622
Mo               3.1512568329        7.2774749019       -9.1672481230    0   0   0
Mo               4.7268384135        6.3678043337       -3.0554959052    0   0   0
S                3.1512606125        7.2774972547       -4.6232589675    0   0   0
S                4.7268770050        6.3677884239       -7.6014065489    0   0   0
S                4.7268774587        6.3677895528      -10.7330757790    0   0   0
S                3.1512629079        7.2774963749       -1.4877081835    0   0   0
Mo               3.1497160304        7.2783103060        3.0600253261
Mo               4.7221727597        6.4041613618        9.1550084382
S                3.1070921757        7.2917735629        7.6295922287
S                4.7251380162        6.3686822547        4.6282693346
S                4.7256924364        6.3686599368        1.4922180259
S                3.2421790480        7.3763166436       10.7647241476
Mo               1.5756394905       10.0065304219       -9.1672481230    0   0   0
Mo               3.1512330605        9.0968514907       -3.0554878870    0   0   0
S                1.5756499830       10.0065443759       -4.6232632674    0   0   0
S                3.1512596626        9.0968439439       -7.6014065489    0   0   0
S                3.1512601163        9.0968450728      -10.7330757790    0   0   0
S                1.5756503041       10.0065459699       -1.4877044377    0   0   0
Mo               1.5740163823       10.0072657260        3.0602514806
Mo               3.1336358588        9.1381045031        9.1631959651
S                1.5313995500       10.0280640001        7.6168726131
S                3.1493211637        9.0977072707        4.6282295695
S                3.1499128698        9.0976350956        1.4922611956
S                1.5683098700       10.0269834965       10.7570539953
Mo               9.4537312807        1.8193638619       -9.1672481230    0   0   0
Mo              11.0293863460        0.9096952246       -3.0554894007    0   0   0
S                9.4537395970        1.8193770750       -4.6232328036    0   0   0
S               11.0293514528        0.9096773839       -7.6014065489    0   0   0
S               11.0293519066        0.9096785128      -10.7330757790    0   0   0
S                9.4537393632        1.8193794783       -1.4877366147    0   0   0
Mo               9.4519530724        1.8204238651        3.0596971559
Mo              11.0043849452        0.9241426002        9.1608934995
S                9.4146000101        1.8420063530        7.6123058454
S               11.0270599320        0.9110330414        4.6272584023
S               11.0281050865        0.9104288295        1.4920778701
S                9.4350577849        1.8301919889       10.7477581768
Mo               7.8781139383        4.5484193819       -9.1672481230    0   0   0
Mo               9.4537539161        3.6387607911       -3.0554933032    0   0   0
S                7.8781175448        4.5484378232       -4.6232366318    0   0   0
S                9.4537341104        3.6387329039       -7.6014065489    0   0   0
S                9.4537345641        3.6387340328      -10.7330757790    0   0   0
S                7.8781194018        4.5484411585       -1.4877377057    0   0   0
Mo               7.8767375976        4.5492722508        3.0595194781
Mo               9.4228813900        3.6553002900        9.1897774218
S                7.8444449391        4.5607601076        7.6271060881
S                9.4518359205        3.6398907472        4.6278219504
S                9.4526419525        3.6396134374        1.4918352090
S                7.8542142598        4.5703980909       10.7664033261
Mo               6.3024965959        7.2774749019       -9.1672481230    0   0   0
Mo               7.8781361655        6.3678242352       -3.0555014130    0   0   0
S                6.3024973331        7.2774953556       -4.6232392528    0   0   0
S                7.8781167680        6.3677884239       -7.6014065489    0   0   0
S                7.8781172217        6.3677895528      -10.7330757790    0   0   0
S                6.3024989866        7.2774929744       -1.4877349119    0   0   0
Mo               6.3013468007        7.2781421577        3.0602563953
Mo               7.8604737270        6.3848005788        9.1878747913
S                6.3052842550        7.2945956463        7.5933106106
S                7.8774267648        6.3682471510        4.6277329482
S                7.8770323995        6.3687341851        1.4919364317
S                6.2867128105        7.3014011613       10.7412080227
Mo               4.7268792535       10.0065304219       -9.1672481230    0   0   0
Mo               6.3025111524        9.0968738021       -3.0554915260    0   0   0
S                4.7268840634       10.0065452125       -4.6232380477    0   0   0
S                6.3024994256        9.0968439439       -7.6014065489    0   0   0
S                6.3024998793        9.0968450728      -10.7330757790    0   0   0
S                4.7268847312       10.0065459141       -1.4877283294    0   0   0
Mo               4.7252924279       10.0073856644        3.0600972620
Mo               6.2869416648        9.1117851513        9.1636269848
S                4.7080751810       10.0252618620        7.5888580929
S                6.3012133157        9.0978040772        4.6273637318
S                6.3012566122        9.0975263014        1.4921799549
S                4.7170099302       10.0340531732       10.7327310345
Pd               1.7375258122        6.2744055175       12.1217336323
Pt               4.1458041758        4.8841353644       12.7677602087
End final coordinates



     Writing all to output data dir ./outdir/pwscf.save/ :
     XML data file, charge density, pseudopotentials, collected wavefunctions
 
     init_run     :    174.54s CPU    177.79s WALL (       1 calls)
     electrons    : 154884.77s CPU 156805.26s WALL (      18 calls)
     update_pot   :     28.79s CPU     29.82s WALL (      17 calls)
     forces       :   2305.72s CPU   2347.22s WALL (      18 calls)
     force_dftd3  :     11.97s CPU     12.59s WALL (      18 calls)

     Called by init_run:
     wfcinit      :    150.58s CPU    152.33s WALL (       1 calls)
     potinit      :      1.36s CPU      1.54s WALL (       1 calls)
     hinit0       :     12.94s CPU     13.05s WALL (       1 calls)

     Called by electrons:
     c_bands      : 138372.00s CPU 139699.45s WALL (     233 calls)
     sum_band     :  14722.12s CPU  15028.74s WALL (     233 calls)
     v_of_rho     :     85.29s CPU     96.17s WALL (     240 calls)
     newd         :   1513.56s CPU   1793.77s WALL (     240 calls)
     PAW_pot      :    223.85s CPU    226.17s WALL (     257 calls)
     mix_rho      :     22.76s CPU     26.84s WALL (     233 calls)
     energy_dftd3 :      6.92s CPU      6.97s WALL (      18 calls)

     Called by c_bands:
     init_us_2    :    498.87s CPU    501.41s WALL (    2008 calls)
     init_us_2:cp :    498.85s CPU    501.40s WALL (    2008 calls)
     cegterg      : 136243.65s CPU 137551.94s WALL (     967 calls)

     Called by *egterg:
     cdiaghg      :   7986.02s CPU   8290.73s WALL (   12423 calls)
     h_psi        :  68355.10s CPU  68778.75s WALL (   12562 calls)
     s_psi        :  15474.98s CPU  15571.61s WALL (   12562 calls)
     g_psi        :    128.04s CPU    128.63s WALL (   11591 calls)

     Called by h_psi:
     h_psi:calbec :  15296.64s CPU  15346.86s WALL (   12562 calls)
     vloc_psi     :  37255.80s CPU  37441.91s WALL (   12562 calls)
     add_vuspsi   :  15519.19s CPU  15617.01s WALL (   12562 calls)

     General routines
     calbec       :  21375.00s CPU  21445.67s WALL (   13850 calls)
     fft          :     94.79s CPU    104.65s WALL (    3310 calls)
     ffts         :      4.25s CPU      4.61s WALL (     473 calls)
     fftw         :  27750.93s CPU  27888.35s WALL ( 7232950 calls)
     interpolate  :      7.44s CPU      8.15s WALL (     240 calls)
 
     Parallel routines
 
     PWSCF        :   1d19h54m CPU   1d20h29m WALL

 
   This run was terminated on:  12: 5:47  21Mar2024            

=------------------------------------------------------------------------------=
   JOB DONE.
=------------------------------------------------------------------------------=
