
     Program PWSCF v.7.3 starts on  1Apr2024 at 22:19:38 

     This program is part of the open-source Quantum ESPRESSO suite
     for quantum simulation of materials; please cite
         "P. Giannozzi et al., J. Phys.:Condens. Matter 21 395502 (2009);
         "P. Giannozzi et al., J. Phys.:Condens. Matter 29 465901 (2017);
         "P. Giannozzi et al., J. Chem. Phys. 152 154105 (2020);
          URL http://www.quantum-espresso.org", 
     in publications or presentations arising from this work. More details at
     http://www.quantum-espresso.org/quote

     Parallel version (MPI & OpenMP), running on      36 processor cores
     Number of MPI processes:                36
     Threads/MPI process:                     1

     MPI processes distributed on     1 nodes
     552902 MiB available memory on the printing compute node when the environment starts
 
     Waiting for input...
     Reading input from standard input
Warning: card &CELL ignored
Warning: card / ignored

     Current dimensions of program PWSCF are:
     Max number of different atomic species (ntypx) = 10
     Max number of k-points (npk) =  40000
     Max angular momentum in pseudopotentials (lmaxx) =  4
     file Mo.pbe-spn-kjpaw_psl.1.0.0.UPF: wavefunction(s)  4S 4D renormalized
     file S.pbe-n-kjpaw_psl.1.0.0.UPF: wavefunction(s)  3S 3P renormalized
     file Pt.pbe-spfn-kjpaw_psl.1.0.0.UPF: wavefunction(s)  5P 4F renormalized
     file Pd.pbe-spn-kjpaw_psl.1.0.0.UPF: wavefunction(s)  4S 5S 4D renormalized
 
     R & G space division:  proc/nbgrp/npool/nimage =      36
     Subspace diagonalization in iterative solution of the eigenvalue problem:
     one sub-group per band group will be used
     scalapack distributed-memory algorithm (size of sub-group:  6*  6 procs)

 
     Parallelization info
     --------------------
     sticks:   dense  smooth     PW     G-vecs:    dense   smooth      PW
     Min         586     335     89               165416    71459    9765
     Max         587     337     90               165425    71461    9778
     Sum       21109   12085   3205              5955087  2572543  351657
 
     Using Slab Decomposition
 


     bravais-lattice index     =            0
     lattice parameter (alat)  =      23.8395  a.u.
     unit-cell volume          =   28182.8498 (a.u.)^3
     number of atoms/cell      =          147
     number of atomic types    =            4
     number of electrons       =      1316.00
     number of Kohn-Sham states=          790
     kinetic-energy cutoff     =      77.0000  Ry
     charge density cutoff     =     539.0000  Ry
     scf convergence threshold =      1.0E-06
     mixing beta               =       0.2000
     number of iterations used =            8  plain     mixing
     energy convergence thresh.=      1.0E-04
     force convergence thresh. =      1.0E-03
     Exchange-correlation= SLA  PW   PBX  PBC
                           (   1   4   3   4   0   0   0)
     nstep                     =         1000


     Effective Screening Medium Method
     =================================
     Boundary Conditions: Vacuum-Slab-Vacuum
     total charge in unit cell        =   0.0000
     grid points for fit at edges     =        4 
 

     celldm(1)=  23.839504  celldm(2)=   0.000000  celldm(3)=   0.000000
     celldm(4)=   0.000000  celldm(5)=   0.000000  celldm(6)=   0.000000

     crystal axes: (cart. coord. in units of alat)
               a(1) = (   1.000000   0.000000   0.000000 )  
               a(2) = (  -0.500001   0.866026   0.000000 )  
               a(3) = (   0.000000   0.000000   2.401941 )  

     reciprocal axes: (cart. coord. in units 2 pi/alat)
               b(1) = (  1.000000  0.577351  0.000000 )  
               b(2) = (  0.000000  1.154700  0.000000 )  
               b(3) = (  0.000000  0.000000  0.416330 )  


     PseudoPot. # 1 for Mo read from file:
     ./pseudo/Mo.pbe-spn-kjpaw_psl.1.0.0.UPF
     MD5 check sum: 317bf72632116215fd98f72de1686f13
     Pseudo is Projector augmented-wave + core cor, Zval = 14.0
     Generated using 'atomic' code by A. Dal Corso  v.7.2
     Shape of augmentation charge: PSQ
     Using radial grid of 1229 points,  6 beta functions with: 
                l(1) =   0
                l(2) =   0
                l(3) =   1
                l(4) =   1
                l(5) =   2
                l(6) =   2
     Q(r) pseudized with 0 coefficients 


     PseudoPot. # 2 for S  read from file:
     ./pseudo/S.pbe-n-kjpaw_psl.1.0.0.UPF
     MD5 check sum: 8b7b5302570d38d5e87fed6a1065abda
     Pseudo is Projector augmented-wave + core cor, Zval =  6.0
     Generated using 'atomic' code by A. Dal Corso  v.7.2
     Shape of augmentation charge: PSQ
     Using radial grid of 1151 points,  6 beta functions with: 
                l(1) =   0
                l(2) =   0
                l(3) =   1
                l(4) =   1
                l(5) =   2
                l(6) =   2
     Q(r) pseudized with 0 coefficients 


     PseudoPot. # 3 for Pt read from file:
     ./pseudo/Pt.pbe-spfn-kjpaw_psl.1.0.0.UPF
     MD5 check sum: 620096ebf4e6ebacc94de60fd67efcb5
     Pseudo is Projector augmented-wave + core cor, Zval = 32.0
     Generated using 'atomic' code by A. Dal Corso  v.7.2
     Shape of augmentation charge: PSQ
     Using radial grid of 1277 points,  8 beta functions with: 
                l(1) =   0
                l(2) =   0
                l(3) =   1
                l(4) =   1
                l(5) =   2
                l(6) =   2
                l(7) =   3
                l(8) =   3
     Q(r) pseudized with 0 coefficients 


     PseudoPot. # 4 for Pd read from file:
     ./pseudo/Pd.pbe-spn-kjpaw_psl.1.0.0.UPF
     MD5 check sum: a60571a671f2502b8a6a4569d20a6edb
     Pseudo is Projector augmented-wave + core cor, Zval = 18.0
     Generated using 'atomic' code by A. Dal Corso  v.7.2
     Shape of augmentation charge: PSQ
     Using radial grid of 1235 points,  6 beta functions with: 
                l(1) =   0
                l(2) =   0
                l(3) =   1
                l(4) =   1
                l(5) =   2
                l(6) =   2
     Q(r) pseudized with 0 coefficients 


     atomic species   valence    mass     pseudopotential
     Mo               14.00    95.95000     Mo( 1.00)
     S                 6.00    32.06000     S ( 1.00)
     Pt               32.00   195.08400     Pt( 1.00)
     Pd               18.00   106.42000     Pd( 1.00)

     No symmetry found



   Cartesian axes

     site n.     atom                  positions (alat units)
         1        Mo     tau(   1) = (   0.1246074   0.2157200   0.4826345  )
         2        Mo     tau(   2) = (   0.1250004   0.0721694  -0.4825273  )
         3        Mo     tau(   3) = (   0.0000068   0.1443549  -0.0000406  )
         4        S      tau(   4) = (   0.0000004   0.0000006  -0.6064556  )
         5        S      tau(   5) = (   0.1249873   0.0722031  -0.1241756  )
         6        S      tau(   6) = (   0.0000973   0.1450650   0.3573519  )
         7        S      tau(   7) = (   0.0000004   0.0000005  -0.3584711  )
         8        S      tau(   8) = (   0.1249847   0.0720950   0.1240801  )
         9        S      tau(   9) = (  -0.0005301   0.1434694   0.6062599  )
        10        Mo     tau(  10) = (  -0.0009156   0.4330317   0.4832560  )
        11        Mo     tau(  11) = (   0.0000001   0.2886759  -0.4825273  )
        12        Mo     tau(  12) = (  -0.1249829   0.3608507   0.0000027  )
        13        S      tau(  13) = (  -0.1249999   0.2165071  -0.6064556  )
        14        S      tau(  14) = (   0.0000128   0.2886930  -0.1241006  )
        15        S      tau(  15) = (  -0.1248837   0.3612581   0.3580377  )
        16        S      tau(  16) = (  -0.1249998   0.2165070  -0.3584711  )
        17        S      tau(  17) = (   0.0000764   0.2887257   0.1242499  )
        18        S      tau(  18) = (  -0.1253220   0.3603286   0.6073134  )
        19        Mo     tau(  19) = (  -0.1249684   0.6493789   0.4818062  )
        20        Mo     tau(  20) = (  -0.1250002   0.5051824  -0.4825273  )
        21        Mo     tau(  21) = (  -0.2500040   0.5773207  -0.0001409  )
        22        S      tau(  22) = (  -0.2500002   0.4330136  -0.6064556  )
        23        S      tau(  23) = (  -0.1249903   0.5051158  -0.1241917  )
        24        S      tau(  24) = (  -0.2499555   0.5769406   0.3578597  )
        25        S      tau(  25) = (  -0.2500001   0.4330135  -0.3584711  )
        26        S      tau(  26) = (  -0.1249930   0.5052458   0.1241101  )
        27        S      tau(  27) = (  -0.2497899   0.5778453   0.6063597  )
        28        Mo     tau(  28) = (   0.2497834  -0.0005160   0.4806710  )
        29        Mo     tau(  29) = (  -0.2500004   0.7216889  -0.4825273  )
        30        Mo     tau(  30) = (  -0.3750188   0.7938286  -0.0001549  )
        31        S      tau(  31) = (  -0.3750004   0.6495201  -0.6064556  )
        32        S      tau(  32) = (  -0.2500074   0.7216649  -0.1242513  )
        33        S      tau(  33) = (  -0.3752234   0.7935039   0.3566636  )
        34        S      tau(  34) = (  -0.3750004   0.6495200  -0.3584711  )
        35        S      tau(  35) = (  -0.2499996   0.7216607   0.1240200  )
        36        S      tau(  36) = (  -0.3746819   0.7948899   0.6057341  )
        37        Mo     tau(  37) = (   0.3750034   0.2123618   0.4807886  )
        38        Mo     tau(  38) = (   0.3750004   0.0721694  -0.4825273  )
        39        Mo     tau(  39) = (   0.2499981   0.1443415  -0.0000413  )
        40        S      tau(  40) = (   0.2500004   0.0000006  -0.6064556  )
        41        S      tau(  41) = (   0.3750280   0.0722231  -0.1241519  )
        42        S      tau(  42) = (   0.2489233   0.1437373   0.3564531  )
        43        S      tau(  43) = (   0.2500004   0.0000005  -0.3584711  )
        44        S      tau(  44) = (   0.3749877   0.0720947   0.1241383  )
        45        S      tau(  45) = (   0.2497122   0.1423104   0.6055821  )
        46        Mo     tau(  46) = (   0.2490774   0.4329018   0.4862977  )
        47        Mo     tau(  47) = (   0.2500001   0.2886759  -0.4825273  )
        48        Mo     tau(  48) = (   0.1250319   0.3608540  -0.0000126  )
        49        S      tau(  49) = (   0.1250001   0.2165071  -0.6064556  )
        50        S      tau(  50) = (   0.2500259   0.2886851  -0.1240979  )
        51        S      tau(  51) = (   0.1263042   0.3620125   0.3614359  )
        52        S      tau(  52) = (   0.1250002   0.2165070  -0.3584711  )
        53        S      tau(  53) = (   0.2500168   0.2886898   0.1242904  )
        54        S      tau(  54) = (   0.1173694   0.3566575   0.6132890  )
        55        Mo     tau(  55) = (   0.1240062   0.6506471   0.4823696  )
        56        Mo     tau(  56) = (   0.1249998   0.5051824  -0.4825273  )
        57        Mo     tau(  57) = (   0.0000191   0.5773226  -0.0001255  )
        58        S      tau(  58) = (  -0.0000002   0.4330136  -0.6064556  )
        59        S      tau(  59) = (   0.1250359   0.5051398  -0.1241676  )
        60        S      tau(  60) = (   0.0000697   0.5768181   0.3580317  )
        61        S      tau(  61) = (  -0.0000001   0.4330135  -0.3584711  )
        62        S      tau(  62) = (   0.1250059   0.5052001   0.1242069  )
        63        S      tau(  63) = (  -0.0003304   0.5778980   0.6066479  )
        64        Mo     tau(  64) = (   0.5003257  -0.0004925   0.4803774  )
        65        Mo     tau(  65) = (  -0.0000004   0.7216889  -0.4825273  )
        66        Mo     tau(  66) = (  -0.1249927   0.7938427  -0.0001655  )
        67        S      tau(  67) = (  -0.1250004   0.6495201  -0.6064556  )
        68        S      tau(  68) = (   0.0000418   0.7216760  -0.1242215  )
        69        S      tau(  69) = (  -0.1250504   0.7929751   0.3566577  )
        70        S      tau(  70) = (  -0.1250004   0.6495200  -0.3584711  )
        71        S      tau(  71) = (  -0.0000163   0.7216479   0.1240623  )
        72        S      tau(  72) = (  -0.1248984   0.7939509   0.6051552  )
        73        Mo     tau(  73) = (   0.6254010   0.2160480   0.4824065  )
        74        Mo     tau(  74) = (   0.6250004   0.0721694  -0.4825273  )
        75        Mo     tau(  75) = (   0.5000167   0.1443371   0.0000092  )
        76        S      tau(  76) = (   0.5000004   0.0000006  -0.6064556  )
        77        S      tau(  77) = (   0.6250207   0.0721868  -0.1241145  )
        78        S      tau(  78) = (   0.5010641   0.1438734   0.3562763  )
        79        S      tau(  79) = (   0.5000004   0.0000005  -0.3584711  )
        80        S      tau(  80) = (   0.6250414   0.0720927   0.1241409  )
        81        S      tau(  81) = (   0.5005473   0.1420509   0.6053992  )
        82        Mo     tau(  82) = (   0.5016373   0.4329758   0.4857863  )
        83        Mo     tau(  83) = (   0.5000001   0.2886759  -0.4825273  )
        84        Mo     tau(  84) = (   0.3750027   0.3608467   0.0000234  )
        85        S      tau(  85) = (   0.3750001   0.2165071  -0.6064556  )
        86        S      tau(  86) = (   0.5000046   0.2886693  -0.1240592  )
        87        S      tau(  87) = (   0.3745963   0.3620572   0.3631324  )
        88        S      tau(  88) = (   0.3750002   0.2165070  -0.3584711  )
        89        S      tau(  89) = (   0.4999634   0.2887051   0.1243131  )
        90        S      tau(  90) = (   0.3781068   0.3490112   0.6089630  )
        91        Mo     tau(  91) = (   0.3753335   0.6518408   0.4830502  )
        92        Mo     tau(  92) = (   0.3749998   0.5051824  -0.4825273  )
        93        Mo     tau(  93) = (   0.2500203   0.5772987  -0.0000555  )
        94        S      tau(  94) = (   0.2499998   0.4330136  -0.6064556  )
        95        S      tau(  95) = (   0.3750008   0.5051221  -0.1241383  )
        96        S      tau(  96) = (   0.2501878   0.5758780   0.3616377  )
        97        S      tau(  97) = (   0.2499999   0.4330135  -0.3584711  )
        98        S      tau(  98) = (   0.3750015   0.5051839   0.1242620  )
        99        S      tau(  99) = (   0.2495016   0.5878580   0.6113208  )
       100        Mo     tau( 100) = (   0.7500199   0.0003818   0.4811571  )
       101        Mo     tau( 101) = (   0.2499996   0.7216889  -0.4825273  )
       102        Mo     tau( 102) = (   0.1250316   0.7938162  -0.0000875  )
       103        S      tau( 103) = (   0.1249996   0.6495201  -0.6064556  )
       104        S      tau( 104) = (   0.2500359   0.7216507  -0.1241461  )
       105        S      tau( 105) = (   0.1254554   0.7934228   0.3566219  )
       106        S      tau( 106) = (   0.1249996   0.6495200  -0.3584711  )
       107        S      tau( 107) = (   0.2500086   0.7215741   0.1241838  )
       108        S      tau( 108) = (   0.1244907   0.7952297   0.6057917  )
       109        Mo     tau( 109) = (  -0.1249741   0.2166510   0.4819241  )
       110        Mo     tau( 110) = (   0.8750004   0.0721694  -0.4825273  )
       111        Mo     tau( 111) = (   0.7500133   0.1443436  -0.0000073  )
       112        S      tau( 112) = (   0.7500004   0.0000006  -0.6064556  )
       113        S      tau( 113) = (   0.8749956   0.0721731  -0.1241058  )
       114        S      tau( 114) = (   0.7500203   0.1449522   0.3574598  )
       115        S      tau( 115) = (   0.7500004   0.0000005  -0.3584711  )
       116        S      tau( 116) = (   0.8750238   0.0721604   0.1241841  )
       117        S      tau( 117) = (   0.7504201   0.1437382   0.6062629  )
       118        Mo     tau( 118) = (  -0.2493495   0.4328575   0.4828262  )
       119        Mo     tau( 119) = (   0.7500001   0.2886759  -0.4825273  )
       120        Mo     tau( 120) = (   0.6249856   0.3608477   0.0000279  )
       121        S      tau( 121) = (   0.6250001   0.2165071  -0.6064556  )
       122        S      tau( 122) = (   0.7499958   0.2886820  -0.1240679  )
       123        S      tau( 123) = (   0.6241512   0.3616755   0.3603414  )
       124        S      tau( 124) = (   0.6250002   0.2165070  -0.3584711  )
       125        S      tau( 125) = (   0.7499862   0.2887159   0.1242658  )
       126        S      tau( 126) = (   0.6305969   0.3581080   0.6112211  )
       127        Mo     tau( 127) = (  -0.3742668   0.6505223   0.4820597  )
       128        Mo     tau( 128) = (   0.6249998   0.5051824  -0.4825273  )
       129        Mo     tau( 129) = (   0.4999851   0.5773046  -0.0000631  )
       130        S      tau( 130) = (   0.4999998   0.4330136  -0.6064556  )
       131        S      tau( 131) = (   0.6249723   0.5051139  -0.1241565  )
       132        S      tau( 132) = (   0.4998783   0.5762956   0.3606843  )
       133        S      tau( 133) = (   0.4999999   0.4330135  -0.3584711  )
       134        S      tau( 134) = (   0.6250095   0.5052263   0.1241915  )
       135        S      tau( 135) = (   0.5006407   0.5846211   0.6091832  )
       136        Mo     tau( 136) = (   0.0000410   0.0004185   0.4809769  )
       137        Mo     tau( 137) = (   0.4999996   0.7216889  -0.4825273  )
       138        Mo     tau( 138) = (   0.3750036   0.7938273  -0.0000272  )
       139        S      tau( 139) = (   0.3749996   0.6495201  -0.6064556  )
       140        S      tau( 140) = (   0.4999499   0.7216482  -0.1241729  )
       141        S      tau( 141) = (   0.3750006   0.7941054   0.3569117  )
       142        S      tau( 142) = (   0.3749996   0.6495200  -0.3584711  )
       143        S      tau( 143) = (   0.5000314   0.7216102   0.1241515  )
       144        S      tau( 144) = (   0.3752329   0.7966920   0.6062052  )
       145        Pt     tau( 145) = (   0.2580795   0.4348292   0.7095693  )
       146        Pd     tau( 146) = (   0.4899479   0.4358638   0.7204770  )
       147        Pd     tau( 147) = (   0.6254299   0.2160864   0.7301439  )

     --------------------------------------------
     DFT-D3 Dispersion Correction (3-body terms):
     --------------------------------------------
       Reference C6 values for interpolation: 

         atom   Coordination number   C6
         S          0.000           268.01
         S          0.995           261.99
         S          1.990           251.62
         Mo         0.000          1691.79
         Mo         1.942          1004.01
         Mo        11.056           674.22
         Pd         0.000          1217.01
         Pd         1.863           573.90
         Pd         5.710           531.75
         Pt         0.000           782.29
         Pt         1.919           692.72
         Pt         6.667           673.75

       Values used:

         atom   Coordination number  R0_AB[au]  C6      C8
         Mo        10.200            3.547    674.22  77634.20
         Mo        10.189            3.547    674.22  77634.20
         Mo        10.200            3.547    674.22  77634.20
         S          3.753            3.128    251.62  12327.25
         S          3.858            3.128    251.62  12327.25
         S          3.855            3.128    251.62  12327.25
         S          3.858            3.128    251.62  12327.25
         S          3.864            3.128    251.62  12327.25
         S          3.815            3.128    251.62  12327.25
         Mo        10.207            3.547    674.22  77634.20
         Mo        10.189            3.547    674.22  77634.20
         Mo        10.201            3.547    674.22  77634.20
         S          3.753            3.128    251.62  12327.25
         S          3.859            3.128    251.62  12327.25
         S          3.854            3.128    251.62  12327.25
         S          3.858            3.128    251.62  12327.25
         S          3.855            3.128    251.62  12327.25
         S          3.826            3.128    251.62  12327.25
         Mo        10.231            3.547    674.22  77634.20
         Mo        10.189            3.547    674.22  77634.20
         Mo        10.201            3.547    674.22  77634.20
         S          3.753            3.128    251.62  12327.25
         S          3.858            3.128    251.62  12327.25
         S          3.865            3.128    251.62  12327.25
         S          3.859            3.128    251.62  12327.25
         S          3.860            3.128    251.62  12327.25
         S          3.762            3.128    251.62  12327.25
         Mo        10.259            3.547    674.22  77634.20
         Mo        10.189            3.547    674.22  77634.20
         Mo        10.200            3.547    674.22  77634.20
         S          3.753            3.128    251.62  12327.25
         S          3.857            3.128    251.62  12327.25
         S          3.856            3.128    251.62  12327.25
         S          3.859            3.128    251.62  12327.25
         S          3.864            3.128    251.62  12327.25
         S          3.803            3.128    251.62  12327.25
         Mo        10.165            3.547    674.22  77634.20
         Mo        10.189            3.547    674.22  77634.20
         Mo        10.200            3.547    674.22  77634.20
         S          3.753            3.128    251.62  12327.25
         S          3.858            3.128    251.62  12327.25
         S          3.842            3.128    251.62  12327.25
         S          3.859            3.128    251.62  12327.25
         S          3.863            3.128    251.62  12327.25
         S          3.812            3.128    251.62  12327.25
         Mo        10.847            3.547    674.22  77634.20
         Mo        10.189            3.547    674.22  77634.20
         Mo        10.202            3.547    674.22  77634.20
         S          3.753            3.128    251.62  12327.25
         S          3.859            3.128    251.62  12327.25
         S          3.851            3.128    251.62  12327.25
         S          3.858            3.128    251.62  12327.25
         S          3.851            3.128    251.62  12327.25
         S          4.635            3.128    251.62  12327.25
         Mo        10.195            3.547    674.22  77634.20
         Mo        10.189            3.547    674.22  77634.20
         Mo        10.201            3.547    674.22  77634.20
         S          3.753            3.128    251.62  12327.25
         S          3.859            3.128    251.62  12327.25
         S          3.864            3.128    251.62  12327.25
         S          3.859            3.128    251.62  12327.25
         S          3.853            3.128    251.62  12327.25
         S          3.758            3.128    251.62  12327.25
         Mo        10.266            3.547    674.22  77634.20
         Mo        10.189            3.547    674.22  77634.20
         Mo        10.200            3.547    674.22  77634.20
         S          3.753            3.128    251.62  12327.25
         S          3.858            3.128    251.62  12327.25
         S          3.858            3.128    251.62  12327.25
         S          3.859            3.128    251.62  12327.25
         S          3.863            3.128    251.62  12327.25
         S          3.784            3.128    251.62  12327.25
         Mo        10.668            3.547    674.22  77634.20
         Mo        10.189            3.547    674.22  77634.20
         Mo        10.200            3.547    674.22  77634.20
         S          3.753            3.128    251.62  12327.25
         S          3.859            3.128    251.62  12327.25
         S          3.840            3.128    251.62  12327.25
         S          3.859            3.128    251.62  12327.25
         S          3.863            3.128    251.62  12327.25
         S          4.763            3.128    251.62  12327.25
         Mo        10.716            3.547    674.21  77634.20
         Mo        10.189            3.547    674.22  77634.20
         Mo        10.202            3.547    674.22  77634.20
         S          3.753            3.128    251.62  12327.25
         S          3.859            3.128    251.62  12327.25
         S          3.874            3.128    251.62  12327.25
         S          3.858            3.128    251.62  12327.25
         S          3.851            3.128    251.62  12327.25
         S          5.648            3.128    251.62  12327.25
         Mo        10.151            3.547    674.22  77634.20
         Mo        10.189            3.547    674.22  77634.20
         Mo        10.203            3.547    674.22  77634.20
         S          3.753            3.128    251.62  12327.25
         S          3.859            3.128    251.62  12327.25
         S          3.861            3.128    251.62  12327.25
         S          3.859            3.128    251.62  12327.25
         S          3.849            3.128    251.62  12327.25
         S          4.666            3.128    251.62  12327.25
         Mo        10.248            3.547    674.22  77634.20
         Mo        10.189            3.547    674.22  77634.20
         Mo        10.200            3.547    674.22  77634.20
         S          3.753            3.128    251.62  12327.25
         S          3.858            3.128    251.62  12327.25
         S          3.852            3.128    251.62  12327.25
         S          3.859            3.128    251.62  12327.25
         S          3.858            3.128    251.62  12327.25
         S          3.830            3.128    251.62  12327.25
         Mo        10.238            3.547    674.22  77634.20
         Mo        10.189            3.547    674.22  77634.20
         Mo        10.200            3.547    674.22  77634.20
         S          3.753            3.128    251.62  12327.25
         S          3.858            3.128    251.62  12327.25
         S          3.858            3.128    251.62  12327.25
         S          3.858            3.128    251.62  12327.25
         S          3.861            3.128    251.62  12327.25
         S          4.737            3.128    251.62  12327.25
         Mo        10.230            3.547    674.22  77634.20
         Mo        10.189            3.547    674.22  77634.20
         Mo        10.201            3.547    674.22  77634.20
         S          3.753            3.128    251.62  12327.25
         S          3.859            3.128    251.62  12327.25
         S          3.850            3.128    251.62  12327.25
         S          3.858            3.128    251.62  12327.25
         S          3.855            3.128    251.62  12327.25
         S          5.576            3.128    251.62  12327.25
         Mo        10.207            3.547    674.22  77634.20
         Mo        10.189            3.547    674.22  77634.20
         Mo        10.202            3.547    674.22  77634.20
         S          3.753            3.128    251.62  12327.25
         S          3.858            3.128    251.62  12327.25
         S          3.862            3.128    251.62  12327.25
         S          3.858            3.128    251.62  12327.25
         S          3.855            3.128    251.62  12327.25
         S          4.663            3.128    251.62  12327.25
         Mo        10.248            3.547    674.22  77634.20
         Mo        10.189            3.547    674.22  77634.20
         Mo        10.201            3.547    674.22  77634.20
         S          3.753            3.128    251.62  12327.25
         S          3.858            3.128    251.62  12327.25
         S          3.844            3.128    251.62  12327.25
         S          3.859            3.128    251.62  12327.25
         S          3.859            3.128    251.62  12327.25
         S          3.837            3.128    251.62  12327.25
         Pt         4.455            3.168    673.78  70065.93
         Pd         4.251            3.168    531.75  48720.73
         Pd         3.510            3.168    573.89  52582.27

         Molecular C6 ( Ry / a.u.^6 ) =   8065803.62


     number of k points=     4  Gaussian smearing, width (Ry)=  0.0100
                       cart. coord. in units 2pi/alat
        k(    1) = (   0.0000000   0.0000000   0.0000000), wk =   0.5000000
        k(    2) = (   0.0000000  -0.5773499   0.0000000), wk =   0.5000000
        k(    3) = (  -0.5000000  -0.2886755   0.0000000), wk =   0.5000000
        k(    4) = (  -0.5000000  -0.8660254   0.0000000), wk =   0.5000000

     Dense  grid:  5955087 G-vectors     FFT dimensions: ( 180, 180, 432)

     Smooth grid:  2572543 G-vectors     FFT dimensions: ( 135, 135, 320)

     Estimated max dynamical RAM per process >       3.08 GB

     Estimated total dynamical RAM >     110.88 GB

     Initial potential from superposition of free atoms

     starting charge    1315.9537, renormalised to    1316.0000

     negative rho (up, down):  1.039E-03 0.000E+00
     Starting wfcs are  901 randomized atomic wfcs
     Checking if some PAW data can be deallocated... 

     total cpu time spent up to now is       98.0 secs

     Self-consistent Calculation

     iteration #  1     ecut=    77.00 Ry     beta= 0.20
     Davidson diagonalization with overlap
     ethr =  1.00E-02,  avg # of iterations =  2.0

     Threshold (ethr) on eigenvalues was too large:
     Diagonalizing with lowered threshold

     Davidson diagonalization with overlap
     ethr =  2.26E-04,  avg # of iterations = 16.2

     negative rho (up, down):  3.382E-04 0.000E+00

     total cpu time spent up to now is     1032.5 secs

     total energy              =  -26543.56590657 Ry
     estimated scf accuracy    <       4.82820789 Ry

     iteration #  2     ecut=    77.00 Ry     beta= 0.20
     Davidson diagonalization with overlap
     ethr =  3.67E-04,  avg # of iterations =  6.0

     negative rho (up, down):  6.990E-05 0.000E+00

     total cpu time spent up to now is     1258.6 secs

     total energy              =  -26542.88446261 Ry
     estimated scf accuracy    <       2.34418428 Ry

     iteration #  3     ecut=    77.00 Ry     beta= 0.20
     Davidson diagonalization with overlap
     ethr =  1.78E-04,  avg # of iterations = 13.5

     negative rho (up, down):  4.426E-05 0.000E+00

     total cpu time spent up to now is     1530.5 secs

     total energy              =  -26543.13821557 Ry
     estimated scf accuracy    <       0.91109626 Ry

     iteration #  4     ecut=    77.00 Ry     beta= 0.20
     Davidson diagonalization with overlap
     c_bands:  1 eigenvalues not converged
     c_bands:  1 eigenvalues not converged
     ethr =  6.92E-05,  avg # of iterations = 16.2

     negative rho (up, down):  3.561E-05 0.000E+00

     total cpu time spent up to now is     1946.7 secs

     total energy              =  -26543.41061629 Ry
     estimated scf accuracy    <       0.32199806 Ry

     iteration #  5     ecut=    77.00 Ry     beta= 0.20
     Davidson diagonalization with overlap
     c_bands:  3 eigenvalues not converged
     ethr =  2.45E-05,  avg # of iterations = 21.0

     negative rho (up, down):  5.740E-05 0.000E+00

     total cpu time spent up to now is     2489.1 secs

     total energy              =  -26543.69719250 Ry
     estimated scf accuracy    <       0.13286891 Ry

     iteration #  6     ecut=    77.00 Ry     beta= 0.20
     Davidson diagonalization with overlap
     c_bands:  5 eigenvalues not converged
     c_bands:  2 eigenvalues not converged
     c_bands:  1 eigenvalues not converged
     ethr =  1.01E-05,  avg # of iterations = 40.5

     negative rho (up, down):  1.204E-04 0.000E+00

     total cpu time spent up to now is     3179.1 secs

     total energy              =  -26543.73079281 Ry
     estimated scf accuracy    <       0.09278159 Ry

     iteration #  7     ecut=    77.00 Ry     beta= 0.20
     Davidson diagonalization with overlap
     ethr =  7.05E-06,  avg # of iterations = 14.0

     negative rho (up, down):  6.673E-04 0.000E+00

     total cpu time spent up to now is     3512.0 secs

     total energy              =  -26543.72964389 Ry
     estimated scf accuracy    <       0.05404647 Ry

     iteration #  8     ecut=    77.00 Ry     beta= 0.20
     Davidson diagonalization with overlap
     c_bands:  2 eigenvalues not converged
     ethr =  4.11E-06,  avg # of iterations = 15.2

     negative rho (up, down):  6.199E-04 0.000E+00

     total cpu time spent up to now is     3954.3 secs

     total energy              =  -26543.74228448 Ry
     estimated scf accuracy    <       0.06154303 Ry

     iteration #  9     ecut=    77.00 Ry     beta= 0.20
     Davidson diagonalization with overlap
     ethr =  4.11E-06,  avg # of iterations =  5.5

     negative rho (up, down):  5.475E-04 0.000E+00

     total cpu time spent up to now is     4181.8 secs

     total energy              =  -26543.74329016 Ry
     estimated scf accuracy    <       0.00786426 Ry

     iteration # 10     ecut=    77.00 Ry     beta= 0.20
     Davidson diagonalization with overlap
     c_bands:  3 eigenvalues not converged
     ethr =  5.98E-07,  avg # of iterations = 30.0

     negative rho (up, down):  6.145E-04 0.000E+00

     total cpu time spent up to now is     5174.3 secs

     total energy              =  -26543.75873394 Ry
     estimated scf accuracy    <       0.01156973 Ry

     iteration # 11     ecut=    77.00 Ry     beta= 0.20
     Davidson diagonalization with overlap
     c_bands:  3 eigenvalues not converged
     ethr =  5.98E-07,  avg # of iterations =  6.0

     negative rho (up, down):  7.700E-04 0.000E+00

     total cpu time spent up to now is     5397.6 secs

     total energy              =  -26543.75547971 Ry
     estimated scf accuracy    <       0.00649295 Ry

     iteration # 12     ecut=    77.00 Ry     beta= 0.20
     Davidson diagonalization with overlap
     c_bands:  2 eigenvalues not converged
     ethr =  4.93E-07,  avg # of iterations =  9.2

     negative rho (up, down):  8.455E-04 0.000E+00

     total cpu time spent up to now is     5666.2 secs

     total energy              =  -26543.75619712 Ry
     estimated scf accuracy    <       0.00097188 Ry

     iteration # 13     ecut=    77.00 Ry     beta= 0.20
     Davidson diagonalization with overlap
     ethr =  7.39E-08,  avg # of iterations = 13.5

     negative rho (up, down):  8.311E-04 0.000E+00

     total cpu time spent up to now is     6479.7 secs

     total energy              =  -26543.75871754 Ry
     estimated scf accuracy    <       0.00096352 Ry

     iteration # 14     ecut=    77.00 Ry     beta= 0.20
     Davidson diagonalization with overlap
     ethr =  7.32E-08,  avg # of iterations =  1.0

     negative rho (up, down):  8.348E-04 0.000E+00

     total cpu time spent up to now is     6678.0 secs

     total energy              =  -26543.75835389 Ry
     estimated scf accuracy    <       0.00066725 Ry

     iteration # 15     ecut=    77.00 Ry     beta= 0.20
     Davidson diagonalization with overlap
     ethr =  5.07E-08,  avg # of iterations =  6.8

     negative rho (up, down):  8.947E-04 0.000E+00

     total cpu time spent up to now is     6985.9 secs

     total energy              =  -26543.75857245 Ry
     estimated scf accuracy    <       0.00006258 Ry

     iteration # 16     ecut=    77.00 Ry     beta= 0.20
     Davidson diagonalization with overlap
     c_bands:  1 eigenvalues not converged
     c_bands:  3 eigenvalues not converged
     ethr =  4.76E-09,  avg # of iterations = 18.2

     negative rho (up, down):  9.436E-04 0.000E+00

     total cpu time spent up to now is     7987.1 secs

     total energy              =  -26543.75865535 Ry
     estimated scf accuracy    <       0.00020913 Ry

     iteration # 17     ecut=    77.00 Ry     beta= 0.20
     Davidson diagonalization with overlap
     ethr =  4.76E-09,  avg # of iterations = 13.8

     negative rho (up, down):  9.537E-04 0.000E+00

     total cpu time spent up to now is     8483.7 secs

     total energy              =  -26543.75875921 Ry
     estimated scf accuracy    <       0.00003270 Ry

     iteration # 18     ecut=    77.00 Ry     beta= 0.20
     Davidson diagonalization with overlap
     ethr =  2.48E-09,  avg # of iterations = 12.0

     negative rho (up, down):  9.493E-04 0.000E+00

     total cpu time spent up to now is     8877.2 secs

     total energy              =  -26543.75874427 Ry
     estimated scf accuracy    <       0.00010661 Ry

     iteration # 19     ecut=    77.00 Ry     beta= 0.20
     Davidson diagonalization with overlap
     ethr =  2.48E-09,  avg # of iterations =  1.2

     negative rho (up, down):  9.491E-04 0.000E+00

     total cpu time spent up to now is     9081.6 secs

     total energy              =  -26543.75871409 Ry
     estimated scf accuracy    <       0.00004948 Ry

     iteration # 20     ecut=    77.00 Ry     beta= 0.20
     Davidson diagonalization with overlap
     ethr =  2.48E-09,  avg # of iterations =  5.2

     negative rho (up, down):  9.576E-04 0.000E+00

     total cpu time spent up to now is     9448.3 secs

     End of self-consistent calculation

          k = 0.0000 0.0000 0.0000 (321495 PWs)   bands (ev):

  -102.8475 -88.6971 -88.2536 -71.1766 -71.1690 -71.1532 -71.1401 -71.1289
   -71.1206 -71.1110 -66.6655 -66.6444 -66.6444 -66.6444 -66.6444 -66.6444
   -66.6444 -66.6233 -66.6232 -66.6232 -66.6232 -66.6232 -66.6232 -66.6232
   -66.6231 -66.6231 -66.5994 -66.5787 -66.5787 -66.5785 -66.5782 -66.5781
   -66.5779 -66.5578 -66.5575 -66.5575 -66.5573 -66.5572 -66.5570 -66.5569
   -66.5568 -66.5564 -66.5234 -66.5115 -66.5048 -66.4974 -66.4931 -66.4894
   -66.4859 -66.4813 -66.4754 -66.4715 -66.4702 -66.4643 -66.4620 -66.4579
   -66.4570 -66.4501 -57.1538 -57.0444 -57.0109 -54.5573 -54.4637 -54.4392
   -54.0993 -54.0598 -54.0132 -40.9918 -40.9918 -40.9918 -40.9246 -40.9246
   -40.9244 -40.9170 -40.9170 -40.9170 -40.9170 -40.9169 -40.9169 -40.8500
   -40.8499 -40.8499 -40.8497 -40.8496 -40.8495 -40.8411 -40.8392 -40.8361
   -40.8255 -40.7914 -40.7914 -40.7914 -40.7914 -40.7914 -40.7914 -40.7841
   -40.7841 -40.7841 -40.7841 -40.7841 -40.7841 -40.7706 -40.7662 -40.7635
   -40.7600 -40.7566 -40.7566 -40.7566 -40.7565 -40.7565 -40.7565 -40.7565
   -40.7498 -40.7438 -40.7425 -40.7425 -40.7424 -40.7424 -40.7424 -40.7424
   -40.7423 -40.7423 -40.7423 -40.7246 -40.7245 -40.7244 -40.7243 -40.7242
   -40.7241 -40.7189 -40.7188 -40.7187 -40.7184 -40.7184 -40.7182 -40.7099
   -40.6898 -40.6897 -40.6897 -40.6895 -40.6894 -40.6893 -40.6856 -40.6788
   -40.6788 -40.6787 -40.6776 -40.6773 -40.6772 -40.6770 -40.6770 -40.6768
   -40.6767 -40.6766 -40.6762 -40.6630 -40.6543 -40.6511 -40.6495 -40.6442
   -40.6439 -40.6421 -40.6403 -40.6322 -40.6320 -40.6320 -40.6320 -40.6319
   -40.6319 -40.6319 -40.6275 -40.6266 -40.6181 -40.6150 -40.6132 -40.6119
   -40.6119 -40.6119 -40.6118 -40.6107 -40.6059 -40.6046 -40.6032 -40.6015
   -40.5980 -40.5963 -40.5944 -40.5875 -40.5847 -40.5846 -40.5829 -40.5791
   -40.5654 -40.5652 -40.5652 -40.5650 -40.5649 -40.5648 -40.5256 -40.5232
   -40.5208 -40.5178 -40.5178 -40.4766 -40.4758 -40.4727 -40.4707 -40.4667
   -40.4612 -40.4222 -40.4148 -20.1462 -20.0715 -19.9128 -19.5489 -19.3733
   -19.2445 -19.2358 -19.2341 -19.2306 -19.2231 -19.2199 -19.1917 -19.1647
   -19.1554 -19.1244 -19.0782 -19.0714 -19.0577 -19.0478 -19.0438 -19.0092
   -18.8670 -18.7244 -18.7038 -18.5603 -18.5225 -18.4934 -18.4829 -18.4633
   -18.4499 -18.4219 -18.3967 -18.3759 -18.3596 -18.3463 -18.3302 -18.2863
   -18.2669 -18.2136 -18.1964 -18.1929 -18.1860 -18.1697 -18.1376 -18.1251
   -18.1247 -18.1243 -18.1242 -18.1240 -18.1240 -18.0962 -18.0850 -18.0842
   -18.0841 -18.0824 -18.0520 -18.0436 -18.0420 -18.0392 -18.0385 -18.0349
   -18.0139 -18.0106 -18.0100 -18.0030 -17.9634 -17.9586 -17.9497 -17.9471
   -17.9310 -17.9272 -17.9270 -17.9223 -17.9161 -17.9078 -17.9010 -17.8996
   -17.8982 -17.8755 -17.8671 -17.8666 -17.8547 -17.8473 -17.8421 -17.8331
   -17.8315 -17.8267 -17.8061 -17.7985 -17.7977 -17.7786 -17.7715 -17.7615
   -17.7486 -17.7466 -17.7411 -12.1435 -11.9792 -11.9035 -11.8547 -11.7394
   -11.7382 -11.7369 -11.6841 -11.6548 -11.6519 -11.6466 -11.5053 -11.3976
   -11.3127 -11.2498 -11.2370 -11.2072 -11.1943 -11.1889 -11.1862 -11.1585
   -11.1365 -11.1258 -11.1192 -11.1136 -11.1081 -11.1056 -11.1014 -11.0865
   -11.0788 -11.0672 -11.0038 -10.9834 -10.9771 -10.9719 -10.9666 -10.9573
   -10.9440 -10.9387 -10.9181 -10.9122 -10.9042 -10.8891 -10.8689 -10.8616
   -10.8477 -10.8377 -10.8301 -10.8214 -10.8188 -10.8159 -10.8145 -10.8138
   -10.8127 -10.8039 -10.7937 -10.7875 -10.7860 -10.7844 -10.7722 -10.7690
   -10.7651 -10.7648 -10.7622 -10.7533 -10.7216 -10.7020 -10.6915 -10.6807
   -10.6690 -10.6448 -10.6378 -10.6038 -10.5997 -10.5912 -10.5061 -10.3466
   -10.3362 -10.1611 -10.1065 -10.0334 -10.0309 -10.0254  -9.9241  -9.8931
    -9.8750  -9.8665  -9.8273  -9.8065  -9.7790  -9.7691  -9.7654  -9.7540
    -9.7480  -9.7265  -9.7157  -9.7001  -9.6910  -9.6826  -9.6754  -9.6666
    -9.6393  -9.6299  -9.6154  -9.6095  -9.6047  -9.6040  -9.5938  -9.5900
    -9.5813  -9.5720  -9.5619  -9.5598  -9.5584  -9.5569  -9.5557  -9.5554
    -9.5355  -9.5295  -9.5202  -9.4603  -9.4515  -9.4363  -9.4289  -9.4241
    -9.4199  -9.4007  -9.3745  -9.3528  -9.3472  -9.3390  -9.3309  -9.3261
    -9.3172  -9.3034  -9.2926  -9.2708  -9.2326  -9.2173  -9.2055  -9.1968
    -9.1919  -9.1818  -9.1777  -9.1400  -9.1298  -9.0861  -9.0610  -9.0411
    -9.0207  -9.0142  -9.0050  -9.0035  -9.0029  -9.0025  -9.0005  -8.9767
    -8.9500  -8.9328  -8.9249  -8.9236  -8.9159  -8.9118  -8.8752  -8.8421
    -8.8206  -8.8106  -8.7962  -8.7887  -8.7852  -8.7834  -8.7781  -8.7761
    -8.7649  -8.7593  -8.7458  -8.7398  -8.7297  -8.7212  -8.7185  -8.7136
    -8.7026  -8.6949  -8.6361  -8.5206  -8.5015  -8.4483  -8.4141  -8.4141
    -8.4093  -8.3414  -8.3414  -8.3083  -8.3024  -8.3021  -8.3021  -8.3020
    -8.3019  -8.3013  -8.2823  -8.2640  -8.2612  -8.2387  -8.2278  -8.2254
    -8.2243  -8.2234  -8.2220  -8.2057  -8.1572  -8.1431  -8.0483  -8.0245
    -7.9706  -7.9251  -7.9036  -7.8934  -7.8658  -7.7407  -7.6950  -7.6641
    -7.6379  -7.6215  -7.5993  -7.5689  -7.5673  -7.5667  -7.5665  -7.5662
    -7.5661  -7.5584  -7.5407  -7.5215  -7.5207  -7.5205  -7.5203  -7.5197
    -7.5195  -7.5125  -7.5007  -7.4948  -7.4929  -7.4873  -7.4840  -7.4802
    -7.4748  -7.4702  -7.4560  -7.4487  -7.4465  -7.4456  -7.4425  -7.4415
    -7.4383  -7.4337  -7.4148  -7.4084  -7.4046  -7.3994  -7.3980  -7.3841
    -7.3391  -7.3282  -7.2912  -7.2854  -7.2853  -7.2628  -7.2447  -7.2200
    -7.2158  -7.2145  -7.1946  -7.1830  -7.1331  -7.1035  -7.0545  -7.0173
    -6.9832  -6.9587  -6.9473  -6.9027  -6.8952  -6.8688  -6.8357  -6.8123
    -6.7817  -6.7790  -6.7775  -6.7224  -6.6710  -6.6541  -6.6497  -6.6472
    -6.6427  -6.6321  -6.6087  -6.6076  -6.6025  -6.5808  -6.5664  -6.5448
    -6.5346  -6.5226  -6.5064  -6.5059  -6.4998  -6.4968  -6.4937  -6.4752
    -6.4643  -6.4587  -6.4522  -6.4485  -6.4276  -6.4254  -6.4139  -6.4051
    -6.4021  -6.3773  -6.3572  -6.3343  -6.3334  -6.3334  -6.3333  -6.3333
    -6.3333  -6.3329  -6.3074  -6.2744  -6.2624  -6.2592  -6.2556  -6.2549
    -6.2542  -6.2524  -6.2469  -6.2305  -6.1938  -6.1798  -6.1080  -5.9878
    -5.9321  -5.8617  -5.7138  -5.5995  -5.5346  -5.5043  -5.3995  -5.3705
    -5.2096  -5.0989  -4.1514  -3.9310  -3.8414  -3.8177  -3.8163  -3.8158
    -3.7999  -3.7920  -3.7898  -3.7851  -3.7838  -3.7813  -3.7613  -3.7251
    -3.6623  -3.5982  -3.5923  -3.5778  -3.5718  -3.5649  -3.5623  -3.5514
    -3.5472  -3.5449  -3.4741  -3.4741  -3.4740  -3.4590  -3.4566  -3.4556
    -3.4549  -3.4539  -3.4533  -3.4227  -3.4067  -3.4066  -3.4064  -3.3951
    -3.3919  -3.3811  -3.3721  -3.3634  -3.3610  -3.3531  -3.3495  -3.3456
    -3.3405  -3.3357  -3.3308  -3.3275  -3.3158  -3.3040  -3.3020  -3.2801
    -3.2637  -3.2506  -3.2413  -3.2363  -3.2195  -3.2118  -3.1935  -3.1720
    -3.1408  -3.0132  -3.0083  -3.0082  -3.0052  -3.0025  -3.0025  -2.9624
    -2.9468  -2.9360  -2.9351  -2.9349  -2.9343  -2.9342  -2.9341  -2.9339
    -2.9301  -2.9240  -2.9192  -2.9131  -2.9075  -2.8955  -2.8849  -2.8805
    -2.8724  -2.8713  -2.8686  -2.8644  -2.8612  -2.8560  -2.8490  -2.8474
    -2.8472  -2.8321  -2.8196  -2.8088  -2.7976  -2.7913  -2.7901  -2.7647
    -2.7470  -2.7463  -2.7246  -2.7228  -2.7224  -2.7217  -2.7184  -2.7172
    -2.6794  -2.6762  -2.6688  -2.6659  -2.6399  -2.6213  -2.6159  -2.6019
    -2.5766  -2.5697  -2.5334  -2.5229  -2.5153  -2.5088  -2.5013  -2.4978
    -2.4806  -2.4689  -2.4522  -2.4372  -2.4347  -2.4200

          k = 0.0000-0.5773 0.0000 (321564 PWs)   bands (ev):

  -102.8475 -88.6971 -88.2536 -71.1766 -71.1690 -71.1532 -71.1401 -71.1289
   -71.1206 -71.1110 -66.6593 -66.6593 -66.6488 -66.6488 -66.6338 -66.6338
   -66.6338 -66.6338 -66.6294 -66.6294 -66.6232 -66.6232 -66.6232 -66.6232
   -66.6188 -66.6188 -66.5935 -66.5930 -66.5828 -66.5827 -66.5680 -66.5679
   -66.5677 -66.5675 -66.5637 -66.5631 -66.5575 -66.5575 -66.5572 -66.5564
   -66.5528 -66.5527 -66.5222 -66.5136 -66.5035 -66.4997 -66.4942 -66.4877
   -66.4834 -66.4800 -66.4766 -66.4719 -66.4706 -66.4656 -66.4612 -66.4582
   -66.4568 -66.4499 -57.1538 -57.0444 -57.0109 -54.5573 -54.4637 -54.4392
   -54.0994 -54.0598 -54.0132 -40.9604 -40.9604 -40.9603 -40.9603 -40.9337
   -40.9337 -40.9218 -40.9218 -40.8934 -40.8934 -40.8931 -40.8926 -40.8714
   -40.8713 -40.8713 -40.8713 -40.8668 -40.8663 -40.8546 -40.8545 -40.8239
   -40.8135 -40.8134 -40.8133 -40.8043 -40.8043 -40.8042 -40.8042 -40.8034
   -40.8034 -40.8028 -40.7927 -40.7927 -40.7922 -40.7824 -40.7766 -40.7637
   -40.7633 -40.7633 -40.7633 -40.7633 -40.7546 -40.7546 -40.7528 -40.7481
   -40.7476 -40.7424 -40.7424 -40.7424 -40.7424 -40.7424 -40.7424 -40.7365
   -40.7364 -40.7338 -40.7338 -40.7272 -40.7272 -40.7160 -40.7136 -40.7117
   -40.7117 -40.7116 -40.7116 -40.7113 -40.7076 -40.7039 -40.6980 -40.6979
   -40.6977 -40.6976 -40.6894 -40.6889 -40.6833 -40.6773 -40.6772 -40.6772
   -40.6772 -40.6772 -40.6771 -40.6769 -40.6763 -40.6755 -40.6754 -40.6742
   -40.6683 -40.6683 -40.6651 -40.6651 -40.6601 -40.6473 -40.6459 -40.6459
   -40.6452 -40.6451 -40.6450 -40.6447 -40.6442 -40.6374 -40.6343 -40.6327
   -40.6304 -40.6290 -40.6290 -40.6196 -40.6152 -40.6114 -40.6108 -40.6103
   -40.6103 -40.6102 -40.6102 -40.6067 -40.6043 -40.5986 -40.5985 -40.5985
   -40.5979 -40.5969 -40.5918 -40.5886 -40.5799 -40.5794 -40.5787 -40.5622
   -40.5621 -40.5621 -40.5577 -40.5535 -40.5452 -40.5320 -40.5314 -40.5236
   -40.5193 -40.5149 -40.5116 -40.5106 -40.4930 -40.4870 -40.4836 -40.4671
   -40.4653 -40.4449 -40.4206 -20.0185 -19.8645 -19.8475 -19.7732 -19.6885
   -19.6511 -19.4929 -19.4419 -19.4114 -19.3884 -19.2634 -19.2494 -19.0444
   -18.8573 -18.7907 -18.7680 -18.7375 -18.7193 -18.7142 -18.7117 -18.7063
   -18.6790 -18.6365 -18.6065 -18.5934 -18.5864 -18.5838 -18.5642 -18.5562
   -18.5255 -18.4895 -18.4695 -18.4656 -18.4398 -18.4289 -18.4046 -18.3958
   -18.3752 -18.3548 -18.3424 -18.2986 -18.2702 -18.2619 -18.2421 -18.2142
   -18.2097 -18.1828 -18.1566 -18.1388 -18.1306 -18.1102 -18.1050 -18.1047
   -18.1046 -18.1043 -18.0928 -18.0708 -18.0566 -18.0511 -18.0313 -18.0302
   -18.0239 -18.0216 -18.0185 -18.0039 -17.9934 -17.9743 -17.9661 -17.9643
   -17.9480 -17.9301 -17.9243 -17.9213 -17.9149 -17.9048 -17.8993 -17.8692
   -17.8582 -17.8562 -17.8414 -17.8413 -17.8401 -17.8098 -17.8022 -17.7882
   -17.7816 -17.7814 -17.7685 -17.7656 -17.7641 -17.7618 -17.7491 -17.7225
   -17.7208 -17.6672 -17.6560 -12.0724 -11.8540 -11.7093 -11.6711 -11.6241
   -11.5422 -11.4808 -11.4578 -11.4534 -11.4491 -11.4485 -11.4370 -11.4231
   -11.4153 -11.3789 -11.3583 -11.3537 -11.3505 -11.3360 -11.3128 -11.3019
   -11.2874 -11.2865 -11.2618 -11.2501 -11.2396 -11.2344 -11.2344 -11.1935
   -11.1888 -11.1873 -11.1397 -11.1353 -11.1301 -11.1143 -11.0744 -11.0731
   -11.0136 -10.9924 -10.9739 -10.9586 -10.9414 -10.9104 -10.9060 -10.9004
   -10.8936 -10.8848 -10.8754 -10.8618 -10.8505 -10.8368 -10.8223 -10.8093
   -10.8079 -10.8071 -10.8062 -10.8002 -10.7931 -10.7754 -10.7550 -10.7456
   -10.7397 -10.7343 -10.7273 -10.7074 -10.6062 -10.5893 -10.5429 -10.4723
   -10.4660 -10.4447 -10.3804 -10.3423 -10.2665 -10.2374 -10.2196 -10.1657
   -10.1292 -10.1197 -10.0900 -10.0806 -10.0769 -10.0494 -10.0248  -9.9972
    -9.9706  -9.9495  -9.9406  -9.9226  -9.9149  -9.9105  -9.9048  -9.8944
    -9.8817  -9.8718  -9.8675  -9.8622  -9.8215  -9.8012  -9.7784  -9.7528
    -9.7412  -9.7290  -9.7209  -9.6952  -9.6927  -9.6916  -9.6843  -9.6772
    -9.6674  -9.6536  -9.6381  -9.6367  -9.6175  -9.6012  -9.5862  -9.5701
    -9.5346  -9.5266  -9.5147  -9.5064  -9.4991  -9.4656  -9.4513  -9.4473
    -9.4446  -9.3501  -9.3395  -9.3219  -9.3088  -9.2717  -9.2239  -9.1963
    -9.1893  -9.1810  -9.1566  -9.1536  -9.1307  -9.1182  -9.1159  -9.1013
    -9.0865  -9.0835  -9.0672  -9.0502  -9.0334  -9.0240  -9.0179  -9.0154
    -9.0023  -8.9835  -8.9730  -8.9593  -8.9420  -8.9397  -8.9305  -8.9285
    -8.9212  -8.9121  -8.9044  -8.8996  -8.8912  -8.8659  -8.8562  -8.8506
    -8.8426  -8.8355  -8.8330  -8.8266  -8.8185  -8.8167  -8.8158  -8.8084
    -8.7929  -8.7887  -8.7733  -8.7553  -8.7427  -8.7406  -8.7326  -8.7208
    -8.7005  -8.6403  -8.6077  -8.5485  -8.5098  -8.4895  -8.4888  -8.4148
    -8.4050  -8.3978  -8.3611  -8.3464  -8.2738  -8.2506  -8.1905  -8.1705
    -8.1705  -8.1418  -8.1074  -8.0984  -8.0962  -8.0691  -8.0287  -7.9981
    -7.9790  -7.9117  -7.9089  -7.8943  -7.8774  -7.8420  -7.8393  -7.8388
    -7.8264  -7.8247  -7.8239  -7.8238  -7.8227  -7.8125  -7.8097  -7.7795
    -7.7782  -7.7769  -7.7754  -7.7649  -7.7555  -7.7529  -7.7445  -7.7381
    -7.7280  -7.7226  -7.7163  -7.7133  -7.7022  -7.7010  -7.6949  -7.6900
    -7.6857  -7.6747  -7.6678  -7.6606  -7.6478  -7.6387  -7.6386  -7.6270
    -7.6235  -7.6065  -7.5927  -7.5782  -7.5742  -7.5663  -7.5582  -7.5466
    -7.5322  -7.5119  -7.5014  -7.4919  -7.4598  -7.4465  -7.3958  -7.3388
    -7.2872  -7.2378  -7.2344  -7.2171  -7.2035  -7.1979  -7.1679  -7.1416
    -7.1257  -7.0882  -7.0675  -7.0487  -7.0133  -7.0016  -6.9940  -6.9878
    -6.9857  -6.9718  -6.9349  -6.9325  -6.9196  -6.8932  -6.8841  -6.8777
    -6.8639  -6.8359  -6.8189  -6.8077  -6.7686  -6.7421  -6.7226  -6.6912
    -6.6712  -6.6591  -6.6522  -6.6359  -6.6357  -6.6357  -6.6356  -6.6219
    -6.6006  -6.5893  -6.5674  -6.5670  -6.5661  -6.5636  -6.5551  -6.5419
    -6.5238  -6.4770  -6.4487  -6.4221  -6.4066  -6.3580  -6.3520  -6.3046
    -6.3041  -6.3035  -6.3033  -6.2803  -6.2558  -6.2473  -6.2324  -6.2291
    -6.2225  -6.2195  -6.2175  -6.2138  -6.1910  -6.1745  -6.1417  -6.0816
    -6.0331  -5.9555  -5.9555  -5.8944  -5.8798  -5.8785  -5.8619  -5.8172
    -5.7345  -5.6881  -5.6322  -5.5813  -5.5563  -5.5256  -5.4492  -5.4093
    -5.2989  -5.1864  -4.1555  -4.0200  -4.0108  -3.9935  -3.9591  -3.8997
    -3.8710  -3.8709  -3.8435  -3.8189  -3.8069  -3.8060  -3.7963  -3.7534
    -3.7461  -3.7404  -3.6984  -3.6851  -3.6198  -3.5830  -3.5806  -3.5732
    -3.5700  -3.5662  -3.5568  -3.5564  -3.5493  -3.5320  -3.5054  -3.4817
    -3.4797  -3.4753  -3.4707  -3.4604  -3.4566  -3.4472  -3.4408  -3.4345
    -3.4100  -3.3969  -3.3814  -3.3618  -3.3441  -3.3345  -3.3243  -3.3237
    -3.3153  -3.2977  -3.2927  -3.2901  -3.2865  -3.2759  -3.2523  -3.2482
    -3.2476  -3.2471  -3.2466  -3.2387  -3.2155  -3.2087  -3.2019  -3.1927
    -3.1897  -3.1844  -3.1740  -3.1661  -3.1587  -3.1554  -3.1361  -3.1186
    -3.1080  -3.0968  -3.0855  -3.0528  -3.0446  -3.0415  -3.0151  -3.0120
    -3.0034  -3.0025  -2.9852  -2.9836  -2.9833  -2.9830  -2.9553  -2.9430
    -2.9370  -2.9341  -2.9309  -2.9242  -2.9100  -2.8980  -2.8945  -2.8907
    -2.8886  -2.8740  -2.8686  -2.8581  -2.8540  -2.8439  -2.8398  -2.8206
    -2.8180  -2.7871  -2.7788  -2.7774  -2.7759  -2.7390  -2.7182  -2.7111
    -2.6858  -2.6818  -2.6323  -2.6252  -2.6217  -2.6196  -2.6113  -2.6063
    -2.5439  -2.5357  -2.4905  -2.4850  -2.4799  -2.4699  -2.4646  -2.4403
    -2.3744  -2.3569  -2.3301  -2.3092  -2.2697  -2.2563

          k =-0.5000-0.2887 0.0000 (321564 PWs)   bands (ev):

  -102.8475 -88.6971 -88.2536 -71.1766 -71.1690 -71.1532 -71.1401 -71.1289
   -71.1206 -71.1110 -66.6593 -66.6593 -66.6488 -66.6488 -66.6338 -66.6338
   -66.6338 -66.6338 -66.6294 -66.6294 -66.6232 -66.6232 -66.6232 -66.6232
   -66.6188 -66.6188 -66.5934 -66.5932 -66.5828 -66.5826 -66.5680 -66.5678
   -66.5677 -66.5676 -66.5635 -66.5633 -66.5574 -66.5571 -66.5571 -66.5570
   -66.5528 -66.5527 -66.5221 -66.5132 -66.5059 -66.4964 -66.4947 -66.4876
   -66.4849 -66.4805 -66.4763 -66.4723 -66.4688 -66.4655 -66.4624 -66.4575
   -66.4572 -66.4498 -57.1538 -57.0444 -57.0109 -54.5573 -54.4637 -54.4392
   -54.0994 -54.0598 -54.0132 -40.9604 -40.9604 -40.9603 -40.9603 -40.9337
   -40.9337 -40.9218 -40.9218 -40.8934 -40.8931 -40.8930 -40.8930 -40.8714
   -40.8714 -40.8713 -40.8713 -40.8666 -40.8665 -40.8547 -40.8545 -40.8202
   -40.8153 -40.8135 -40.8134 -40.8043 -40.8043 -40.8042 -40.8041 -40.8034
   -40.8034 -40.7963 -40.7927 -40.7927 -40.7923 -40.7901 -40.7833 -40.7660
   -40.7633 -40.7633 -40.7633 -40.7633 -40.7546 -40.7546 -40.7480 -40.7478
   -40.7456 -40.7424 -40.7424 -40.7424 -40.7424 -40.7424 -40.7424 -40.7365
   -40.7363 -40.7338 -40.7338 -40.7272 -40.7271 -40.7211 -40.7117 -40.7117
   -40.7116 -40.7116 -40.7106 -40.7082 -40.7069 -40.7012 -40.6980 -40.6978
   -40.6978 -40.6977 -40.6892 -40.6890 -40.6825 -40.6772 -40.6772 -40.6772
   -40.6771 -40.6771 -40.6769 -40.6768 -40.6768 -40.6762 -40.6755 -40.6753
   -40.6684 -40.6683 -40.6651 -40.6651 -40.6597 -40.6459 -40.6459 -40.6456
   -40.6449 -40.6448 -40.6447 -40.6446 -40.6431 -40.6407 -40.6372 -40.6342
   -40.6290 -40.6290 -40.6253 -40.6212 -40.6172 -40.6128 -40.6104 -40.6103
   -40.6102 -40.6101 -40.6067 -40.6059 -40.6047 -40.5989 -40.5986 -40.5985
   -40.5983 -40.5981 -40.5914 -40.5872 -40.5819 -40.5791 -40.5789 -40.5622
   -40.5620 -40.5615 -40.5576 -40.5515 -40.5497 -40.5318 -40.5316 -40.5226
   -40.5187 -40.5167 -40.5137 -40.5089 -40.4947 -40.4898 -40.4833 -40.4673
   -40.4561 -40.4425 -40.4257 -20.0181 -19.8644 -19.8477 -19.7748 -19.6891
   -19.6531 -19.4739 -19.4503 -19.4094 -19.3946 -19.2631 -19.2499 -19.0561
   -18.8544 -18.7878 -18.7660 -18.7293 -18.7217 -18.7142 -18.7105 -18.7021
   -18.6983 -18.6253 -18.6049 -18.5920 -18.5872 -18.5793 -18.5699 -18.5538
   -18.5193 -18.4928 -18.4694 -18.4651 -18.4377 -18.4276 -18.4105 -18.3827
   -18.3759 -18.3581 -18.3418 -18.2999 -18.2928 -18.2545 -18.2398 -18.2220
   -18.1990 -18.1822 -18.1690 -18.1419 -18.1234 -18.1184 -18.1048 -18.1048
   -18.1046 -18.1045 -18.0933 -18.0717 -18.0690 -18.0393 -18.0294 -18.0286
   -18.0237 -18.0230 -18.0153 -17.9996 -17.9909 -17.9719 -17.9709 -17.9641
   -17.9460 -17.9256 -17.9250 -17.9231 -17.9169 -17.9038 -17.9004 -17.8665
   -17.8612 -17.8515 -17.8413 -17.8413 -17.8388 -17.8164 -17.7976 -17.7903
   -17.7815 -17.7814 -17.7664 -17.7661 -17.7633 -17.7596 -17.7533 -17.7222
   -17.7211 -17.6662 -17.6577 -12.0630 -11.8294 -11.7449 -11.6654 -11.6453
   -11.5445 -11.5079 -11.4533 -11.4511 -11.4491 -11.4476 -11.4331 -11.4229
   -11.3925 -11.3797 -11.3670 -11.3593 -11.3517 -11.3450 -11.3138 -11.3086
   -11.2850 -11.2728 -11.2622 -11.2521 -11.2344 -11.2343 -11.2290 -11.1888
   -11.1884 -11.1711 -11.1409 -11.1350 -11.1318 -11.1231 -11.0658 -11.0611
   -11.0103 -10.9980 -10.9667 -10.9563 -10.9508 -10.9220 -10.9080 -10.8989
   -10.8897 -10.8844 -10.8676 -10.8545 -10.8489 -10.8288 -10.8210 -10.8135
   -10.8080 -10.8070 -10.8061 -10.8054 -10.7953 -10.7855 -10.7637 -10.7434
   -10.7397 -10.7364 -10.7315 -10.6728 -10.6317 -10.5771 -10.5386 -10.4826
   -10.4700 -10.4299 -10.3754 -10.3374 -10.3216 -10.2671 -10.2425 -10.1364
   -10.1162 -10.1055 -10.0957 -10.0839 -10.0595 -10.0397 -10.0159  -9.9895
    -9.9506  -9.9397  -9.9244  -9.9145  -9.9137  -9.9043  -9.8972  -9.8840
    -9.8780  -9.8699  -9.8628  -9.8492  -9.8326  -9.7934  -9.7763  -9.7679
    -9.7652  -9.7422  -9.7244  -9.7012  -9.6919  -9.6901  -9.6837  -9.6794
    -9.6725  -9.6628  -9.6451  -9.6352  -9.6266  -9.6111  -9.5913  -9.5719
    -9.5526  -9.5350  -9.5191  -9.5132  -9.5052  -9.4826  -9.4510  -9.4485
    -9.4202  -9.3719  -9.3503  -9.3275  -9.3084  -9.2641  -9.2388  -9.1957
    -9.1798  -9.1730  -9.1558  -9.1367  -9.1286  -9.1226  -9.1106  -9.0938
    -9.0818  -9.0665  -9.0590  -9.0479  -9.0308  -9.0235  -9.0170  -9.0117
    -9.0002  -8.9847  -8.9714  -8.9653  -8.9514  -8.9393  -8.9316  -8.9258
    -8.9179  -8.9152  -8.9093  -8.8974  -8.8840  -8.8688  -8.8573  -8.8494
    -8.8433  -8.8356  -8.8334  -8.8264  -8.8186  -8.8170  -8.8159  -8.8029
    -8.8021  -8.7892  -8.7881  -8.7504  -8.7454  -8.7392  -8.7345  -8.7169
    -8.7025  -8.6645  -8.5747  -8.5307  -8.4899  -8.4892  -8.4766  -8.4545
    -8.4111  -8.4059  -8.3844  -8.3159  -8.2846  -8.2443  -8.1810  -8.1705
    -8.1705  -8.1400  -8.1183  -8.0982  -8.0980  -8.0464  -8.0368  -7.9808
    -7.9423  -7.9111  -7.9085  -7.8869  -7.8848  -7.8485  -7.8401  -7.8320
    -7.8304  -7.8248  -7.8240  -7.8238  -7.8229  -7.8155  -7.8135  -7.7812
    -7.7796  -7.7773  -7.7761  -7.7723  -7.7658  -7.7532  -7.7522  -7.7382
    -7.7320  -7.7226  -7.7212  -7.7056  -7.7044  -7.7007  -7.6975  -7.6808
    -7.6786  -7.6709  -7.6644  -7.6577  -7.6398  -7.6387  -7.6386  -7.6336
    -7.6187  -7.6145  -7.5974  -7.5934  -7.5768  -7.5652  -7.5632  -7.5457
    -7.5214  -7.5048  -7.5020  -7.4869  -7.4614  -7.4449  -7.3957  -7.3341
    -7.3030  -7.2884  -7.2288  -7.2167  -7.2096  -7.1979  -7.1697  -7.1466
    -7.1158  -7.0905  -7.0671  -7.0409  -7.0319  -7.0150  -6.9966  -6.9911
    -6.9859  -6.9647  -6.9421  -6.9359  -6.9298  -6.9001  -6.8804  -6.8729
    -6.8644  -6.8374  -6.8079  -6.7938  -6.7648  -6.7442  -6.7166  -6.6942
    -6.6846  -6.6615  -6.6362  -6.6357  -6.6357  -6.6356  -6.6342  -6.6195
    -6.5848  -6.5756  -6.5675  -6.5665  -6.5640  -6.5585  -6.5371  -6.5361
    -6.5059  -6.4692  -6.4600  -6.4437  -6.4108  -6.4074  -6.3182  -6.3045
    -6.3040  -6.3035  -6.3029  -6.2780  -6.2448  -6.2389  -6.2367  -6.2235
    -6.2216  -6.2181  -6.2146  -6.2056  -6.1823  -6.1743  -6.1351  -6.1122
    -5.9839  -5.9580  -5.9555  -5.9552  -5.8871  -5.8782  -5.8755  -5.7506
    -5.7428  -5.6909  -5.6644  -5.6020  -5.5547  -5.5037  -5.4689  -5.3657
    -5.3115  -5.2188  -4.1844  -4.0227  -4.0028  -3.9949  -3.9624  -3.8813
    -3.8711  -3.8710  -3.8371  -3.8239  -3.8064  -3.8056  -3.7904  -3.7601
    -3.7490  -3.7296  -3.6948  -3.6738  -3.6159  -3.5779  -3.5764  -3.5731
    -3.5702  -3.5687  -3.5567  -3.5561  -3.5519  -3.5339  -3.5012  -3.4802
    -3.4757  -3.4697  -3.4689  -3.4553  -3.4501  -3.4481  -3.4436  -3.4354
    -3.4019  -3.3956  -3.3698  -3.3550  -3.3458  -3.3345  -3.3286  -3.3231
    -3.3221  -3.3155  -3.2931  -3.2917  -3.2859  -3.2815  -3.2591  -3.2479
    -3.2475  -3.2470  -3.2462  -3.2368  -3.2166  -3.2065  -3.2050  -3.2000
    -3.1866  -3.1841  -3.1709  -3.1656  -3.1624  -3.1582  -3.1281  -3.1189
    -3.1014  -3.0904  -3.0800  -3.0622  -3.0441  -3.0423  -3.0190  -3.0120
    -3.0042  -3.0023  -2.9838  -2.9833  -2.9828  -2.9828  -2.9505  -2.9380
    -2.9347  -2.9339  -2.9221  -2.9158  -2.9102  -2.9025  -2.8921  -2.8890
    -2.8786  -2.8718  -2.8679  -2.8634  -2.8538  -2.8486  -2.8340  -2.8265
    -2.8020  -2.7983  -2.7871  -2.7709  -2.7686  -2.7579  -2.7166  -2.7142
    -2.6817  -2.6781  -2.6450  -2.6260  -2.6213  -2.6206  -2.6141  -2.6063
    -2.5431  -2.5373  -2.5020  -2.4919  -2.4728  -2.4682  -2.4646  -2.4506
    -2.3739  -2.3371  -2.3228  -2.2825  -2.2488  -2.2106

          k =-0.5000-0.8660 0.0000 (321564 PWs)   bands (ev):

  -102.8475 -88.6971 -88.2536 -71.1766 -71.1690 -71.1532 -71.1401 -71.1289
   -71.1206 -71.1110 -66.6593 -66.6593 -66.6488 -66.6488 -66.6338 -66.6338
   -66.6338 -66.6338 -66.6294 -66.6294 -66.6232 -66.6232 -66.6232 -66.6232
   -66.6188 -66.6188 -66.5934 -66.5932 -66.5828 -66.5826 -66.5680 -66.5679
   -66.5678 -66.5675 -66.5635 -66.5632 -66.5575 -66.5571 -66.5570 -66.5570
   -66.5528 -66.5526 -66.5216 -66.5150 -66.5040 -66.4968 -66.4928 -66.4907
   -66.4831 -66.4817 -66.4762 -66.4714 -66.4699 -66.4642 -66.4623 -66.4583
   -66.4573 -66.4497 -57.1538 -57.0444 -57.0109 -54.5573 -54.4637 -54.4392
   -54.0994 -54.0598 -54.0132 -40.9604 -40.9604 -40.9603 -40.9603 -40.9337
   -40.9337 -40.9218 -40.9218 -40.8934 -40.8931 -40.8931 -40.8930 -40.8714
   -40.8713 -40.8713 -40.8713 -40.8666 -40.8664 -40.8547 -40.8545 -40.8165
   -40.8135 -40.8134 -40.8095 -40.8067 -40.8044 -40.8043 -40.8042 -40.8041
   -40.8034 -40.8034 -40.7980 -40.7927 -40.7927 -40.7906 -40.7820 -40.7636
   -40.7633 -40.7633 -40.7633 -40.7633 -40.7546 -40.7546 -40.7480 -40.7478
   -40.7432 -40.7424 -40.7424 -40.7424 -40.7424 -40.7424 -40.7424 -40.7365
   -40.7363 -40.7338 -40.7338 -40.7272 -40.7271 -40.7161 -40.7121 -40.7117
   -40.7117 -40.7116 -40.7116 -40.7091 -40.7050 -40.7010 -40.6980 -40.6978
   -40.6978 -40.6976 -40.6893 -40.6890 -40.6843 -40.6772 -40.6772 -40.6772
   -40.6771 -40.6771 -40.6769 -40.6768 -40.6768 -40.6755 -40.6753 -40.6735
   -40.6684 -40.6682 -40.6651 -40.6651 -40.6559 -40.6542 -40.6461 -40.6459
   -40.6459 -40.6450 -40.6448 -40.6446 -40.6445 -40.6399 -40.6337 -40.6315
   -40.6290 -40.6290 -40.6256 -40.6212 -40.6197 -40.6123 -40.6104 -40.6103
   -40.6102 -40.6101 -40.6083 -40.6062 -40.6013 -40.6006 -40.5986 -40.5985
   -40.5983 -40.5981 -40.5913 -40.5905 -40.5806 -40.5792 -40.5788 -40.5623
   -40.5620 -40.5599 -40.5584 -40.5545 -40.5517 -40.5318 -40.5316 -40.5209
   -40.5183 -40.5159 -40.5116 -40.5105 -40.4973 -40.4923 -40.4768 -40.4657
   -40.4531 -40.4409 -40.4318 -20.0038 -19.8716 -19.8478 -19.8014 -19.6903
   -19.6641 -19.4567 -19.4334 -19.4045 -19.3671 -19.2617 -19.2403 -19.1015
   -18.9051 -18.7710 -18.7656 -18.7197 -18.7189 -18.7148 -18.7115 -18.6908
   -18.6597 -18.6439 -18.6077 -18.5985 -18.5826 -18.5743 -18.5710 -18.5567
   -18.5253 -18.4982 -18.4696 -18.4664 -18.4487 -18.4323 -18.4060 -18.3968
   -18.3759 -18.3586 -18.3320 -18.2862 -18.2751 -18.2654 -18.2320 -18.2102
   -18.2084 -18.1684 -18.1582 -18.1487 -18.1298 -18.1058 -18.1050 -18.1047
   -18.1046 -18.1041 -18.0905 -18.0781 -18.0643 -18.0374 -18.0346 -18.0300
   -18.0233 -18.0200 -18.0172 -18.0156 -17.9969 -17.9751 -17.9683 -17.9592
   -17.9567 -17.9320 -17.9259 -17.9183 -17.9150 -17.9142 -17.9002 -17.8666
   -17.8585 -17.8525 -17.8479 -17.8413 -17.8413 -17.8032 -17.8017 -17.7845
   -17.7817 -17.7812 -17.7776 -17.7681 -17.7648 -17.7621 -17.7355 -17.7221
   -17.7203 -17.6675 -17.6555 -12.0377 -11.8341 -11.7136 -11.6756 -11.6279
   -11.6192 -11.5211 -11.4827 -11.4506 -11.4492 -11.4478 -11.4462 -11.4264
   -11.4210 -11.3817 -11.3592 -11.3529 -11.3504 -11.3439 -11.3350 -11.2940
   -11.2756 -11.2662 -11.2639 -11.2456 -11.2344 -11.2343 -11.1932 -11.1885
   -11.1883 -11.1553 -11.1385 -11.1368 -11.1306 -11.1171 -11.0440 -11.0324
   -11.0215 -10.9981 -10.9833 -10.9562 -10.9419 -10.9384 -10.9126 -10.8933
   -10.8873 -10.8860 -10.8799 -10.8574 -10.8467 -10.8345 -10.8233 -10.8098
   -10.8078 -10.8072 -10.8064 -10.8042 -10.8007 -10.7995 -10.7580 -10.7433
   -10.7406 -10.7351 -10.7322 -10.6322 -10.6074 -10.5667 -10.5482 -10.4876
   -10.4780 -10.4482 -10.4157 -10.3334 -10.3178 -10.2540 -10.2171 -10.1430
   -10.1175 -10.0990 -10.0935 -10.0855 -10.0692 -10.0139 -10.0023  -9.9963
    -9.9690  -9.9369  -9.9285  -9.9268  -9.9086  -9.9060  -9.9011  -9.8870
    -9.8800  -9.8754  -9.8657  -9.8511  -9.8392  -9.8003  -9.7692  -9.7378
    -9.7372  -9.7270  -9.7150  -9.7094  -9.6938  -9.6882  -9.6870  -9.6723
    -9.6705  -9.6518  -9.6461  -9.6180  -9.6088  -9.5962  -9.5852  -9.5452
    -9.5388  -9.5243  -9.5163  -9.5048  -9.4965  -9.4943  -9.4863  -9.4517
    -9.4472  -9.4178  -9.3961  -9.3716  -9.3131  -9.2752  -9.2404  -9.1930
    -9.1827  -9.1737  -9.1567  -9.1403  -9.1355  -9.1285  -9.1164  -9.0954
    -9.0902  -9.0776  -9.0601  -9.0486  -9.0276  -9.0186  -9.0137  -9.0036
    -8.9889  -8.9845  -8.9709  -8.9685  -8.9500  -8.9381  -8.9322  -8.9209
    -8.9197  -8.9119  -8.9092  -8.8859  -8.8801  -8.8667  -8.8610  -8.8407
    -8.8350  -8.8337  -8.8283  -8.8216  -8.8172  -8.8162  -8.8119  -8.8093
    -8.8052  -8.7914  -8.7852  -8.7700  -8.7546  -8.7400  -8.7300  -8.7277
    -8.6835  -8.6600  -8.5688  -8.5278  -8.4902  -8.4894  -8.4668  -8.4573
    -8.4067  -8.4014  -8.3994  -8.3443  -8.3189  -8.2754  -8.1705  -8.1705
    -8.1559  -8.1345  -8.1058  -8.0982  -8.0974  -8.0743  -7.9899  -7.9786
    -7.9513  -7.9097  -7.9089  -7.8752  -7.8517  -7.8485  -7.8407  -7.8362
    -7.8285  -7.8266  -7.8238  -7.8238  -7.8215  -7.8094  -7.7884  -7.7848
    -7.7779  -7.7771  -7.7755  -7.7669  -7.7550  -7.7530  -7.7476  -7.7395
    -7.7314  -7.7259  -7.7152  -7.7125  -7.7055  -7.6978  -7.6972  -7.6909
    -7.6849  -7.6750  -7.6647  -7.6557  -7.6420  -7.6387  -7.6385  -7.6306
    -7.6204  -7.6154  -7.5967  -7.5840  -7.5805  -7.5719  -7.5623  -7.5472
    -7.5201  -7.5160  -7.5012  -7.4903  -7.4881  -7.4294  -7.3615  -7.3559
    -7.3133  -7.2512  -7.2380  -7.2141  -7.2103  -7.1943  -7.1895  -7.1401
    -7.1092  -7.0980  -7.0627  -7.0491  -7.0375  -7.0159  -6.9914  -6.9865
    -6.9846  -6.9792  -6.9479  -6.9297  -6.9075  -6.8969  -6.8778  -6.8739
    -6.8657  -6.8408  -6.8215  -6.7976  -6.7662  -6.7551  -6.7255  -6.7150
    -6.6727  -6.6550  -6.6386  -6.6357  -6.6357  -6.6356  -6.6349  -6.6203
    -6.6017  -6.5801  -6.5738  -6.5666  -6.5648  -6.5639  -6.5624  -6.5126
    -6.4872  -6.4807  -6.4455  -6.4247  -6.4161  -6.4081  -6.3438  -6.3072
    -6.3038  -6.3036  -6.3035  -6.2963  -6.2487  -6.2409  -6.2294  -6.2212
    -6.2197  -6.2187  -6.2158  -6.1905  -6.1824  -6.1616  -6.1356  -6.0282
    -5.9989  -5.9556  -5.9555  -5.9173  -5.8832  -5.8774  -5.8731  -5.8379
    -5.7287  -5.7023  -5.6418  -5.5906  -5.5768  -5.5264  -5.4416  -5.4001
    -5.3085  -5.2097  -4.1907  -4.0073  -4.0021  -3.9967  -3.9827  -3.8711
    -3.8705  -3.8627  -3.8555  -3.8068  -3.8060  -3.8020  -3.7782  -3.7688
    -3.7524  -3.7430  -3.7311  -3.6561  -3.6135  -3.5825  -3.5765  -3.5738
    -3.5709  -3.5594  -3.5561  -3.5560  -3.5445  -3.5312  -3.5296  -3.4878
    -3.4805  -3.4752  -3.4604  -3.4540  -3.4496  -3.4465  -3.4390  -3.4379
    -3.3997  -3.3808  -3.3630  -3.3554  -3.3422  -3.3346  -3.3243  -3.3237
    -3.3144  -3.2993  -3.2926  -3.2900  -3.2842  -3.2691  -3.2626  -3.2482
    -3.2479  -3.2473  -3.2465  -3.2334  -3.2136  -3.2090  -3.2003  -3.1939
    -3.1877  -3.1818  -3.1756  -3.1650  -3.1616  -3.1579  -3.1496  -3.1116
    -3.1013  -3.0914  -3.0843  -3.0619  -3.0439  -3.0423  -3.0243  -3.0138
    -3.0040  -3.0018  -2.9844  -2.9840  -2.9839  -2.9834  -2.9483  -2.9417
    -2.9363  -2.9344  -2.9175  -2.9153  -2.9058  -2.8986  -2.8959  -2.8928
    -2.8888  -2.8810  -2.8710  -2.8599  -2.8525  -2.8464  -2.8291  -2.8186
    -2.8056  -2.8023  -2.7891  -2.7749  -2.7723  -2.7626  -2.7170  -2.7126
    -2.6835  -2.6809  -2.6413  -2.6326  -2.6211  -2.6198  -2.6094  -2.6020
    -2.5417  -2.5369  -2.4986  -2.4965  -2.4740  -2.4663  -2.4610  -2.4557
    -2.4219  -2.3607  -2.3220  -2.2793  -2.2302  -2.2249

     the Fermi energy is    -4.6514 ev

!    total energy              =  -26543.75872951 Ry
     total all-electron energy =   -522376.355037 Ry
     estimated scf accuracy    <       0.00000060 Ry
     smearing contrib. (-TS)   =      -0.00000006 Ry
     internal energy E=F+TS    =  -26543.75872946 Ry

     The total energy is F=E-TS. E is the sum of the following terms:
     one-electron contribution =  511281.26269105 Ry
     hartree contribution      = -255784.58176956 Ry
     xc contribution           =   -1565.70434446 Ry
     ewald contribution        = -264026.72586734 Ry
     DFT-D3 Dispersion         =      -4.06007282 Ry
     one-center paw contrib.   =  -16443.94936633 Ry

     convergence has been achieved in  20 iterations

     negative rho (up, down):  9.576E-04 0.000E+00

     Forces acting on atoms (cartesian axes, Ry/au):

     atom    1 type  1   force =    -0.00024988    0.00005469    0.00057133
     atom    2 type  1   force =    -0.00000003    0.00000054    0.00189291
     atom    3 type  1   force =     0.00003770    0.00001263    0.00006316
     atom    4 type  2   force =     0.00000877    0.00000146   -0.00282210
     atom    5 type  2   force =     0.00001819   -0.00000070    0.00044716
     atom    6 type  2   force =     0.00008152    0.00034530    0.00033251
     atom    7 type  2   force =     0.00000249   -0.00000231    0.00110631
     atom    8 type  2   force =    -0.00001434   -0.00000631   -0.00047812
     atom    9 type  2   force =     0.00014036    0.00008406    0.00018799
     atom   10 type  1   force =     0.00036314    0.00051498    0.00043451
     atom   11 type  1   force =    -0.00000331    0.00000531    0.00188155
     atom   12 type  1   force =     0.00003596    0.00001566    0.00004080
     atom   13 type  2   force =     0.00000144    0.00000068   -0.00282303
     atom   14 type  2   force =     0.00001122    0.00000854    0.00043598
     atom   15 type  2   force =     0.00102432    0.00024503   -0.00060952
     atom   16 type  2   force =    -0.00000175    0.00000300    0.00111568
     atom   17 type  2   force =    -0.00000258    0.00000885   -0.00045116
     atom   18 type  2   force =    -0.00065107   -0.00043233   -0.00161429
     atom   19 type  1   force =    -0.00015696    0.00001762    0.00041137
     atom   20 type  1   force =    -0.00000433    0.00001053    0.00189736
     atom   21 type  1   force =     0.00004356    0.00003825    0.00002888
     atom   22 type  2   force =     0.00000389    0.00000545   -0.00282608
     atom   23 type  2   force =     0.00001938   -0.00000001    0.00042984
     atom   24 type  2   force =     0.00024232   -0.00040477    0.00006717
     atom   25 type  2   force =     0.00000477   -0.00000164    0.00110107
     atom   26 type  2   force =     0.00001842   -0.00000043   -0.00044546
     atom   27 type  2   force =    -0.00006559   -0.00012701    0.00018974
     atom   28 type  1   force =     0.00059382    0.00015517    0.00014728
     atom   29 type  1   force =     0.00000809   -0.00000930    0.00188945
     atom   30 type  1   force =    -0.00000554   -0.00002172    0.00004056
     atom   31 type  2   force =     0.00000737    0.00000141   -0.00282047
     atom   32 type  2   force =     0.00000608    0.00001375    0.00044060
     atom   33 type  2   force =    -0.00004272    0.00007431    0.00029856
     atom   34 type  2   force =     0.00000012   -0.00000721    0.00110265
     atom   35 type  2   force =     0.00001819   -0.00001029   -0.00044853
     atom   36 type  2   force =     0.00012125    0.00005166   -0.00051184
     atom   37 type  1   force =    -0.00398078   -0.00219512   -0.00177692
     atom   38 type  1   force =     0.00000104   -0.00001904    0.00189037
     atom   39 type  1   force =    -0.00002727    0.00001005    0.00009758
     atom   40 type  2   force =     0.00000292   -0.00000319   -0.00281653
     atom   41 type  2   force =    -0.00001208   -0.00001070    0.00045344
     atom   42 type  2   force =     0.00008133    0.00080203    0.00040655
     atom   43 type  2   force =     0.00000629    0.00000330    0.00109833
     atom   44 type  2   force =     0.00001009    0.00001059   -0.00033667
     atom   45 type  2   force =     0.00007255    0.00012518   -0.00020923
     atom   46 type  1   force =     0.00071833    0.00002969    0.00041758
     atom   47 type  1   force =    -0.00001385   -0.00000229    0.00188377
     atom   48 type  1   force =     0.00000707   -0.00003362    0.00001708
     atom   49 type  2   force =     0.00000139   -0.00000514   -0.00281360
     atom   50 type  2   force =    -0.00000542   -0.00001765    0.00044000
     atom   51 type  2   force =     0.00029580   -0.00002581    0.00055100
     atom   52 type  2   force =     0.00000445    0.00000090    0.00110267
     atom   53 type  2   force =     0.00002875    0.00002628   -0.00038522
     atom   54 type  2   force =    -0.00012716   -0.00074022   -0.00056164
     atom   55 type  1   force =    -0.00013020   -0.00055714    0.00060751
     atom   56 type  1   force =    -0.00000551    0.00000480    0.00188716
     atom   57 type  1   force =    -0.00001877    0.00001283    0.00002391
     atom   58 type  2   force =    -0.00000623    0.00000198   -0.00281297
     atom   59 type  2   force =    -0.00000549   -0.00001904    0.00044818
     atom   60 type  2   force =    -0.00003476   -0.00013622    0.00040923
     atom   61 type  2   force =    -0.00000312    0.00000159    0.00108662
     atom   62 type  2   force =     0.00001405    0.00000669   -0.00046090
     atom   63 type  2   force =    -0.00028757    0.00027256   -0.00054609
     atom   64 type  1   force =    -0.00095911   -0.00191533   -0.00233055
     atom   65 type  1   force =    -0.00000685   -0.00000058    0.00189158
     atom   66 type  1   force =    -0.00000400   -0.00006198    0.00006651
     atom   67 type  2   force =     0.00000103    0.00000202   -0.00281289
     atom   68 type  2   force =    -0.00000536   -0.00001657    0.00043230
     atom   69 type  2   force =     0.00019031    0.00023025    0.00040656
     atom   70 type  2   force =     0.00000542   -0.00000777    0.00108271
     atom   71 type  2   force =     0.00001567   -0.00001853   -0.00044817
     atom   72 type  2   force =    -0.00012306    0.00012217    0.00014401
     atom   73 type  1   force =    -0.00038141    0.00036967   -0.02273202
     atom   74 type  1   force =    -0.00000148    0.00001026    0.00189409
     atom   75 type  1   force =     0.00000840    0.00000741    0.00000959
     atom   76 type  2   force =     0.00000316   -0.00000053   -0.00281371
     atom   77 type  2   force =     0.00000039    0.00000027    0.00042409
     atom   78 type  2   force =    -0.00016738   -0.00005845    0.00294141
     atom   79 type  2   force =     0.00000761    0.00000205    0.00109278
     atom   80 type  2   force =     0.00000966   -0.00001680   -0.00042165
     atom   81 type  2   force =    -0.01560552   -0.01070524    0.01402587
     atom   82 type  1   force =    -0.00022936    0.00228774   -0.00223514
     atom   83 type  1   force =     0.00002055   -0.00000273    0.00188081
     atom   84 type  1   force =    -0.00004776    0.00001005    0.00001625
     atom   85 type  2   force =     0.00000334   -0.00000337   -0.00283581
     atom   86 type  2   force =    -0.00000030    0.00000558    0.00040925
     atom   87 type  2   force =    -0.00082780   -0.00002346   -0.00066810
     atom   88 type  2   force =     0.00000702    0.00000942    0.00110806
     atom   89 type  2   force =    -0.00002688    0.00001771   -0.00044096
     atom   90 type  2   force =    -0.00241420    0.00171285   -0.00384909
     atom   91 type  1   force =    -0.00038237    0.00021293    0.00030588
     atom   92 type  1   force =     0.00000340    0.00000158    0.00188240
     atom   93 type  1   force =     0.00002091    0.00000794   -0.00005547
     atom   94 type  2   force =     0.00000611    0.00000277   -0.00282118
     atom   95 type  2   force =     0.00002254   -0.00000161    0.00039995
     atom   96 type  2   force =    -0.00021310   -0.00018013   -0.00011334
     atom   97 type  2   force =     0.00000943   -0.00000070    0.00109780
     atom   98 type  2   force =    -0.00000704    0.00001341   -0.00045201
     atom   99 type  2   force =     0.00020742    0.00035235   -0.00074568
     atom  100 type  1   force =     0.00150279   -0.00274055   -0.00267238
     atom  101 type  1   force =    -0.00000012    0.00000723    0.00188419
     atom  102 type  1   force =     0.00000892   -0.00004606    0.00002161
     atom  103 type  2   force =     0.00000248    0.00000415   -0.00281654
     atom  104 type  2   force =     0.00000948    0.00000983    0.00041474
     atom  105 type  2   force =    -0.00010146   -0.00094546   -0.00039270
     atom  106 type  2   force =     0.00000318    0.00000136    0.00109572
     atom  107 type  2   force =     0.00000135   -0.00001043   -0.00044200
     atom  108 type  2   force =     0.00004556    0.00099692   -0.00108740
     atom  109 type  1   force =     0.00266371   -0.00009671   -0.00099154
     atom  110 type  1   force =    -0.00000077    0.00000441    0.00189747
     atom  111 type  1   force =    -0.00000500    0.00002955   -0.00001929
     atom  112 type  2   force =     0.00000218    0.00000623   -0.00282243
     atom  113 type  2   force =     0.00001419   -0.00000691    0.00043163
     atom  114 type  2   force =    -0.00052105    0.00019751    0.00319584
     atom  115 type  2   force =     0.00000192    0.00000368    0.00110853
     atom  116 type  2   force =    -0.00000231   -0.00000655   -0.00036091
     atom  117 type  2   force =     0.01700898   -0.01137367    0.01329552
     atom  118 type  1   force =     0.00070778    0.00297859   -0.00012468
     atom  119 type  1   force =     0.00000460   -0.00000371    0.00188619
     atom  120 type  1   force =     0.00000080   -0.00003521   -0.00000871
     atom  121 type  2   force =     0.00000471   -0.00000354   -0.00282503
     atom  122 type  2   force =     0.00000066    0.00001231    0.00043465
     atom  123 type  2   force =    -0.00002329   -0.00056114    0.00305083
     atom  124 type  2   force =     0.00000564    0.00000234    0.00110882
     atom  125 type  2   force =    -0.00000487    0.00001330   -0.00039328
     atom  126 type  2   force =     0.00024129    0.02595159    0.00585364
     atom  127 type  1   force =     0.00025325   -0.00138573    0.00049304
     atom  128 type  1   force =     0.00001881    0.00001151    0.00188555
     atom  129 type  1   force =    -0.00002384    0.00003253   -0.00000742
     atom  130 type  2   force =     0.00000549    0.00000159   -0.00283036
     atom  131 type  2   force =     0.00000256   -0.00000664    0.00041355
     atom  132 type  2   force =    -0.00032350    0.00027412    0.00015163
     atom  133 type  2   force =     0.00000099   -0.00000490    0.00110806
     atom  134 type  2   force =    -0.00000843   -0.00000200   -0.00039973
     atom  135 type  2   force =    -0.00121176    0.00072514    0.00069565
     atom  136 type  1   force =    -0.00053579    0.00022841    0.00007988
     atom  137 type  1   force =     0.00001632    0.00000158    0.00188719
     atom  138 type  1   force =     0.00001293   -0.00005088   -0.00000126
     atom  139 type  2   force =     0.00000648    0.00000044   -0.00282731
     atom  140 type  2   force =     0.00001537    0.00000156    0.00042746
     atom  141 type  2   force =    -0.00019329   -0.00032604    0.00045676
     atom  142 type  2   force =     0.00000253   -0.00000868    0.00109309
     atom  143 type  2   force =    -0.00001020   -0.00002785   -0.00041750
     atom  144 type  2   force =     0.00018625   -0.00011090    0.00004313
     atom  145 type  3   force =     0.00174194   -0.00092871   -0.00107803
     atom  146 type  4   force =     0.00847670   -0.00959591    0.00572603
     atom  147 type  4   force =    -0.00734372    0.00622949   -0.01180743

     Total force =     0.054486     Total SCF correction =     0.002884

     BFGS Geometry Optimization
     Energy error            =      0.0E+00 Ry
     Gradient error          =      2.6E-02 Ry/Bohr

     number of scf cycles    =   1
     number of bfgs steps    =   0

     energy             new  =  -26543.7587295139 Ry

     new trust radius        =       0.0266046695 bohr
     new conv_thr            =       0.0000010000 Ry


ATOMIC_POSITIONS (angstrom)
Mo               1.5718303047        2.7214060447        6.0888920494
Mo               1.5769197498        0.9104407117       -6.0872367793    0   0   0
Mo               0.0001057468        1.8210903919       -0.0004786736
S                0.0000044503        0.0000077495       -7.6506323570    0   0   0
S                1.5767647148        0.9108647630       -1.5662781352
[...]
     atom   72 type  2   force =     0.00024637    0.00028692   -0.00014365
     atom   73 type  1   force =     0.00007872   -0.00002663   -0.00053503
     atom   74 type  1   force =    -0.00000365    0.00000376    0.00189924
     atom   75 type  1   force =     0.00000744    0.00001508    0.00000144
     atom   76 type  2   force =    -0.00000310    0.00000193   -0.00328067
     atom   77 type  2   force =    -0.00000594   -0.00000348   -0.00003891
     atom   78 type  2   force =     0.00012187    0.00003081   -0.00050961
     atom   79 type  2   force =    -0.00000418    0.00000800    0.00150529
     atom   80 type  2   force =    -0.00000422    0.00001307    0.00004300
     atom   81 type  2   force =    -0.00009938   -0.00000248   -0.00057373
     atom   82 type  1   force =     0.00009622   -0.00016306   -0.00026519
     atom   83 type  1   force =    -0.00000096    0.00000149    0.00189496
     atom   84 type  1   force =    -0.00000805    0.00000892   -0.00000088
     atom   85 type  2   force =    -0.00000301    0.00000223   -0.00328055
     atom   86 type  2   force =    -0.00001404   -0.00000031   -0.00005317
     atom   87 type  2   force =     0.00018820   -0.00037186    0.00011077
     atom   88 type  2   force =     0.00000584    0.00000342    0.00150473
     atom   89 type  2   force =    -0.00000648   -0.00000185    0.00003128
     atom   90 type  2   force =     0.00012363    0.00032402   -0.00020274
     atom   91 type  1   force =    -0.00008396   -0.00006390   -0.00001181
     atom   92 type  1   force =    -0.00000212    0.00000185    0.00189897
     atom   93 type  1   force =    -0.00000167    0.00000412    0.00000431
     atom   94 type  2   force =    -0.00000291    0.00000245   -0.00327987
     atom   95 type  2   force =     0.00001667   -0.00000351   -0.00003951
     atom   96 type  2   force =     0.00003300    0.00006339   -0.00012536
     atom   97 type  2   force =    -0.00000082   -0.00000289    0.00150287
     atom   98 type  2   force =     0.00000597    0.00001230    0.00002227
     atom   99 type  2   force =     0.00005665    0.00001168    0.00007363
     atom  100 type  1   force =     0.00000305    0.00020683   -0.00002838
     atom  101 type  1   force =    -0.00000261    0.00000174    0.00190059
     atom  102 type  1   force =     0.00000517   -0.00000482    0.00000474
     atom  103 type  2   force =    -0.00000267    0.00000241   -0.00327979
     atom  104 type  2   force =     0.00000003    0.00000942   -0.00004527
     atom  105 type  2   force =    -0.00015022    0.00032293    0.00036480
     atom  106 type  2   force =    -0.00000155    0.00000390    0.00149878
     atom  107 type  2   force =     0.00001454    0.00001164    0.00003643
     atom  108 type  2   force =     0.00010338    0.00013212   -0.00016834
     atom  109 type  1   force =    -0.00022752   -0.00009614   -0.00006204
     atom  110 type  1   force =    -0.00000337    0.00000278    0.00189945
     atom  111 type  1   force =    -0.00001320    0.00000076   -0.00001461
     atom  112 type  2   force =    -0.00000264    0.00000209   -0.00328059
     atom  113 type  2   force =    -0.00002172    0.00001333   -0.00006453
     atom  114 type  2   force =     0.00026695   -0.00021531   -0.00037114
     atom  115 type  2   force =    -0.00000449    0.00000980    0.00150725
     atom  116 type  2   force =     0.00001194   -0.00000919   -0.00000567
     atom  117 type  2   force =     0.00004946    0.00008834   -0.00048814
     atom  118 type  1   force =    -0.00031341   -0.00024784    0.00000864
     atom  119 type  1   force =    -0.00000504    0.00000306    0.00189593
     atom  120 type  1   force =    -0.00000842   -0.00000423    0.00000688
     atom  121 type  2   force =    -0.00000274    0.00000239   -0.00328150
     atom  122 type  2   force =    -0.00000309    0.00001572   -0.00004889
     atom  123 type  2   force =    -0.00011482   -0.00023412   -0.00051268
     atom  124 type  2   force =     0.00000072    0.00000467    0.00150836
     atom  125 type  2   force =     0.00000333   -0.00000644    0.00001581
     atom  126 type  2   force =    -0.00018165    0.00026733   -0.00035358
     atom  127 type  1   force =     0.00000821    0.00003074    0.00001148
     atom  128 type  1   force =    -0.00000302    0.00000072    0.00189513
     atom  129 type  1   force =     0.00000061    0.00000696   -0.00000650
     atom  130 type  2   force =    -0.00000280    0.00000266   -0.00328055
     atom  131 type  2   force =     0.00000487   -0.00000774   -0.00003449
     atom  132 type  2   force =     0.00011746   -0.00030643    0.00010444
     atom  133 type  2   force =     0.00000312   -0.00000578    0.00150238
     atom  134 type  2   force =    -0.00000610    0.00001501    0.00001568
     atom  135 type  2   force =    -0.00001233   -0.00034126   -0.00034859
     atom  136 type  1   force =     0.00001539   -0.00001433    0.00003736
     atom  137 type  1   force =    -0.00000347    0.00000054    0.00190162
     atom  138 type  1   force =    -0.00000034   -0.00000161   -0.00002625
     atom  139 type  2   force =    -0.00000288    0.00000255   -0.00328071
     atom  140 type  2   force =    -0.00002740   -0.00001393   -0.00004424
     atom  141 type  2   force =    -0.00008589   -0.00004757    0.00014304
     atom  142 type  2   force =    -0.00000588   -0.00000450    0.00149324
     atom  143 type  2   force =     0.00001707    0.00002354    0.00004157
     atom  144 type  2   force =    -0.00027192    0.00015028   -0.00010391
     atom  145 type  3   force =     0.00034008   -0.00028992   -0.00010346
     atom  146 type  4   force =    -0.00033488   -0.00029329    0.00002754
     atom  147 type  4   force =     0.00024194    0.00006960    0.00057794

     Total force =     0.002732     Total SCF correction =     0.000711
     SCF correction compared to forces is large: reduce conv_thr to get better values
     Energy error            =      1.6E-05 Ry
     Gradient error          =      6.4E-04 Ry/Bohr

     bfgs converged in  27 scf cycles and  26 bfgs steps
     (criteria: energy <  1.0E-04 Ry, force <  1.0E-03 Ry/Bohr)

     End of BFGS Geometry Optimization

     Final energy             =  -26543.7707686478 Ry

     File ./outdir/pwscf.bfgs deleted, as requested
Begin final coordinates

ATOMIC_POSITIONS (angstrom)
Mo               1.5698427974        2.7222586637        6.0839272923
Mo               1.5769197498        0.9104407117       -6.0872367793    0   0   0
Mo              -0.0002884779        1.8209836641       -0.0002402507
S                0.0000044503        0.0000077495       -7.6506323570    0   0   0
S                1.5768018779        0.9107104036       -1.5658717677
S               -0.0078595011        1.8302938958        4.5109206536
S                0.0000053241        0.0000068460       -4.5222282367    0   0   0
S                1.5761171467        0.9098551401        1.5656259861
S                0.0054970827        1.8091943434        7.6547130419
Mo              -0.0043657640        5.4644459635        6.0917846907
Mo               0.0000011799        3.6417399547       -6.0872367793    0   0   0
Mo              -1.5765602842        4.5520415096       -0.0000625728
S               -1.5769141197        2.7313069925       -7.6506323570    0   0   0
S               -0.0000153461        3.6415418240       -1.5659499039
S               -1.5599551853        4.5490650178        4.5099333528
S               -1.5769132459        2.7313060890       -4.5222282367    0   0   0
S                0.0015796357        3.6423950711        1.5665678907
S               -1.5764053368        4.5599543365        7.6580044597
Mo              -1.5752521690        8.1967702423        6.0604324683
Mo              -1.5769173901        6.3730391977       -6.0872367793    0   0   0
Mo              -3.1539020934        7.2829990911       -0.0003903457
S               -3.1538326896        5.4626062355       -7.6506323570    0   0   0
S               -1.5771518914        6.3725320435       -1.5660906150
S               -3.1520226859        7.2905759534        4.4926189457
S               -3.1538318159        5.4626053320       -4.5222282367    0   0   0
S               -1.5762520861        6.3732004957        1.5661703329
S               -3.1412091548        7.3056210363        7.6349482005
Mo               3.1479086445       -0.0072030929        6.0580668912
Mo              -3.1538359601        9.1043384407       -6.0872367793    0   0   0
Mo              -4.7311662329       10.0145899647       -0.0014151240
S               -4.7307512596        8.1939054785       -7.6506323570    0   0   0
S               -3.1536988276        9.1040666309       -1.5661398298
S               -4.7400950633       10.0130173213        4.4965659057
S               -4.7307503859        8.1939045750       -4.5222282367    0   0   0
S               -3.1540958463        9.1044562171        1.5651144138
S               -4.7277563099       10.0195164650        7.6362493292
Mo               4.7136121097        2.6788413662        6.0610633354
Mo               4.7307503218        0.9104407117       -6.0872367793    0   0   0
Mo               3.1538647568        1.8208784740        0.0001536636
S                3.1538350223        0.0000077495       -7.6506323570    0   0   0
S                4.7311663068        0.9108718730       -1.5650897899
S                3.1319012056        1.8122115077        4.4876110826
S                3.1538358961        0.0000068460       -4.5222282367    0   0   0
S                4.7313511778        0.9106246422        1.5676180132
S                3.1372950521        1.7961798607        7.6360529907
Mo               3.1485678145        5.4607832184        6.1226717377
Mo               3.1538317519        3.6417399547       -6.0872367793    0   0   0
Mo               1.5774430784        4.5521101882       -0.0012302564
S                1.5769164523        2.7313069925       -7.6506323570    0   0   0
S                3.1544565749        3.6411945554       -1.5658555402
S                1.5950514767        4.5665370818        4.5524195227
S                1.5769173261        2.7313060890       -4.5222282367    0   0   0
S                3.1538022618        3.6423100750        1.5671015153
S                1.4957352264        4.5046139900        7.7296465769
Mo               1.5677203945        8.2058422108        6.0838365970
Mo               1.5769131819        6.3730391977       -6.0872367793    0   0   0
Mo               0.0002508755        7.2831768536       -0.0013329686
S               -0.0000021176        5.4626062355       -7.6506323570    0   0   0
S                1.5770560604        6.3726989941       -1.5669494840
S                0.0092488680        7.2763083371        4.5087824947
S               -0.0000012439        5.4626053320       -4.5222282367    0   0   0
S                1.5775218864        6.3728988144        1.5658940090
S               -0.0061869677        7.2924443674        7.6446211961
Mo               6.3057630390       -0.0212135764        6.0634458314
Mo              -0.0000053881        9.1043384407       -6.0872367793    0   0   0
Mo              -1.5766236720       10.0148774601       -0.0005797330
S               -1.5769206876        8.1939054785       -7.6506323570    0   0   0
S                0.0000523706        9.1044704900       -1.5663627025
S               -1.5774195290       10.0105038747        4.4872587783
S               -1.5769198139        8.1939045750       -4.5222282367    0   0   0
S                0.0005002798        9.1036470069        1.5657973412
S               -1.5874452277       10.0037233798        7.6301234120
Mo               7.8833555467        2.7323484901        6.1357095963
Mo               7.8845808939        0.9104407117       -6.0872367793    0   0   0
Mo               6.3081171190        1.8210262467        0.0006680930
S                6.3076655943        0.0000077495       -7.6506323570    0   0   0
S                7.8845954612        0.9106857096       -1.5655257231
S                6.3370330096        1.8205794184        4.5303988672
S                6.3076664681        0.0000068460       -4.5222282367    0   0   0
S                7.8854076478        0.9095795471        1.5667967739
S                6.2207100186        1.7402939152        7.6776646450
Mo               6.3272534918        5.4827778201        6.0835113779
Mo               6.3076623239        3.6417399547       -6.0872367793    0   0   0
Mo               4.7309322238        4.5520390415       -0.0001497800
S                4.7307470244        2.7313069925       -7.6506323570    0   0   0
S                6.3081588268        3.6414783094       -1.5649148101
S                4.7176840624        4.5579415246        4.5546402119
S                4.7307478981        2.7313060890       -4.5222282367    0   0   0
S                6.3071379210        3.6422042174        1.5685269709
S                4.8070430537        4.4283458926        7.6472085722
Mo               4.7385408345        8.2185794825        6.0893261177
Mo               4.7307437539        6.3730391977       -6.0872367793    0   0   0
Mo               3.1541923905        7.2828742295       -0.0015633070
S                3.1538284544        5.4626062355       -7.6506323570    0   0   0
S                4.7313082604        6.3723516161       -1.5663028422
S                3.1562952971        7.2674957219        4.5543552764
S                3.1538293281        5.4626053320       -4.5222282367    0   0   0
S                4.7302273668        6.3728101432        1.5669636322
S                3.1513552563        7.4019565509        7.7071730235
Mo               9.4640177935       -0.0041976088        6.0905742252
Mo               3.1538251839        9.1043384407       -6.0872367793    0   0   0
Mo               1.5773140086       10.0143626736       -0.0008508917
S                1.5769098844        8.1939054785       -7.6506323570    0   0   0
S                3.1541694032        9.1042670958       -1.5663841821
S                1.5893674116       10.0102909793        4.5037714858
S                1.5769107581        8.1939045750       -4.5222282367    0   0   0
S                3.1538430324        9.1025228101        1.5662182245
S                1.5656533431       10.0223617464        7.6495250330
Mo              -1.5690954245        2.7358889727        6.0957740148
Mo              11.0384114659        0.9104407117       -6.0872367793    0   0   0
Mo               9.4615081801        1.8209656052       -0.0000855513
S                9.4614961663        0.0000077495       -7.6506323570    0   0   0
S               11.0381960125        0.9105115121       -1.5654425230
S                9.4423900982        1.8367024064        4.5595217036
S                9.4614970401        0.0000068460       -4.5222282367    0   0   0
S               11.0376059290        0.9107925081        1.5676902261
S                9.5243353569        1.7812173496        7.7133535391
Mo              -3.1236382610        5.4811506651        6.0719222487
Mo               9.4614928959        3.6417399547       -6.0872367793    0   0   0
Mo               7.8846221215        4.5518276893        0.0008012714
S                7.8845775964        2.7313069925       -7.6506323570    0   0   0
S                9.4614133609        3.6418236380       -1.5651206898
S                7.8931287537        4.5369589417        4.5548813529
S                7.8845784701        2.7313060890       -4.5222282367    0   0   0
S                9.4620123087        3.6416602664        1.5678447876
S                7.9515012339        4.6634422817        7.6989138701
Mo              -4.7279010624        8.2029287826        6.0716403783
Mo               7.8845743259        6.3730391977       -6.0872367793    0   0   0
Mo               6.3074608043        7.2829049382       -0.0002549009
S                6.3076590264        5.4626062355       -7.6506323570    0   0   0
S                7.8845250555        6.3722548797       -1.5652188535
S                6.3018982230        7.2912013617        4.5190482803
S                6.3076599001        5.4626053320       -4.5222282367    0   0   0
S                7.8842719089        6.3725070235        1.5679026179
S                6.3102348004        7.3356268653        7.6752753918
Mo              -0.0014837531        0.0047865698        6.0706590831
Mo               6.3076557559        9.1043384407       -6.0872367793    0   0   0
Mo               4.7304236415       10.0146965424       -0.0002395216
S                4.7307404564        8.1939054785       -7.6506323570    0   0   0
S                6.3071404623        9.1039076425       -1.5660122446
S                4.7234603970       10.0227811504        4.5081825437
S                4.7307413301        8.1939045750       -4.5222282367    0   0   0
S                6.3072960758        9.1039695613        1.5659678113
S                4.7448125255       10.0327987070        7.6554016689
Pt               3.3046571985        5.4557283173        8.9461910095
Pd               6.1973446415        5.3776472794        9.2032272579
Pd               7.7948053180        2.8097792940        9.0235758351
End final coordinates



     Writing all to output data dir ./outdir/pwscf.save/ :
     XML data file, charge density, pseudopotentials, collected wavefunctions
 
     init_run     :     95.54s CPU     97.56s WALL (       1 calls)
     electrons    : 108993.23s CPU 110689.03s WALL (      27 calls)
     update_pot   :     34.52s CPU     35.61s WALL (      26 calls)
     forces       :   1924.69s CPU   1967.51s WALL (      27 calls)
     force_dftd3  :     10.32s CPU     10.78s WALL (      27 calls)

     Called by init_run:
     wfcinit      :     77.50s CPU     78.45s WALL (       1 calls)
     potinit      :      1.10s CPU      1.17s WALL (       1 calls)
     hinit0       :      9.23s CPU      9.30s WALL (       1 calls)

     Called by electrons:
     c_bands      :  94987.47s CPU  96016.72s WALL (     328 calls)
     sum_band     :  12048.99s CPU  12402.55s WALL (     328 calls)
     v_of_rho     :     94.15s CPU    105.71s WALL (     331 calls)
     newd         :   1655.58s CPU   1962.85s WALL (     331 calls)
     PAW_pot      :    270.66s CPU    272.81s WALL (     357 calls)
     mix_rho      :     23.79s CPU     27.26s WALL (     328 calls)
     energy_dftd3 :      5.79s CPU      5.83s WALL (      27 calls)

     Called by c_bands:
     init_us_2    :    462.57s CPU    465.36s WALL (    2840 calls)
     init_us_2:cp :    462.55s CPU    465.34s WALL (    2840 calls)
     cegterg      :  93153.16s CPU  94173.07s WALL (    1330 calls)

     Called by *egterg:
     cdiaghg      :   4879.34s CPU   5092.31s WALL (   15537 calls)
     h_psi        :  48300.38s CPU  48642.76s WALL (   15745 calls)
     s_psi        :   9862.53s CPU   9908.74s WALL (   15745 calls)
     g_psi        :    109.36s CPU    109.86s WALL (   14411 calls)

     Called by h_psi:
     h_psi:calbec :   9895.52s CPU   9935.35s WALL (   15745 calls)
     vloc_psi     :  28296.28s CPU  28470.69s WALL (   15745 calls)
     add_vuspsi   :   9870.99s CPU   9921.27s WALL (   15745 calls)

     General routines
     calbec       :  14190.34s CPU  14247.20s WALL (   17593 calls)
     fft          :     79.92s CPU     90.74s WALL (    4596 calls)
     ffts         :      4.41s CPU      4.56s WALL (     659 calls)
     fftw         :  21038.59s CPU  21168.88s WALL ( 7405124 calls)
     interpolate  :      7.83s CPU      8.58s WALL (     331 calls)
 
     Parallel routines
 
     PWSCF        :   1d 7h 1m CPU   1d 7h32m WALL

 
   This run was terminated on:   5:51:40   3Apr2024            

=------------------------------------------------------------------------------=
   JOB DONE.
=------------------------------------------------------------------------------=
