
     Program PWSCF v.7.3 starts on 29Apr2024 at 16:31:50 

     This program is part of the open-source Quantum ESPRESSO suite
     for quantum simulation of materials; please cite
         "P. Giannozzi et al., J. Phys.:Condens. Matter 21 395502 (2009);
         "P. Giannozzi et al., J. Phys.:Condens. Matter 29 465901 (2017);
         "P. Giannozzi et al., J. Chem. Phys. 152 154105 (2020);
          URL http://www.quantum-espresso.org", 
     in publications or presentations arising from this work. More details at
     http://www.quantum-espresso.org/quote

     Parallel version (MPI & OpenMP), running on      36 processor cores
     Number of MPI processes:                36
     Threads/MPI process:                     1

     MPI processes distributed on     1 nodes
     558852 MiB available memory on the printing compute node when the environment starts
 
     Waiting for input...
     Reading input from standard input
Warning: card &CELL ignored
Warning: card / ignored

     Current dimensions of program PWSCF are:
     Max number of different atomic species (ntypx) = 10
     Max number of k-points (npk) =  40000
     Max angular momentum in pseudopotentials (lmaxx) =  4
     file Mo.pbe-spn-kjpaw_psl.1.0.0.UPF: wavefunction(s)  4S 4D renormalized
     file S.pbe-n-kjpaw_psl.1.0.0.UPF: wavefunction(s)  3S 3P renormalized
     file Pt.pbe-spfn-kjpaw_psl.1.0.0.UPF: wavefunction(s)  5P 4F renormalized
     file Pd.pbe-spn-kjpaw_psl.1.0.0.UPF: wavefunction(s)  4S 5S 4D renormalized
 
     R & G space division:  proc/nbgrp/npool/nimage =      36
     Subspace diagonalization in iterative solution of the eigenvalue problem:
     one sub-group per band group will be used
     scalapack distributed-memory algorithm (size of sub-group:  6*  6 procs)

 
     Parallelization info
     --------------------
     sticks:   dense  smooth     PW     G-vecs:    dense   smooth      PW
     Min         585     334     89               198743    85850   11735
     Max         586     335     90               198750    85861   11748
     Sum       21073   12049   3205              7154885  3090769  422587
 
     Using Slab Decomposition
 


     bravais-lattice index     =            0
     lattice parameter (alat)  =      23.8199  a.u.
     unit-cell volume          =   33861.0370 (a.u.)^3
     number of atoms/cell      =          195
     number of atomic types    =            4
     number of electrons       =      1732.00
     number of Kohn-Sham states=         1039
     kinetic-energy cutoff     =      77.0000  Ry
     charge density cutoff     =     539.0000  Ry
     scf convergence threshold =      1.0E-06
     mixing beta               =       0.2000
     number of iterations used =            8  plain     mixing
     energy convergence thresh.=      1.0E-04
     force convergence thresh. =      1.0E-03
     Exchange-correlation= SLA  PW   PBX  PBC
                           (   1   4   3   4   0   0   0)
     nstep                     =         1000


     Effective Screening Medium Method
     =================================
     Boundary Conditions: Vacuum-Slab-Vacuum
     total charge in unit cell        =   0.0000
     grid points for fit at edges     =        4 
 

     celldm(1)=  23.819920  celldm(2)=   0.000000  celldm(3)=   0.000000
     celldm(4)=   0.000000  celldm(5)=   0.000000  celldm(6)=   0.000000

     crystal axes: (cart. coord. in units of alat)
               a(1) = (   1.000000   0.000000   0.000000 )  
               a(2) = (  -0.499999   0.866026   0.000000 )  
               a(3) = (   0.000000   0.000000   2.893000 )  

     reciprocal axes: (cart. coord. in units 2 pi/alat)
               b(1) = (  1.000000  0.577349  0.000000 )  
               b(2) = (  0.000000  1.154700  0.000000 )  
               b(3) = (  0.000000  0.000000  0.345662 )  


     PseudoPot. # 1 for Mo read from file:
     ./pseudo/Mo.pbe-spn-kjpaw_psl.1.0.0.UPF
     MD5 check sum: 317bf72632116215fd98f72de1686f13
     Pseudo is Projector augmented-wave + core cor, Zval = 14.0
     Generated using 'atomic' code by A. Dal Corso  v.7.2
     Shape of augmentation charge: PSQ
     Using radial grid of 1229 points,  6 beta functions with: 
                l(1) =   0
                l(2) =   0
                l(3) =   1
                l(4) =   1
                l(5) =   2
                l(6) =   2
     Q(r) pseudized with 0 coefficients 


     PseudoPot. # 2 for S  read from file:
     ./pseudo/S.pbe-n-kjpaw_psl.1.0.0.UPF
     MD5 check sum: 8b7b5302570d38d5e87fed6a1065abda
     Pseudo is Projector augmented-wave + core cor, Zval =  6.0
     Generated using 'atomic' code by A. Dal Corso  v.7.2
     Shape of augmentation charge: PSQ
     Using radial grid of 1151 points,  6 beta functions with: 
                l(1) =   0
                l(2) =   0
                l(3) =   1
                l(4) =   1
                l(5) =   2
                l(6) =   2
     Q(r) pseudized with 0 coefficients 


     PseudoPot. # 3 for Pt read from file:
     ./pseudo/Pt.pbe-spfn-kjpaw_psl.1.0.0.UPF
     MD5 check sum: 620096ebf4e6ebacc94de60fd67efcb5
     Pseudo is Projector augmented-wave + core cor, Zval = 32.0
     Generated using 'atomic' code by A. Dal Corso  v.7.2
     Shape of augmentation charge: PSQ
     Using radial grid of 1277 points,  8 beta functions with: 
                l(1) =   0
                l(2) =   0
                l(3) =   1
                l(4) =   1
                l(5) =   2
                l(6) =   2
                l(7) =   3
                l(8) =   3
     Q(r) pseudized with 0 coefficients 


     PseudoPot. # 4 for Pd read from file:
     ./pseudo/Pd.pbe-spn-kjpaw_psl.1.0.0.UPF
     MD5 check sum: a60571a671f2502b8a6a4569d20a6edb
     Pseudo is Projector augmented-wave + core cor, Zval = 18.0
     Generated using 'atomic' code by A. Dal Corso  v.7.2
     Shape of augmentation charge: PSQ
     Using radial grid of 1235 points,  6 beta functions with: 
                l(1) =   0
                l(2) =   0
                l(3) =   1
                l(4) =   1
                l(5) =   2
                l(6) =   2
     Q(r) pseudized with 0 coefficients 


     atomic species   valence    mass     pseudopotential
     Mo               14.00    95.95000     Mo( 1.00)
     S                 6.00    32.06000     S ( 1.00)
     Pt               32.00   195.08400     Pt( 1.00)
     Pd               18.00   106.42000     Pd( 1.00)

     No symmetry found



   Cartesian axes

     site n.     atom                  positions (alat units)
         1        Mo     tau(   1) = (   0.0000010   0.1443372  -0.7272732  )
         2        Mo     tau(   2) = (   0.1249995   0.0721706  -0.2424038  )
         3        S      tau(   3) = (   0.0000015   0.1443386  -0.3667807  )
         4        S      tau(   4) = (   0.1250010   0.0721682  -0.6030489  )
         5        S      tau(   5) = (   0.1250010   0.0721683  -0.8514963  )
         6        S      tau(   6) = (   0.0000015   0.1443389  -0.1180260  )
         7        Mo     tau(   7) = (   0.0000005   0.1443381   0.2424561  )
         8        Mo     tau(   8) = (   0.1251981   0.0716023   0.7276027  )
         9        S      tau(   9) = (  -0.0003031   0.1454842   0.6052312  )
        10        S      tau(  10) = (   0.1249558   0.0721599   0.3668208  )
        11        S      tau(  11) = (   0.1250088   0.0721517   0.1180857  )
        12        S      tau(  12) = (  -0.0004157   0.1382876   0.8564685  )
        13        Mo     tau(  13) = (  -0.1249989   0.3608437  -0.7272732  )
        14        Mo     tau(  14) = (   0.0000030   0.2886752  -0.2424042  )
        15        S      tau(  15) = (  -0.1249977   0.3608450  -0.3667802  )
        16        S      tau(  16) = (   0.0000012   0.2886747  -0.6030489  )
        17        S      tau(  17) = (   0.0000012   0.2886748  -0.8514963  )
        18        S      tau(  18) = (  -0.1249977   0.3608454  -0.1180274  )
        19        Mo     tau(  19) = (  -0.1249623   0.3608201   0.2425155  )
        20        Mo     tau(  20) = (  -0.0007801   0.2872696   0.7308518  )
        21        S      tau(  21) = (  -0.1240398   0.3604107   0.6055268  )
        22        S      tau(  22) = (   0.0000411   0.2886546   0.3669163  )
        23        S      tau(  23) = (   0.0000035   0.2886726   0.1180964  )
        24        S      tau(  24) = (  -0.1315418   0.3638985   0.8543850  )
        25        Mo     tau(  25) = (  -0.2499987   0.5773502  -0.7272732  )
        26        Mo     tau(  26) = (  -0.1249977   0.5051839  -0.2424055  )
        27        S      tau(  27) = (  -0.2499981   0.5773518  -0.3667809  )
        28        S      tau(  28) = (  -0.1249986   0.5051812  -0.6030489  )
        29        S      tau(  29) = (  -0.1249986   0.5051813  -0.8514963  )
        30        S      tau(  30) = (  -0.2499979   0.5773512  -0.1180266  )
        31        Mo     tau(  31) = (  -0.2499787   0.5773156   0.2425145  )
        32        Mo     tau(  32) = (  -0.1271807   0.5060660   0.7281741  )
        33        S      tau(  33) = (  -0.2502658   0.5775034   0.6017985  )
        34        S      tau(  34) = (  -0.1249543   0.5051367   0.3669386  )
        35        S      tau(  35) = (  -0.1249864   0.5051552   0.1181399  )
        36        S      tau(  36) = (  -0.2525628   0.5785576   0.8514793  )
        37        Mo     tau(  37) = (  -0.3749985   0.7938567  -0.7272732  )
        38        Mo     tau(  38) = (  -0.2500001   0.7216874  -0.2424031  )
        39        S      tau(  39) = (  -0.3749980   0.7938584  -0.3667800  )
        40        S      tau(  40) = (  -0.2499984   0.7216877  -0.6030489  )
        41        S      tau(  41) = (  -0.2499984   0.7216878  -0.8514963  )
        42        S      tau(  42) = (  -0.3749982   0.7938585  -0.1180264  )
        43        Mo     tau(  43) = (  -0.3750043   0.7938372   0.2424536  )
        44        Mo     tau(  44) = (  -0.2503619   0.7218808   0.7263407  )
        45        S      tau(  45) = (  -0.3755748   0.7941519   0.6023691  )
        46        S      tau(  46) = (  -0.2500067   0.7216811   0.3668312  )
        47        S      tau(  47) = (  -0.2499793   0.7216445   0.1181126  )
        48        S      tau(  48) = (  -0.3746959   0.7932047   0.8515893  )
        49        Mo     tau(  49) = (   0.2500010   0.1443372  -0.7272732  )
        50        Mo     tau(  50) = (   0.3750034   0.0721723  -0.2424032  )
        51        S      tau(  51) = (   0.2500017   0.1443391  -0.3667788  )
        52        S      tau(  52) = (   0.3750010   0.0721682  -0.6030489  )
        53        S      tau(  53) = (   0.3750010   0.0721683  -0.8514963  )
        54        S      tau(  54) = (   0.2500016   0.1443391  -0.1180271  )
        55        Mo     tau(  55) = (   0.2500033   0.1443124   0.2424881  )
        56        Mo     tau(  56) = (   0.3752595   0.0716472   0.7255395  )
        57        S      tau(  57) = (   0.2498544   0.1431280   0.6011361  )
        58        S      tau(  58) = (   0.3750516   0.0721435   0.3668117  )
        59        S      tau(  59) = (   0.3750079   0.0721203   0.1180977  )
        60        S      tau(  60) = (   0.2517312   0.1427646   0.8506906  )
        61        Mo     tau(  61) = (   0.1250012   0.3608437  -0.7272732  )
        62        Mo     tau(  62) = (   0.2500029   0.2886782  -0.2424031  )
        63        S      tau(  63) = (   0.1250024   0.3608455  -0.3667794  )
        64        S      tau(  64) = (   0.2500012   0.2886747  -0.6030489  )
        65        S      tau(  65) = (   0.2500012   0.2886748  -0.8514963  )
        66        S      tau(  66) = (   0.1250021   0.3608455  -0.1180270  )
        67        Mo     tau(  67) = (   0.1249995   0.3608273   0.2424838  )
        68        Mo     tau(  68) = (   0.2535704   0.2866116   0.7259154  )
        69        S      tau(  69) = (   0.1241106   0.3617788   0.6079553  )
        70        S      tau(  70) = (   0.2499752   0.2886689   0.3668869  )
        71        S      tau(  71) = (   0.2500098   0.2886475   0.1181123  )
        72        S      tau(  72) = (   0.1336503   0.3523048   0.8541313  )
        73        Mo     tau(  73) = (   0.0000014   0.5773502  -0.7272732  )
        74        Mo     tau(  74) = (   0.1250045   0.5051840  -0.2424036  )
        75        S      tau(  75) = (   0.0000030   0.5773520  -0.3667799  )
        76        S      tau(  76) = (   0.1250014   0.5051812  -0.6030489  )
        77        S      tau(  77) = (   0.1250014   0.5051813  -0.8514963  )
        78        S      tau(  78) = (   0.0000026   0.5773517  -0.1180274  )
        79        Mo     tau(  79) = (   0.0000276   0.5772927   0.2425177  )
        80        Mo     tau(  80) = (   0.1255270   0.5059369   0.7313762  )
        81        S      tau(  81) = (   0.0011816   0.5764663   0.6064450  )
        82        S      tau(  82) = (   0.1250222   0.5051261   0.3669341  )
        83        S      tau(  83) = (   0.1249880   0.5051467   0.1180950  )
        84        S      tau(  84) = (  -0.0088763   0.5830479   0.8565830  )
        85        Mo     tau(  85) = (  -0.1249984   0.7938567  -0.7272732  )
        86        Mo     tau(  86) = (   0.0000069   0.7216896  -0.2424039  )
        87        S      tau(  87) = (  -0.1249975   0.7938582  -0.3667782  )
        88        S      tau(  88) = (   0.0000016   0.7216877  -0.6030489  )
        89        S      tau(  89) = (   0.0000016   0.7216878  -0.8514963  )
        90        S      tau(  90) = (  -0.1249973   0.7938582  -0.1180279  )
        91        Mo     tau(  91) = (  -0.1249699   0.7938095   0.2424907  )
        92        Mo     tau(  92) = (  -0.0004895   0.7231014   0.7275053  )
        93        S      tau(  93) = (  -0.1248847   0.7932555   0.6014963  )
        94        S      tau(  94) = (   0.0000405   0.7216116   0.3668908  )
        95        S      tau(  95) = (   0.0000242   0.7216332   0.1181249  )
        96        S      tau(  96) = (  -0.1259194   0.7949777   0.8510667  )
        97        Mo     tau(  97) = (   0.5000010   0.1443372  -0.7272732  )
        98        Mo     tau(  98) = (   0.6250001   0.0721662  -0.2424040  )
        99        S      tau(  99) = (   0.5000017   0.1443386  -0.3667801  )
       100        S      tau( 100) = (   0.6250010   0.0721682  -0.6030489  )
       101        S      tau( 101) = (   0.6250010   0.0721683  -0.8514963  )
       102        S      tau( 102) = (   0.5000020   0.1443388  -0.1180261  )
       103        Mo     tau( 103) = (   0.5000355   0.1442968   0.2424343  )
       104        Mo     tau( 104) = (   0.6251054   0.0720760   0.7269638  )
       105        S      tau( 105) = (   0.5007812   0.1439212   0.6015111  )
       106        S      tau( 106) = (   0.6250309   0.0721295   0.3668346  )
       107        S      tau( 107) = (   0.6250410   0.0721183   0.1180973  )
       108        S      tau( 108) = (   0.4998652   0.1442971   0.8504179  )
       109        Mo     tau( 109) = (   0.3750012   0.3608437  -0.7272732  )
       110        Mo     tau( 110) = (   0.4999991   0.2886761  -0.2424038  )
       111        S      tau( 111) = (   0.3750012   0.3608452  -0.3667804  )
       112        S      tau( 112) = (   0.5000012   0.2886747  -0.6030489  )
       113        S      tau( 113) = (   0.5000012   0.2886748  -0.8514963  )
       114        S      tau( 114) = (   0.3750014   0.3608455  -0.1180261  )
       115        Mo     tau( 115) = (   0.3749988   0.3608207   0.2424913  )
       116        Mo     tau( 116) = (   0.5005676   0.2886014   0.7258090  )
       117        S      tau( 117) = (   0.3761076   0.3615161   0.6013079  )
       118        S      tau( 118) = (   0.5000282   0.2886169   0.3668001  )
       119        S      tau( 119) = (   0.5000158   0.2886613   0.1180928  )
       120        S      tau( 120) = (   0.3768791   0.3600665   0.8508100  )
       121        Mo     tau( 121) = (   0.2500014   0.5773502  -0.7272732  )
       122        Mo     tau( 122) = (   0.3749983   0.5051825  -0.2424043  )
       123        S      tau( 123) = (   0.2500017   0.5773519  -0.3667810  )
       124        S      tau( 124) = (   0.3750014   0.5051812  -0.6030489  )
       125        S      tau( 125) = (   0.3750014   0.5051813  -0.8514963  )
       126        S      tau( 126) = (   0.2500018   0.5773519  -0.1180256  )
       127        Mo     tau( 127) = (   0.2499755   0.5773110   0.2424609  )
       128        Mo     tau( 128) = (   0.3758691   0.5051374   0.7277779  )
       129        S      tau( 129) = (   0.2483182   0.5768077   0.6062789  )
       130        S      tau( 130) = (   0.3749464   0.5051844   0.3668408  )
       131        S      tau( 131) = (   0.3749944   0.5051486   0.1180923  )
       132        S      tau( 132) = (   0.2574557   0.5818559   0.8585037  )
       133        Mo     tau( 133) = (   0.1250016   0.7938567  -0.7272732  )
       134        Mo     tau( 134) = (   0.2499995   0.7216883  -0.2424036  )
       135        S      tau( 135) = (   0.1250024   0.7938578  -0.3667813  )
       136        S      tau( 136) = (   0.2500016   0.7216877  -0.6030489  )
       137        S      tau( 137) = (   0.2500016   0.7216878  -0.8514963  )
       138        S      tau( 138) = (   0.1250024   0.7938579  -0.1180253  )
       139        Mo     tau( 139) = (   0.1250229   0.7938069   0.2425006  )
       140        Mo     tau( 140) = (   0.2504358   0.7224862   0.7284223  )
       141        S      tau( 141) = (   0.1254429   0.7935457   0.6029055  )
       142        S      tau( 142) = (   0.2500049   0.7216116   0.3668842  )
       143        S      tau( 143) = (   0.2500022   0.7216616   0.1181021  )
       144        S      tau( 144) = (   0.1246626   0.7944127   0.8519137  )
       145        Mo     tau( 145) = (   0.7500010   0.1443372  -0.7272732  )
       146        Mo     tau( 146) = (   0.8750038   0.0721696  -0.2424038  )
       147        S      tau( 147) = (   0.7500016   0.1443382  -0.3667789  )
       148        S      tau( 148) = (   0.8750010   0.0721682  -0.6030489  )
       149        S      tau( 149) = (   0.8750010   0.0721683  -0.8514963  )
       150        S      tau( 150) = (   0.7500016   0.1443384  -0.1180279  )
       151        Mo     tau( 151) = (   0.7500289   0.1443141   0.2424936  )
       152        Mo     tau( 152) = (   0.8748115   0.0715393   0.7280420  )
       153        S      tau( 153) = (   0.7503587   0.1440662   0.6027403  )
       154        S      tau( 154) = (   0.8750369   0.0721618   0.3668742  )
       155        S      tau( 155) = (   0.8750002   0.0721408   0.1181001  )
       156        S      tau( 156) = (   0.7494385   0.1444101   0.8516821  )
       157        Mo     tau( 157) = (   0.6250012   0.3608437  -0.7272732  )
       158        Mo     tau( 158) = (   0.7500028   0.2886769  -0.2424041  )
       159        S      tau( 159) = (   0.6250015   0.3608451  -0.3667792  )
       160        S      tau( 160) = (   0.7500012   0.2886747  -0.6030489  )
       161        S      tau( 161) = (   0.7500012   0.2886748  -0.8514963  )
       162        S      tau( 162) = (   0.6250016   0.3608454  -0.1180280  )
       163        Mo     tau( 163) = (   0.6250302   0.3608127   0.2424760  )
       164        Mo     tau( 164) = (   0.7487590   0.2885376   0.7272130  )
       165        S      tau( 165) = (   0.6254237   0.3608917   0.6015174  )
       166        S      tau( 166) = (   0.7500486   0.2886525   0.3668797  )
       167        S      tau( 167) = (   0.7500385   0.2886557   0.1181169  )
       168        S      tau( 168) = (   0.6239430   0.3610912   0.8510113  )
       169        Mo     tau( 169) = (   0.5000014   0.5773502  -0.7272732  )
       170        Mo     tau( 170) = (   0.6250029   0.5051841  -0.2424047  )
       171        S      tau( 171) = (   0.5000014   0.5773518  -0.3667794  )
       172        S      tau( 172) = (   0.6250014   0.5051812  -0.6030489  )
       173        S      tau( 173) = (   0.6250014   0.5051813  -0.8514963  )
       174        S      tau( 174) = (   0.5000016   0.5773516  -0.1180277  )
       175        Mo     tau( 175) = (   0.4999859   0.5773250   0.2424709  )
       176        Mo     tau( 176) = (   0.6245890   0.5053660   0.7261562  )
       177        S      tau( 177) = (   0.4993068   0.5776651   0.6022414  )
       178        S      tau( 178) = (   0.6249823   0.5051501   0.3668388  )
       179        S      tau( 179) = (   0.6250205   0.5051637   0.1181147  )
       180        S      tau( 180) = (   0.5009766   0.5773609   0.8515797  )
       181        Mo     tau( 181) = (   0.3750016   0.7938567  -0.7272732  )
       182        Mo     tau( 182) = (   0.5000025   0.7216901  -0.2424039  )
       183        S      tau( 183) = (   0.3750019   0.7938578  -0.3667793  )
       184        S      tau( 184) = (   0.5000016   0.7216877  -0.6030489  )
       185        S      tau( 185) = (   0.5000016   0.7216878  -0.8514963  )
       186        S      tau( 186) = (   0.3750020   0.7938579  -0.1180272  )
       187        Mo     tau( 187) = (   0.3749951   0.7938323   0.2424893  )
       188        Mo     tau( 188) = (   0.4998599   0.7217391   0.7271366  )
       189        S      tau( 189) = (   0.3746033   0.7939741   0.6029663  )
       190        S      tau( 190) = (   0.4999946   0.7216688   0.3668260  )
       191        S      tau( 191) = (   0.4999891   0.7216628   0.1180901  )
       192        S      tau( 192) = (   0.3755955   0.7938624   0.8526444  )
       193        Pt     tau( 193) = (   0.1194898   0.4990527   0.9549993  )
       194        Pd     tau( 194) = (   0.0026419   0.2990244   0.9662205  )
       195        Pd     tau( 195) = (   0.7487529   0.2885372   0.9812805  )

     --------------------------------------------
     DFT-D3 Dispersion Correction (3-body terms):
     --------------------------------------------
       Reference C6 values for interpolation: 

         atom   Coordination number   C6
         S          0.000           268.01
         S          0.995           261.99
         S          1.990           251.62
         Mo         0.000          1691.79
         Mo         1.942          1004.01
         Mo        11.056           674.22
         Pd         0.000          1217.01
         Pd         1.863           573.90
         Pd         5.710           531.75
         Pt         0.000           782.29
         Pt         1.919           692.72
         Pt         6.667           673.75

       Values used:

         atom   Coordination number  R0_AB[au]  C6      C8
         Mo        10.208            3.547    674.22  77634.20
         Mo        10.221            3.547    674.22  77634.20
         S          3.858            3.128    251.62  12327.25
         S          3.859            3.128    251.62  12327.25
         S          3.758            3.128    251.62  12327.25
         S          3.859            3.128    251.62  12327.25
         Mo        10.221            3.547    674.22  77634.20
         Mo        10.229            3.547    674.22  77634.20
         S          3.849            3.128    251.62  12327.25
         S          3.859            3.128    251.62  12327.25
         S          3.859            3.128    251.62  12327.25
         S          4.629            3.128    251.62  12327.25
         Mo        10.208            3.547    674.22  77634.20
         Mo        10.221            3.547    674.22  77634.20
         S          3.858            3.128    251.62  12327.25
         S          3.859            3.128    251.62  12327.25
         S          3.758            3.128    251.62  12327.25
         S          3.859            3.128    251.62  12327.25
         Mo        10.222            3.547    674.22  77634.20
         Mo        10.728            3.547    674.21  77634.20
         S          3.862            3.128    251.62  12327.25
         S          3.850            3.128    251.62  12327.25
         S          3.859            3.128    251.62  12327.25
         S          5.605            3.128    251.62  12327.25
         Mo        10.208            3.547    674.22  77634.20
         Mo        10.221            3.547    674.22  77634.20
         S          3.858            3.128    251.62  12327.25
         S          3.859            3.128    251.62  12327.25
         S          3.758            3.128    251.62  12327.25
         S          3.859            3.128    251.62  12327.25
         Mo        10.220            3.547    674.22  77634.20
         Mo        10.178            3.547    674.22  77634.20
         S          3.843            3.128    251.62  12327.25
         S          3.853            3.128    251.62  12327.25
         S          3.859            3.128    251.62  12327.25
         S          3.851            3.128    251.62  12327.25
         Mo        10.208            3.547    674.21  77634.20
         Mo        10.220            3.547    674.22  77634.20
         S          3.858            3.128    251.62  12327.25
         S          3.859            3.128    251.62  12327.25
         S          3.758            3.128    251.62  12327.25
         S          3.859            3.128    251.62  12327.25
         Mo        10.220            3.547    674.22  77634.20
         Mo        10.260            3.547    674.22  77634.20
         S          3.856            3.128    251.62  12327.25
         S          3.861            3.128    251.62  12327.25
         S          3.859            3.128    251.62  12327.25
         S          3.808            3.128    251.62  12327.25
         Mo        10.208            3.547    674.22  77634.20
         Mo        10.221            3.547    674.22  77634.20
         S          3.858            3.128    251.62  12327.25
         S          3.859            3.128    251.62  12327.25
         S          3.758            3.128    251.62  12327.25
         S          3.859            3.128    251.62  12327.25
         Mo        10.220            3.547    674.22  77634.20
         Mo        10.278            3.547    674.22  77634.20
         S          3.837            3.128    251.62  12327.25
         S          3.863            3.128    251.62  12327.25
         S          3.859            3.128    251.62  12327.25
         S          3.842            3.128    251.62  12327.25
         Mo        10.208            3.547    674.21  77634.20
         Mo        10.221            3.547    674.22  77634.20
         S          3.858            3.128    251.62  12327.25
         S          3.859            3.128    251.62  12327.25
         S          3.758            3.128    251.62  12327.25
         S          3.859            3.128    251.62  12327.25
         Mo        10.222            3.547    674.22  77634.20
         Mo        10.177            3.547    674.22  77634.20
         S          3.873            3.128    251.62  12327.25
         S          3.855            3.128    251.62  12327.25
         S          3.859            3.128    251.62  12327.25
         S          5.643            3.128    251.62  12327.25
         Mo        10.208            3.547    674.22  77634.20
         Mo        10.221            3.547    674.22  77634.20
         S          3.858            3.128    251.62  12327.25
         S          3.859            3.128    251.62  12327.25
         S          3.758            3.128    251.62  12327.25
         S          3.859            3.128    251.62  12327.25
         Mo        10.222            3.547    674.22  77634.20
         Mo        10.867            3.547    674.22  77634.20
         S          3.860            3.128    251.62  12327.25
         S          3.850            3.128    251.62  12327.25
         S          3.859            3.128    251.62  12327.25
         S          4.673            3.128    251.62  12327.25
         Mo        10.208            3.547    674.22  77634.20
         Mo        10.221            3.547    674.22  77634.20
         S          3.858            3.128    251.62  12327.25
         S          3.859            3.128    251.62  12327.25
         S          3.758            3.128    251.62  12327.25
         S          3.859            3.128    251.62  12327.25
         Mo        10.220            3.547    674.22  77634.20
         Mo        10.214            3.547    674.22  77634.20
         S          3.850            3.128    251.62  12327.25
         S          3.856            3.128    251.62  12327.25
         S          3.859            3.128    251.62  12327.25
         S          3.827            3.128    251.62  12327.25
         Mo        10.208            3.547    674.22  77634.20
         Mo        10.221            3.547    674.22  77634.20
         S          3.858            3.128    251.62  12327.25
         S          3.859            3.128    251.62  12327.25
         S          3.758            3.128    251.62  12327.25
         S          3.859            3.128    251.62  12327.25
         Mo        10.220            3.547    674.22  77634.20
         Mo        10.257            3.547    674.22  77634.20
         S          3.856            3.128    251.62  12327.25
         S          3.861            3.128    251.62  12327.25
         S          3.859            3.128    251.62  12327.25
         S          3.798            3.128    251.62  12327.25
         Mo        10.208            3.547    674.22  77634.20
         Mo        10.221            3.547    674.22  77634.20
         S          3.858            3.128    251.62  12327.25
         S          3.859            3.128    251.62  12327.25
         S          3.758            3.128    251.62  12327.25
         S          3.859            3.128    251.62  12327.25
         Mo        10.220            3.547    674.22  77634.20
         Mo        10.284            3.547    674.22  77634.20
         S          3.840            3.128    251.62  12327.25
         S          3.863            3.128    251.62  12327.25
         S          3.859            3.128    251.62  12327.25
         S          3.819            3.128    251.62  12327.25
         Mo        10.208            3.547    674.22  77634.20
         Mo        10.221            3.547    674.22  77634.20
         S          3.858            3.128    251.62  12327.25
         S          3.859            3.128    251.62  12327.25
         S          3.758            3.128    251.62  12327.25
         S          3.859            3.128    251.62  12327.25
         Mo        10.222            3.547    674.22  77634.20
         Mo        10.220            3.547    674.22  77634.20
         S          3.851            3.128    251.62  12327.25
         S          3.858            3.128    251.62  12327.25
         S          3.859            3.128    251.62  12327.25
         S          4.642            3.128    251.62  12327.25
         Mo        10.208            3.547    674.22  77634.20
         Mo        10.221            3.547    674.22  77634.20
         S          3.858            3.128    251.62  12327.25
         S          3.859            3.128    251.62  12327.25
         S          3.758            3.128    251.62  12327.25
         S          3.859            3.128    251.62  12327.25
         Mo        10.221            3.547    674.22  77634.20
         Mo        10.226            3.547    674.22  77634.20
         S          3.863            3.128    251.62  12327.25
         S          3.856            3.128    251.62  12327.25
         S          3.859            3.128    251.62  12327.25
         S          3.765            3.128    251.62  12327.25
         Mo        10.208            3.547    674.22  77634.20
         Mo        10.221            3.547    674.22  77634.20
         S          3.858            3.128    251.62  12327.25
         S          3.859            3.128    251.62  12327.25
         S          3.758            3.128    251.62  12327.25
         S          3.859            3.128    251.62  12327.25
         Mo        10.221            3.547    674.22  77634.20
         Mo        10.247            3.547    674.22  77634.20
         S          3.864            3.128    251.62  12327.25
         S          3.857            3.128    251.62  12327.25
         S          3.859            3.128    251.62  12327.25
         S          4.678            3.128    251.62  12327.25
         Mo        10.208            3.547    674.22  77634.20
         Mo        10.220            3.547    674.22  77634.20
         S          3.858            3.128    251.62  12327.25
         S          3.859            3.128    251.62  12327.25
         S          3.758            3.128    251.62  12327.25
         S          3.859            3.128    251.62  12327.25
         Mo        10.220            3.547    674.22  77634.20
         Mo        10.592            3.547    674.22  77634.20
         S          3.855            3.128    251.62  12327.25
         S          3.857            3.128    251.62  12327.25
         S          3.859            3.128    251.62  12327.25
         S          4.716            3.128    251.62  12327.25
         Mo        10.208            3.547    674.22  77634.20
         Mo        10.221            3.547    674.22  77634.20
         S          3.858            3.128    251.62  12327.25
         S          3.859            3.128    251.62  12327.25
         S          3.758            3.128    251.62  12327.25
         S          3.859            3.128    251.62  12327.25
         Mo        10.220            3.547    674.22  77634.20
         Mo        10.273            3.547    674.22  77634.20
         S          3.853            3.128    251.62  12327.25
         S          3.861            3.128    251.62  12327.25
         S          3.859            3.128    251.62  12327.25
         S          3.821            3.128    251.62  12327.25
         Mo        10.208            3.547    674.22  77634.20
         Mo        10.221            3.547    674.22  77634.20
         S          3.858            3.128    251.62  12327.25
         S          3.859            3.128    251.62  12327.25
         S          3.758            3.128    251.62  12327.25
         S          3.859            3.128    251.62  12327.25
         Mo        10.221            3.547    674.22  77634.20
         Mo        10.251            3.547    674.22  77634.20
         S          3.853            3.128    251.62  12327.25
         S          3.860            3.128    251.62  12327.25
         S          3.859            3.128    251.62  12327.25
         S          3.823            3.128    251.62  12327.25
         Pt         4.461            3.168    673.78  70065.09
         Pd         4.276            3.168    531.75  48720.73
         Pd         3.368            3.168    573.90  52583.07

         Molecular C6 ( Ry / a.u.^6 ) =  14156058.03


     number of k points=     4  Gaussian smearing, width (Ry)=  0.0100
                       cart. coord. in units 2pi/alat
        k(    1) = (   0.0000000   0.0000000   0.0000000), wk =   0.5000000
        k(    2) = (   0.0000000  -0.5773499   0.0000000), wk =   0.5000000
        k(    3) = (  -0.5000000  -0.2886744   0.0000000), wk =   0.5000000
        k(    4) = (  -0.5000000  -0.8660242   0.0000000), wk =   0.5000000

     Dense  grid:  7154885 G-vectors     FFT dimensions: ( 180, 180, 512)

     Smooth grid:  3090769 G-vectors     FFT dimensions: ( 135, 135, 400)

     Estimated max dynamical RAM per process >       4.32 GB

     Estimated total dynamical RAM >     155.52 GB

     Initial potential from superposition of free atoms

     starting charge    1731.9386, renormalised to    1732.0000

     negative rho (up, down):  1.027E-03 0.000E+00
     Starting wfcs are 1189 randomized atomic wfcs
     Checking if some PAW data can be deallocated... 

     total cpu time spent up to now is      179.0 secs

     Self-consistent Calculation

     iteration #  1     ecut=    77.00 Ry     beta= 0.20
     Davidson diagonalization with overlap
     ethr =  1.00E-02,  avg # of iterations =  2.0

     Threshold (ethr) on eigenvalues was too large:
     Diagonalizing with lowered threshold

     Davidson diagonalization with overlap
     ethr =  2.01E-04,  avg # of iterations = 16.0

     negative rho (up, down):  2.863E-04 0.000E+00

     total cpu time spent up to now is     2067.2 secs

     total energy              =  -34492.07054924 Ry
     estimated scf accuracy    <       6.53702045 Ry

     iteration #  2     ecut=    77.00 Ry     beta= 0.20
     Davidson diagonalization with overlap
     ethr =  3.77E-04,  avg # of iterations =  3.0

     negative rho (up, down):  3.737E-05 0.000E+00

     total cpu time spent up to now is     2478.0 secs

     total energy              =  -34490.94511267 Ry
     estimated scf accuracy    <       3.28563798 Ry

     iteration #  3     ecut=    77.00 Ry     beta= 0.20
     Davidson diagonalization with overlap
     c_bands:  1 eigenvalues not converged
     ethr =  1.90E-04,  avg # of iterations = 18.0

     negative rho (up, down):  2.572E-05 0.000E+00

     total cpu time spent up to now is     3003.9 secs

     total energy              =  -34491.33610706 Ry
     estimated scf accuracy    <       1.34587791 Ry

     iteration #  4     ecut=    77.00 Ry     beta= 0.20
     Davidson diagonalization with overlap
     ethr =  7.77E-05,  avg # of iterations = 11.5

     negative rho (up, down):  1.838E-05 0.000E+00

     total cpu time spent up to now is     3745.6 secs

     total energy              =  -34491.77572682 Ry
     estimated scf accuracy    <       0.41162602 Ry

     iteration #  5     ecut=    77.00 Ry     beta= 0.20
     Davidson diagonalization with overlap
     ethr =  2.38E-05,  avg # of iterations = 17.5

     negative rho (up, down):  3.662E-05 0.000E+00

     total cpu time spent up to now is     4823.1 secs

     total energy              =  -34492.17436915 Ry
     estimated scf accuracy    <       0.18320118 Ry

     iteration #  6     ecut=    77.00 Ry     beta= 0.20
     Davidson diagonalization with overlap
     ethr =  1.06E-05,  avg # of iterations = 16.8

     negative rho (up, down):  9.765E-05 0.000E+00

     total cpu time spent up to now is     5518.3 secs

     total energy              =  -34492.19381937 Ry
     estimated scf accuracy    <       0.12787024 Ry

     iteration #  7     ecut=    77.00 Ry     beta= 0.20
     Davidson diagonalization with overlap
     c_bands:  2 eigenvalues not converged
     ethr =  7.38E-06,  avg # of iterations = 20.2

     negative rho (up, down):  7.045E-04 0.000E+00

     total cpu time spent up to now is     6101.8 secs

     total energy              =  -34492.19845918 Ry
     estimated scf accuracy    <       0.07015448 Ry

     iteration #  8     ecut=    77.00 Ry     beta= 0.20
     Davidson diagonalization with overlap
     c_bands:  3 eigenvalues not converged
     c_bands:  4 eigenvalues not converged
     c_bands:  3 eigenvalues not converged
     c_bands:  4 eigenvalues not converged
     ethr =  4.05E-06,  avg # of iterations = 30.0

     negative rho (up, down):  5.067E-04 0.000E+00

     total cpu time spent up to now is     7264.4 secs

     total energy              =  -34492.21884650 Ry
     estimated scf accuracy    <       0.08193314 Ry

     iteration #  9     ecut=    77.00 Ry     beta= 0.20
     Davidson diagonalization with overlap
     c_bands:  3 eigenvalues not converged
     c_bands:  2 eigenvalues not converged
     c_bands:  3 eigenvalues not converged
     ethr =  4.05E-06,  avg # of iterations = 16.0

     negative rho (up, down):  4.640E-04 0.000E+00

     total cpu time spent up to now is     7730.5 secs

     total energy              =  -34492.22188138 Ry
     estimated scf accuracy    <       0.00950949 Ry

     iteration # 10     ecut=    77.00 Ry     beta= 0.20
     Davidson diagonalization with overlap
     c_bands:  1 eigenvalues not converged
     c_bands:  5 eigenvalues not converged
     c_bands:  2 eigenvalues not converged
     ethr =  5.49E-07,  avg # of iterations = 50.5

     negative rho (up, down):  5.323E-04 0.000E+00

     total cpu time spent up to now is    10127.3 secs

     total energy              =  -34492.24664626 Ry
     estimated scf accuracy    <       0.01436429 Ry

     iteration # 11     ecut=    77.00 Ry     beta= 0.20
     Davidson diagonalization with overlap
     c_bands:  2 eigenvalues not converged
     c_bands:  4 eigenvalues not converged
     ethr =  5.49E-07,  avg # of iterations = 10.8

     negative rho (up, down):  6.800E-04 0.000E+00

     total cpu time spent up to now is    10553.6 secs

     total energy              =  -34492.24287142 Ry
     estimated scf accuracy    <       0.00784971 Ry

     iteration # 12     ecut=    77.00 Ry     beta= 0.20
     Davidson diagonalization with overlap
     ethr =  4.53E-07,  avg # of iterations =  9.0

     negative rho (up, down):  9.064E-04 0.000E+00

     total cpu time spent up to now is    11037.3 secs

     total energy              =  -34492.24318351 Ry
     estimated scf accuracy    <       0.00127884 Ry

     iteration # 13     ecut=    77.00 Ry     beta= 0.20
     Davidson diagonalization with overlap
     c_bands:  1 eigenvalues not converged
     c_bands:  1 eigenvalues not converged
     ethr =  7.38E-08,  avg # of iterations = 20.0

     negative rho (up, down):  8.254E-04 0.000E+00

     total cpu time spent up to now is    13098.8 secs

     total energy              =  -34492.24715411 Ry
     estimated scf accuracy    <       0.00732222 Ry

     iteration # 14     ecut=    77.00 Ry     beta= 0.20
     Davidson diagonalization with overlap
     ethr =  7.38E-08,  avg # of iterations =  4.0

     negative rho (up, down):  8.151E-04 0.000E+00

     total cpu time spent up to now is    13530.6 secs

     total energy              =  -34492.24675382 Ry
     estimated scf accuracy    <       0.00420573 Ry

     iteration # 15     ecut=    77.00 Ry     beta= 0.20
     Davidson diagonalization with overlap
     ethr =  7.38E-08,  avg # of iterations =  3.2

     negative rho (up, down):  8.496E-04 0.000E+00

     total cpu time spent up to now is    13939.9 secs

     total energy              =  -34492.24503657 Ry
     estimated scf accuracy    <       0.00326579 Ry

     iteration # 16     ecut=    77.00 Ry     beta= 0.20
     Davidson diagonalization with overlap
     ethr =  7.38E-08,  avg # of iterations =  8.8

     negative rho (up, down):  8.979E-04 0.000E+00

     total cpu time spent up to now is    14738.7 secs

     total energy              =  -34492.24652276 Ry
     estimated scf accuracy    <       0.00012373 Ry

     iteration # 17     ecut=    77.00 Ry     beta= 0.20
     Davidson diagonalization with overlap
     c_bands:  4 eigenvalues not converged
     ethr =  7.14E-09,  avg # of iterations = 37.0

     negative rho (up, down):  9.035E-04 0.000E+00

     total cpu time spent up to now is    16257.7 secs

     total energy              =  -34492.24668809 Ry
     estimated scf accuracy    <       0.00002768 Ry

     iteration # 18     ecut=    77.00 Ry     beta= 0.20
     Davidson diagonalization with overlap
     ethr =  1.60E-09,  avg # of iterations = 16.5

     negative rho (up, down):  9.286E-04 0.000E+00

     total cpu time spent up to now is    17470.9 secs

     total energy              =  -34492.24673604 Ry
     estimated scf accuracy    <       0.00008279 Ry

     iteration # 19     ecut=    77.00 Ry     beta= 0.20
     Davidson diagonalization with overlap
     ethr =  1.60E-09,  avg # of iterations =  6.0

     negative rho (up, down):  9.328E-04 0.000E+00

     total cpu time spent up to now is    17893.2 secs

     total energy              =  -34492.24671426 Ry
     estimated scf accuracy    <       0.00007801 Ry

     iteration # 20     ecut=    77.00 Ry     beta= 0.20
     Davidson diagonalization with overlap
     ethr =  1.60E-09,  avg # of iterations = 11.0

     negative rho (up, down):  9.369E-04 0.000E+00

     total cpu time spent up to now is    18330.1 secs

     total energy              =  -34492.24669137 Ry
     estimated scf accuracy    <       0.00004572 Ry

     iteration # 21     ecut=    77.00 Ry     beta= 0.20
     Davidson diagonalization with overlap
     ethr =  1.60E-09,  avg # of iterations = 11.2

     negative rho (up, down):  9.369E-04 0.000E+00

     total cpu time spent up to now is    18902.1 secs

     total energy              =  -34492.24669279 Ry
     estimated scf accuracy    <       0.00000773 Ry

     iteration # 22     ecut=    77.00 Ry     beta= 0.20
     Davidson diagonalization with overlap
     ethr =  4.47E-10,  avg # of iterations = 14.2

     negative rho (up, down):  9.362E-04 0.000E+00

     total cpu time spent up to now is    19919.7 secs

     total energy              =  -34492.24670308 Ry
     estimated scf accuracy    <       0.00000886 Ry

     iteration # 23     ecut=    77.00 Ry     beta= 0.20
     Davidson diagonalization with overlap
     ethr =  4.47E-10,  avg # of iterations =  1.5

     negative rho (up, down):  9.370E-04 0.000E+00

     total cpu time spent up to now is    20306.3 secs

     total energy              =  -34492.24670142 Ry
     estimated scf accuracy    <       0.00000218 Ry

     iteration # 24     ecut=    77.00 Ry     beta= 0.20
     Davidson diagonalization with overlap
     ethr =  1.26E-10,  avg # of iterations = 16.0

     negative rho (up, down):  9.370E-04 0.000E+00

     total cpu time spent up to now is    21349.7 secs

     total energy              =  -34492.24670367 Ry
     estimated scf accuracy    <       0.00000206 Ry

     iteration # 25     ecut=    77.00 Ry     beta= 0.20
     Davidson diagonalization with overlap
     ethr =  1.19E-10,  avg # of iterations =  1.0

     negative rho (up, down):  9.369E-04 0.000E+00

     total cpu time spent up to now is    21716.8 secs

     End of self-consistent calculation

          k = 0.0000 0.0000 0.0000 (386245 PWs)   bands (ev):

  -102.8812 -88.7676 -88.1576 -71.2083 -71.2001 -71.1864 -71.1758 -71.1627
   -71.1552 -71.1446 -66.6044 -66.6044 -66.6032 -66.5990 -66.5848 -66.5834
   -66.5832 -66.5832 -66.5831 -66.5831 -66.5831 -66.5831 -66.5831 -66.5831
   -66.5831 -66.5830 -66.5828 -66.5819 -66.5819 -66.5818 -66.5818 -66.5818
   -66.5818 -66.5793 -66.5735 -66.5681 -66.5630 -66.5621 -66.5619 -66.5618
   -66.5618 -66.5618 -66.5618 -66.5618 -66.5617 -66.5617 -66.5617 -66.5617
   -66.5617 -66.5617 -66.5617 -66.5616 -66.5615 -66.5614 -66.5613 -66.5606
   -66.5605 -66.5605 -66.5604 -66.5604 -66.5604 -66.5604 -66.5604 -66.5604
   -66.5604 -66.5563 -66.5478 -66.5439 -66.5360 -66.5317 -66.5312 -66.5288
   -66.5233 -66.5214 -57.1851 -57.0741 -57.0505 -54.6486 -54.5102 -54.5091
   -54.0015 -53.9708 -53.9099 -40.9318 -40.9318 -40.9318 -40.9318 -40.9317
   -40.9316 -40.9312 -40.9312 -40.9312 -40.9177 -40.9137 -40.9110 -40.8566
   -40.8565 -40.8565 -40.8565 -40.8565 -40.8565 -40.8565 -40.8564 -40.8564
   -40.8564 -40.8563 -40.8562 -40.8558 -40.8558 -40.8558 -40.8558 -40.8558
   -40.8558 -40.8478 -40.8428 -40.8369 -40.8309 -40.8224 -40.8161 -40.7752
   -40.7641 -40.7640 -40.7635 -40.7543 -40.7338 -40.7314 -40.7303 -40.7302
   -40.7302 -40.7301 -40.7301 -40.7301 -40.7301 -40.7301 -40.7301 -40.7300
   -40.7300 -40.7298 -40.7293 -40.7293 -40.7293 -40.7293 -40.7293 -40.7293
   -40.7279 -40.7226 -40.7224 -40.7224 -40.7224 -40.7224 -40.7224 -40.7224
   -40.7223 -40.7223 -40.7223 -40.7222 -40.7222 -40.7220 -40.7217 -40.7217
   -40.7217 -40.7217 -40.7217 -40.7217 -40.7188 -40.7172 -40.7145 -40.7128
   -40.7033 -40.7007 -40.6972 -40.6952 -40.6951 -40.6951 -40.6951 -40.6951
   -40.6951 -40.6951 -40.6951 -40.6951 -40.6950 -40.6949 -40.6948 -40.6947
   -40.6942 -40.6942 -40.6942 -40.6942 -40.6942 -40.6942 -40.6903 -40.6872
   -40.6859 -40.6845 -40.6808 -40.6806 -40.6805 -40.6804 -40.6804 -40.6804
   -40.6804 -40.6804 -40.6804 -40.6804 -40.6804 -40.6803 -40.6803 -40.6803
   -40.6803 -40.6802 -40.6801 -40.6799 -40.6797 -40.6797 -40.6797 -40.6797
   -40.6797 -40.6797 -40.6796 -40.6796 -40.6796 -40.6791 -40.6776 -40.6747
   -40.6710 -40.6691 -40.6677 -40.6615 -40.6567 -40.6552 -40.6505 -40.6168
   -40.6168 -40.6168 -40.6168 -40.6167 -40.6166 -40.6158 -40.6158 -40.6158
   -40.6011 -40.5913 -40.5902 -40.5698 -40.5697 -40.5697 -40.5697 -40.5697
   -40.5697 -40.5697 -40.5696 -40.5696 -40.5695 -40.5695 -40.5693 -40.5687
   -40.5687 -40.5687 -40.5687 -40.5687 -40.5687 -40.5520 -40.5493 -40.5435
   -40.5417 -40.5343 -40.5330 -40.5220 -40.5220 -40.5220 -40.5220 -40.5210
   -40.5210 -40.4942 -40.4836 -20.1992 -20.0813 -19.9791 -19.8704 -19.6340
   -19.4278 -19.3166 -19.2505 -19.2395 -19.2314 -19.2178 -19.2159 -19.2123
   -19.1990 -19.1908 -19.1762 -19.1313 -19.1272 -19.1216 -19.1110 -19.1058
   -19.0938 -19.0264 -19.0236 -19.0206 -19.0169 -19.0151 -19.0110 -18.9061
   -18.7950 -18.7520 -18.6379 -18.6011 -18.5501 -18.5269 -18.5005 -18.4800
   -18.4685 -18.4438 -18.4258 -18.4045 -18.3991 -18.3889 -18.3759 -18.3468
   -18.3232 -18.2733 -18.2653 -18.2636 -18.2607 -18.2489 -18.2296 -18.1891
   -18.1763 -18.1653 -18.1645 -18.1619 -18.1548 -18.1463 -18.1404 -18.1093
   -18.1020 -18.1004 -18.0998 -18.0994 -18.0981 -18.0926 -18.0727 -18.0694
   -18.0655 -18.0629 -18.0583 -18.0571 -18.0558 -18.0554 -18.0532 -18.0329
   -18.0320 -18.0298 -18.0281 -18.0190 -18.0147 -18.0119 -18.0006 -17.9990
   -17.9901 -17.9865 -17.9853 -17.9823 -17.9735 -17.9710 -17.9678 -17.9379
   -17.9337 -17.9283 -17.9227 -17.9208 -17.9055 -17.9022 -17.9002 -17.8982
   -17.8778 -17.8751 -17.8731 -17.8634 -17.8622 -17.8552 -17.8528 -17.8486
   -17.8466 -17.8403 -17.8388 -17.8367 -17.8214 -17.8210 -17.8206 -17.8114
   -17.8107 -17.8077 -17.8048 -17.8016 -17.8014 -17.7776 -17.7775 -17.7767
   -17.7757 -17.7747 -17.7743 -12.1768 -12.0453 -11.9967 -11.9014 -11.8302
   -11.7796 -11.7789 -11.7702 -11.6674 -11.6617 -11.6491 -11.5802 -11.5413
   -11.5370 -11.5338 -11.4461 -11.4278 -11.3966 -11.3468 -11.2668 -11.2405
   -11.2292 -11.2221 -11.2169 -11.2040 -11.1841 -11.1742 -11.1316 -11.1159
   -11.1124 -11.1110 -11.1073 -11.1068 -11.0968 -11.0825 -11.0663 -11.0592
   -11.0543 -11.0432 -11.0410 -11.0380 -11.0317 -11.0277 -11.0219 -11.0082
   -11.0054 -10.9722 -10.9603 -10.9440 -10.9426 -10.9361 -10.9242 -10.9216
   -10.9039 -10.8919 -10.8799 -10.8777 -10.8721 -10.8656 -10.8571 -10.8524
   -10.8418 -10.8322 -10.8267 -10.8226 -10.8185 -10.8147 -10.8110 -10.8104
   -10.8090 -10.8066 -10.8028 -10.7963 -10.7930 -10.7899 -10.7854 -10.7641
   -10.7615 -10.7598 -10.7587 -10.7565 -10.7535 -10.7505 -10.7478 -10.7403
   -10.7184 -10.7182 -10.7180 -10.7174 -10.7165 -10.7147 -10.6624 -10.6452
   -10.6422 -10.6123 -10.5954 -10.5923 -10.5738 -10.5677 -10.5633 -10.5560
   -10.4650 -10.3873 -10.2353 -10.2082 -10.1377 -10.1248 -10.0548 -10.0013
    -9.9483  -9.9127  -9.8889  -9.8652  -9.8138  -9.8053  -9.7943  -9.7867
    -9.7827  -9.7637  -9.7590  -9.7572  -9.7532  -9.7517  -9.7488  -9.7448
    -9.7427  -9.7362  -9.7320  -9.7298  -9.7285  -9.7193  -9.7155  -9.6996
    -9.6810  -9.6730  -9.6579  -9.6253  -9.6156  -9.6110  -9.6103  -9.6032
    -9.6010  -9.6006  -9.5980  -9.5978  -9.5971  -9.5955  -9.5927  -9.5646
    -9.5564  -9.5400  -9.5248  -9.5219  -9.5217  -9.5216  -9.5214  -9.5211
    -9.5206  -9.5148  -9.5079  -9.4990  -9.4914  -9.4890  -9.4710  -9.4554
    -9.4393  -9.4306  -9.3687  -9.3569  -9.3509  -9.3437  -9.3405  -9.3365
    -9.3273  -9.3229  -9.3144  -9.3105  -9.3037  -9.2947  -9.2651  -9.2448
    -9.2331  -9.2253  -9.2192  -9.2101  -9.1920  -9.1872  -9.1692  -9.1654
    -9.1634  -9.1613  -9.1600  -9.1566  -9.1481  -9.1256  -9.1198  -9.0967
    -9.0886  -9.0838  -9.0423  -9.0111  -8.9892  -8.9682  -8.9635  -8.9601
    -8.9587  -8.9574  -8.9436  -8.9284  -8.9273  -8.9233  -8.8976  -8.8975
    -8.8970  -8.8946  -8.8868  -8.8824  -8.8788  -8.8705  -8.8650  -8.8030
    -8.8020  -8.8014  -8.8012  -8.8011  -8.8007  -8.7741  -8.7456  -8.7380
    -8.7325  -8.7241  -8.7174  -8.7119  -8.6627  -8.6541  -8.6502  -8.6447
    -8.6399  -8.6372  -8.5937  -8.5789  -8.5733  -8.5728  -8.5707  -8.5704
    -8.5607  -8.5328  -8.4852  -8.4462  -8.4224  -8.3545  -8.3465  -8.3464
    -8.3419  -8.3413  -8.3374  -8.3349  -8.3340  -8.3215  -8.2904  -8.2664
    -8.2562  -8.2558  -8.2557  -8.2556  -8.2547  -8.2509  -8.2314  -8.2296
    -8.2289  -8.2287  -8.2274  -8.2249  -8.2054  -8.2016  -8.2009  -8.2007
    -8.2002  -8.1995  -8.1906  -8.1633  -8.0372  -8.0139  -7.9699  -7.8569
    -7.8399  -7.8378  -7.8355  -7.7799  -7.7750  -7.7506  -7.7402  -7.7179
    -7.6958  -7.6847  -7.6418  -7.6355  -7.6265  -7.6202  -7.6089  -7.6022
    -7.5970  -7.5844  -7.5832  -7.5708  -7.5683  -7.5558  -7.5421  -7.5307
    -7.5216  -7.5148  -7.5143  -7.5141  -7.5134  -7.5124  -7.5055  -7.4934
    -7.4883  -7.4874  -7.4871  -7.4860  -7.4845  -7.4804  -7.4655  -7.4638
    -7.4624  -7.4620  -7.4618  -7.4613  -7.4595  -7.4474  -7.4375  -7.4352
    -7.4195  -7.4169  -7.4122  -7.4012  -7.3984  -7.3852  -7.3715  -7.3494
    -7.3388  -7.3360  -7.3314  -7.3216  -7.3015  -7.2978  -7.2837  -7.2826
    -7.2802  -7.2793  -7.2737  -7.2662  -7.2505  -7.2308  -7.2304  -7.2152
    -7.2119  -7.2087  -7.1937  -7.1934  -7.1741  -7.1465  -7.1423  -7.1116
    -7.1066  -7.0872  -7.0772  -7.0565  -7.0065  -6.9423  -6.9112  -6.8763
    -6.8713  -6.8633  -6.8447  -6.8389  -6.7943  -6.7605  -6.7595  -6.7581
    -6.7175  -6.7048  -6.6946  -6.6808  -6.6778  -6.6730  -6.6558  -6.6493
    -6.6217  -6.6038  -6.6027  -6.6015  -6.5993  -6.5747  -6.5659  -6.5561
    -6.5501  -6.5435  -6.5397  -6.5270  -6.5228  -6.5024  -6.4968  -6.4944
    -6.4940  -6.4919  -6.4905  -6.4866  -6.4833  -6.4820  -6.4780  -6.4778
    -6.4774  -6.4773  -6.4770  -6.4768  -6.4727  -6.4534  -6.4428  -6.4307
    -6.4237  -6.4204  -6.3933  -6.3898  -6.3896  -6.3785  -6.3445  -6.3393
    -6.3254  -6.3158  -6.3124  -6.3104  -6.3089  -6.3078  -6.3050  -6.2906
    -6.2751  -6.2702  -6.2692  -6.2683  -6.2655  -6.2613  -6.2375  -6.2352
    -6.2326  -6.2324  -6.2315  -6.2308  -6.2207  -6.2077  -6.0593  -5.9849
    -5.9604  -5.8372  -5.6451  -5.6000  -5.5304  -5.4245  -5.3945  -5.3589
    -5.2717  -5.1267  -4.1962  -4.0130  -3.8715  -3.8345  -3.8283  -3.8259
    -3.8153  -3.8117  -3.8080  -3.8064  -3.8049  -3.8016  -3.7824  -3.7687
    -3.7312  -3.6865  -3.6795  -3.6722  -3.6710  -3.6635  -3.6590  -3.6559
    -3.6550  -3.6516  -3.5605  -3.5406  -3.5223  -3.4962  -3.4915  -3.4898
    -3.4829  -3.4752  -3.4625  -3.4570  -3.4509  -3.4496  -3.4492  -3.4466
    -3.4427  -3.4381  -3.4316  -3.4259  -3.4225  -3.4219  -3.4215  -3.4165
    -3.4086  -3.4062  -3.4053  -3.3995  -3.3930  -3.3890  -3.3875  -3.3863
    -3.3830  -3.3796  -3.3780  -3.3692  -3.3665  -3.3635  -3.3403  -3.3353
    -3.3324  -3.3280  -3.3256  -3.3244  -3.3228  -3.3205  -3.3135  -3.2995
    -3.2895  -3.2830  -3.2742  -3.2681  -3.2658  -3.2629  -3.2567  -3.2489
    -3.2364  -3.2071  -3.2005  -3.1923  -3.1763  -3.1743  -3.0781  -3.0631
    -3.0540  -3.0472  -3.0416  -3.0385  -3.0331  -3.0268  -3.0253  -3.0224
    -3.0136  -2.9858  -2.9714  -2.9695  -2.9600  -2.9578  -2.9526  -2.9519
    -2.9505  -2.9481  -2.9443  -2.9423  -2.9422  -2.9378  -2.9338  -2.9330
    -2.9295  -2.9271  -2.9178  -2.9153  -2.9131  -2.9119  -2.9100  -2.9059
    -2.9055  -2.9047  -2.9023  -2.8995  -2.8867  -2.8744  -2.8715  -2.8661
    -2.8580  -2.8522  -2.8506  -2.8424  -2.8283  -2.7867  -2.7856  -2.7851
    -2.7831  -2.7821  -2.7813  -2.7812  -2.7808  -2.7803  -2.7692  -2.7660
    -2.7617  -2.7577  -2.7296  -2.7152  -2.7123  -2.7043  -2.6974  -2.6964
    -2.6493  -2.6411  -2.6185  -2.6159  -2.6140  -2.6045  -2.6037  -2.6009
    -2.5970  -2.5949  -2.5734  -2.5566  -2.5361  -2.5238  -2.5216  -2.5127
    -2.4447  -2.4108  -2.4012  -2.3924  -2.3882  -2.3871  -2.3831

          k = 0.0000-0.5773 0.0000 (386352 PWs)   bands (ev):

  -102.8812 -88.7676 -88.1576 -71.2083 -71.2001 -71.1864 -71.1758 -71.1627
   -71.1552 -71.1446 -66.5983 -66.5982 -66.5982 -66.5980 -66.5976 -66.5969
   -66.5969 -66.5882 -66.5876 -66.5876 -66.5875 -66.5875 -66.5863 -66.5863
   -66.5786 -66.5725 -66.5725 -66.5724 -66.5724 -66.5724 -66.5724 -66.5724
   -66.5723 -66.5711 -66.5711 -66.5711 -66.5711 -66.5711 -66.5690 -66.5681
   -66.5680 -66.5680 -66.5678 -66.5667 -66.5667 -66.5634 -66.5619 -66.5618
   -66.5618 -66.5617 -66.5617 -66.5617 -66.5616 -66.5615 -66.5614 -66.5604
   -66.5604 -66.5604 -66.5604 -66.5573 -66.5573 -66.5573 -66.5572 -66.5560
   -66.5560 -66.5538 -66.5497 -66.5431 -66.5358 -66.5328 -66.5303 -66.5279
   -66.5257 -66.5201 -57.1851 -57.0741 -57.0505 -54.6486 -54.5102 -54.5091
   -54.0015 -53.9708 -53.9099 -40.9003 -40.9002 -40.9002 -40.9002 -40.9002
   -40.9001 -40.9000 -40.8999 -40.8995 -40.8995 -40.8995 -40.8995 -40.8908
   -40.8895 -40.8814 -40.8734 -40.8734 -40.8734 -40.8732 -40.8727 -40.8727
   -40.8696 -40.8625 -40.8613 -40.8613 -40.8612 -40.8612 -40.8606 -40.8606
   -40.8604 -40.8351 -40.8197 -40.8106 -40.8106 -40.8106 -40.8106 -40.8106
   -40.8105 -40.8105 -40.8105 -40.8099 -40.8099 -40.8099 -40.8099 -40.7907
   -40.7850 -40.7802 -40.7765 -40.7694 -40.7583 -40.7520 -40.7519 -40.7519
   -40.7517 -40.7513 -40.7513 -40.7458 -40.7423 -40.7423 -40.7423 -40.7422
   -40.7415 -40.7415 -40.7323 -40.7310 -40.7310 -40.7310 -40.7310 -40.7304
   -40.7304 -40.7224 -40.7167 -40.7140 -40.7095 -40.7070 -40.7036 -40.7014
   -40.7014 -40.7014 -40.7014 -40.7014 -40.7014 -40.7013 -40.7013 -40.7007
   -40.7007 -40.7007 -40.7007 -40.6954 -40.6928 -40.6927 -40.6927 -40.6925
   -40.6920 -40.6920 -40.6901 -40.6892 -40.6809 -40.6808 -40.6808 -40.6807
   -40.6806 -40.6804 -40.6804 -40.6804 -40.6804 -40.6804 -40.6802 -40.6801
   -40.6800 -40.6800 -40.6797 -40.6797 -40.6797 -40.6796 -40.6782 -40.6747
   -40.6717 -40.6717 -40.6717 -40.6716 -40.6712 -40.6710 -40.6710 -40.6680
   -40.6606 -40.6566 -40.6550 -40.6500 -40.6499 -40.6499 -40.6499 -40.6499
   -40.6498 -40.6498 -40.6497 -40.6490 -40.6490 -40.6490 -40.6490 -40.6358
   -40.6292 -40.6256 -40.6233 -40.6152 -40.6152 -40.6152 -40.6152 -40.6151
   -40.6151 -40.6151 -40.6150 -40.6142 -40.6142 -40.6142 -40.6142 -40.6031
   -40.6030 -40.6030 -40.6028 -40.6021 -40.6021 -40.5964 -40.5908 -40.5883
   -40.5857 -40.5837 -40.5837 -40.5837 -40.5836 -40.5828 -40.5827 -40.5782
   -40.5667 -40.5667 -40.5667 -40.5666 -40.5657 -40.5657 -40.5648 -40.5629
   -40.5559 -40.5361 -40.5361 -40.5360 -40.5358 -40.5350 -40.5350 -40.5349
   -40.5275 -40.5122 -40.4974 -20.0750 -19.8736 -19.8483 -19.8181 -19.7506
   -19.7245 -19.6458 -19.6295 -19.6186 -19.4622 -19.4129 -19.4013 -19.3225
   -19.3083 -19.2163 -19.2080 -19.0964 -18.9374 -18.8574 -18.8070 -18.7596
   -18.7370 -18.7058 -18.7020 -18.6997 -18.6980 -18.6785 -18.6572 -18.6396
   -18.6317 -18.6259 -18.6176 -18.6056 -18.5731 -18.5645 -18.5386 -18.5342
   -18.5323 -18.5261 -18.5117 -18.5036 -18.4701 -18.4635 -18.4576 -18.4497
   -18.4260 -18.4092 -18.3919 -18.3885 -18.3848 -18.3613 -18.3411 -18.3352
   -18.3130 -18.3012 -18.2785 -18.2684 -18.2495 -18.2289 -18.2256 -18.2026
   -18.1763 -18.1669 -18.1609 -18.1444 -18.1177 -18.1128 -18.1029 -18.0898
   -18.0802 -18.0783 -18.0771 -18.0763 -18.0573 -18.0527 -18.0507 -18.0490
   -18.0454 -18.0432 -18.0376 -18.0341 -18.0331 -18.0211 -18.0093 -17.9912
   -17.9888 -17.9872 -17.9830 -17.9802 -17.9794 -17.9780 -17.9690 -17.9680
   -17.9584 -17.9308 -17.9281 -17.9244 -17.9161 -17.9133 -17.9007 -17.8833
   -17.8733 -17.8709 -17.8593 -17.8547 -17.8367 -17.8264 -17.8225 -17.8199
   -17.8181 -17.7988 -17.7984 -17.7981 -17.7976 -17.7973 -17.7961 -17.7841
   -17.7834 -17.7645 -17.7631 -17.7401 -17.7386 -17.7209 -17.7187 -17.7062
   -17.7048 -17.6986 -17.6984 -12.0804 -11.9348 -11.7944 -11.7222 -11.6983
   -11.6199 -11.6031 -11.5162 -11.4916 -11.4792 -11.4784 -11.4699 -11.4609
   -11.4573 -11.4526 -11.4229 -11.3911 -11.3904 -11.3742 -11.3672 -11.3531
   -11.3525 -11.3282 -11.3166 -11.2950 -11.2854 -11.2700 -11.2547 -11.2535
   -11.2462 -11.2398 -11.2365 -11.2335 -11.2234 -11.1957 -11.1857 -11.1812
   -11.1740 -11.1689 -11.1611 -11.1495 -11.1489 -11.1408 -11.1283 -11.1255
   -11.1149 -11.1095 -11.0888 -11.0612 -11.0549 -11.0467 -11.0047 -10.9817
   -10.9641 -10.9558 -10.9345 -10.9270 -10.9082 -10.8958 -10.8918 -10.8856
   -10.8723 -10.8475 -10.8262 -10.8186 -10.8157 -10.8147 -10.8066 -10.7944
   -10.7913 -10.7900 -10.7892 -10.7885 -10.7837 -10.7794 -10.7776 -10.7721
   -10.7714 -10.7650 -10.7635 -10.7612 -10.7596 -10.7291 -10.7230 -10.7223
   -10.7220 -10.7163 -10.6509 -10.5877 -10.5433 -10.5275 -10.5142 -10.5053
   -10.4881 -10.4513 -10.4057 -10.3668 -10.3123 -10.2611 -10.2427 -10.1842
   -10.1546 -10.1290 -10.1220 -10.1153 -10.0963 -10.0905 -10.0845 -10.0745
   -10.0472 -10.0354 -10.0213 -10.0139 -10.0100 -10.0060  -9.9958  -9.9929
    -9.9789  -9.9519  -9.9356  -9.9162  -9.9060  -9.9024  -9.8940  -9.8849
    -9.8727  -9.8709  -9.8617  -9.8456  -9.8399  -9.8189  -9.7976  -9.7806
    -9.7669  -9.7619  -9.7504  -9.7379  -9.7286  -9.7202  -9.6903  -9.6845
    -9.6818  -9.6445  -9.6402  -9.6171  -9.6131  -9.6009  -9.6007  -9.5833
    -9.5579  -9.5567  -9.5474  -9.5407  -9.5344  -9.5264  -9.5168  -9.4773
    -9.4712  -9.4699  -9.4672  -9.4586  -9.4509  -9.4478  -9.4410  -9.4376
    -9.4365  -9.4162  -9.4159  -9.3819  -9.3680  -9.3591  -9.3339  -9.3111
    -9.3059  -9.2682  -9.2209  -9.2065  -9.1993  -9.1968  -9.1898  -9.1840
    -9.1791  -9.1458  -9.1389  -9.1267  -9.1167  -9.1047  -9.1013  -9.0802
    -9.0634  -9.0508  -9.0350  -9.0317  -9.0302  -9.0218  -9.0125  -9.0013
    -8.9874  -8.9722  -8.9650  -8.9426  -8.9385  -8.9316  -8.9254  -8.9203
    -8.9096  -8.9033  -8.8782  -8.8722  -8.8702  -8.8671  -8.8663  -8.8647
    -8.8612  -8.8555  -8.8481  -8.8475  -8.8439  -8.8384  -8.8349  -8.8314
    -8.8224  -8.8191  -8.8187  -8.8094  -8.7993  -8.7734  -8.7729  -8.7715
    -8.7677  -8.7662  -8.7640  -8.7428  -8.7412  -8.7326  -8.7197  -8.7127
    -8.7115  -8.7095  -8.7046  -8.6934  -8.6604  -8.6401  -8.6347  -8.6200
    -8.5938  -8.5404  -8.4859  -8.4822  -8.4532  -8.4289  -8.4228  -8.4013
    -8.3550  -8.3328  -8.3298  -8.3032  -8.2546  -8.2356  -8.2139  -8.1851
    -8.1069  -8.1065  -8.1052  -8.0975  -8.0974  -8.0863  -8.0861  -8.0682
    -8.0522  -8.0370  -7.9987  -7.9728  -7.9497  -7.9466  -7.9085  -7.9041
    -7.8780  -7.8440  -7.8319  -7.8280  -7.8182  -7.8114  -7.8062  -7.8005
    -7.7942  -7.7867  -7.7837  -7.7816  -7.7812  -7.7741  -7.7678  -7.7673
    -7.7652  -7.7602  -7.7597  -7.7487  -7.7481  -7.7458  -7.7447  -7.7441
    -7.7434  -7.7397  -7.7372  -7.7368  -7.7298  -7.7200  -7.7144  -7.7094
    -7.7082  -7.7042  -7.6787  -7.6760  -7.6753  -7.6750  -7.6571  -7.6459
    -7.6455  -7.6450  -7.6437  -7.6380  -7.6295  -7.6220  -7.6152  -7.5953
    -7.5940  -7.5887  -7.5872  -7.5834  -7.5792  -7.5764  -7.5648  -7.5627
    -7.5492  -7.5432  -7.5425  -7.5408  -7.5378  -7.5290  -7.5038  -7.4839
    -7.4463  -7.4420  -7.4362  -7.4339  -7.4116  -7.4069  -7.3831  -7.3140
    -7.2724  -7.2044  -7.1816  -7.1520  -7.1483  -7.1456  -7.1376  -7.1139
    -7.1025  -7.0942  -7.0879  -7.0767  -7.0691  -7.0565  -7.0459  -7.0174
    -7.0076  -7.0011  -6.9972  -6.9917  -6.9651  -6.9554  -6.9380  -6.9243
    -6.8949  -6.8879  -6.8753  -6.8718  -6.8605  -6.8481  -6.8398  -6.8380
    -6.8346  -6.8212  -6.8003  -6.7665  -6.7554  -6.7360  -6.7311  -6.7118
    -6.7022  -6.6647  -6.6604  -6.6401  -6.6191  -6.6084  -6.6000  -6.5905
    -6.5849  -6.5842  -6.5825  -6.5790  -6.5675  -6.5666  -6.5662  -6.5644
    -6.5627  -6.5581  -6.5578  -6.5575  -6.5575  -6.5357  -6.5133  -6.4919
    -6.4719  -6.4312  -6.4298  -6.3963  -6.3611  -6.3182  -6.3029  -6.2974
    -6.2955  -6.2926  -6.2839  -6.2749  -6.2677  -6.2564  -6.2555  -6.2520
    -6.2513  -6.2430  -6.2394  -6.2337  -6.2287  -6.2218  -6.2136  -6.1909
    -6.1840  -6.1829  -6.1786  -6.1689  -6.0884  -6.0099  -5.9783  -5.9679
    -5.9596  -5.9223  -5.9030  -5.8887  -5.8391  -5.8330  -5.8098  -5.7833
    -5.7215  -5.6690  -5.6181  -5.5959  -5.5774  -5.5465  -5.4795  -5.4208
    -5.3600  -5.2983  -4.2233  -4.1064  -4.0764  -4.0725  -4.0408  -3.9862
    -3.9207  -3.9062  -3.9015  -3.8968  -3.8416  -3.8239  -3.8201  -3.8115
    -3.8056  -3.7985  -3.7910  -3.7880  -3.7771  -3.7763  -3.7272  -3.7130
    -3.6874  -3.6679  -3.6242  -3.6062  -3.5884  -3.5831  -3.5818  -3.5757
    -3.5419  -3.5319  -3.5287  -3.5266  -3.5178  -3.5016  -3.4997  -3.4926
    -3.4877  -3.4807  -3.4657  -3.4621  -3.4610  -3.4538  -3.4504  -3.4417
    -3.4366  -3.4319  -3.4260  -3.4209  -3.4057  -3.4051  -3.3989  -3.3918
    -3.3681  -3.3575  -3.3361  -3.3297  -3.3255  -3.3230  -3.3229  -3.3194
    -3.3140  -3.3014  -3.2817  -3.2747  -3.2670  -3.2612  -3.2572  -3.2564
    -3.2539  -3.2523  -3.2493  -3.2336  -3.2258  -3.2222  -3.2176  -3.2108
    -3.2050  -3.1989  -3.1927  -3.1886  -3.1875  -3.1847  -3.1732  -3.1628
    -3.1618  -3.1558  -3.1493  -3.1413  -3.1393  -3.1392  -3.1361  -3.1205
    -3.0878  -3.0864  -3.0782  -3.0592  -3.0570  -3.0453  -3.0432  -3.0374
    -3.0047  -3.0029  -3.0016  -2.9988  -2.9985  -2.9979  -2.9917  -2.9892
    -2.9876  -2.9837  -2.9823  -2.9745  -2.9677  -2.9656  -2.9652  -2.9600
    -2.9554  -2.9508  -2.9492  -2.9467  -2.9439  -2.9378  -2.9255  -2.9242
    -2.9208  -2.9200  -2.9120  -2.9077  -2.9001  -2.8907  -2.8829  -2.8744
    -2.8705  -2.8641  -2.8569  -2.8515  -2.8489  -2.8255  -2.7789  -2.7766
    -2.7675  -2.7628  -2.7289  -2.7195  -2.6998  -2.6914  -2.6002  -2.5925
    -2.5728  -2.5689  -2.5492  -2.5475  -2.5304  -2.5225  -2.5186  -2.5122
    -2.5083  -2.5042  -2.5000  -2.4993  -2.4513  -2.3941  -2.3852  -2.3732
    -2.3728  -2.3696  -2.3623  -2.3531  -2.3383  -2.3185  -2.3174

          k =-0.5000-0.2887 0.0000 (386352 PWs)   bands (ev):

  -102.8812 -88.7676 -88.1576 -71.2083 -71.2001 -71.1864 -71.1758 -71.1627
   -71.1552 -71.1446 -66.5982 -66.5982 -66.5982 -66.5981 -66.5974 -66.5969
   -66.5969 -66.5888 -66.5876 -66.5876 -66.5875 -66.5875 -66.5863 -66.5863
   -66.5780 -66.5725 -66.5725 -66.5725 -66.5725 -66.5724 -66.5724 -66.5724
   -66.5723 -66.5711 -66.5711 -66.5711 -66.5711 -66.5704 -66.5697 -66.5680
   -66.5680 -66.5680 -66.5679 -66.5667 -66.5667 -66.5640 -66.5618 -66.5618
   -66.5618 -66.5617 -66.5617 -66.5617 -66.5617 -66.5615 -66.5605 -66.5604
   -66.5604 -66.5604 -66.5604 -66.5573 -66.5573 -66.5573 -66.5572 -66.5560
   -66.5560 -66.5549 -66.5498 -66.5422 -66.5363 -66.5330 -66.5300 -66.5277
   -66.5260 -66.5201 -57.1851 -57.0741 -57.0505 -54.6486 -54.5102 -54.5091
   -54.0015 -53.9708 -53.9099 -40.9002 -40.9002 -40.9002 -40.9002 -40.9002
   -40.9001 -40.9000 -40.9000 -40.8995 -40.8995 -40.8995 -40.8995 -40.8881
   -40.8830 -40.8804 -40.8798 -40.8734 -40.8734 -40.8734 -40.8732 -40.8727
   -40.8727 -40.8685 -40.8613 -40.8613 -40.8612 -40.8612 -40.8606 -40.8606
   -40.8587 -40.8360 -40.8161 -40.8106 -40.8106 -40.8106 -40.8106 -40.8106
   -40.8105 -40.8105 -40.8105 -40.8099 -40.8099 -40.8099 -40.8099 -40.7908
   -40.7830 -40.7803 -40.7742 -40.7700 -40.7544 -40.7519 -40.7519 -40.7519
   -40.7517 -40.7513 -40.7513 -40.7495 -40.7423 -40.7423 -40.7423 -40.7422
   -40.7415 -40.7415 -40.7336 -40.7310 -40.7310 -40.7310 -40.7310 -40.7304
   -40.7304 -40.7196 -40.7183 -40.7141 -40.7087 -40.7060 -40.7038 -40.7014
   -40.7014 -40.7014 -40.7014 -40.7014 -40.7014 -40.7014 -40.7013 -40.7007
   -40.7007 -40.7007 -40.7007 -40.6993 -40.6927 -40.6927 -40.6927 -40.6926
   -40.6920 -40.6920 -40.6909 -40.6858 -40.6809 -40.6808 -40.6808 -40.6807
   -40.6805 -40.6804 -40.6804 -40.6804 -40.6804 -40.6804 -40.6803 -40.6801
   -40.6800 -40.6800 -40.6797 -40.6797 -40.6797 -40.6796 -40.6791 -40.6736
   -40.6717 -40.6717 -40.6717 -40.6716 -40.6713 -40.6710 -40.6710 -40.6686
   -40.6624 -40.6557 -40.6549 -40.6500 -40.6499 -40.6499 -40.6499 -40.6499
   -40.6499 -40.6497 -40.6497 -40.6490 -40.6490 -40.6490 -40.6490 -40.6357
   -40.6344 -40.6274 -40.6189 -40.6152 -40.6152 -40.6152 -40.6152 -40.6151
   -40.6151 -40.6150 -40.6150 -40.6142 -40.6142 -40.6142 -40.6142 -40.6030
   -40.6030 -40.6030 -40.6029 -40.6021 -40.6021 -40.5969 -40.5932 -40.5880
   -40.5843 -40.5837 -40.5837 -40.5837 -40.5835 -40.5828 -40.5827 -40.5764
   -40.5688 -40.5667 -40.5667 -40.5667 -40.5666 -40.5661 -40.5657 -40.5657
   -40.5488 -40.5361 -40.5360 -40.5360 -40.5359 -40.5351 -40.5350 -40.5350
   -40.5216 -40.5100 -40.5045 -20.0582 -19.9051 -19.8483 -19.8363 -19.7508
   -19.7367 -19.6408 -19.6334 -19.5285 -19.4783 -19.4110 -19.4046 -19.3207
   -19.3107 -19.2175 -19.2088 -19.1373 -18.9565 -18.8613 -18.7810 -18.7621
   -18.7162 -18.7050 -18.7023 -18.7000 -18.6908 -18.6789 -18.6612 -18.6444
   -18.6305 -18.6272 -18.6145 -18.5897 -18.5886 -18.5761 -18.5386 -18.5355
   -18.5303 -18.5251 -18.5128 -18.4993 -18.4812 -18.4738 -18.4589 -18.4506
   -18.4327 -18.3933 -18.3890 -18.3876 -18.3785 -18.3651 -18.3407 -18.3167
   -18.3144 -18.3070 -18.2885 -18.2412 -18.2365 -18.2317 -18.2268 -18.1931
   -18.1905 -18.1659 -18.1639 -18.1412 -18.1310 -18.1053 -18.0997 -18.0901
   -18.0820 -18.0780 -18.0775 -18.0753 -18.0684 -18.0532 -18.0517 -18.0469
   -18.0454 -18.0438 -18.0405 -18.0336 -18.0281 -18.0255 -18.0214 -17.9907
   -17.9900 -17.9867 -17.9849 -17.9812 -17.9795 -17.9763 -17.9751 -17.9693
   -17.9605 -17.9338 -17.9298 -17.9185 -17.9168 -17.9148 -17.9096 -17.8782
   -17.8725 -17.8663 -17.8643 -17.8479 -17.8324 -17.8253 -17.8243 -17.8185
   -17.8129 -17.7987 -17.7984 -17.7981 -17.7978 -17.7968 -17.7961 -17.7845
   -17.7830 -17.7655 -17.7623 -17.7409 -17.7380 -17.7218 -17.7179 -17.7067
   -17.7041 -17.6986 -17.6982 -12.0972 -11.8750 -11.7891 -11.7153 -11.6864
   -11.6373 -11.6125 -11.5633 -11.5337 -11.4849 -11.4820 -11.4770 -11.4742
   -11.4634 -11.4471 -11.4255 -11.3964 -11.3726 -11.3708 -11.3640 -11.3489
   -11.3389 -11.3174 -11.3102 -11.3050 -11.2821 -11.2637 -11.2561 -11.2514
   -11.2459 -11.2411 -11.2342 -11.2323 -11.2158 -11.1924 -11.1845 -11.1787
   -11.1772 -11.1596 -11.1534 -11.1504 -11.1486 -11.1345 -11.1273 -11.1260
   -11.1126 -11.0959 -11.0799 -11.0724 -11.0609 -11.0498 -11.0224 -11.0002
   -10.9655 -10.9394 -10.9364 -10.9249 -10.9086 -10.9072 -10.8961 -10.8878
   -10.8805 -10.8634 -10.8289 -10.8199 -10.8133 -10.8094 -10.8008 -10.7965
   -10.7918 -10.7904 -10.7898 -10.7894 -10.7884 -10.7830 -10.7776 -10.7722
   -10.7716 -10.7644 -10.7628 -10.7618 -10.7613 -10.7260 -10.7227 -10.7224
   -10.7223 -10.7096 -10.6702 -10.5473 -10.5353 -10.5145 -10.5110 -10.5059
   -10.4850 -10.4509 -10.3970 -10.3596 -10.3132 -10.2614 -10.2345 -10.1718
   -10.1685 -10.1399 -10.1229 -10.1085 -10.1038 -10.0919 -10.0868 -10.0733
   -10.0500 -10.0315 -10.0183 -10.0176 -10.0114 -10.0017  -9.9962  -9.9841
    -9.9789  -9.9584  -9.9457  -9.9135  -9.9114  -9.9087  -9.8818  -9.8755
    -9.8696  -9.8663  -9.8524  -9.8417  -9.8226  -9.8080  -9.7947  -9.7841
    -9.7752  -9.7695  -9.7505  -9.7432  -9.7397  -9.7043  -9.6884  -9.6740
    -9.6663  -9.6478  -9.6398  -9.6207  -9.6105  -9.6037  -9.5886  -9.5772
    -9.5736  -9.5693  -9.5507  -9.5341  -9.5311  -9.5211  -9.5188  -9.4936
    -9.4713  -9.4701  -9.4571  -9.4549  -9.4513  -9.4477  -9.4429  -9.4384
    -9.4356  -9.4271  -9.4154  -9.3884  -9.3832  -9.3763  -9.3458  -9.3272
    -9.2978  -9.2475  -9.2374  -9.2190  -9.2072  -9.1965  -9.1942  -9.1869
    -9.1673  -9.1598  -9.1418  -9.1253  -9.1133  -9.1065  -9.0895  -9.0838
    -9.0754  -9.0574  -9.0524  -9.0307  -9.0289  -9.0242  -9.0180  -8.9887
    -8.9812  -8.9695  -8.9613  -8.9475  -8.9392  -8.9270  -8.9228  -8.9167
    -8.9108  -8.8820  -8.8715  -8.8703  -8.8694  -8.8678  -8.8631  -8.8589
    -8.8557  -8.8509  -8.8482  -8.8473  -8.8435  -8.8398  -8.8377  -8.8323
    -8.8304  -8.8255  -8.8190  -8.8184  -8.7928  -8.7749  -8.7721  -8.7720
    -8.7693  -8.7658  -8.7625  -8.7426  -8.7414  -8.7383  -8.7254  -8.7160
    -8.7116  -8.7112  -8.7063  -8.6898  -8.6534  -8.6399  -8.6298  -8.6076
    -8.5926  -8.5334  -8.4839  -8.4828  -8.4643  -8.4512  -8.4246  -8.4083
    -8.3914  -8.3400  -8.3301  -8.2958  -8.2663  -8.2539  -8.2179  -8.1409
    -8.1067  -8.1066  -8.0986  -8.0978  -8.0904  -8.0868  -8.0850  -8.0780
    -8.0494  -8.0336  -8.0199  -7.9542  -7.9505  -7.9413  -7.9157  -7.8676
    -7.8517  -7.8431  -7.8296  -7.8248  -7.8213  -7.8131  -7.8079  -7.7980
    -7.7955  -7.7894  -7.7856  -7.7817  -7.7775  -7.7748  -7.7713  -7.7689
    -7.7626  -7.7603  -7.7582  -7.7527  -7.7482  -7.7472  -7.7440  -7.7435
    -7.7422  -7.7397  -7.7371  -7.7368  -7.7299  -7.7120  -7.7104  -7.7093
    -7.7087  -7.6823  -7.6775  -7.6761  -7.6756  -7.6728  -7.6569  -7.6465
    -7.6458  -7.6443  -7.6442  -7.6361  -7.6321  -7.6287  -7.6013  -7.5990
    -7.5909  -7.5898  -7.5871  -7.5846  -7.5802  -7.5788  -7.5645  -7.5639
    -7.5555  -7.5454  -7.5430  -7.5425  -7.5351  -7.5337  -7.5109  -7.4768
    -7.4469  -7.4397  -7.4383  -7.4357  -7.4155  -7.3870  -7.3608  -7.3105
    -7.2497  -7.2165  -7.1850  -7.1571  -7.1496  -7.1476  -7.1445  -7.1287
    -7.1038  -7.0973  -7.0891  -7.0872  -7.0789  -7.0592  -7.0410  -7.0196
    -7.0117  -7.0062  -7.0033  -6.9903  -6.9713  -6.9564  -6.9534  -6.9255
    -6.9070  -6.8929  -6.8876  -6.8774  -6.8628  -6.8605  -6.8388  -6.8381
    -6.8313  -6.8230  -6.8040  -6.7792  -6.7548  -6.7464  -6.7328  -6.7150
    -6.6817  -6.6624  -6.6556  -6.6334  -6.6279  -6.6029  -6.5978  -6.5858
    -6.5844  -6.5838  -6.5830  -6.5694  -6.5670  -6.5664  -6.5656  -6.5597
    -6.5582  -6.5578  -6.5577  -6.5569  -6.5499  -6.5319  -6.5177  -6.4864
    -6.4535  -6.4440  -6.4054  -6.3965  -6.3835  -6.3786  -6.3003  -6.2977
    -6.2963  -6.2949  -6.2886  -6.2841  -6.2561  -6.2560  -6.2517  -6.2513
    -6.2445  -6.2386  -6.2351  -6.2344  -6.2303  -6.2256  -6.1905  -6.1844
    -6.1839  -6.1830  -6.1606  -6.1031  -6.0533  -6.0391  -5.9740  -5.9679
    -5.9519  -5.9230  -5.8981  -5.8919  -5.8385  -5.8332  -5.8192  -5.7889
    -5.7114  -5.6786  -5.6475  -5.5978  -5.5788  -5.5548  -5.4857  -5.4322
    -5.3679  -5.2986  -4.2005  -4.1140  -4.0726  -4.0678  -4.0536  -3.9887
    -3.9243  -3.9100  -3.9012  -3.8867  -3.8694  -3.8242  -3.8193  -3.8111
    -3.8030  -3.7922  -3.7871  -3.7805  -3.7773  -3.7755  -3.7612  -3.7013
    -3.6767  -3.6721  -3.6597  -3.5958  -3.5863  -3.5798  -3.5774  -3.5754
    -3.5465  -3.5316  -3.5277  -3.5189  -3.5144  -3.5006  -3.4982  -3.4885
    -3.4868  -3.4789  -3.4722  -3.4630  -3.4574  -3.4528  -3.4523  -3.4462
    -3.4412  -3.4259  -3.4179  -3.4146  -3.4101  -3.3955  -3.3945  -3.3804
    -3.3658  -3.3575  -3.3345  -3.3291  -3.3240  -3.3229  -3.3210  -3.3196
    -3.3135  -3.2934  -3.2849  -3.2739  -3.2689  -3.2621  -3.2592  -3.2574
    -3.2550  -3.2530  -3.2488  -3.2317  -3.2267  -3.2235  -3.2152  -3.2133
    -3.2105  -3.2017  -3.1910  -3.1879  -3.1874  -3.1840  -3.1784  -3.1708
    -3.1629  -3.1519  -3.1511  -3.1428  -3.1395  -3.1392  -3.1386  -3.1181
    -3.0867  -3.0823  -3.0788  -3.0571  -3.0520  -3.0453  -3.0415  -3.0363
    -3.0037  -3.0026  -3.0012  -2.9993  -2.9990  -2.9980  -2.9938  -2.9878
    -2.9860  -2.9835  -2.9820  -2.9744  -2.9672  -2.9669  -2.9611  -2.9590
    -2.9578  -2.9509  -2.9472  -2.9440  -2.9417  -2.9372  -2.9255  -2.9245
    -2.9205  -2.9197  -2.9108  -2.9074  -2.8984  -2.8912  -2.8823  -2.8746
    -2.8718  -2.8600  -2.8576  -2.8547  -2.8464  -2.8340  -2.7795  -2.7747
    -2.7688  -2.7659  -2.7344  -2.7179  -2.6993  -2.6927  -2.6143  -2.5870
    -2.5797  -2.5624  -2.5562  -2.5480  -2.5409  -2.5331  -2.5251  -2.5161
    -2.5047  -2.5041  -2.5018  -2.4970  -2.4855  -2.4009  -2.3835  -2.3787
    -2.3753  -2.3722  -2.3662  -2.3599  -2.3439  -2.3195  -2.3189

          k =-0.5000-0.8660 0.0000 (386352 PWs)   bands (ev):

  -102.8812 -88.7676 -88.1576 -71.2083 -71.2001 -71.1864 -71.1758 -71.1627
   -71.1552 -71.1446 -66.5983 -66.5982 -66.5982 -66.5982 -66.5981 -66.5969
   -66.5969 -66.5876 -66.5876 -66.5875 -66.5875 -66.5863 -66.5863 -66.5855
   -66.5793 -66.5751 -66.5726 -66.5726 -66.5725 -66.5724 -66.5724 -66.5724
   -66.5722 -66.5722 -66.5711 -66.5711 -66.5711 -66.5711 -66.5683 -66.5680
   -66.5680 -66.5680 -66.5679 -66.5667 -66.5667 -66.5619 -66.5619 -66.5619
   -66.5617 -66.5617 -66.5617 -66.5617 -66.5615 -66.5615 -66.5605 -66.5604
   -66.5604 -66.5604 -66.5604 -66.5573 -66.5573 -66.5573 -66.5572 -66.5560
   -66.5560 -66.5541 -66.5491 -66.5428 -66.5368 -66.5329 -66.5315 -66.5282
   -66.5231 -66.5212 -57.1851 -57.0741 -57.0505 -54.6486 -54.5102 -54.5091
   -54.0015 -53.9708 -53.9099 -40.9034 -40.9003 -40.9002 -40.9002 -40.9002
   -40.9002 -40.9001 -40.9000 -40.8999 -40.8995 -40.8995 -40.8995 -40.8995
   -40.8901 -40.8734 -40.8734 -40.8733 -40.8732 -40.8727 -40.8727 -40.8720
   -40.8695 -40.8613 -40.8613 -40.8612 -40.8612 -40.8606 -40.8606 -40.8524
   -40.8467 -40.8391 -40.8303 -40.8106 -40.8106 -40.8106 -40.8106 -40.8106
   -40.8105 -40.8105 -40.8105 -40.8099 -40.8099 -40.8099 -40.8099 -40.7947
   -40.7893 -40.7853 -40.7754 -40.7694 -40.7593 -40.7520 -40.7519 -40.7519
   -40.7517 -40.7513 -40.7513 -40.7423 -40.7423 -40.7423 -40.7422 -40.7421
   -40.7415 -40.7415 -40.7351 -40.7310 -40.7310 -40.7310 -40.7310 -40.7304
   -40.7304 -40.7226 -40.7178 -40.7119 -40.7075 -40.7054 -40.7032 -40.7016
   -40.7015 -40.7014 -40.7014 -40.7014 -40.7014 -40.7012 -40.7012 -40.7007
   -40.7007 -40.7007 -40.7007 -40.6957 -40.6927 -40.6927 -40.6927 -40.6926
   -40.6920 -40.6920 -40.6900 -40.6866 -40.6828 -40.6809 -40.6808 -40.6808
   -40.6807 -40.6806 -40.6805 -40.6804 -40.6804 -40.6804 -40.6804 -40.6803
   -40.6800 -40.6800 -40.6800 -40.6797 -40.6797 -40.6797 -40.6797 -40.6739
   -40.6717 -40.6717 -40.6717 -40.6716 -40.6710 -40.6710 -40.6705 -40.6673
   -40.6609 -40.6555 -40.6537 -40.6501 -40.6499 -40.6499 -40.6499 -40.6499
   -40.6498 -40.6498 -40.6496 -40.6490 -40.6490 -40.6490 -40.6490 -40.6388
   -40.6370 -40.6163 -40.6152 -40.6152 -40.6152 -40.6152 -40.6151 -40.6151
   -40.6151 -40.6150 -40.6142 -40.6142 -40.6142 -40.6142 -40.6112 -40.6030
   -40.6030 -40.6030 -40.6029 -40.6021 -40.6021 -40.5982 -40.5944 -40.5871
   -40.5857 -40.5838 -40.5837 -40.5837 -40.5835 -40.5828 -40.5827 -40.5799
   -40.5667 -40.5667 -40.5667 -40.5666 -40.5657 -40.5657 -40.5651 -40.5625
   -40.5506 -40.5419 -40.5360 -40.5360 -40.5360 -40.5359 -40.5350 -40.5350
   -40.5342 -40.5178 -40.4881 -20.0627 -19.8984 -19.8483 -19.8343 -19.7504
   -19.7358 -19.6406 -19.6334 -19.5226 -19.4915 -19.4107 -19.4062 -19.3202
   -19.3119 -19.2175 -19.2092 -19.1516 -18.9258 -18.8326 -18.8070 -18.7685
   -18.7453 -18.7036 -18.7024 -18.6998 -18.6982 -18.6753 -18.6598 -18.6340
   -18.6308 -18.6270 -18.6214 -18.5839 -18.5702 -18.5639 -18.5366 -18.5335
   -18.5289 -18.5277 -18.5185 -18.4925 -18.4755 -18.4721 -18.4591 -18.4493
   -18.4247 -18.3979 -18.3913 -18.3903 -18.3810 -18.3669 -18.3629 -18.3358
   -18.3112 -18.3035 -18.2970 -18.2607 -18.2442 -18.2281 -18.2172 -18.1957
   -18.1850 -18.1606 -18.1532 -18.1476 -18.1241 -18.1141 -18.1024 -18.0844
   -18.0813 -18.0781 -18.0776 -18.0704 -18.0555 -18.0547 -18.0526 -18.0503
   -18.0467 -18.0421 -18.0395 -18.0361 -18.0278 -18.0204 -18.0150 -17.9914
   -17.9891 -17.9847 -17.9830 -17.9805 -17.9789 -17.9785 -17.9740 -17.9668
   -17.9597 -17.9343 -17.9276 -17.9200 -17.9160 -17.9110 -17.9065 -17.8857
   -17.8748 -17.8677 -17.8598 -17.8553 -17.8322 -17.8268 -17.8217 -17.8205
   -17.8183 -17.7993 -17.7986 -17.7980 -17.7973 -17.7969 -17.7964 -17.7848
   -17.7827 -17.7656 -17.7620 -17.7408 -17.7380 -17.7215 -17.7181 -17.7065
   -17.7044 -17.6986 -17.6983 -12.0972 -11.9167 -11.8072 -11.7078 -11.6647
   -11.6341 -11.5692 -11.5311 -11.5066 -11.4939 -11.4819 -11.4795 -11.4695
   -11.4561 -11.4487 -11.4402 -11.4028 -11.3803 -11.3715 -11.3637 -11.3498
   -11.3366 -11.3222 -11.3175 -11.2951 -11.2815 -11.2715 -11.2587 -11.2547
   -11.2475 -11.2401 -11.2367 -11.2336 -11.2217 -11.1966 -11.1870 -11.1791
   -11.1758 -11.1666 -11.1562 -11.1505 -11.1461 -11.1406 -11.1261 -11.1230
   -11.1146 -11.1112 -11.0874 -11.0666 -11.0598 -11.0416 -11.0250 -10.9899
   -10.9687 -10.9588 -10.9416 -10.9331 -10.9150 -10.8946 -10.8837 -10.8831
   -10.8614 -10.8557 -10.8304 -10.8179 -10.8154 -10.8124 -10.8054 -10.7985
[...]
     atom  172 type  2   force =     0.00000017    0.00000109    0.00161527
     atom  173 type  2   force =     0.00000004    0.00000067   -0.00235973
     atom  174 type  2   force =    -0.00000045   -0.00000300    0.00000894
     atom  175 type  1   force =    -0.00000008    0.00000479    0.00000124
     atom  176 type  1   force =    -0.00002573   -0.00012463    0.00014683
     atom  177 type  2   force =     0.00006153    0.00012871   -0.00000434
     atom  178 type  2   force =    -0.00000646   -0.00000038    0.00000613
     atom  179 type  2   force =     0.00000720    0.00000774    0.00000854
     atom  180 type  2   force =     0.00007795   -0.00006412   -0.00002693
     atom  181 type  1   force =     0.00000165    0.00000035    0.00068877
     atom  182 type  1   force =    -0.00000938   -0.00000951    0.00000482
     atom  183 type  2   force =    -0.00000155   -0.00000058    0.00000433
     atom  184 type  2   force =     0.00000019    0.00000119    0.00161530
     atom  185 type  2   force =     0.00000002    0.00000068   -0.00235978
     atom  186 type  2   force =    -0.00000087    0.00000061    0.00001196
     atom  187 type  1   force =    -0.00000115    0.00000535    0.00000764
     atom  188 type  1   force =     0.00004617    0.00007433    0.00003779
     atom  189 type  2   force =     0.00005571    0.00009808    0.00008982
     atom  190 type  2   force =    -0.00001092   -0.00000293    0.00001052
     atom  191 type  2   force =     0.00001236    0.00000702    0.00001743
     atom  192 type  2   force =    -0.00009161    0.00024143   -0.00010952
     atom  193 type  3   force =     0.00035119    0.00022393    0.00009802
     atom  194 type  4   force =    -0.00073234    0.00082083    0.00013287
     atom  195 type  4   force =     0.00083423    0.00032178    0.00002584

     Total force =     0.002671     Total SCF correction =     0.000362
     SCF correction compared to forces is large: reduce conv_thr to get better values
     Energy error            =      1.5E-05 Ry
     Gradient error          =      8.3E-04 Ry/Bohr

     bfgs converged in  23 scf cycles and  22 bfgs steps
     (criteria: energy <  1.0E-04 Ry, force <  1.0E-03 Ry/Bohr)

     End of BFGS Geometry Optimization

     Final energy             =  -34492.2601371262 Ry

     File ./outdir/pwscf.bfgs deleted, as requested
Begin final coordinates

ATOMIC_POSITIONS (angstrom)
Mo               0.0000119917        1.8193638619       -9.1672481230    0   0   0
Mo               1.5756136568        0.9097075315       -3.0554901653    0   0   0
S                0.0000188998        1.8193822938       -4.6232556019    0   0   0
S                1.5756321638        0.9096773839       -7.6014065489    0   0   0
S                1.5756326175        0.9096785128      -10.7330757790    0   0   0
S                0.0000189190        1.8193860094       -1.4877129945    0   0   0
Mo              -0.0001942409        1.8192938145        3.0579969501
Mo               1.5743287726        0.9033748662        9.1659788575
S               -0.0071577303        1.8116578314        7.6062697302
S                1.5755441183        0.9093334565        4.6244810474
S                1.5754063450        0.9098506948        1.4895854916
S               -0.0069608895        1.7716812724       10.7726473429
Mo              -1.5756053507        4.5484193819       -9.1672481230    0   0   0
Mo               0.0000378379        3.6387394919       -3.0554952701    0   0   0
S               -1.5755913433        4.5484363582       -4.6232494962    0   0   0
S                0.0000148214        3.6387329039       -7.6014065489    0   0   0
S                0.0000152751        3.6387340328      -10.7330757790    0   0   0
S               -1.5755906502        4.5484413613       -1.4877305502    0   0   0
Mo              -1.5754100565        4.5481250551        3.0584114878
Mo               0.0076110840        3.6153458173        9.1714239059
S               -1.5894169449        4.5445088521        7.6393105502
S                0.0003034633        3.6386745290        4.6267844146
S               -0.0001060437        3.6385246870        1.4903205153
S               -1.5344241995        4.6432089880       10.7399675268
Mo              -3.1512226931        7.2774749019       -9.1672481230    0   0   0
Mo              -1.5755910988        6.3678216792       -3.0555115988    0   0   0
S               -3.1512162438        7.2774954350       -4.6232578178    0   0   0
S               -1.5756025210        6.3677884239       -7.6014065489    0   0   0
S               -1.5756020673        6.3677895528      -10.7330757790    0   0   0
S               -3.1512127704        7.2774877076       -1.4877200710    0   0   0
Mo              -3.1511683059        7.2769798462        3.0580433759
Mo              -1.5954443584        6.4090235356        9.1562306594
S               -3.1696841082        7.2856179838        7.5768193743
S               -1.5751366601        6.3675638744        4.6263532958
S               -1.5755773921        6.3672965643        1.4903533145
S               -3.1728690252        7.2993611789       10.7264342081
Mo              -4.7268400355       10.0065304219       -9.1672481230    0   0   0
Mo              -3.1512405618        9.0968403586       -3.0554816746    0   0   0
S               -4.7268341792       10.0065523623       -4.6232463762    0   0   0
S               -3.1512198634        9.0968439439       -7.6014065489    0   0   0
S               -3.1512194097        9.0968450728      -10.7330757790    0   0   0
S               -4.7268370797       10.0065537885       -1.4877176751    0   0   0
Mo              -4.7269491983       10.0062696108        3.0568143501
Mo              -3.1581302087        9.1036825995        9.1502034414
S               -4.7382809530       10.0096276770        7.5883012892
S               -3.1512750039        9.0970550479        4.6244292280
S               -3.1510423471        9.0961636473        1.4895435208
S               -4.7253606274       10.0021112967       10.7292286132
Mo               3.1512517547        1.8193638619       -9.1672481230    0   0   0
Mo               4.7269020221        0.9097289540       -3.0554823951    0   0   0
S                3.1512612351        1.8193882564       -4.6232320683    0   0   0
S                4.7268719268        0.9096773839       -7.6014065489    0   0   0
S                4.7268723805        0.9096785128      -10.7330757790    0   0   0
S                3.1512592485        1.8193890201       -1.4877261251    0   0   0
Mo               3.1514689064        1.8191965499        3.0573734720
Mo               4.7272949670        0.9053108966        9.1474722629
S                3.1496322505        1.8071429736        7.5772830470
S                4.7276083428        0.9095830297        4.6245609830
S                4.7271995972        0.9095511391        1.4894502436
S                3.1666233635        1.7979410353       10.7226069557
Mo               1.5756344123        4.5484193819       -9.1672481230    0   0   0
Mo               3.1512756394        3.6387769522       -3.0554814834    0   0   0
S                1.5756504879        4.5484423799       -4.6232390542    0   0   0
S                3.1512545844        3.6387329039       -7.6014065489    0   0   0
S                3.1512550381        3.6387340328      -10.7330757790    0   0   0
S                1.5756466253        4.5484431864       -1.4877251801    0   0   0
Mo               1.5757011685        4.5481152254        3.0578023579
Mo               3.1886165979        3.6164009769        9.1529637416
S                1.5811035593        4.5628825827        7.6386089341
S                3.1514511877        3.6385226155        4.6256390769
S                3.1513981043        3.6385883507        1.4898606703
S                1.6470416120        4.4029320623       10.7730335836
Mo               0.0000170699        7.2774749019       -9.1672481230    0   0   0
Mo               1.5756764447        6.3678236689       -3.0554877708    0   0   0
S                0.0000381981        7.2774979204       -4.6232454413    0   0   0
S                1.5756372420        6.3677884239       -7.6014065489    0   0   0
S                1.5756376957        6.3677895528      -10.7330757790    0   0   0
S                0.0000328088        7.2774946042       -1.4877307940    0   0   0
Mo               0.0003171492        7.2769685676        3.0577433045
Mo               1.5740001876        6.3670822093        9.2116816980
S                0.0249875947        7.2775302245        7.6219775133
S                1.5760850367        6.3673544056        4.6254130775
S                1.5753313330        6.3670501768        1.4894246753
S               -0.1071896032        7.3661790610       10.7832221723
Mo              -1.5756002725       10.0065304219       -9.1672481230    0   0   0
Mo               0.0000873425        9.0968676911       -3.0554912329    0   0   0
S               -1.5755883952       10.0065504530       -4.6232240150    0   0   0
S                0.0000198996        9.0968439439       -7.6014065489    0   0   0
S                0.0000203533        9.0968450728      -10.7330757790    0   0   0
S               -1.5755859047       10.0065492576       -1.4877362381    0   0   0
Mo              -1.5752615867       10.0062748562        3.0570768822
Mo              -0.0032470910        9.1201758159        9.1569192753
S               -1.5769661801       10.0074653411        7.5757692337
S                0.0003327443        9.0965172904        4.6251868507
S                0.0004572892        9.0963127303        1.4897040200
S               -1.5877167500       10.0193851392       10.7215783353
Mo               6.3024915177        1.8193638619       -9.1672481230    0   0   0
Mo               7.8781001445        0.9096521684       -3.0554919963    0   0   0
S                6.3025008696        1.8193826232       -4.6232480596    0   0   0
S                7.8781116898        0.9096773839       -7.6014065489    0   0   0
S                7.8781121435        0.9096785128      -10.7330757790    0   0   0
S                6.3025042007        1.8193849068       -1.4877147524    0   0   0
Mo               6.3030926298        1.8191473676        3.0572606960
Mo               7.8715463864        0.8997879227        9.1699894209
S                6.3104226350        1.8237947664        7.5918414527
S                7.8787240209        0.9095566227        4.6254462142
S                7.8786006647        0.9093325590        1.4896611832
S                6.2962066911        1.8123135056       10.7297422076
Mo               4.7268741753        4.5484193819       -9.1672481230    0   0   0
Mo               6.3024679138        3.6387501714       -3.0554895197    0   0   0
S                4.7268748770        4.5484386753       -4.6232519432    0   0   0
S                6.3024943474        3.6387329039       -7.6014065489    0   0   0
S                6.3024948011        3.6387340328      -10.7330757790    0   0   0
S                4.7268770533        4.5484432419       -1.4877137856    0   0   0
Mo               4.7271199178        4.5481278335        3.0577259410
Mo               6.2996009051        3.6382103250        9.1731889295
S                4.7457525063        4.5551684450        7.5913288807
S                6.3033128862        3.6384137294        4.6251709005
S                6.3026981039        3.6384812980        1.4895787860
S                4.7290935187        4.5393254676       10.7406165751
Mo               3.1512568329        7.2774749019       -9.1672481230    0   0   0
Mo               4.7268384135        6.3678043337       -3.0554959052    0   0   0
S                3.1512606125        7.2774972547       -4.6232589675    0   0   0
S                4.7268770050        6.3677884239       -7.6014065489    0   0   0
S                4.7268774587        6.3677895528      -10.7330757790    0   0   0
S                3.1512629079        7.2774963749       -1.4877081835    0   0   0
Mo               3.1510707965        7.2768972848        3.0567237767
Mo               4.7326671929        6.3641851666        9.1840053441
S                3.1301074282        7.2651849767        7.6458883532
S                4.7261245465        6.3677900037        4.6250561025
S                4.7270954939        6.3671652450        1.4894203730
S                3.2254701700        7.3243020146       10.8239311625
Mo               1.5756394905       10.0065304219       -9.1672481230    0   0   0
Mo               3.1512330605        9.0968514907       -3.0554878870    0   0   0
S                1.5756499830       10.0065443759       -4.6232632674    0   0   0
S                3.1512596626        9.0968439439       -7.6014065489    0   0   0
S                3.1512601163        9.0968450728      -10.7330757790    0   0   0
S                1.5756503041       10.0065459699       -1.4877044377    0   0   0
Mo               1.5760073900       10.0061880602        3.0576309163
Mo               3.1519103874        9.1024504065        9.1833348657
S                1.5867415479       10.0091050664        7.5933969662
S                3.1512478750        9.0955553693        4.6252148664
S                3.1513751330        9.0966656588        1.4894606922
S                1.5642238811       10.0036079718       10.7400741619
Mo               9.4537312807        1.8193638619       -9.1672481230    0   0   0
Mo              11.0293863460        0.9096952246       -3.0554894007    0   0   0
S                9.4537395970        1.8193770750       -4.6232328036    0   0   0
S               11.0293514528        0.9096773839       -7.6014065489    0   0   0
S               11.0293519066        0.9096785128      -10.7330757790    0   0   0
S                9.4537393632        1.8193794783       -1.4877366147    0   0   0
Mo               9.4539801654        1.8192472515        3.0575774290
Mo              11.0336896643        0.8874909146        9.1766870061
S                9.4561721109        1.8343400034        7.6332820898
S               11.0289213553        0.9093473754        4.6258627142
S               11.0295334267        0.9094233080        1.4899754875
S                9.4516077520        1.7282927340       10.7759356937
Mo               7.8781139383        4.5484193819       -9.1672481230    0   0   0
Mo               9.4537539161        3.6387607911       -3.0554933032    0   0   0
S                7.8781175448        4.5484378232       -4.6232366318    0   0   0
S                9.4537341104        3.6387329039       -7.6014065489    0   0   0
S                9.4537345641        3.6387340328      -10.7330757790    0   0   0
S                7.8781194018        4.5484411585       -1.4877377057    0   0   0
Mo               7.8785597676        4.5478753032        3.0572155621
Mo               9.4452462333        3.6399730541        9.2134570719
S                7.8959670360        4.5369205424        7.6295217796
S                9.4538313649        3.6383692819        4.6258539913
S                9.4544600801        3.6385558399        1.4897947757
S                7.8089270943        4.5904366787       10.7897610664
Mo               6.3024965959        7.2774749019       -9.1672481230    0   0   0
Mo               7.8781361655        6.3678242352       -3.0555014130    0   0   0
S                6.3024973331        7.2774953556       -4.6232392528    0   0   0
S                7.8781167680        6.3677884239       -7.6014065489    0   0   0
S                7.8781172217        6.3677895528      -10.7330757790    0   0   0
S                6.3024989866        7.2774929744       -1.4877349119    0   0   0
Mo               6.3023908703        7.2769437129        3.0574713418
Mo               7.8691117455        6.3773703035        9.1672542349
S                6.2907890085        7.2721019530        7.5971245512
S                7.8777612616        6.3666505819        4.6253602427
S                7.8783709979        6.3674710406        1.4898242162
S                6.3073289212        7.2865480726       10.7426956888
Mo               4.7268792535       10.0065304219       -9.1672481230    0   0   0
Mo               6.3025111524        9.0968738021       -3.0554915260    0   0   0
S                4.7268840634       10.0065452125       -4.6232380477    0   0   0
S                6.3024994256        9.0968439439       -7.6014065489    0   0   0
S                6.3024998793        9.0968450728      -10.7330757790    0   0   0
S                4.7268847312       10.0065459141       -1.4877283294    0   0   0
Mo               4.7267897472       10.0061007244        3.0576528910
Mo               6.2986495789        9.0934992649        9.1633087220
S                4.7173311359        9.9981535981        7.5974988183
S                6.3025966421        9.0964089762        4.6248536275
S                6.3022505283        9.0963589165        1.4894966022
S                4.7378083352        9.9933092607       10.7478239636
Pt               1.4821504886        6.2616673290       12.0250930571
Pd              -0.0407110183        3.7807537022       12.2980404170
Pd               9.5770217270        3.6479823060       12.1304379035
End final coordinates



     Writing all to output data dir ./outdir/pwscf.save/ :
     XML data file, charge density, pseudopotentials, collected wavefunctions
 
     init_run     :    175.04s CPU    178.27s WALL (       1 calls)
     electrons    : 170747.19s CPU 172874.35s WALL (      23 calls)
     update_pot   :     37.12s CPU     38.31s WALL (      22 calls)
     forces       :   2938.27s CPU   2989.84s WALL (      23 calls)
     force_dftd3  :     15.79s CPU     16.43s WALL (      23 calls)

     Called by init_run:
     wfcinit      :    151.43s CPU    153.16s WALL (       1 calls)
     potinit      :      1.30s CPU      1.42s WALL (       1 calls)
     hinit0       :     12.80s CPU     12.89s WALL (       1 calls)

     Called by electrons:
     c_bands      : 150927.09s CPU 152357.15s WALL (     280 calls)
     sum_band     :  17738.72s CPU  18099.33s WALL (     280 calls)
     v_of_rho     :    100.15s CPU    112.74s WALL (     282 calls)
     newd         :   1764.96s CPU   2094.85s WALL (     282 calls)
     PAW_pot      :    261.52s CPU    264.12s WALL (     304 calls)
     mix_rho      :     26.14s CPU     30.32s WALL (     280 calls)
     energy_dftd3 :      9.19s CPU      9.24s WALL (      23 calls)

     Called by c_bands:
     init_us_2    :    609.84s CPU    612.70s WALL (    2424 calls)
     init_us_2:cp :    609.81s CPU    612.68s WALL (    2424 calls)
     cegterg      : 148340.89s CPU 149755.08s WALL (    1137 calls)

     Called by *egterg:
     cdiaghg      :   8966.57s CPU   9296.43s WALL (   14004 calls)
     h_psi        :  75416.19s CPU  75877.38s WALL (   14182 calls)
     s_psi        :  17321.97s CPU  17425.18s WALL (   14182 calls)
     g_psi        :    135.86s CPU    136.47s WALL (   13041 calls)

     Called by h_psi:
     h_psi:calbec :  16682.34s CPU  16733.72s WALL (   14182 calls)
     vloc_psi     :  41010.44s CPU  41208.52s WALL (   14182 calls)
     add_vuspsi   :  17412.08s CPU  17518.48s WALL (   14182 calls)

     General routines
     calbec       :  24107.17s CPU  24181.17s WALL (   15758 calls)
     fft          :     83.37s CPU     94.44s WALL (    3916 calls)
     ffts         :      5.14s CPU      5.56s WALL (     562 calls)
     fftw         :  30934.25s CPU  31081.33s WALL ( 8064890 calls)
     interpolate  :      8.74s CPU      9.57s WALL (     282 calls)
 
     Parallel routines
 
     PWSCF        :   2d 0h33m CPU   2d 1h11m WALL

 
   This run was terminated on:  17:43: 9   1May2024            

=------------------------------------------------------------------------------=
   JOB DONE.
=------------------------------------------------------------------------------=
