
     Program PWSCF v.7.2 starts on  7Mar2024 at 22:16: 7 

     This program is part of the open-source Quantum ESPRESSO suite
     for quantum simulation of materials; please cite
         "P. Giannozzi et al., J. Phys.:Condens. Matter 21 395502 (2009);
         "P. Giannozzi et al., J. Phys.:Condens. Matter 29 465901 (2017);
         "P. Giannozzi et al., J. Chem. Phys. 152 154105 (2020);
          URL http://www.quantum-espresso.org", 
     in publications or presentations arising from this work. More details at
     http://www.quantum-espresso.org/quote

     Parallel version (MPI), running on    48 processors

     MPI processes distributed on     1 nodes
     972842 MiB available memory on the printing compute node when the environment starts
 
     Waiting for input...
     Reading input from standard input
Warning: card &CELL ignored
Warning: card / ignored

     Current dimensions of program PWSCF are:
     Max number of different atomic species (ntypx) = 10
     Max number of k-points (npk) =  40000
     Max angular momentum in pseudopotentials (lmaxx) =  4
     file C.pbe-n-kjpaw_psl.1.0.0.UPF: wavefunction(s)  2S 2P renormalized
     file H.pbe-kjpaw_psl.1.0.0.UPF: wavefunction(s)  1S renormalized
     file O.pbe-n-kjpaw_psl.1.0.0.UPF: wavefunction(s)  2S 2P renormalized
     file N.pbe-n-kjpaw_psl.1.0.0.UPF: wavefunction(s)  2S renormalized
 
     K-points division:     npool     =       4
     R & G space division:  proc/nbgrp/npool/nimage =      12
     Subspace diagonalization in iterative solution of the eigenvalue problem:
     a serial algorithm will be used

 
     Parallelization info
     --------------------
     sticks:   dense  smooth     PW     G-vecs:    dense   smooth      PW
     Min        1896     682    204                55762    12035    1994
     Max        1898     684    205                55763    12037    1995
     Sum       22765    8199   2451               669147   144435   23931
 
     Using Slab Decomposition
 


     bravais-lattice index     =            0
     lattice parameter (alat)  =      13.3226  a.u.
     unit-cell volume          =    4951.7018 (a.u.)^3
     number of atoms/cell      =           72
     number of atomic types    =            4
     number of electrons       =       228.00
     number of Kohn-Sham states=          137
     kinetic-energy cutoff     =      36.0000  Ry
     charge density cutoff     =     400.0000  Ry
     scf convergence threshold =      1.0E-06
     mixing beta               =       0.2000
     number of iterations used =            8  plain     mixing
     energy convergence thresh.=      1.0E-04
     force convergence thresh. =      1.0E-03
     Exchange-correlation= SLA  PW   PBX  PBC
                           (   1   4   3   4   0   0   0)
     nstep                     =         9999


     celldm(1)=  13.322569  celldm(2)=   0.000000  celldm(3)=   0.000000
     celldm(4)=   0.000000  celldm(5)=   0.000000  celldm(6)=   0.000000

     crystal axes: (cart. coord. in units of alat)
               a(1) = (   1.000000   0.000000   0.000000 )  
               a(2) = (   0.000000   4.028369   0.000000 )  
               a(3) = (  -0.189203   0.000000   0.519830 )  

     reciprocal axes: (cart. coord. in units 2 pi/alat)
               b(1) = (  1.000000  0.000000  0.363970 )  
               b(2) = (  0.000000  0.248239  0.000000 )  
               b(3) = (  0.000000  0.000000  1.923706 )  


     PseudoPot. # 1 for C  read from file:
     ./pseudo/C.pbe-n-kjpaw_psl.1.0.0.UPF
     MD5 check sum: 6b0792899573946bb42fe395835041da
     Pseudo is Projector augmented-wave + core cor, Zval =  4.0
     Generated using 'atomic' code by A. Dal Corso  v.7.2
     Shape of augmentation charge: PSQ
     Using radial grid of 1073 points,  4 beta functions with: 
                l(1) =   0
                l(2) =   0
                l(3) =   1
                l(4) =   1
     Q(r) pseudized with 0 coefficients 


     PseudoPot. # 2 for H  read from file:
     ./pseudo/H.pbe-kjpaw_psl.1.0.0.UPF
     MD5 check sum: b3cb3c48ee3b58cc53e4d592112d0ca6
     Pseudo is Projector augmented-wave, Zval =  1.0
     Generated using 'atomic' code by A. Dal Corso  v.7.2
     Shape of augmentation charge: PSQ
     Using radial grid of  929 points,  2 beta functions with: 
                l(1) =   0
                l(2) =   0
     Q(r) pseudized with 0 coefficients 


     PseudoPot. # 3 for O  read from file:
     ./pseudo/O.pbe-n-kjpaw_psl.1.0.0.UPF
     MD5 check sum: 54880130194cacfd11baed2e72b13d2a
     Pseudo is Projector augmented-wave + core cor, Zval =  6.0
     Generated using 'atomic' code by A. Dal Corso  v.7.2
     Shape of augmentation charge: PSQ
     Using radial grid of 1095 points,  4 beta functions with: 
                l(1) =   0
                l(2) =   0
                l(3) =   1
                l(4) =   1
     Q(r) pseudized with 0 coefficients 


     PseudoPot. # 4 for N  read from file:
     ./pseudo/N.pbe-n-kjpaw_psl.1.0.0.UPF
     MD5 check sum: 6654930a71f78718b13e91073ae2a058
     Pseudo is Projector augmented-wave + core cor, Zval =  5.0
     Generated using 'atomic' code by A. Dal Corso  v.7.2
     Shape of augmentation charge: PSQ
     Using radial grid of 1085 points,  4 beta functions with: 
                l(1) =   0
                l(2) =   0
                l(3) =   1
                l(4) =   1
     Q(r) pseudized with 0 coefficients 


     atomic species   valence    mass     pseudopotential
        C              4.00    12.01100     C ( 1.00)
        H              1.00     1.00800     H ( 1.00)
        O              6.00    15.99900     O ( 1.00)
        N              5.00    14.00700     N ( 1.00)

     No symmetry found



   Cartesian axes

     site n.     atom                  positions (alat units)
         1           C   tau(   1) = (   0.6929542   4.0199092   0.0153194  )
         2           C   tau(   2) = (   0.2124445   2.0057248   0.2445956  )
         3           C   tau(   3) = (   0.1178432   0.0084596   0.5045106  )
         4           C   tau(   4) = (   0.5983529   2.0226440   0.2752344  )
         5           H   tau(   5) = (   0.8234843   4.0098383   0.0309247  )
         6           H   tau(   6) = (   0.0819143   1.9956539   0.2289903  )
         7           H   tau(   7) = (  -0.0126870   0.0185305   0.4889053  )
         8           H   tau(   8) = (   0.7288830   2.0327149   0.2908397  )
         9           O   tau(   9) = (  -0.0748655   3.7238644   0.3468565  )
        10           O   tau(  10) = (   0.7910615   1.7096800   0.4328884  )
        11           O   tau(  11) = (   0.8856628   0.3045044   0.1729734  )
        12           O   tau(  12) = (   0.0197359   2.3186888   0.0869416  )
        13           N   tau(  13) = (   0.4986105   3.7108930   0.3969266  )
        14           N   tau(  14) = (   0.2175855   1.6967087   0.3828184  )
        15           N   tau(  15) = (   0.3121868   0.3174757   0.1229034  )
        16           N   tau(  16) = (   0.5932119   2.3316601   0.1370116  )
        17           H   tau(  17) = (   0.6198900   3.7067841   0.4083576  )
        18           H   tau(  18) = (   0.0963061   1.6925997   0.3713873  )
        19           H   tau(  19) = (   0.1909074   0.3215847   0.1114723  )
        20           H   tau(  20) = (   0.7144913   2.3357691   0.1484426  )
        21           C   tau(  21) = (   0.1269612   3.4045759   0.2059202  )
        22           C   tau(  22) = (   0.7784375   1.3903915   0.0539947  )
        23           C   tau(  23) = (   0.6838362   0.6237929   0.3139097  )
        24           C   tau(  24) = (   0.0323598   2.6379773   0.4658352  )
        25           H   tau(  25) = (  -0.0042539   3.4038105   0.1931584  )
        26           H   tau(  26) = (   0.9096526   1.3896261   0.0667566  )
        27           H   tau(  27) = (   0.8150513   0.6245583   0.3266715  )
        28           H   tau(  28) = (  -0.0988552   2.6387427   0.4530734  )
        29           C   tau(  29) = (   0.2263980   3.2502491   0.1416381  )
        30           C   tau(  30) = (   0.6790007   1.2360647   0.1182769  )
        31           C   tau(  31) = (   0.5843994   0.7781197   0.3781919  )
        32           C   tau(  32) = (   0.1317966   2.7923041   0.4015530  )
        33           H   tau(  33) = (   0.1648175   3.1478479   0.0856732  )
        34           H   tau(  34) = (   0.7405812   1.1336635   0.1742418  )
        35           H   tau(  35) = (   0.6459799   0.8805209   0.4341568  )
        36           H   tau(  36) = (   0.0702162   2.8947052   0.3455882  )
        37           C   tau(  37) = (   0.4317025   3.2520216   0.1639076  )
        38           C   tau(  38) = (   0.4736962   1.2378372   0.0960074  )
        39           C   tau(  39) = (   0.3790948   0.7763472   0.3559224  )
        40           C   tau(  40) = (   0.3371012   2.7905316   0.4238226  )
        41           H   tau(  41) = (   0.5050567   3.1532862   0.1162548  )
        42           H   tau(  42) = (   0.4003420   1.1391018   0.1436602  )
        43           H   tau(  43) = (   0.3057406   0.8750826   0.4035752  )
        44           H   tau(  44) = (   0.4104554   2.8892670   0.3761698  )
        45           C   tau(  45) = (   0.5152231   3.4009504   0.2556992  )
        46           C   tau(  46) = (   0.3901756   1.3867660   0.0042158  )
        47           C   tau(  47) = (   0.2955743   0.6274184   0.2641308  )
        48           C   tau(  48) = (   0.4206218   2.6416028   0.5156141  )
        49           H   tau(  49) = (   0.6454591   3.3970428   0.2762065  )
        50           H   tau(  50) = (   0.0707370   1.3828584   0.5035385  )
        51           H   tau(  51) = (   0.1653383   0.6313260   0.2436235  )
        52           H   tau(  52) = (   0.7400604   2.6455104   0.0162915  )
        53           C   tau(  53) = (   0.4150047   3.5558814   0.3195187  )
        54           C   tau(  54) = (   0.3011913   1.5416970   0.4602263  )
        55           C   tau(  55) = (   0.3957927   0.4724874   0.2003113  )
        56           C   tau(  56) = (   0.5096060   2.4866718   0.0596037  )
        57           C   tau(  57) = (   0.2117758   3.5637770   0.2892386  )
        58           C   tau(  58) = (   0.5044203   1.5495926   0.4905064  )
        59           C   tau(  59) = (   0.5990216   0.4645918   0.2305914  )
        60           C   tau(  60) = (   0.3063771   2.4787762   0.0293236  )
        61           C   tau(  61) = (   0.4126406   3.8724709   0.4577831  )
        62           C   tau(  62) = (   0.3035555   1.8582865   0.3219619  )
        63           C   tau(  63) = (   0.3981568   0.1558979   0.0620469  )
        64           C   tau(  64) = (   0.5072419   2.1700823   0.1978681  )
        65           C   tau(  65) = (   0.2057405   3.8771035   0.4402544  )
        66           C   tau(  66) = (   0.5104555   1.8629191   0.3394906  )
        67           C   tau(  67) = (   0.6050569   0.1512652   0.0795756  )
        68           C   tau(  68) = (   0.3003418   2.1654496   0.1803394  )
        69           C   tau(  69) = (   0.1090659   3.7219308   0.3578977  )
        70           C   tau(  70) = (   0.6071302   1.7077464   0.4218472  )
        71           C   tau(  71) = (   0.7017315   0.3064380   0.1619322  )
        72           C   tau(  72) = (   0.2036672   2.3206224   0.0979827  )

     --------------------------------------------
     DFT-D3 Dispersion Correction (3-body terms):
     --------------------------------------------
       Reference C6 values for interpolation: 

         atom   Coordination number   C6
         H          0.912             6.05
         H          0.000            15.18
         C          0.000            98.23
         C          0.987            86.49
         C          1.998            58.72
         C          2.999            51.56
         C          3.984            36.41
         N          0.000            50.54
         N          0.994            44.25
         N          2.014            39.35
         N          2.990            31.16
         O          0.000            31.01
         O          0.993            25.63
         O          1.989            20.74

       Values used:

         atom   Coordination number  R0_AB[au]  C6      C8
         C          3.256            2.750     49.33   1426.64
         C          3.256            2.750     49.33   1426.64
         C          3.256            2.750     49.33   1426.64
         C          3.256            2.750     49.33   1426.64
         H          1.030            2.062      6.16     74.42
         H          1.030            2.062      6.16     74.42
         H          1.030            2.062      6.16     74.42
         H          1.030            2.062      6.16     74.42
         O          1.080            2.345     25.49    514.38
         O          1.080            2.345     25.49    514.38
         O          1.080            2.345     25.49    514.38
         O          1.080            2.345     25.49    514.38
         N          3.214            2.478     31.19    688.14
         N          3.214            2.478     31.19    688.14
         N          3.214            2.478     31.19    688.14
         N          3.214            2.478     31.19    688.14
         H          1.043            2.062      6.15     74.31
         H          1.043            2.062      6.15     74.31
         H          1.043            2.062      6.15     74.31
         H          1.043            2.062      6.15     74.31
         C          3.193            2.750     50.13   1449.93
         C          3.193            2.750     50.13   1449.93
         C          3.193            2.750     50.13   1449.93
         C          3.193            2.750     50.13   1449.93
         H          1.024            2.062      6.16     74.47
         H          1.024            2.062      6.16     74.47
         H          1.024            2.062      6.16     74.47
         H          1.024            2.062      6.16     74.47
         C          3.143            2.750     50.59   1463.22
         C          3.143            2.750     50.59   1463.22
         C          3.143            2.750     50.59   1463.22
         C          3.143            2.750     50.59   1463.22
         H          1.018            2.062      6.17     74.53
         H          1.018            2.062      6.17     74.53
         H          1.018            2.062      6.17     74.53
         H          1.018            2.062      6.17     74.53
         C          3.157            2.750     50.48   1459.84
         C          3.157            2.750     50.48   1459.84
         C          3.157            2.750     50.48   1459.84
         C          3.157            2.750     50.48   1459.84
         H          1.019            2.062      6.16     74.52
         H          1.019            2.062      6.16     74.52
         H          1.019            2.062      6.16     74.52
         H          1.019            2.062      6.16     74.52
         C          3.188            2.750     50.18   1451.34
         C          3.188            2.750     50.18   1451.34
         C          3.188            2.750     50.18   1451.34
         C          3.188            2.750     50.18   1451.34
         H          1.025            2.062      6.16     74.47
         H          1.025            2.062      6.16     74.47
         H          1.025            2.062      6.16     74.47
         H          1.025            2.062      6.16     74.47
         C          3.275            2.750     49.02   1417.70
         C          3.275            2.750     49.02   1417.70
         C          3.275            2.750     49.02   1417.70
         C          3.275            2.750     49.02   1417.70
         C          3.268            2.750     49.13   1420.82
         C          3.268            2.750     49.13   1420.82
         C          3.268            2.750     49.13   1420.82
         C          3.268            2.750     49.13   1420.82
         C          3.293            2.750     48.70   1408.59
         C          3.293            2.750     48.70   1408.59
         C          3.293            2.750     48.70   1408.59
         C          3.293            2.750     48.70   1408.59
         C          3.296            2.750     48.65   1406.90
         C          3.296            2.750     48.65   1406.90
         C          3.296            2.750     48.65   1406.90
         C          3.296            2.750     48.65   1406.90
         C          3.202            2.750     50.04   1447.12
         C          3.202            2.750     50.04   1447.12
         C          3.202            2.750     50.04   1447.12
         C          3.202            2.750     50.04   1447.12

         Molecular C6 ( Ry / a.u.^6 ) =    146865.17


     number of k points=     8  Gaussian smearing, width (Ry)=  0.0100
                       cart. coord. in units 2pi/alat
        k(    1) = (   0.0000000   0.0000000   0.0000000), wk =   0.2500000
        k(    2) = (   0.0000000   0.0000000  -0.9618530), wk =   0.2500000
        k(    3) = (   0.0000000  -0.1241197   0.0000000), wk =   0.2500000
        k(    4) = (   0.0000000  -0.1241197  -0.9618530), wk =   0.2500000
        k(    5) = (  -0.5000000   0.0000000  -0.1819851), wk =   0.2500000
        k(    6) = (  -0.5000000   0.0000000  -1.1438381), wk =   0.2500000
        k(    7) = (  -0.5000000  -0.1241197  -0.1819851), wk =   0.2500000
        k(    8) = (  -0.5000000  -0.1241197  -1.1438381), wk =   0.2500000

     Dense  grid:   669147 G-vectors     FFT dimensions: (  90, 360,  48)

     Smooth grid:   144435 G-vectors     FFT dimensions: (  54, 216,  30)

     Estimated max dynamical RAM per process >      92.76 MB

     Estimated total dynamical RAM >       3.87 GB

     Check: negative core charge=   -0.000005

     Initial potential from superposition of free atoms

     starting charge     227.9981, renormalised to     228.0000
     Starting wfcs are  216 randomized atomic wfcs
     Checking if some PAW data can be deallocated... 

     total cpu time spent up to now is        4.6 secs

     Self-consistent Calculation

     iteration #  1     ecut=    36.00 Ry     beta= 0.20
     Davidson diagonalization with overlap
     ethr =  1.00E-02,  avg # of iterations =  2.9

     total cpu time spent up to now is        6.8 secs

     total energy              =   -1045.70718682 Ry
     estimated scf accuracy    <       9.29165683 Ry

     iteration #  2     ecut=    36.00 Ry     beta= 0.20
     Davidson diagonalization with overlap
     ethr =  4.08E-03,  avg # of iterations =  1.1

     total cpu time spent up to now is        8.2 secs

     total energy              =   -1043.61888324 Ry
     estimated scf accuracy    <       4.43054612 Ry

     iteration #  3     ecut=    36.00 Ry     beta= 0.20
     Davidson diagonalization with overlap
     ethr =  1.94E-03,  avg # of iterations =  6.9

     total cpu time spent up to now is       10.3 secs

     total energy              =   -1044.26705507 Ry
     estimated scf accuracy    <       0.37102984 Ry

     iteration #  4     ecut=    36.00 Ry     beta= 0.20
     Davidson diagonalization with overlap
     ethr =  1.63E-04,  avg # of iterations = 11.0

     total cpu time spent up to now is       12.5 secs

     total energy              =   -1044.24718347 Ry
     estimated scf accuracy    <       0.15462511 Ry

     iteration #  5     ecut=    36.00 Ry     beta= 0.20
     Davidson diagonalization with overlap
     ethr =  6.78E-05,  avg # of iterations =  3.4

     total cpu time spent up to now is       14.3 secs

     total energy              =   -1044.26404685 Ry
     estimated scf accuracy    <       0.02913371 Ry

     iteration #  6     ecut=    36.00 Ry     beta= 0.20
     Davidson diagonalization with overlap
     c_bands:  1 eigenvalues not converged
     ethr =  1.28E-05,  avg # of iterations = 12.4

     total cpu time spent up to now is       16.9 secs

     total energy              =   -1044.26667910 Ry
     estimated scf accuracy    <       0.00963621 Ry

     iteration #  7     ecut=    36.00 Ry     beta= 0.20
     Davidson diagonalization with overlap
     ethr =  4.23E-06,  avg # of iterations =  2.9

     total cpu time spent up to now is       18.5 secs

     total energy              =   -1044.26734294 Ry
     estimated scf accuracy    <       0.00178088 Ry

     iteration #  8     ecut=    36.00 Ry     beta= 0.20
     Davidson diagonalization with overlap
     ethr =  7.81E-07,  avg # of iterations =  5.1

     total cpu time spent up to now is       20.5 secs

     total energy              =   -1044.26743871 Ry
     estimated scf accuracy    <       0.00142323 Ry

     iteration #  9     ecut=    36.00 Ry     beta= 0.20
     Davidson diagonalization with overlap
     ethr =  6.24E-07,  avg # of iterations =  4.0

     total cpu time spent up to now is       22.2 secs

     total energy              =   -1044.26769945 Ry
     estimated scf accuracy    <       0.00012359 Ry

     iteration # 10     ecut=    36.00 Ry     beta= 0.20
     Davidson diagonalization with overlap
     ethr =  5.42E-08,  avg # of iterations =  4.0

     total cpu time spent up to now is       24.1 secs

     total energy              =   -1044.26774822 Ry
     estimated scf accuracy    <       0.00004224 Ry

     iteration # 11     ecut=    36.00 Ry     beta= 0.20
     Davidson diagonalization with overlap
     ethr =  1.85E-08,  avg # of iterations =  4.1

     total cpu time spent up to now is       25.9 secs

     total energy              =   -1044.26776799 Ry
     estimated scf accuracy    <       0.00002906 Ry

     iteration # 12     ecut=    36.00 Ry     beta= 0.20
     Davidson diagonalization with overlap
     ethr =  1.27E-08,  avg # of iterations =  1.8

     total cpu time spent up to now is       27.3 secs

     total energy              =   -1044.26777684 Ry
     estimated scf accuracy    <       0.00000711 Ry

     iteration # 13     ecut=    36.00 Ry     beta= 0.20
     Davidson diagonalization with overlap
     ethr =  3.12E-09,  avg # of iterations =  3.9

     total cpu time spent up to now is       29.0 secs

     End of self-consistent calculation

          k = 0.0000 0.0000 0.0000 ( 17995 PWs)   bands (ev):

   -18.6433 -18.6433 -18.5387 -18.5386 -17.8493 -17.8492 -17.8282 -17.8282
   -15.2832 -15.2760 -14.8951 -14.8657 -14.6493 -14.6238 -13.3355 -13.3234
   -13.0211 -13.0072 -12.8127 -12.7693 -12.4757 -12.4352 -12.2628 -12.2007
   -11.8430 -11.8055 -10.7145 -10.6315  -9.9520  -9.8995  -9.4853  -9.3612
    -9.1768  -9.1143  -9.1143  -9.1017  -8.6578  -8.6154  -8.2829  -8.2403
    -7.7938  -7.7127  -7.6883  -7.6730  -7.2488  -7.1905  -7.0666  -6.9381
    -6.5690  -6.4551  -5.8984  -5.6944  -5.0470  -5.0021  -4.9891  -4.8181
    -4.6673  -4.6568  -4.6525  -4.5894  -4.4165  -4.4154  -4.3929  -4.3913
    -4.2841  -4.2807  -4.0228  -4.0051  -3.9505  -3.9412  -3.9318  -3.8992
    -3.7296  -3.7262  -3.6343  -3.6213  -2.9200  -2.8829  -2.8477  -2.7316
    -2.5731  -2.4528  -2.4508  -2.4472  -2.3422  -2.3343  -2.1567  -2.1327
    -2.0072  -2.0030  -1.7552  -1.7356  -1.6080  -1.5773  -1.2319  -1.2204
    -0.9497  -0.9263  -0.0203  -0.0115   0.0711   0.0923   0.1393   0.1540
     0.5994   0.5998   1.1643   1.1731   1.2255   1.2268   1.3423   1.3424
     1.7528   1.7574   3.3728   3.3789   4.4118   4.4402   4.6930   4.7115
     5.4120   5.4913   5.4933   5.5221   5.8792   5.8820   6.5650   6.5989
     6.6033   6.6498   7.1732   7.4026   7.4499   7.5922   7.6087   8.0677
     8.2052

          k = 0.0000 0.0000-0.9619 ( 18096 PWs)   bands (ev):

   -18.5468 -18.5468 -18.4709 -18.4709 -17.8276 -17.8276 -17.8034 -17.8033
   -15.1827 -15.1827 -14.7502 -14.7502 -14.5294 -14.5294 -13.2270 -13.2270
   -13.0021 -13.0021 -12.7877 -12.7877 -12.3654 -12.3654 -12.2651 -12.2651
   -11.7953 -11.7953 -10.7078 -10.7078  -9.9406  -9.9405  -9.4494  -9.4494
    -9.1659  -9.1659  -9.0985  -9.0985  -8.6205  -8.6205  -8.2785  -8.2785
    -7.7697  -7.7697  -7.6659  -7.6659  -7.2153  -7.2153  -7.0333  -7.0333
    -6.5426  -6.5426  -5.8429  -5.8429  -5.2011  -5.2011  -5.0377  -5.0377
    -4.9417  -4.9417  -4.6854  -4.6854  -4.6317  -4.6317  -4.6250  -4.6250
    -4.4620  -4.4620  -4.4099  -4.4099  -4.3138  -4.3138  -4.0129  -4.0129
    -3.9762  -3.9762  -3.5745  -3.5745  -3.1999  -3.1999  -2.8946  -2.8946
    -2.8603  -2.8603  -2.8279  -2.8279  -2.5818  -2.5817  -2.5305  -2.5305
    -2.3459  -2.3459  -2.1180  -2.1179  -1.6105  -1.6105  -1.2882  -1.2882
    -1.1309  -1.1309  -0.5417  -0.5417   0.1239   0.1239   0.1567   0.1567
     0.5250   0.5250   0.8789   0.8789   1.2522   1.2523   1.3121   1.3122
     1.8935   1.8935   3.4984   3.4984   4.5923   4.5923   4.8584   4.8584
     5.7207   5.7207   5.7394   5.7394   6.3997   6.3997   6.6961   6.6961
     7.7556   7.7557   7.8322   7.8322   7.8549   7.8549   9.1220   9.1223
     9.2056

          k = 0.0000-0.1241 0.0000 ( 18010 PWs)   bands (ev):

   -18.6433 -18.6433 -18.5387 -18.5387 -17.8493 -17.8492 -17.8283 -17.8282
   -15.2797 -15.2797 -14.8811 -14.8810 -14.6359 -14.6359 -13.3295 -13.3295
   -13.0145 -13.0145 -12.7912 -12.7912 -12.4571 -12.4571 -12.2298 -12.2298
   -11.8243 -11.8243 -10.6736 -10.6736  -9.9271  -9.9270  -9.4232  -9.4232
    -9.1496  -9.1495  -9.1036  -9.1035  -8.6350  -8.6350  -8.2625  -8.2625
    -7.7560  -7.7560  -7.6782  -7.6782  -7.2175  -7.2175  -7.0105  -7.0105
    -6.5079  -6.5079  -5.7991  -5.7991  -5.0377  -5.0376  -4.8843  -4.8842
    -4.6616  -4.6615  -4.6244  -4.6244  -4.4130  -4.4130  -4.3937  -4.3936
    -4.2824  -4.2824  -4.0037  -4.0035  -3.9442  -3.9442  -3.9280  -3.9278
    -3.7278  -3.7278  -3.6280  -3.6280  -2.8658  -2.8658  -2.8407  -2.8406
    -2.4944  -2.4943  -2.4523  -2.4523  -2.3381  -2.3380  -2.1441  -2.1441
    -2.0050  -2.0050  -1.7488  -1.7488  -1.5897  -1.5897  -1.2270  -1.2270
    -0.9380  -0.9380  -0.0157  -0.0157   0.0804   0.0805   0.1474   0.1474
     0.5999   0.5999   1.1684   1.1685   1.2256   1.2257   1.3420   1.3421
     1.7549   1.7549   3.3758   3.3758   4.4253   4.4253   4.7021   4.7021
     5.4387   5.4389   5.5219   5.5220   5.8786   5.8790   6.5800   6.5800
     6.6293   6.6294   7.2383   7.2385   7.5717   7.5717   7.7677   7.7678
     8.5345

          k = 0.0000-0.1241-0.9619 ( 18104 PWs)   bands (ev):

   -18.5468 -18.5468 -18.4709 -18.4709 -17.8276 -17.8276 -17.8034 -17.8033
   -15.1827 -15.1827 -14.7502 -14.7502 -14.5294 -14.5294 -13.2270 -13.2270
   -13.0022 -13.0022 -12.7877 -12.7877 -12.3652 -12.3652 -12.2654 -12.2654
   -11.7952 -11.7952 -10.7078 -10.7078  -9.9403  -9.9403  -9.4499  -9.4499
    -9.1651  -9.1651  -9.0987  -9.0987  -8.6206  -8.6206  -8.2785  -8.2785
    -7.7696  -7.7696  -7.6662  -7.6662  -7.2152  -7.2152  -7.0328  -7.0328
    -6.5434  -6.5434  -5.8426  -5.8426  -5.2006  -5.2006  -5.0368  -5.0368
    -4.9443  -4.9443  -4.6895  -4.6895  -4.6298  -4.6297  -4.6212  -4.6211
    -4.4624  -4.4624  -4.4098  -4.4098  -4.3140  -4.3140  -4.0100  -4.0099
    -3.9800  -3.9800  -3.5740  -3.5739  -3.2011  -3.2011  -2.8927  -2.8927
    -2.8632  -2.8632  -2.8245  -2.8245  -2.5785  -2.5784  -2.5334  -2.5334
    -2.3514  -2.3514  -2.1126  -2.1126  -1.6132  -1.6131  -1.2865  -1.2865
    -1.1319  -1.1319  -0.5416  -0.5416   0.1240   0.1240   0.1567   0.1567
     0.5249   0.5249   0.8783   0.8783   1.2528   1.2528   1.3118   1.3119
     1.8932   1.8932   3.4984   3.4984   4.5924   4.5924   4.8584   4.8584
     5.7240   5.7240   5.7363   5.7363   6.3998   6.3999   6.6961   6.6961
     7.7553   7.7553   7.8359   7.8359   7.8517   7.8517   9.1177   9.1179
     9.2149

          k =-0.5000 0.0000-0.1820 ( 17968 PWs)   bands (ev):

   -18.5983 -18.5982 -18.4972 -18.4972 -17.9185 -17.9185 -17.8954 -17.8954
   -15.2729 -15.2657 -14.8756 -14.8458 -14.6160 -14.5899 -13.2758 -13.2631
   -13.0427 -13.0303 -12.7762 -12.7391 -12.4911 -12.4423 -12.2718 -12.2099
   -11.8518 -11.8129 -10.6618 -10.5814  -9.9611  -9.9093  -9.4323  -9.3091
    -9.3044  -9.2975  -9.2762  -9.2273  -8.5546  -8.5027  -8.4506  -8.3964
    -7.7492  -7.6653  -7.6058  -7.5910  -7.1458  -7.1197  -7.1043  -6.9869
    -6.5813  -6.4684  -5.8737  -5.6755  -5.0215  -4.9697  -4.9293  -4.8040
    -4.7924  -4.7229  -4.7033  -4.7020  -4.6119  -4.6036  -4.3294  -4.3033
    -4.1442  -4.1216  -4.1067  -4.0502  -3.9811  -3.9677  -3.9597  -3.9571
    -3.7335  -3.7324  -3.2378  -3.2313  -2.9523  -2.9037  -2.8707  -2.7166
    -2.5716  -2.4898  -2.4816  -2.4441  -2.2503  -2.2492  -2.0685  -2.0515
    -1.9484  -1.9427  -1.7647  -1.7439  -1.7051  -1.6680  -1.5169  -1.4939
    -0.9165  -0.8852  -0.0193  -0.0005   0.1097   0.1241   0.1741   0.1884
     0.5008   0.5016   1.1679   1.1710   1.2959   1.2966   1.3594   1.3632
     1.8383   1.8443   3.2468   3.2495   4.4139   4.4353   4.6930   4.7093
     5.5193   5.5229   5.5444   5.5952   6.0009   6.0060   6.4935   6.5343
     6.5493   6.5668   7.4300   7.5980   7.6483   7.7074   7.8072   7.8549
     8.0064

          k =-0.5000 0.0000-1.1438 ( 18138 PWs)   bands (ev):

   -18.5175 -18.5175 -18.4433 -18.4433 -17.8675 -17.8674 -17.8561 -17.8561
   -15.1726 -15.1726 -14.7421 -14.7421 -14.4973 -14.4972 -13.1864 -13.1864
   -13.0009 -13.0009 -12.7593 -12.7593 -12.3667 -12.3667 -12.2716 -12.2716
   -11.7901 -11.7900 -10.6826 -10.6826  -9.9485  -9.9485  -9.4241  -9.4241
    -9.2760  -9.2760  -9.2709  -9.2709  -8.5674  -8.5674  -8.4206  -8.4206
    -7.7386  -7.7386  -7.5980  -7.5980  -7.1306  -7.1306  -7.0876  -7.0876
    -6.5640  -6.5640  -5.8242  -5.8242  -5.1477  -5.1477  -4.9945  -4.9945
    -4.8661  -4.8661  -4.7774  -4.7774  -4.6638  -4.6637  -4.5879  -4.5879
    -4.5699  -4.5699  -4.3006  -4.3006  -4.1205  -4.1205  -4.0411  -4.0411
    -4.0192  -4.0192  -3.3520  -3.3519  -3.1850  -3.1850  -3.0207  -3.0207
    -2.9217  -2.9216  -2.8287  -2.8287  -2.6693  -2.6693  -2.5304  -2.5304
    -2.2829  -2.2829  -2.0475  -2.0475  -1.7485  -1.7485  -1.4999  -1.4999
    -1.1290  -1.1290  -0.5329  -0.5329   0.0825   0.0825   0.2069   0.2069
     0.5552   0.5552   1.0259   1.0260   1.2480   1.2480   1.3445   1.3446
     1.8791   1.8792   3.6252   3.6252   4.6212   4.6212   4.8461   4.8461
     5.7888   5.7888   5.9520   5.9521   6.4306   6.4306   6.5084   6.5084
     7.4048   7.4048   7.9189   7.9189   8.0552   8.0553   8.9583   8.9583
     9.2829

          k =-0.5000-0.1241-0.1820 ( 17980 PWs)   bands (ev):

   -18.5982 -18.5982 -18.4972 -18.4972 -17.9185 -17.9185 -17.8954 -17.8954
   -15.2694 -15.2694 -14.8613 -14.8613 -14.6023 -14.6023 -13.2695 -13.2695
   -13.0368 -13.0368 -12.7579 -12.7578 -12.4690 -12.4690 -12.2384 -12.2384
   -11.8324 -11.8324 -10.6224 -10.6224  -9.9363  -9.9363  -9.3688  -9.3688
    -9.3061  -9.3061  -9.2483  -9.2482  -8.5269  -8.5269  -8.4243  -8.4243
    -7.7093  -7.7092  -7.5967  -7.5967  -7.1178  -7.1178  -7.0661  -7.0661
    -6.5209  -6.5209  -5.7773  -5.7772  -5.0094  -5.0093  -4.8089  -4.8089
    -4.7977  -4.7976  -4.7036  -4.7036  -4.6073  -4.6073  -4.3172  -4.3171
    -4.1347  -4.1347  -4.0642  -4.0641  -3.9852  -3.9850  -3.9595  -3.9594
    -3.7331  -3.7331  -3.2347  -3.2346  -2.9191  -2.9191  -2.8181  -2.8180
    -2.4915  -2.4914  -2.4852  -2.4852  -2.2499  -2.2499  -2.0594  -2.0594
    -1.9456  -1.9456  -1.7611  -1.7611  -1.6799  -1.6799  -1.5057  -1.5056
    -0.9008  -0.9008  -0.0099  -0.0099   0.1159   0.1159   0.1818   0.1819
     0.5009   0.5009   1.1692   1.1692   1.2963   1.2964   1.3607   1.3608
     1.8411   1.8411   3.2479   3.2479   4.4240   4.4240   4.7011   4.7011
     5.5187   5.5188   5.5722   5.5723   6.0031   6.0035   6.5130   6.5130
     6.5592   6.5592   7.4935   7.4936   7.6944   7.6944   7.8632   7.8632
     7.9434

          k =-0.5000-0.1241-1.1438 ( 18144 PWs)   bands (ev):

   -18.5175 -18.5175 -18.4433 -18.4433 -17.8675 -17.8674 -17.8561 -17.8561
   -15.1726 -15.1726 -14.7421 -14.7421 -14.4973 -14.4973 -13.1864 -13.1864
   -13.0009 -13.0009 -12.7594 -12.7594 -12.3665 -12.3665 -12.2719 -12.2719
   -11.7900 -11.7900 -10.6827 -10.6827  -9.9483  -9.9483  -9.4248  -9.4248
    -9.2759  -9.2759  -9.2705  -9.2704  -8.5671  -8.5671  -8.4210  -8.4210
    -7.7387  -7.7387  -7.5981  -7.5981  -7.1306  -7.1306  -7.0872  -7.0872
    -6.5645  -6.5645  -5.8239  -5.8238  -5.1471  -5.1470  -4.9935  -4.9935
    -4.8699  -4.8699  -4.7781  -4.7781  -4.6633  -4.6633  -4.5819  -4.5819
    -4.5730  -4.5730  -4.3009  -4.3009  -4.1198  -4.1198  -4.0335  -4.0335
    -4.0282  -4.0282  -3.3516  -3.3516  -3.1854  -3.1854  -3.0207  -3.0207
    -2.9223  -2.9223  -2.8271  -2.8270  -2.6685  -2.6684  -2.5317  -2.5317
    -2.2865  -2.2865  -2.0422  -2.0421  -1.7521  -1.7520  -1.4986  -1.4986
    -1.1289  -1.1289  -0.5329  -0.5329   0.0823   0.0823   0.2072   0.2072
     0.5553   0.5553   1.0257   1.0258   1.2480   1.2480   1.3440   1.3440
     1.8793   1.8793   3.6249   3.6250   4.6213   4.6213   4.8461   4.8461
     5.7892   5.7892   5.9516   5.9516   6.4333   6.4333   6.5059   6.5059
     7.4046   7.4046   7.9183   7.9183   8.0560   8.0560   8.9577   8.9577
     9.2867

     the Fermi energy is     2.6253 ev

!    total energy              =   -1044.26779454 Ry
     total all-electron energy =     -4115.414334 Ry
     estimated scf accuracy    <       0.00000093 Ry
     smearing contrib. (-TS)   =      -0.00000000 Ry
     internal energy E=F+TS    =   -1044.26779454 Ry

     The total energy is F=E-TS. E is the sum of the following terms:
     one-electron contribution =    -873.68702000 Ry
     hartree contribution      =     524.60125873 Ry
     xc contribution           =    -258.41559902 Ry
     ewald contribution        =    -119.27534230 Ry
     DFT-D3 Dispersion         =      -0.43298985 Ry
     one-center paw contrib.   =    -317.05810210 Ry

     convergence has been achieved in  13 iterations

     Forces acting on atoms (cartesian axes, Ry/au):

     atom    1 type  1   force =    -0.20977535    0.04442465   -0.01053489
     atom    2 type  1   force =     0.20977646    0.04443025    0.01053400
     atom    3 type  1   force =     0.20977497   -0.04443113    0.01053387
     atom    4 type  1   force =    -0.20977630   -0.04442394   -0.01053495
     atom    5 type  2   force =     0.34221696   -0.01829838    0.03935848
     atom    6 type  2   force =    -0.34221873   -0.01829781   -0.03935931
     atom    7 type  2   force =    -0.34221870    0.01829789   -0.03935902
     atom    8 type  2   force =     0.34221707    0.01829847    0.03935866
     atom    9 type  3   force =     0.05611728    0.00167509    0.00135901
     atom   10 type  3   force =    -0.05610001    0.00166395   -0.00135402
     atom   11 type  3   force =    -0.05609046   -0.00166262   -0.00135229
     atom   12 type  3   force =     0.05612480   -0.00167696    0.00135951
     atom   13 type  4   force =    -0.36974151    0.00290636   -0.02803884
     atom   14 type  4   force =     0.36973584    0.00291243    0.02803697
     atom   15 type  4   force =     0.36973505   -0.00291376    0.02803838
     atom   16 type  4   force =    -0.36974098   -0.00290565   -0.02803782
     atom   17 type  2   force =     0.46667815   -0.01428155    0.04195515
     atom   18 type  2   force =    -0.46668144   -0.01427929   -0.04195599
     atom   19 type  2   force =    -0.46668215    0.01427945   -0.04195594
     atom   20 type  2   force =     0.46667698    0.01428162    0.04195501
     atom   21 type  1   force =     0.29488581    0.00038130    0.02515610
     atom   22 type  1   force =    -0.29488554    0.00038467   -0.02515617
     atom   23 type  1   force =    -0.29488501   -0.00038471   -0.02515605
     atom   24 type  1   force =     0.29488585   -0.00038151    0.02515643
     atom   25 type  2   force =    -0.34150230    0.00570104   -0.03174316
     atom   26 type  2   force =     0.34150425    0.00570136    0.03174305
     atom   27 type  2   force =     0.34150475   -0.00570131    0.03174317
     atom   28 type  2   force =    -0.34150193   -0.00570105   -0.03174306
     atom   29 type  1   force =     0.23094679    0.25867396    0.14691333
     atom   30 type  1   force =    -0.23094508    0.25867294   -0.14691167
     atom   31 type  1   force =    -0.23094499   -0.25867262   -0.14691117
     atom   32 type  1   force =     0.23094746   -0.25867381    0.14691356
     atom   33 type  2   force =    -0.15469341   -0.26154879   -0.14573518
     atom   34 type  2   force =     0.15469307   -0.26154966    0.14573544
     atom   35 type  2   force =     0.15469293    0.26154971    0.14573551
     atom   36 type  2   force =    -0.15469354    0.26154887   -0.14573524
     atom   37 type  1   force =    -0.26843093    0.23346238    0.10725916
     atom   38 type  1   force =     0.26842700    0.23346155   -0.10725784
     atom   39 type  1   force =     0.26842649   -0.23346187   -0.10725789
     atom   40 type  1   force =    -0.26843137   -0.23346242    0.10725915
     atom   41 type  2   force =     0.18767674   -0.25596007   -0.11973582
     atom   42 type  2   force =    -0.18767825   -0.25596097    0.11973607
     atom   43 type  2   force =    -0.18767823    0.25596101    0.11973611
     atom   44 type  2   force =     0.18767675    0.25596010   -0.11973584
     atom   45 type  1   force =    -0.26130019   -0.01025336   -0.04500814
     atom   46 type  1   force =     0.26129705   -0.01025347    0.04500908
     atom   47 type  1   force =     0.26129636    0.01025435    0.04500956
     atom   48 type  1   force =    -0.26130053    0.01025266   -0.04500771
     atom   49 type  2   force =     0.34049025   -0.00429213    0.04876936
     atom   50 type  2   force =    -0.34049508   -0.00429177   -0.04877031
     atom   51 type  2   force =    -0.34049464    0.00429197   -0.04877017
     atom   52 type  2   force =     0.34049019    0.00429208    0.04876944
     atom   53 type  1   force =    -0.10870918    0.04855917   -0.01743934
     atom   54 type  1   force =     0.10870655    0.04856655    0.01743706
     atom   55 type  1   force =     0.10870557   -0.04856627    0.01743693
     atom   56 type  1   force =    -0.10870948   -0.04855813   -0.01743969
     atom   57 type  1   force =     0.08743640   -0.04075920    0.00879818
     atom   58 type  1   force =    -0.08743727   -0.04075254   -0.00879682
     atom   59 type  1   force =    -0.08743638    0.04075154   -0.00879705
     atom   60 type  1   force =     0.08743716    0.04075991    0.00879837
     atom   61 type  1   force =    -0.15056061   -0.07711357   -0.04489574
     atom   62 type  1   force =     0.15056377   -0.07709775    0.04489200
     atom   63 type  1   force =     0.15056331    0.07709871    0.04489267
     atom   64 type  1   force =    -0.15056130    0.07711258   -0.04489517
     atom   65 type  1   force =     0.11979559    0.00965057    0.01441539
     atom   66 type  1   force =    -0.11979746    0.00965881   -0.01441664
     atom   67 type  1   force =    -0.11979574   -0.00965791   -0.01441585
     atom   68 type  1   force =     0.11979734   -0.00965153    0.01441647
     atom   69 type  1   force =    -0.15637146   -0.01154325   -0.01572868
     atom   70 type  1   force =     0.15636886   -0.01153089    0.01572392
     atom   71 type  1   force =     0.15636700    0.01153063    0.01572585
     atom   72 type  1   force =    -0.15637130    0.01154305   -0.01572690
     The non-local contrib.  to forces
     atom    1 type  1   force =    -0.27819118    0.00073677   -0.04356476
     atom    2 type  1   force =     0.27819290    0.00073156    0.04356923
     atom    3 type  1   force =     0.27819127   -0.00073228    0.04356796
     atom    4 type  1   force =    -0.27819238   -0.00073694   -0.04356530
     atom    5 type  2   force =    -0.12328935    0.00862909   -0.01615037
     atom    6 type  2   force =     0.12328946    0.00862926    0.01615037
     atom    7 type  2   force =     0.12328931   -0.00862926    0.01615038
     atom    8 type  2   force =    -0.12328948   -0.00862909   -0.01615036
     atom    9 type  3   force =     2.25688716   -0.02327325    0.13351563
     atom   10 type  3   force =    -2.25687150   -0.02330328   -0.13350975
     atom   11 type  3   force =    -2.25686485    0.02330405   -0.13350569
     atom   12 type  3   force =     2.25689645    0.02327085    0.13351350
     atom   13 type  4   force =    -0.22047181   -0.01282158   -0.00122280
     atom   14 type  4   force =     0.22047021   -0.01282729    0.00122070
     atom   15 type  4   force =     0.22046796    0.01282529    0.00122190
     atom   16 type  4   force =    -0.22047298    0.01282302   -0.00122250
     atom   17 type  2   force =    -0.17080371    0.00535037   -0.01562460
     atom   18 type  2   force =     0.17080038    0.00535057    0.01562428
     atom   19 type  2   force =     0.17080035   -0.00535055    0.01562429
     atom   20 type  2   force =    -0.17080377   -0.00535037   -0.01562462
     atom   21 type  1   force =     0.28073808    0.05765595    0.04046290
     atom   22 type  1   force =    -0.28073971    0.05765466   -0.04046174
     atom   23 type  1   force =    -0.28073878   -0.05765439   -0.04046284
     atom   24 type  1   force =     0.28073826   -0.05765550    0.04046321
     atom   25 type  2   force =     0.12329542   -0.00012163    0.01162823
     atom   26 type  2   force =    -0.12329195   -0.00012156   -0.01162788
     atom   27 type  2   force =    -0.12329186    0.00012156   -0.01162787
     atom   28 type  2   force =     0.12329550    0.00012164    0.01162823
     atom   29 type  1   force =     0.24120247    0.19444416    0.12887744
     atom   30 type  1   force =    -0.24120142    0.19444251   -0.12887719
     atom   31 type  1   force =    -0.24120193   -0.19444266   -0.12887658
     atom   32 type  1   force =     0.24120304   -0.19444356    0.12887831
     atom   33 type  2   force =     0.05701463    0.09490568    0.05181887
     atom   34 type  2   force =    -0.05701256    0.09490232   -0.05181700
     atom   35 type  2   force =    -0.05701258   -0.09490233   -0.05181699
     atom   36 type  2   force =     0.05701461   -0.09490568    0.05181886
     atom   37 type  1   force =    -0.23185548    0.19148780    0.09471874
     atom   38 type  1   force =     0.23185446    0.19148632   -0.09471730
     atom   39 type  1   force =     0.23185421   -0.19148674   -0.09471757
     atom   40 type  1   force =    -0.23185484   -0.19148848    0.09471865
     atom   41 type  2   force =    -0.06829493    0.09221221    0.04547490
     atom   42 type  2   force =     0.06829248    0.09220889   -0.04547325
     atom   43 type  2   force =     0.06829249   -0.09220891   -0.04547325
     atom   44 type  2   force =    -0.06829493   -0.09221221    0.04547490
     atom   45 type  1   force =    -0.26076955    0.06974574    0.01776733
     atom   46 type  1   force =     0.26076694    0.06974018   -0.01776213
     atom   47 type  1   force =     0.26076665   -0.06973912   -0.01776224
     atom   48 type  1   force =    -0.26076914   -0.06974637    0.01776713
     atom   49 type  2   force =    -0.12103320    0.00431125   -0.01907112
     atom   50 type  2   force =     0.12102974    0.00431125    0.01907058
     atom   51 type  2   force =     0.12102967   -0.00431124    0.01907057
     atom   52 type  2   force =    -0.12103319   -0.00431125   -0.01907112
     atom   53 type  1   force =     0.07217441    0.34755307    0.14507467
     atom   54 type  1   force =    -0.07217689    0.34755426   -0.14507551
     atom   55 type  1   force =    -0.07217632   -0.34755264   -0.14507505
     atom   56 type  1   force =     0.07217584   -0.34755270    0.14507421
     atom   57 type  1   force =     0.15664143   -0.02644620    0.04349383
     atom   58 type  1   force =    -0.15664697   -0.02644873   -0.04349448
     atom   59 type  1   force =    -0.15664507    0.02644543   -0.04349433
     atom   60 type  1   force =     0.15664166    0.02644891    0.04349323
     atom   61 type  1   force =     0.01269364   -0.40208996   -0.17388583
     atom   62 type  1   force =    -0.01269271   -0.40209512    0.17388419
     atom   63 type  1   force =    -0.01269221    0.40209417    0.17388465
     atom   64 type  1   force =     0.01269384    0.40209096   -0.17388533
     atom   65 type  1   force =     0.17866355   -0.00853066    0.01472487
     atom   66 type  1   force =    -0.17866207   -0.00852618   -0.01472320
     atom   67 type  1   force =    -0.17865832    0.00852933   -0.01472260
     atom   68 type  1   force =     0.17866630    0.00852594    0.01472629
     atom   69 type  1   force =    -0.22825415    0.01259677   -0.01525947
     atom   70 type  1   force =     0.22824696    0.01260116    0.01526539
     atom   71 type  1   force =     0.22825335   -0.01259953    0.01526033
     atom   72 type  1   force =    -0.22824862   -0.01260060   -0.01526137
     The ionic contribution  to forces
     atom    1 type  1   force =     4.72152959   -0.47282987    0.83712705
     atom    2 type  1   force =    -4.72152959   -0.47282987   -0.83712705
     atom    3 type  1   force =    -4.72152959    0.47282987   -0.83712705
     atom    4 type  1   force =     4.72152959    0.47282987    0.83712705
     atom    5 type  2   force =     3.45739114   -0.42028161    0.45891202
     atom    6 type  2   force =    -3.45739114   -0.42028161   -0.45891202
     atom    7 type  2   force =    -3.45739114    0.42028160   -0.45891202
     atom    8 type  2   force =     3.45739114    0.42028161    0.45891202
     atom    9 type  3   force =   -10.59266170   -5.03964164   -1.41705591
     atom   10 type  3   force =    10.59266170   -5.03964164    1.41705591
     atom   11 type  3   force =    10.59266170    5.03964164    1.41705591
     atom   12 type  3   force =   -10.59266170    5.03964164   -1.41705591
     atom   13 type  4   force =     4.95657087   -5.26206727    1.27616563
     atom   14 type  4   force =    -4.95657087   -5.26206727   -1.27616563
     atom   15 type  4   force =    -4.95657087    5.26206727   -1.27616563
     atom   16 type  4   force =     4.95657087    5.26206727    1.27616563
     atom   17 type  2   force =     4.44258663   -1.22179454    0.63211779
     atom   18 type  2   force =    -4.44258663   -1.22179454   -0.63211779
     atom   19 type  2   force =    -4.44258663    1.22179454   -0.63211779
     atom   20 type  2   force =     4.44258663    1.22179454    0.63211779
     atom   21 type  1   force =    -4.81758231   -6.80552354   -1.34133464
     atom   22 type  1   force =     4.81758231   -6.80552354    1.34133464
     atom   23 type  1   force =     4.81758231    6.80552354    1.34133464
     atom   24 type  1   force =    -4.81758231    6.80552354   -1.34133464
     atom   25 type  2   force =    -3.52202624   -1.84100376   -0.59502024
     atom   26 type  2   force =     3.52202624   -1.84100376    0.59502024
     atom   27 type  2   force =     3.52202624    1.84100376    0.59502024
     atom   28 type  2   force =    -3.52202624    1.84100376   -0.59502024
     atom   29 type  1   force =    -2.48217126   -7.72243491   -1.92906500
     atom   30 type  1   force =     2.48217126   -7.72243491    1.92906500
     atom   31 type  1   force =     2.48217126    7.72243491    1.92906500
     atom   32 type  1   force =    -2.48217126    7.72243491   -1.92906500
     atom   33 type  2   force =    -1.97725398   -3.10710490   -1.48990727
     atom   34 type  2   force =     1.97725398   -3.10710490    1.48990727
     atom   35 type  2   force =     1.97725398    3.10710490    1.48990727
     atom   36 type  2   force =    -1.97725398    3.10710490   -1.48990727
     atom   37 type  1   force =     2.48642494   -7.82884465   -0.71346828
     atom   38 type  1   force =    -2.48642494   -7.82884465    0.71346828
     atom   39 type  1   force =    -2.48642494    7.82884464    0.71346828
     atom   40 type  1   force =     2.48642494    7.82884465   -0.71346828
     atom   41 type  2   force =     2.16867214   -3.08046056   -0.87010183
     atom   42 type  2   force =    -2.16867214   -3.08046056    0.87010183
     atom   43 type  2   force =    -2.16867214    3.08046056    0.87010183
     atom   44 type  2   force =     2.16867214    3.08046056   -0.87010183
     atom   45 type  1   force =     5.13920699   -7.19689053    1.00720740
     atom   46 type  1   force =    -5.13920699   -7.19689053   -1.00720740
     atom   47 type  1   force =    -5.13920699    7.19689053   -1.00720740
     atom   48 type  1   force =     5.13920699    7.19689053    1.00720740
     atom   49 type  2   force =     3.50301633   -1.91579187    0.60804515
     atom   50 type  2   force =    -3.50301633   -1.91579187   -0.60804515
     atom   51 type  2   force =    -3.50301633    1.91579187   -0.60804515
     atom   52 type  2   force =     3.50301633    1.91579187    0.60804515
     atom   53 type  1   force =     1.53742985   -6.85738274    0.43361815
     atom   54 type  1   force =    -1.53742985   -6.85738274   -0.43361815
     atom   55 type  1   force =    -1.53742985    6.85738274   -0.43361815
     atom   56 type  1   force =     1.53742985    6.85738274    0.43361815
     atom   57 type  1   force =    -1.60414810   -5.48174360   -0.93922850
     atom   58 type  1   force =     1.60414810   -5.48174360    0.93922850
     atom   59 type  1   force =     1.60414810    5.48174360    0.93922850
     atom   60 type  1   force =    -1.60414810    5.48174360   -0.93922850
     atom   61 type  1   force =     1.26512753   -1.18608523    0.63508656
     atom   62 type  1   force =    -1.26512753   -1.18608523   -0.63508656
     atom   63 type  1   force =    -1.26512753    1.18608523   -0.63508656
     atom   64 type  1   force =     1.26512753    1.18608523    0.63508656
     atom   65 type  1   force =    -1.40286341   -1.37642828   -0.42803771
     atom   66 type  1   force =     1.40286341   -1.37642828    0.42803771
     atom   67 type  1   force =     1.40286341    1.37642828    0.42803771
     atom   68 type  1   force =    -1.40286341    1.37642828   -0.42803771
     atom   69 type  1   force =    -0.29191056   -3.25214173   -0.73572019
     atom   70 type  1   force =     0.29191056   -3.25214173    0.73572019
     atom   71 type  1   force =     0.29191056    3.25214173    0.73572019
     atom   72 type  1   force =    -0.29191056    3.25214173   -0.73572019
     The local contribution  to forces
     atom    1 type  1   force =    -4.65999845    0.51784921   -0.80443056
     atom    2 type  1   force =     4.66001271    0.51771914    0.80443408
     atom    3 type  1   force =     4.66000001   -0.51772317    0.80443173
     atom    4 type  1   force =    -4.66000921   -0.51784417   -0.80443287
     atom    5 type  2   force =    -2.99200886    0.39332805   -0.40330442
     atom    6 type  2   force =     2.99200750    0.39329720    0.40330410
     atom    7 type  2   force =     2.99200637   -0.39329786    0.40330394
     atom    8 type  2   force =    -2.99201003   -0.39332723   -0.40330464
     atom    9 type  3   force =     8.41003118    5.06450536    1.28574709
     atom   10 type  3   force =    -8.41003100    5.06439358   -1.28574510
     atom   11 type  3   force =    -8.41001717   -5.06439782   -1.28575192
     atom   12 type  3   force =     8.41003549   -5.06450047    1.28574284
     atom   13 type  4   force =    -5.11476195    5.27775852   -1.30312392
     atom   14 type  4   force =     5.11478703    5.27767248    1.30312352
     atom   15 type  4   force =     5.11477483   -5.27767168    1.30312298
     atom   16 type  4   force =    -5.11476700   -5.27775659   -1.30312411
     atom   17 type  2   force =    -3.80527153    1.20207325   -0.57445359
     atom   18 type  2   force =     3.80527676    1.20205513    0.57445382
     atom   19 type  2   force =     3.80527305   -1.20205518    0.57445365
     atom   20 type  2   force =    -3.80527590   -1.20207263   -0.57445412
     atom   21 type  1   force =     4.83877346    6.74988030    1.32739088
     atom   22 type  1   force =    -4.83878892    6.74982447   -1.32739404
     atom   23 type  1   force =    -4.83878380   -6.74982979   -1.32739123
     atom   24 type  1   force =     4.83877578   -6.74987659    1.32739138
     atom   25 type  2   force =     3.05719527    1.84658914    0.55157000
     atom   26 type  2   force =    -3.05719931    1.84657654   -0.55157106
     atom   27 type  2   force =    -3.05719757   -1.84657773   -0.55157072
     atom   28 type  2   force =     3.05719590   -1.84658800    0.55156983
     atom   29 type  1   force =     2.47839031    7.79081634    1.95014037
     atom   30 type  1   force =    -2.47840552    7.79078458   -1.95014434
     atom   31 type  1   force =    -2.47840465   -7.79078280   -1.95014175
     atom   32 type  1   force =     2.47839156   -7.79081660    1.95014087
     atom   33 type  2   force =     1.76519577    2.75069099    1.29232950
     atom   34 type  2   force =    -1.76520279    2.75069209   -1.29233380
     atom   35 type  2   force =    -1.76520272   -2.75069216   -1.29233338
     atom   36 type  2   force =     1.76519568   -2.75069064    1.29232944
     atom   37 type  1   force =    -2.52963100    7.87513983    0.72861093
     atom   38 type  1   force =     2.52964608    7.87510752   -0.72860792
     atom   39 type  1   force =     2.52964290   -7.87510780   -0.72860762
     atom   40 type  1   force =    -2.52963200   -7.87514061    0.72861197
     atom   41 type  2   force =    -1.91244492    2.73228581    0.70523089
     atom   42 type  2   force =     1.91245279    2.73228642   -0.70523235
     atom   43 type  2   force =     1.91245253   -2.73228676   -0.70523248
     atom   44 type  2   force =    -1.91244492   -2.73228579    0.70523084
     atom   45 type  1   force =    -5.14605313    7.11778671   -1.06954251
     atom   46 type  1   force =     5.14607452    7.11773763    1.06954493
     atom   47 type  1   force =     5.14606808   -7.11773720    1.06954529
     atom   48 type  1   force =    -5.14605621   -7.11778819   -1.06954103
     atom   49 type  2   force =    -3.04151838    1.90687161   -0.54009987
     atom   50 type  2   force =     3.04152104    1.90685986    0.54010069
     atom   51 type  2   force =     3.04152106   -1.90686024    0.54010067
     atom   52 type  2   force =    -3.04151957   -1.90687145   -0.54009994
     atom   53 type  1   force =    -1.71837512    6.56442584   -0.59298208
     atom   54 type  1   force =     1.71838281    6.56437161    0.59297943
     atom   55 type  1   force =     1.71837828   -6.56437148    0.59297959
     atom   56 type  1   force =    -1.71837398   -6.56442467   -0.59298057
     atom   57 type  1   force =     1.53826985    5.46710275    0.90495349
     atom   58 type  1   force =    -1.53827555    5.46704345   -0.90495484
     atom   59 type  1   force =    -1.53826889   -5.46704755   -0.90495485
     atom   60 type  1   force =     1.53827827   -5.46710006    0.90495524
     atom   61 type  1   force =    -1.43029779    1.50320985   -0.50954257
     atom   62 type  1   force =     1.43032467    1.50311912    0.50954291
     atom   63 type  1   force =     1.43031894   -1.50311773    0.50954270
     atom   64 type  1   force =    -1.43030201   -1.50321208   -0.50954209
     atom   65 type  1   force =     1.34859059    1.39396134    0.42766775
     atom   66 type  1   force =    -1.34860627    1.39386462   -0.42767764
     atom   67 type  1   force =    -1.34859591   -1.39386216   -0.42767335
     atom   68 type  1   force =     1.34860213   -1.39396229    0.42767158
     atom   69 type  1   force =     0.36274693    3.22849511    0.73491710
     atom   70 type  1   force =    -0.36275116    3.22842958   -0.73493777
     atom   71 type  1   force =    -0.36274676   -3.22843478   -0.73492858
     atom   72 type  1   force =     0.36275541   -3.22848894    0.73492296
     The core correction contribution to forces
     atom    1 type  1   force =     0.00551326   -0.00106653    0.00067527
     atom    2 type  1   force =    -0.00551321   -0.00106667   -0.00067538
     atom    3 type  1   force =    -0.00551324    0.00106668   -0.00067536
     atom    4 type  1   force =     0.00551325    0.00106655    0.00067527
     atom    5 type  2   force =     0.00000000    0.00000000    0.00000000
     atom    6 type  2   force =     0.00000000    0.00000000    0.00000000
     atom    7 type  2   force =     0.00000000    0.00000000    0.00000000
     atom    8 type  2   force =     0.00000000    0.00000000    0.00000000
     atom    9 type  3   force =    -0.01773670    0.00015178   -0.00097967
     atom   10 type  3   force =     0.01773687    0.00015214    0.00097964
     atom   11 type  3   force =     0.01773684   -0.00015215    0.00097955
     atom   12 type  3   force =    -0.01773677   -0.00015173   -0.00097966
     atom   13 type  4   force =     0.00865425   -0.00005614    0.00042048
     atom   14 type  4   force =    -0.00865428   -0.00005606   -0.00042042
     atom   15 type  4   force =    -0.00865427    0.00005614   -0.00042044
     atom   16 type  4   force =     0.00865427    0.00005612    0.00042047
     atom   17 type  2   force =     0.00000000    0.00000000    0.00000000
     atom   18 type  2   force =     0.00000000    0.00000000    0.00000000
     atom   19 type  2   force =     0.00000000    0.00000000    0.00000000
     atom   20 type  2   force =     0.00000000    0.00000000    0.00000000
     atom   21 type  1   force =    -0.00656022   -0.00176081   -0.00127400
     atom   22 type  1   force =     0.00656022   -0.00176090    0.00127397
     atom   23 type  1   force =     0.00656021    0.00176088    0.00127401
     atom   24 type  1   force =    -0.00656022    0.00176079   -0.00127401
     atom   25 type  2   force =     0.00000000    0.00000000    0.00000000
     atom   26 type  2   force =     0.00000000    0.00000000    0.00000000
     atom   27 type  2   force =     0.00000000    0.00000000    0.00000000
     atom   28 type  2   force =     0.00000000    0.00000000    0.00000000
     atom   29 type  1   force =    -0.00654845   -0.00385537   -0.00268312
     atom   30 type  1   force =     0.00654842   -0.00385542    0.00268313
     atom   31 type  1   force =     0.00654842    0.00385544    0.00268312
     atom   32 type  1   force =    -0.00654846    0.00385534   -0.00268313
     atom   33 type  2   force =     0.00000000    0.00000000    0.00000000
     atom   34 type  2   force =     0.00000000    0.00000000    0.00000000
     atom   35 type  2   force =     0.00000000    0.00000000    0.00000000
     atom   36 type  2   force =     0.00000000    0.00000000    0.00000000
     atom   37 type  1   force =     0.00652710   -0.00389978   -0.00168240
     atom   38 type  1   force =    -0.00652707   -0.00389985    0.00168239
     atom   39 type  1   force =    -0.00652708    0.00389985    0.00168240
     atom   40 type  1   force =     0.00652709    0.00389980   -0.00168239
     atom   41 type  2   force =     0.00000000    0.00000000    0.00000000
     atom   42 type  2   force =     0.00000000    0.00000000    0.00000000
     atom   43 type  2   force =     0.00000000    0.00000000    0.00000000
     atom   44 type  2   force =     0.00000000    0.00000000    0.00000000
     atom   45 type  1   force =     0.00584256   -0.00141128   -0.00008747
     atom   46 type  1   force =    -0.00584245   -0.00141129    0.00008738
     atom   47 type  1   force =    -0.00584247    0.00141127    0.00008739
     atom   48 type  1   force =     0.00584254    0.00141128   -0.00008745
     atom   49 type  2   force =     0.00000000    0.00000000    0.00000000
     atom   50 type  2   force =     0.00000000    0.00000000    0.00000000
     atom   51 type  2   force =     0.00000000    0.00000000    0.00000000
     atom   52 type  2   force =     0.00000000    0.00000000    0.00000000
     atom   53 type  1   force =    -0.00044423   -0.00629781   -0.00301504
     atom   54 type  1   force =     0.00044433   -0.00629796    0.00301509
     atom   55 type  1   force =     0.00044429    0.00629792    0.00301508
     atom   56 type  1   force =    -0.00044425    0.00629782   -0.00301504
     atom   57 type  1   force =    -0.00297081    0.00025309   -0.00037755
     atom   58 type  1   force =     0.00297102    0.00025304    0.00037761
     atom   59 type  1   force =     0.00297096   -0.00025297    0.00037760
     atom   60 type  1   force =    -0.00297082   -0.00025317   -0.00037753
     atom   61 type  1   force =     0.00099543    0.00824727    0.00383384
     atom   62 type  1   force =    -0.00099551    0.00824734   -0.00383384
     atom   63 type  1   force =    -0.00099553   -0.00824731   -0.00383384
     atom   64 type  1   force =     0.00099542   -0.00824731    0.00383385
     atom   65 type  1   force =    -0.00393016    0.00118879    0.00010823
     atom   66 type  1   force =     0.00393014    0.00118846   -0.00010823
     atom   67 type  1   force =     0.00393006   -0.00118853   -0.00010823
     atom   68 type  1   force =    -0.00393022   -0.00118869    0.00010821
     atom   69 type  1   force =     0.00180667   -0.00028395    0.00020876
     atom   70 type  1   force =    -0.00180656   -0.00028413   -0.00020899
     atom   71 type  1   force =    -0.00180675    0.00028408   -0.00020881
     atom   72 type  1   force =     0.00180647    0.00028408    0.00020885
     The Hubbard contrib.    to forces
     atom    1 type  1   force =     0.00000000    0.00000000    0.00000000
     atom    2 type  1   force =     0.00000000    0.00000000    0.00000000
     atom    3 type  1   force =     0.00000000    0.00000000    0.00000000
     atom    4 type  1   force =     0.00000000    0.00000000    0.00000000
     atom    5 type  2   force =     0.00000000    0.00000000    0.00000000
     atom    6 type  2   force =     0.00000000    0.00000000    0.00000000
     atom    7 type  2   force =     0.00000000    0.00000000    0.00000000
     atom    8 type  2   force =     0.00000000    0.00000000    0.00000000
     atom    9 type  3   force =     0.00000000    0.00000000    0.00000000
     atom   10 type  3   force =     0.00000000    0.00000000    0.00000000
     atom   11 type  3   force =     0.00000000    0.00000000    0.00000000
     atom   12 type  3   force =     0.00000000    0.00000000    0.00000000
     atom   13 type  4   force =     0.00000000    0.00000000    0.00000000
     atom   14 type  4   force =     0.00000000    0.00000000    0.00000000
     atom   15 type  4   force =     0.00000000    0.00000000    0.00000000
     atom   16 type  4   force =     0.00000000    0.00000000    0.00000000
     atom   17 type  2   force =     0.00000000    0.00000000    0.00000000
     atom   18 type  2   force =     0.00000000    0.00000000    0.00000000
     atom   19 type  2   force =     0.00000000    0.00000000    0.00000000
     atom   20 type  2   force =     0.00000000    0.00000000    0.00000000
     atom   21 type  1   force =     0.00000000    0.00000000    0.00000000
     atom   22 type  1   force =     0.00000000    0.00000000    0.00000000
     atom   23 type  1   force =     0.00000000    0.00000000    0.00000000
     atom   24 type  1   force =     0.00000000    0.00000000    0.00000000
     atom   25 type  2   force =     0.00000000    0.00000000    0.00000000
     atom   26 type  2   force =     0.00000000    0.00000000    0.00000000
     atom   27 type  2   force =     0.00000000    0.00000000    0.00000000
     atom   28 type  2   force =     0.00000000    0.00000000    0.00000000
     atom   29 type  1   force =     0.00000000    0.00000000    0.00000000
     atom   30 type  1   force =     0.00000000    0.00000000    0.00000000
     atom   31 type  1   force =     0.00000000    0.00000000    0.00000000
     atom   32 type  1   force =     0.00000000    0.00000000    0.00000000
     atom   33 type  2   force =     0.00000000    0.00000000    0.00000000
     atom   34 type  2   force =     0.00000000    0.00000000    0.00000000
     atom   35 type  2   force =     0.00000000    0.00000000    0.00000000
     atom   36 type  2   force =     0.00000000    0.00000000    0.00000000
     atom   37 type  1   force =     0.00000000    0.00000000    0.00000000
     atom   38 type  1   force =     0.00000000    0.00000000    0.00000000
     atom   39 type  1   force =     0.00000000    0.00000000    0.00000000
     atom   40 type  1   force =     0.00000000    0.00000000    0.00000000
     atom   41 type  2   force =     0.00000000    0.00000000    0.00000000
     atom   42 type  2   force =     0.00000000    0.00000000    0.00000000
     atom   43 type  2   force =     0.00000000    0.00000000    0.00000000
     atom   44 type  2   force =     0.00000000    0.00000000    0.00000000
     atom   45 type  1   force =     0.00000000    0.00000000    0.00000000
     atom   46 type  1   force =     0.00000000    0.00000000    0.00000000
     atom   47 type  1   force =     0.00000000    0.00000000    0.00000000
     atom   48 type  1   force =     0.00000000    0.00000000    0.00000000
     atom   49 type  2   force =     0.00000000    0.00000000    0.00000000
     atom   50 type  2   force =     0.00000000    0.00000000    0.00000000
     atom   51 type  2   force =     0.00000000    0.00000000    0.00000000
     atom   52 type  2   force =     0.00000000    0.00000000    0.00000000
     atom   53 type  1   force =     0.00000000    0.00000000    0.00000000
     atom   54 type  1   force =     0.00000000    0.00000000    0.00000000
     atom   55 type  1   force =     0.00000000    0.00000000    0.00000000
     atom   56 type  1   force =     0.00000000    0.00000000    0.00000000
     atom   57 type  1   force =     0.00000000    0.00000000    0.00000000
     atom   58 type  1   force =     0.00000000    0.00000000    0.00000000
     atom   59 type  1   force =     0.00000000    0.00000000    0.00000000
     atom   60 type  1   force =     0.00000000    0.00000000    0.00000000
     atom   61 type  1   force =     0.00000000    0.00000000    0.00000000
     atom   62 type  1   force =     0.00000000    0.00000000    0.00000000
     atom   63 type  1   force =     0.00000000    0.00000000    0.00000000
     atom   64 type  1   force =     0.00000000    0.00000000    0.00000000
     atom   65 type  1   force =     0.00000000    0.00000000    0.00000000
     atom   66 type  1   force =     0.00000000    0.00000000    0.00000000
     atom   67 type  1   force =     0.00000000    0.00000000    0.00000000
     atom   68 type  1   force =     0.00000000    0.00000000    0.00000000
     atom   69 type  1   force =     0.00000000    0.00000000    0.00000000
     atom   70 type  1   force =     0.00000000    0.00000000    0.00000000
     atom   71 type  1   force =     0.00000000    0.00000000    0.00000000
     atom   72 type  1   force =     0.00000000    0.00000000    0.00000000
     The SCF correction term to forces
     atom    1 type  1   force =    -0.00007797   -0.00001872   -0.00004121
     atom    2 type  1   force =     0.00006403    0.00012228    0.00003276
     atom    3 type  1   force =     0.00007690   -0.00011848    0.00003624
     atom    4 type  1   force =    -0.00006694    0.00001449   -0.00003842
     atom    5 type  2   force =    -0.00002194   -0.00000382   -0.00000634
     atom    6 type  2   force =     0.00002241    0.00002742    0.00000615
     atom    7 type  2   force =     0.00002372   -0.00002675    0.00000660
     atom    8 type  2   force =    -0.00002054    0.00000303   -0.00000596
     atom    9 type  3   force =     0.00015813   -0.00007418    0.00004315
     atom   10 type  3   force =    -0.00015589    0.00005611   -0.00004567
     atom   11 type  3   force =    -0.00016680   -0.00005137   -0.00004110
     atom   12 type  3   force =     0.00015213    0.00006971    0.00005002
     atom   13 type  4   force =    -0.00005028    0.00007571   -0.00001624
     atom   14 type  4   force =     0.00002215    0.00017345    0.00001713
     atom   15 type  4   force =     0.00003580   -0.00017372    0.00001790
     atom   16 type  4   force =    -0.00004357   -0.00007842   -0.00001532
     atom   17 type  2   force =     0.00002232    0.00000207   -0.00000114
     atom   18 type  2   force =    -0.00002652    0.00002227    0.00000071
     atom   19 type  2   force =    -0.00002350   -0.00002214    0.00000093
     atom   20 type  2   force =     0.00002558   -0.00000270   -0.00000073
     atom   21 type  1   force =     0.00006631   -0.00014373   -0.00000636
     atom   22 type  1   force =    -0.00004796   -0.00008315    0.00000864
     atom   23 type  1   force =    -0.00005348    0.00008813    0.00000703
     atom   24 type  1   force =     0.00006385    0.00013933   -0.00000684
     atom   25 type  2   force =     0.00001173   -0.00001497    0.00000722
     atom   26 type  2   force =    -0.00000823   -0.00000213   -0.00000630
     atom   27 type  2   force =    -0.00000955    0.00000330   -0.00000653
     atom   28 type  2   force =     0.00001139    0.00001376    0.00000749
     atom   29 type  1   force =    -0.00001379    0.00007932    0.00006004
     atom   30 type  1   force =     0.00003068    0.00011176   -0.00005434
     atom   31 type  1   force =     0.00003040   -0.00011315   -0.00005705
     atom   32 type  1   force =    -0.00001494   -0.00007955    0.00005891
     atom   33 type  2   force =    -0.00000104   -0.00000872   -0.00000033
     atom   34 type  2   force =     0.00000665   -0.00000734    0.00000335
     atom   35 type  2   force =     0.00000645    0.00000740    0.00000300
     atom   36 type  2   force =    -0.00000106    0.00000840   -0.00000033
     atom   37 type  1   force =    -0.00009239    0.00002414    0.00000685
     atom   38 type  1   force =     0.00007535    0.00005716   -0.00000966
     atom   39 type  1   force =     0.00007828   -0.00005684   -0.00000973
     atom   40 type  1   force =    -0.00009245   -0.00002279    0.00000589
     atom   41 type  2   force =     0.00000338   -0.00002406   -0.00001254
     atom   42 type  2   force =    -0.00000934   -0.00002226    0.00001291
     atom   43 type  2   force =    -0.00000906    0.00002258    0.00001310
     atom   44 type  2   force =     0.00000340    0.00002400   -0.00001250
     atom   45 type  1   force =    -0.00003496   -0.00013200   -0.00004537
     atom   46 type  1   force =     0.00001391   -0.00007744    0.00003911
     atom   47 type  1   force =     0.00001998    0.00007680    0.00003933
     atom   48 type  1   force =    -0.00003262    0.00013334   -0.00004624
     atom   49 type  2   force =     0.00001565   -0.00001830    0.00000007
     atom   50 type  2   force =    -0.00001871   -0.00000618   -0.00000097
     atom   51 type  2   force =    -0.00001820    0.00000669   -0.00000079
     atom   52 type  2   force =     0.00001677    0.00001803    0.00000021
     atom   53 type  1   force =    -0.00006537   -0.00004527   -0.00002473
     atom   54 type  1   force =     0.00005841    0.00001530    0.00002623
     atom   55 type  1   force =     0.00006142   -0.00001679    0.00002549
     atom   56 type  1   force =    -0.00006821    0.00004470   -0.00002614
     atom   57 type  1   force =    -0.00006802   -0.00009391   -0.00001619
     atom   58 type  1   force =     0.00007916   -0.00002537    0.00001981
     atom   59 type  1   force =     0.00007154    0.00003164    0.00001945
     atom   60 type  1   force =    -0.00007589    0.00008924   -0.00001716
     atom   61 type  1   force =    -0.00005565    0.00010637    0.00000472
     atom   62 type  1   force =     0.00003206    0.00021802   -0.00000683
     atom   63 type  1   force =     0.00003683   -0.00021759   -0.00000641
     atom   64 type  1   force =    -0.00005230   -0.00010616    0.00000431
     atom   65 type  1   force =    -0.00000760    0.00005942    0.00005690
     atom   66 type  1   force =     0.00002093    0.00016022   -0.00004961
     atom   67 type  1   force =     0.00000862   -0.00016493   -0.00005370
     atom   68 type  1   force =    -0.00002007   -0.00005487    0.00005275
     atom   69 type  1   force =    -0.00023429   -0.00001569    0.00003009
     atom   70 type  1   force =     0.00024399    0.00005799   -0.00001956
     atom   71 type  1   force =     0.00023152   -0.00005468   -0.00002194
     atom   72 type  1   force =    -0.00024793    0.00001297    0.00002784

     DFT-D3 dispersion contribution to forces:
     atom    1 type  1   force =     0.00144989   -0.00024622   -0.00030051
     atom    2 type  1   force =    -0.00144989   -0.00024622    0.00030051
     atom    3 type  1   force =    -0.00144989    0.00024622    0.00030051
     atom    4 type  1   force =     0.00144989    0.00024622   -0.00030051
     atom    5 type  2   force =     0.00014646    0.00002988   -0.00009224
     atom    6 type  2   force =    -0.00014646    0.00002988    0.00009224
     atom    7 type  2   force =    -0.00014646   -0.00002988    0.00009224
     atom    8 type  2   force =     0.00014646   -0.00002988   -0.00009224
     atom    9 type  3   force =    -0.00056031    0.00000700    0.00008888
     atom   10 type  3   force =     0.00056031    0.00000700   -0.00008888
     atom   11 type  3   force =     0.00056031   -0.00000700   -0.00008888
     atom   12 type  3   force =    -0.00056031   -0.00000700    0.00008888
     atom   13 type  4   force =     0.00031791    0.00001709   -0.00026183
     atom   14 type  4   force =    -0.00031791    0.00001709    0.00026183
     atom   15 type  4   force =    -0.00031791   -0.00001709    0.00026183
     atom   16 type  4   force =     0.00031791   -0.00001709   -0.00026183
     atom   17 type  2   force =     0.00014494    0.00008726   -0.00008315
     atom   18 type  2   force =    -0.00014494    0.00008726    0.00008315
     atom   19 type  2   force =    -0.00014494   -0.00008726    0.00008315
     atom   20 type  2   force =     0.00014494   -0.00008726   -0.00008315
     atom   21 type  1   force =    -0.00054901    0.00027311   -0.00008251
     atom   22 type  1   force =     0.00054901    0.00027311    0.00008251
     atom   23 type  1   force =     0.00054901   -0.00027311    0.00008251
     atom   24 type  1   force =    -0.00054901   -0.00027311   -0.00008251
     atom   25 type  2   force =     0.00002201    0.00025223    0.00007179
     atom   26 type  2   force =    -0.00002201    0.00025223   -0.00007179
     atom   27 type  2   force =    -0.00002201   -0.00025223   -0.00007179
     atom   28 type  2   force =     0.00002201   -0.00025223    0.00007179
     atom   29 type  1   force =     0.00008800   -0.00037561   -0.00041624
     atom   30 type  1   force =    -0.00008800   -0.00037561    0.00041624
     atom   31 type  1   force =    -0.00008800    0.00037561    0.00041624
     atom   32 type  1   force =     0.00008800    0.00037561   -0.00041624
     atom   33 type  2   force =     0.00035171   -0.00003186    0.00002422
     atom   34 type  2   force =    -0.00035171   -0.00003186   -0.00002422
     atom   35 type  2   force =    -0.00035171    0.00003186   -0.00002422
     atom   36 type  2   force =     0.00035171    0.00003186    0.00002422
     atom   37 type  1   force =     0.00019639   -0.00044499   -0.00092653
     atom   38 type  1   force =    -0.00019639   -0.00044499    0.00092653
     atom   39 type  1   force =    -0.00019639    0.00044499    0.00092653
     atom   40 type  1   force =     0.00019639    0.00044499   -0.00092653
     atom   41 type  2   force =    -0.00025845    0.00002650   -0.00032708
     atom   42 type  2   force =     0.00025845    0.00002650    0.00032708
     atom   43 type  2   force =     0.00025845   -0.00002650    0.00032708
     atom   44 type  2   force =    -0.00025845   -0.00002650   -0.00032708
     atom   45 type  1   force =     0.00050840    0.00064795   -0.00030735
     atom   46 type  1   force =    -0.00050840    0.00064795    0.00030735
     atom   47 type  1   force =    -0.00050840   -0.00064795    0.00030735
     atom   48 type  1   force =     0.00050840   -0.00064795   -0.00030735
     atom   49 type  2   force =     0.00001033    0.00033515   -0.00010470
     atom   50 type  2   force =    -0.00001033    0.00033515    0.00010470
     atom   51 type  2   force =    -0.00001033   -0.00033515    0.00010470
     atom   52 type  2   force =     0.00001033   -0.00033515   -0.00010470
     atom   53 type  1   force =     0.00057177    0.00030604   -0.00011014
     atom   54 type  1   force =    -0.00057177    0.00030604    0.00011014
     atom   55 type  1   force =    -0.00057177   -0.00030604    0.00011014
     atom   56 type  1   force =     0.00057177   -0.00030604   -0.00011014
     atom   57 type  1   force =    -0.00028746    0.00016864   -0.00002674
     atom   58 type  1   force =     0.00028746    0.00016864    0.00002674
     atom   59 type  1   force =     0.00028746   -0.00016864    0.00002674
     atom   60 type  1   force =    -0.00028746   -0.00016864   -0.00002674
     atom   61 type  1   force =     0.00097672   -0.00050191   -0.00039230
     atom   62 type  1   force =    -0.00097672   -0.00050191    0.00039230
     atom   63 type  1   force =    -0.00097672    0.00050191    0.00039230
     atom   64 type  1   force =     0.00097672    0.00050191   -0.00039230
     atom   65 type  1   force =    -0.00065689   -0.00060007   -0.00010449
     atom   66 type  1   force =     0.00065689   -0.00060007    0.00010449
     atom   67 type  1   force =     0.00065689    0.00060007    0.00010449
     atom   68 type  1   force =    -0.00065689    0.00060007   -0.00010449
     atom   69 type  1   force =    -0.00052557   -0.00019378    0.00009518
     atom   70 type  1   force =     0.00052557   -0.00019378   -0.00009518
     atom   71 type  1   force =     0.00052557    0.00019378   -0.00009518
     atom   72 type  1   force =    -0.00052557    0.00019378    0.00009518

     Total force =     2.467399     Total SCF correction =     0.000995

     BFGS Geometry Optimization
     Energy error            =      0.0E+00 Ry
     Gradient error          =      4.7E-01 Ry/Bohr

     number of scf cycles    =   1
     number of bfgs steps    =   0

     energy             new  =   -1044.2677945353 Ry

     new trust radius        =       0.4687818651 bohr
     new conv_thr            =       0.0000010000 Ry


ATOMIC_POSITIONS (angstrom)
C             4.7743187628       28.3638685117        0.1024268694
C             1.6087425423       14.1638714764        1.7299732696
C             0.9418024772        0.0361280603        3.5623738114
C             4.1073789805       14.2361318646        1.9348274465
H             5.9866579833       28.2596769153        0.2388466359
H             0.3964018032       14.0596772166        1.5935535346
H            -0.2705374593        0.1403228282        3.4259542989
H             5.3197187571       14.3403231311        2.0712473401
O            -0.4981054837       26.2541304215        2.4460577730
O             5.5472967839       12.0541245218        3.0511467020
O             6.2142411156        2.1458761806        1.2187470041
O             0.1688377769       16.3458685892        0.6136574257
N             3.3195455692       26.1633339792        2.7834947532
N             1.7296335946       11.9633371895        2.7137060880
N             2.3965724548        2.2366621049        0.8813062245
N             3.9864851257       16.4366663941        0.9510946801
H             4.6171798022       26.1252705270        2.9011229591
H             0.4320006200       11.9252717254        2.5960784294
H             1.0989395209        2.2747283575        0.7636778445
H             5.2841184622       16.4747295065        1.0687222703
C             1.0511230360       24.0024617756        1.4650497429
C             5.3319378247        9.8024635582        0.3673508283
[...]
     atom   60 type  1   force =     0.00000000    0.00000000    0.00000000
     atom   61 type  1   force =     0.00000000    0.00000000    0.00000000
     atom   62 type  1   force =     0.00000000    0.00000000    0.00000000
     atom   63 type  1   force =     0.00000000    0.00000000    0.00000000
     atom   64 type  1   force =     0.00000000    0.00000000    0.00000000
     atom   65 type  1   force =     0.00000000    0.00000000    0.00000000
     atom   66 type  1   force =     0.00000000    0.00000000    0.00000000
     atom   67 type  1   force =     0.00000000    0.00000000    0.00000000
     atom   68 type  1   force =     0.00000000    0.00000000    0.00000000
     atom   69 type  1   force =     0.00000000    0.00000000    0.00000000
     atom   70 type  1   force =     0.00000000    0.00000000    0.00000000
     atom   71 type  1   force =     0.00000000    0.00000000    0.00000000
     atom   72 type  1   force =     0.00000000    0.00000000    0.00000000
     The SCF correction term to forces
     atom    1 type  1   force =     0.00001551   -0.00000936    0.00000744
     atom    2 type  1   force =    -0.00001815    0.00000499   -0.00000933
     atom    3 type  1   force =    -0.00001777   -0.00000492   -0.00000921
     atom    4 type  1   force =     0.00001593    0.00000941    0.00000758
     atom    5 type  2   force =     0.00000288   -0.00000160    0.00000129
     atom    6 type  2   force =    -0.00000260    0.00000113   -0.00000124
     atom    7 type  2   force =    -0.00000249   -0.00000113   -0.00000121
     atom    8 type  2   force =     0.00000297    0.00000162    0.00000130
     atom    9 type  3   force =     0.00001497   -0.00000218    0.00002113
     atom   10 type  3   force =    -0.00000825    0.00001697   -0.00001008
     atom   11 type  3   force =    -0.00000874   -0.00001567   -0.00001063
     atom   12 type  3   force =     0.00001426    0.00000065    0.00002020
     atom   13 type  4   force =     0.00001084   -0.00000534   -0.00000837
     atom   14 type  4   force =    -0.00002044    0.00000560    0.00000587
     atom   15 type  4   force =    -0.00002017   -0.00000565    0.00000616
     atom   16 type  4   force =     0.00001155    0.00000527   -0.00000801
     atom   17 type  2   force =     0.00000024   -0.00000004   -0.00000023
     atom   18 type  2   force =    -0.00000134    0.00000223    0.00000011
     atom   19 type  2   force =    -0.00000127   -0.00000219    0.00000013
     atom   20 type  2   force =     0.00000030    0.00000001   -0.00000021
     atom   21 type  1   force =     0.00001520   -0.00000117    0.00000071
     atom   22 type  1   force =    -0.00001170    0.00000797   -0.00000008
     atom   23 type  1   force =    -0.00001184   -0.00000784   -0.00000008
     atom   24 type  1   force =     0.00001515    0.00000100    0.00000068
     atom   25 type  2   force =     0.00000172    0.00000074   -0.00000019
     atom   26 type  2   force =    -0.00000067    0.00000254    0.00000050
     atom   27 type  2   force =    -0.00000069   -0.00000251    0.00000049
     atom   28 type  2   force =     0.00000168   -0.00000077   -0.00000021
     atom   29 type  1   force =     0.00000821    0.00001141    0.00000782
     atom   30 type  1   force =    -0.00000615    0.00001519   -0.00000620
     atom   31 type  1   force =    -0.00000622   -0.00001519   -0.00000627
     atom   32 type  1   force =     0.00000818   -0.00001148    0.00000777
     atom   33 type  2   force =     0.00000144    0.00000129    0.00000097
     atom   34 type  2   force =    -0.00000052    0.00000134   -0.00000038
     atom   35 type  2   force =    -0.00000053   -0.00000134   -0.00000038
     atom   36 type  2   force =     0.00000143   -0.00000131    0.00000096
     atom   37 type  1   force =    -0.00000327    0.00001412    0.00000633
     atom   38 type  1   force =     0.00000008    0.00001744   -0.00000633
     atom   39 type  1   force =     0.00000017   -0.00001742   -0.00000635
     atom   40 type  1   force =    -0.00000316   -0.00001421    0.00000633
     atom   41 type  2   force =    -0.00000068    0.00000148    0.00000022
     atom   42 type  2   force =    -0.00000016    0.00000171   -0.00000029
     atom   43 type  2   force =    -0.00000014   -0.00000171   -0.00000029
     atom   44 type  2   force =    -0.00000067   -0.00000151    0.00000022
     atom   45 type  1   force =    -0.00000860   -0.00000205   -0.00000217
     atom   46 type  1   force =     0.00000290    0.00000430    0.00000124
     atom   47 type  1   force =     0.00000307   -0.00000413    0.00000127
     atom   48 type  1   force =    -0.00000833    0.00000198   -0.00000216
     atom   49 type  2   force =    -0.00000428    0.00000020   -0.00000063
     atom   50 type  2   force =     0.00000344    0.00000196    0.00000047
     atom   51 type  2   force =     0.00000346   -0.00000192    0.00000047
     atom   52 type  2   force =    -0.00000427   -0.00000025   -0.00000063
     atom   53 type  1   force =     0.00000013   -0.00001329   -0.00000400
     atom   54 type  1   force =    -0.00000174   -0.00000696    0.00000401
     atom   55 type  1   force =    -0.00000168    0.00000706    0.00000407
     atom   56 type  1   force =     0.00000021    0.00001334   -0.00000399
     atom   57 type  1   force =     0.00000434   -0.00000720    0.00000003
     atom   58 type  1   force =    -0.00000239   -0.00000180    0.00000269
     atom   59 type  1   force =    -0.00000235    0.00000190    0.00000269
     atom   60 type  1   force =     0.00000437    0.00000726   -0.00000016
     atom   61 type  1   force =     0.00000224   -0.00001052    0.00000084
     atom   62 type  1   force =    -0.00000636    0.00000309   -0.00000298
     atom   63 type  1   force =    -0.00000627   -0.00000322   -0.00000295
     atom   64 type  1   force =     0.00000242    0.00001053    0.00000098
     atom   65 type  1   force =    -0.00000778   -0.00001264   -0.00001073
     atom   66 type  1   force =     0.00000882    0.00000311    0.00000937
     atom   67 type  1   force =     0.00000858   -0.00000305    0.00000923
     atom   68 type  1   force =    -0.00000790    0.00001251   -0.00001080
     atom   69 type  1   force =    -0.00000678    0.00000220   -0.00000199
     atom   70 type  1   force =     0.00001118    0.00001078    0.00000601
     atom   71 type  1   force =     0.00001106   -0.00001038    0.00000587
     atom   72 type  1   force =    -0.00000686   -0.00000258   -0.00000225

     DFT-D3 dispersion contribution to forces:
     atom    1 type  1   force =     0.00078080   -0.00013123   -0.00023094
     atom    2 type  1   force =    -0.00078114   -0.00013145    0.00023099
     atom    3 type  1   force =    -0.00078116    0.00013147    0.00023099
     atom    4 type  1   force =     0.00078080    0.00013122   -0.00023093
     atom    5 type  2   force =     0.00021172   -0.00000263   -0.00005691
     atom    6 type  2   force =    -0.00021189   -0.00000265    0.00005689
     atom    7 type  2   force =    -0.00021189    0.00000265    0.00005689
     atom    8 type  2   force =     0.00021173    0.00000263   -0.00005691
     atom    9 type  3   force =    -0.00038072    0.00003076    0.00008127
     atom   10 type  3   force =     0.00038091    0.00003074   -0.00008129
     atom   11 type  3   force =     0.00038090   -0.00003074   -0.00008129
     atom   12 type  3   force =    -0.00038073   -0.00003076    0.00008127
     atom   13 type  4   force =     0.00012043    0.00009544   -0.00017287
     atom   14 type  4   force =    -0.00012067    0.00009545    0.00017283
     atom   15 type  4   force =    -0.00012068   -0.00009545    0.00017283
     atom   16 type  4   force =     0.00012044   -0.00009544   -0.00017287
     atom   17 type  2   force =     0.00002509    0.00009947   -0.00008318
     atom   18 type  2   force =    -0.00002518    0.00009947    0.00008317
     atom   19 type  2   force =    -0.00002518   -0.00009947    0.00008317
     atom   20 type  2   force =     0.00002510   -0.00009947   -0.00008318
     atom   21 type  1   force =    -0.00037233    0.00030549   -0.00006286
     atom   22 type  1   force =     0.00037201    0.00030575    0.00006270
     atom   23 type  1   force =     0.00037202   -0.00030574    0.00006270
     atom   24 type  1   force =    -0.00037232   -0.00030550   -0.00006285
     atom   25 type  2   force =    -0.00008713    0.00027740    0.00001531
     atom   26 type  2   force =     0.00008711    0.00027740   -0.00001531
     atom   27 type  2   force =     0.00008710   -0.00027740   -0.00001531
     atom   28 type  2   force =    -0.00008713   -0.00027740    0.00001531
     atom   29 type  1   force =     0.00012003   -0.00028302   -0.00039495
     atom   30 type  1   force =    -0.00011999   -0.00028306    0.00039498
     atom   31 type  1   force =    -0.00012000    0.00028306    0.00039498
     atom   32 type  1   force =     0.00012002    0.00028303   -0.00039496
     atom   33 type  2   force =     0.00031293   -0.00008115   -0.00001766
     atom   34 type  2   force =    -0.00031291   -0.00008118    0.00001768
     atom   35 type  2   force =    -0.00031291    0.00008118    0.00001768
     atom   36 type  2   force =     0.00031292    0.00008115   -0.00001765
     atom   37 type  1   force =     0.00013327   -0.00031651   -0.00079815
     atom   38 type  1   force =    -0.00013323   -0.00031638    0.00079809
     atom   39 type  1   force =    -0.00013323    0.00031638    0.00079809
     atom   40 type  1   force =     0.00013327    0.00031650   -0.00079814
     atom   41 type  2   force =    -0.00021575   -0.00004575   -0.00031607
     atom   42 type  2   force =     0.00021577   -0.00004573    0.00031606
     atom   43 type  2   force =     0.00021577    0.00004573    0.00031606
     atom   44 type  2   force =    -0.00021575    0.00004575   -0.00031607
     atom   45 type  1   force =     0.00032980    0.00063733   -0.00033781
     atom   46 type  1   force =    -0.00032989    0.00063727    0.00033781
     atom   47 type  1   force =    -0.00032988   -0.00063727    0.00033781
     atom   48 type  1   force =     0.00032981   -0.00063732   -0.00033781
     atom   49 type  2   force =     0.00010243    0.00034682   -0.00008487
     atom   50 type  2   force =    -0.00010251    0.00034682    0.00008486
     atom   51 type  2   force =    -0.00010251   -0.00034682    0.00008486
     atom   52 type  2   force =     0.00010244   -0.00034682   -0.00008487
     atom   53 type  1   force =     0.00051902    0.00033632   -0.00015813
     atom   54 type  1   force =    -0.00051829    0.00033645    0.00015818
     atom   55 type  1   force =    -0.00051831   -0.00033642    0.00015819
     atom   56 type  1   force =     0.00051897   -0.00033636   -0.00015812
     atom   57 type  1   force =    -0.00025395    0.00031280    0.00013333
     atom   58 type  1   force =     0.00025406    0.00031248   -0.00013316
     atom   59 type  1   force =     0.00025406   -0.00031248   -0.00013316
     atom   60 type  1   force =    -0.00025395   -0.00031278    0.00013332
     atom   61 type  1   force =     0.00065464   -0.00006659   -0.00007350
     atom   62 type  1   force =    -0.00065390   -0.00006670    0.00007365
     atom   63 type  1   force =    -0.00065392    0.00006666    0.00007363
     atom   64 type  1   force =     0.00065460    0.00006663   -0.00007352
     atom   65 type  1   force =    -0.00038097   -0.00031712    0.00005970
     atom   66 type  1   force =     0.00038114   -0.00031682   -0.00005981
     atom   67 type  1   force =     0.00038114    0.00031683   -0.00005981
     atom   68 type  1   force =    -0.00038097    0.00031710    0.00005971
     atom   69 type  1   force =    -0.00039644   -0.00010823    0.00017993
     atom   70 type  1   force =     0.00039573   -0.00010830   -0.00017997
     atom   71 type  1   force =     0.00039576    0.00010829   -0.00017997
     atom   72 type  1   force =    -0.00039638    0.00010823    0.00017994

     Total force =     0.004950     Total SCF correction =     0.000107
     Energy error            =      2.8E-05 Ry
     Gradient error          =      1.0E-03 Ry/Bohr

     bfgs converged in  23 scf cycles and  21 bfgs steps
     (criteria: energy <  1.0E-04 Ry, force <  1.0E-03 Ry/Bohr)

     End of BFGS Geometry Optimization

     Final energy             =   -1045.5538862137 Ry

     File /scratch/calc/outdir/pwscf.bfgs deleted, as requested
Begin final coordinates

ATOMIC_POSITIONS (angstrom)
C             4.9182530440       28.3198470753        0.1278067716
C             1.4648423513       14.1198591721        1.7045865115
C             0.7979038336        0.0801391590        3.5369874799
C             4.2513102168       14.2801533090        1.9602064170
H             5.9995894233       28.2600089545        0.2453555418
H             0.3834554406       14.0599971632        1.5870418158
H            -0.2834815874        0.1400037296        3.4194441349
H             5.3326496045       14.3399896121        2.0777567020
O            -0.5588726879       26.2329080337        2.4419044395
O             5.6079100222       12.0328924767        3.0552822515
O             6.2748576076        2.1671070130        1.2228804032
O             0.1080780915       16.3670958715        0.6095053365
N             3.5465375943       26.1231137680        2.8200779271
N             1.5027308703       11.9230996559        2.6771278381
N             2.1696731296        2.2768988962        0.8447287397
N             4.2134741528       16.4768861481        0.9876777415
H             4.5766172342       26.1320404345        2.8372466705
H             0.4725176169       11.9320302766        2.6599518184
H             1.1394594824        2.2679692623        0.8275529670
H             5.2435581725       16.4679587074        1.0048476299
C             0.8777511356       23.9779916813        1.4350925793
C             5.5053117868        9.7779536693        0.3973231566
C             4.8383755562        4.4220449920        2.2297240620
C             0.2108130954       18.6220115478        3.2674924774
H            -0.2046742883       24.0160512255        1.3078556522
H             6.5877320421        9.8160446046        0.5245439912
H             5.9207946424        4.3839556483        2.3569448654
H            -0.8716119274       18.5839501341        3.1402561451
C             1.6190387758       22.9063674056        0.9827747358
C             4.7640332260        8.7063826319        0.8496172095
C             4.0970950151        5.4936185280        2.6820192288
C             0.9521006314       19.6936314755        2.8151766718
H             1.1380908408       22.0699359000        0.4762665434
H             5.2449724181        7.8699232864        1.3561427693
H             4.5780350417        6.3300763258        3.1885433358
H             0.4711539995       20.5300650913        2.3086663949
C             3.0179347583       22.9020441585        1.1629926022
C             3.3651111408        8.7020271540        0.6694126470
C             2.6981743681        5.4979720546        2.5018140646
C             2.3509981781       19.6979561282        2.9953941352
H             3.6052832429       22.0599844542        0.7948457374
H             2.7777792398        7.8599807917        1.0375578825
H             2.1108418604        6.3400187752        2.8699588723
H             2.9383463560       20.5400151926        2.6272469131
C             3.6559081614       23.9604577321        1.7798191107
C             2.7271692840        9.7604561827        0.0525805346
C             2.0602316601        4.4395431825        1.8849826515
C             2.9889687385       18.6395416425        3.6122208032
H             4.7390625197       23.9750440711        1.9098798031
H             0.3101095164        9.7750354275        3.5873227362
H             0.9770511953        4.4249632423        1.7549232713
H             5.4060038581       18.6249553873        0.0774801989
C             2.9066927867       25.0675112973        2.2305003668
C             2.1424400661       10.8675045270        3.2666931487
C             2.8093821216        3.3324943848        1.4342941879
C             3.5736347480       17.5324898245        0.3981002806
C             1.4927588052       25.0744160018        2.0723890132
C             3.5564170725       10.8744220771        3.4248015749
C             4.2233590187        3.3255775011        1.5924019276
C             2.1596995018       17.5255836218        0.2399898979
C             2.8764421644       27.2473274323        3.2447804178
C             2.1727014694       13.0473095094        2.2524185731
C             2.8396439592        1.1526923223        0.4200204454
C             3.5433829977       15.3526709257        1.4123806221
C             1.4553485043       27.3233584976        3.1222266873
C             3.5938126965       13.1233227523        2.3749817173
C             4.2607529584        1.0766768881        0.5425814324
C             2.1222863090       15.2766425481        1.2898252894
C             0.6934177003       26.2047280611        2.5411228150
C             4.3559365915       12.0047260692        2.9560871845
C             5.0228708749        2.1952741648        1.1236859526
C             1.3603418484       16.3952731506        0.7087215037
End final coordinates



     Writing all to output data dir /scratch/calc/outdir/pwscf.save/
 
     init_run     :      2.60s CPU      2.78s WALL (       1 calls)
     electrons    :    312.88s CPU    356.45s WALL (      23 calls)
     update_pot   :     40.79s CPU     41.46s WALL (      22 calls)
     forces       :     44.62s CPU     50.91s WALL (      23 calls)
     force_dftd3  :      8.40s CPU     13.10s WALL (      23 calls)

     Called by init_run:
     wfcinit      :      0.56s CPU      0.61s WALL (       1 calls)
     potinit      :      0.67s CPU      0.71s WALL (       1 calls)
     hinit0       :      1.12s CPU      1.14s WALL (       1 calls)

     Called by electrons:
     c_bands      :    231.85s CPU    257.68s WALL (     203 calls)
     sum_band     :     46.31s CPU     55.98s WALL (     203 calls)
     v_of_rho     :     14.62s CPU     17.63s WALL (     215 calls)
     newd         :      7.19s CPU      8.14s WALL (     215 calls)
     PAW_pot      :     11.00s CPU     11.88s WALL (     237 calls)
     mix_rho      :      1.57s CPU      1.71s WALL (     203 calls)
     energy_dftd3 :      2.61s CPU      5.15s WALL (      23 calls)

     Called by c_bands:
     init_us_2    :      2.99s CPU      3.03s WALL (     904 calls)
     init_us_2:cp :      2.98s CPU      3.02s WALL (     904 calls)
     cegterg      :    211.99s CPU    224.48s WALL (     406 calls)

     Called by *egterg:
     cdiaghg      :     28.91s CPU     29.02s WALL (    1668 calls)
     h_psi        :    127.66s CPU    135.25s WALL (    1736 calls)
     s_psi        :     13.84s CPU     13.90s WALL (    1736 calls)
     g_psi        :      0.44s CPU      0.44s WALL (    1328 calls)

     Called by h_psi:
     h_psi:calbec :     13.69s CPU     14.65s WALL (    1736 calls)
     vloc_psi     :     99.10s CPU    105.59s WALL (    1736 calls)
     add_vuspsi   :     13.81s CPU     13.89s WALL (    1736 calls)

     General routines
     calbec       :     21.94s CPU     23.90s WALL (    2370 calls)
     fft          :      9.14s CPU     13.03s WALL (    3035 calls)
     ffts         :      0.38s CPU      0.54s WALL (     418 calls)
     fftw         :     86.66s CPU     93.05s WALL (  336550 calls)
     interpolate  :      1.00s CPU      1.39s WALL (     215 calls)
 
     Parallel routines
 
     PWSCF        :   6m45.02s CPU   7m38.90s WALL

 
   This run was terminated on:  22:23:46   7Mar2024            

=------------------------------------------------------------------------------=
   JOB DONE.
=------------------------------------------------------------------------------=
