
     Program PWSCF v.7.3 starts on 19Mar2024 at 15:25: 4 

     This program is part of the open-source Quantum ESPRESSO suite
     for quantum simulation of materials; please cite
         "P. Giannozzi et al., J. Phys.:Condens. Matter 21 395502 (2009);
         "P. Giannozzi et al., J. Phys.:Condens. Matter 29 465901 (2017);
         "P. Giannozzi et al., J. Chem. Phys. 152 154105 (2020);
          URL http://www.quantum-espresso.org", 
     in publications or presentations arising from this work. More details at
     http://www.quantum-espresso.org/quote

     Parallel version (MPI & OpenMP), running on      36 processor cores
     Number of MPI processes:                36
     Threads/MPI process:                     1

     MPI processes distributed on     1 nodes
     551240 MiB available memory on the printing compute node when the environment starts
 
     Waiting for input...
     Reading input from standard input
Warning: card &CELL ignored
Warning: card / ignored

     Current dimensions of program PWSCF are:
     Max number of different atomic species (ntypx) = 10
     Max number of k-points (npk) =  40000
     Max angular momentum in pseudopotentials (lmaxx) =  4
     file Mo.pbe-spn-kjpaw_psl.1.0.0.UPF: wavefunction(s)  4S 4D renormalized
     file S.pbe-n-kjpaw_psl.1.0.0.UPF: wavefunction(s)  3S 3P renormalized
     file Pd.pbe-spn-kjpaw_psl.1.0.0.UPF: wavefunction(s)  4S 5S 4D renormalized
     file Pt.pbe-spfn-kjpaw_psl.1.0.0.UPF: wavefunction(s)  5P 4F renormalized
 
     R & G space division:  proc/nbgrp/npool/nimage =      36
     Subspace diagonalization in iterative solution of the eigenvalue problem:
     one sub-group per band group will be used
     scalapack distributed-memory algorithm (size of sub-group:  6*  6 procs)

 
     Parallelization info
     --------------------
     sticks:   dense  smooth     PW     G-vecs:    dense   smooth      PW
     Min         585     334     89               198743    85850   11735
     Max         586     335     90               198750    85861   11748
     Sum       21073   12049   3205              7154885  3090769  422587
 
     Using Slab Decomposition
 


     bravais-lattice index     =            0
     lattice parameter (alat)  =      23.8199  a.u.
     unit-cell volume          =   33861.0370 (a.u.)^3
     number of atoms/cell      =          194
     number of atomic types    =            4
     number of electrons       =      1714.00
     number of Kohn-Sham states=         1028
     kinetic-energy cutoff     =      77.0000  Ry
     charge density cutoff     =     539.0000  Ry
     scf convergence threshold =      1.0E-06
     mixing beta               =       0.2000
     number of iterations used =            8  plain     mixing
     energy convergence thresh.=      1.0E-04
     force convergence thresh. =      1.0E-03
     Exchange-correlation= SLA  PW   PBX  PBC
                           (   1   4   3   4   0   0   0)
     nstep                     =         1000


     Effective Screening Medium Method
     =================================
     Boundary Conditions: Vacuum-Slab-Vacuum
     total charge in unit cell        =   0.0000
     grid points for fit at edges     =        4 
 

     celldm(1)=  23.819920  celldm(2)=   0.000000  celldm(3)=   0.000000
     celldm(4)=   0.000000  celldm(5)=   0.000000  celldm(6)=   0.000000

     crystal axes: (cart. coord. in units of alat)
               a(1) = (   1.000000   0.000000   0.000000 )  
               a(2) = (  -0.499999   0.866026   0.000000 )  
               a(3) = (   0.000000   0.000000   2.893000 )  

     reciprocal axes: (cart. coord. in units 2 pi/alat)
               b(1) = (  1.000000  0.577349  0.000000 )  
               b(2) = (  0.000000  1.154700  0.000000 )  
               b(3) = (  0.000000  0.000000  0.345662 )  


     PseudoPot. # 1 for Mo read from file:
     ./pseudo/Mo.pbe-spn-kjpaw_psl.1.0.0.UPF
     MD5 check sum: 317bf72632116215fd98f72de1686f13
     Pseudo is Projector augmented-wave + core cor, Zval = 14.0
     Generated using 'atomic' code by A. Dal Corso  v.7.2
     Shape of augmentation charge: PSQ
     Using radial grid of 1229 points,  6 beta functions with: 
                l(1) =   0
                l(2) =   0
                l(3) =   1
                l(4) =   1
                l(5) =   2
                l(6) =   2
     Q(r) pseudized with 0 coefficients 


     PseudoPot. # 2 for S  read from file:
     ./pseudo/S.pbe-n-kjpaw_psl.1.0.0.UPF
     MD5 check sum: 8b7b5302570d38d5e87fed6a1065abda
     Pseudo is Projector augmented-wave + core cor, Zval =  6.0
     Generated using 'atomic' code by A. Dal Corso  v.7.2
     Shape of augmentation charge: PSQ
     Using radial grid of 1151 points,  6 beta functions with: 
                l(1) =   0
                l(2) =   0
                l(3) =   1
                l(4) =   1
                l(5) =   2
                l(6) =   2
     Q(r) pseudized with 0 coefficients 


     PseudoPot. # 3 for Pd read from file:
     ./pseudo/Pd.pbe-spn-kjpaw_psl.1.0.0.UPF
     MD5 check sum: a60571a671f2502b8a6a4569d20a6edb
     Pseudo is Projector augmented-wave + core cor, Zval = 18.0
     Generated using 'atomic' code by A. Dal Corso  v.7.2
     Shape of augmentation charge: PSQ
     Using radial grid of 1235 points,  6 beta functions with: 
                l(1) =   0
                l(2) =   0
                l(3) =   1
                l(4) =   1
                l(5) =   2
                l(6) =   2
     Q(r) pseudized with 0 coefficients 


     PseudoPot. # 4 for Pt read from file:
     ./pseudo/Pt.pbe-spfn-kjpaw_psl.1.0.0.UPF
     MD5 check sum: 620096ebf4e6ebacc94de60fd67efcb5
     Pseudo is Projector augmented-wave + core cor, Zval = 32.0
     Generated using 'atomic' code by A. Dal Corso  v.7.2
     Shape of augmentation charge: PSQ
     Using radial grid of 1277 points,  8 beta functions with: 
                l(1) =   0
                l(2) =   0
                l(3) =   1
                l(4) =   1
                l(5) =   2
                l(6) =   2
                l(7) =   3
                l(8) =   3
     Q(r) pseudized with 0 coefficients 


     atomic species   valence    mass     pseudopotential
     Mo               14.00    95.95000     Mo( 1.00)
     S                 6.00    32.06000     S ( 1.00)
     Pd               18.00   106.42000     Pd( 1.00)
     Pt               32.00   195.08400     Pt( 1.00)

     No symmetry found



   Cartesian axes

     site n.     atom                  positions (alat units)
         1        Mo     tau(   1) = (   0.0000010   0.1443372  -0.7272732  )
         2        Mo     tau(   2) = (   0.1249995   0.0721706  -0.2424038  )
         3        S      tau(   3) = (   0.0000015   0.1443386  -0.3667807  )
         4        S      tau(   4) = (   0.1250010   0.0721682  -0.6030489  )
         5        S      tau(   5) = (   0.1250010   0.0721683  -0.8514963  )
         6        S      tau(   6) = (   0.0000015   0.1443389  -0.1180260  )
         7        Mo     tau(   7) = (   0.0000007   0.1443589   0.2424205  )
         8        Mo     tau(   8) = (   0.1250041   0.0720322   0.7266168  )
         9        S      tau(   9) = (   0.0000742   0.1444871   0.6020949  )
        10        S      tau(  10) = (   0.1250024   0.0721701   0.3667478  )
        11        S      tau(  11) = (   0.1250035   0.0721876   0.1180348  )
        12        S      tau(  12) = (  -0.0004118   0.1430864   0.8514340  )
        13        Mo     tau(  13) = (  -0.1249989   0.3608437  -0.7272732  )
        14        Mo     tau(  14) = (   0.0000030   0.2886752  -0.2424042  )
        15        S      tau(  15) = (  -0.1249977   0.3608450  -0.3667802  )
        16        S      tau(  16) = (   0.0000012   0.2886747  -0.6030489  )
        17        S      tau(  17) = (   0.0000012   0.2886748  -0.8514963  )
        18        S      tau(  18) = (  -0.1249977   0.3608454  -0.1180274  )
        19        Mo     tau(  19) = (  -0.1249729   0.3608584   0.2424608  )
        20        Mo     tau(  20) = (  -0.0007193   0.2876626   0.7275440  )
        21        S      tau(  21) = (  -0.1251115   0.3607789   0.6027257  )
        22        S      tau(  22) = (   0.0000621   0.2887099   0.3668377  )
        23        S      tau(  23) = (  -0.0000096   0.2886902   0.1180527  )
        24        S      tau(  24) = (  -0.1254673   0.3605734   0.8517408  )
        25        Mo     tau(  25) = (  -0.2499987   0.5773502  -0.7272732  )
        26        Mo     tau(  26) = (  -0.1249977   0.5051839  -0.2424055  )
        27        S      tau(  27) = (  -0.2499981   0.5773518  -0.3667809  )
        28        S      tau(  28) = (  -0.1249986   0.5051812  -0.6030489  )
        29        S      tau(  29) = (  -0.1249986   0.5051813  -0.8514963  )
        30        S      tau(  30) = (  -0.2499979   0.5773512  -0.1180266  )
        31        Mo     tau(  31) = (  -0.2499795   0.5773389   0.2424205  )
        32        Mo     tau(  32) = (  -0.1262356   0.5050639   0.7275441  )
        33        S      tau(  33) = (  -0.2498323   0.5773390   0.6020948  )
        34        S      tau(  34) = (  -0.1249376   0.5052159   0.3668377  )
        35        S      tau(  35) = (  -0.1249905   0.5051638   0.1180531  )
        36        S      tau(  36) = (  -0.2512883   0.5776183   0.8514340  )
        37        Mo     tau(  37) = (  -0.3749985   0.7938567  -0.7272732  )
        38        Mo     tau(  38) = (  -0.2500001   0.7216874  -0.2424031  )
        39        S      tau(  39) = (  -0.3749980   0.7938584  -0.3667800  )
        40        S      tau(  40) = (  -0.2499984   0.7216877  -0.6030489  )
        41        S      tau(  41) = (  -0.2499984   0.7216878  -0.8514963  )
        42        S      tau(  42) = (  -0.3749982   0.7938585  -0.1180264  )
        43        Mo     tau(  43) = (  -0.3749962   0.7938568   0.2423838  )
        44        Mo     tau(  44) = (  -0.2501148   0.7217588   0.7266170  )
        45        S      tau(  45) = (  -0.3749945   0.7938590   0.6021274  )
        46        S      tau(  46) = (  -0.2499958   0.7216877   0.3667488  )
        47        S      tau(  47) = (  -0.2499810   0.7216794   0.1180323  )
        48        S      tau(  48) = (  -0.3749953   0.7938585   0.8511588  )
        49        Mo     tau(  49) = (   0.2500010   0.1443372  -0.7272732  )
        50        Mo     tau(  50) = (   0.3750034   0.0721723  -0.2424032  )
        51        S      tau(  51) = (   0.2500017   0.1443391  -0.3667788  )
        52        S      tau(  52) = (   0.3750010   0.0721682  -0.6030489  )
        53        S      tau(  53) = (   0.3750010   0.0721683  -0.8514963  )
        54        S      tau(  54) = (   0.2500016   0.1443391  -0.1180271  )
        55        Mo     tau(  55) = (   0.2500054   0.1443594   0.2424211  )
        56        Mo     tau(  56) = (   0.3749279   0.0721263   0.7263991  )
        57        S      tau(  57) = (   0.2499344   0.1444864   0.6020948  )
        58        S      tau(  58) = (   0.3750316   0.0721860   0.3667597  )
        59        S      tau(  59) = (   0.3749924   0.0721644   0.1180346  )
        60        S      tau(  60) = (   0.2504199   0.1430865   0.8514340  )
        61        Mo     tau(  61) = (   0.1250012   0.3608437  -0.7272732  )
        62        Mo     tau(  62) = (   0.2500029   0.2886782  -0.2424031  )
        63        S      tau(  63) = (   0.1250024   0.3608455  -0.3667794  )
        64        S      tau(  64) = (   0.2500012   0.2886747  -0.6030489  )
        65        S      tau(  65) = (   0.2500012   0.2886748  -0.8514963  )
        66        S      tau(  66) = (   0.1250021   0.3608455  -0.1180270  )
        67        Mo     tau(  67) = (   0.1250038   0.3608653   0.2423963  )
        68        Mo     tau(  68) = (   0.2507284   0.2876625   0.7275438  )
        69        S      tau(  69) = (   0.1250046   0.3627170   0.6061948  )
        70        S      tau(  70) = (   0.2499461   0.2887116   0.3668373  )
        71        S      tau(  71) = (   0.2500171   0.2886900   0.1180543  )
        72        S      tau(  72) = (   0.1250046   0.3519103   0.8557806  )
        73        Mo     tau(  73) = (   0.0000014   0.5773502  -0.7272732  )
        74        Mo     tau(  74) = (   0.1250045   0.5051840  -0.2424036  )
        75        S      tau(  75) = (   0.0000030   0.5773520  -0.3667799  )
        76        S      tau(  76) = (   0.1250014   0.5051812  -0.6030489  )
        77        S      tau(  77) = (   0.1250014   0.5051813  -0.8514963  )
        78        S      tau(  78) = (   0.0000026   0.5773517  -0.1180274  )
        79        Mo     tau(  79) = (   0.0000222   0.5773400   0.2423964  )
        80        Mo     tau(  80) = (   0.1250047   0.5051836   0.7321380  )
        81        S      tau(  81) = (   0.0016251   0.5764170   0.6061946  )
        82        S      tau(  82) = (   0.1250047   0.5051815   0.3667777  )
        83        S      tau(  83) = (   0.1250048   0.5051819   0.1179962  )
        84        S      tau(  84) = (  -0.0077335   0.5818202   0.8557807  )
        85        Mo     tau(  85) = (  -0.1249984   0.7938567  -0.7272732  )
        86        Mo     tau(  86) = (   0.0000069   0.7216896  -0.2424039  )
        87        S      tau(  87) = (  -0.1249975   0.7938582  -0.3667782  )
        88        S      tau(  88) = (   0.0000016   0.7216877  -0.6030489  )
        89        S      tau(  89) = (   0.0000016   0.7216878  -0.8514963  )
        90        S      tau(  90) = (  -0.1249973   0.7938582  -0.1180279  )
        91        Mo     tau(  91) = (  -0.1249774   0.7938494   0.2424207  )
        92        Mo     tau(  92) = (  -0.0005116   0.7228241   0.7275438  )
        93        S      tau(  93) = (  -0.1249026   0.7937246   0.6020948  )
        94        S      tau(  94) = (   0.0000043   0.7216209   0.3668361  )
        95        S      tau(  95) = (   0.0000226   0.7216928   0.1180549  )
        96        S      tau(  96) = (  -0.1258721   0.7948451   0.8514341  )
        97        Mo     tau(  97) = (   0.5000010   0.1443372  -0.7272732  )
        98        Mo     tau(  98) = (   0.6250001   0.0721662  -0.2424040  )
        99        S      tau(  99) = (   0.5000017   0.1443386  -0.3667801  )
       100        S      tau( 100) = (   0.6250010   0.0721682  -0.6030489  )
       101        S      tau( 101) = (   0.6250010   0.0721683  -0.8514963  )
       102        S      tau( 102) = (   0.5000020   0.1443388  -0.1180261  )
       103        Mo     tau( 103) = (   0.5000075   0.1443411   0.2423793  )
       104        Mo     tau( 104) = (   0.6250042   0.0723339   0.7270464  )
       105        S      tau( 105) = (   0.5002366   0.1444733   0.6023595  )
       106        S      tau( 106) = (   0.6250029   0.0721787   0.3667562  )
       107        S      tau( 107) = (   0.6250040   0.0721260   0.1180315  )
       108        S      tau( 108) = (   0.4998752   0.1442648   0.8512770  )
       109        Mo     tau( 109) = (   0.3750012   0.3608437  -0.7272732  )
       110        Mo     tau( 110) = (   0.4999991   0.2886761  -0.2424038  )
       111        S      tau( 111) = (   0.3750012   0.3608452  -0.3667804  )
       112        S      tau( 112) = (   0.5000012   0.2886747  -0.6030489  )
       113        S      tau( 113) = (   0.5000012   0.2886748  -0.8514963  )
       114        S      tau( 114) = (   0.3750014   0.3608455  -0.1180261  )
       115        Mo     tau( 115) = (   0.3749795   0.3608597   0.2424601  )
       116        Mo     tau( 116) = (   0.5001461   0.2885951   0.7270464  )
       117        S      tau( 117) = (   0.3751205   0.3607791   0.6027254  )
       118        S      tau( 118) = (   0.5000105   0.2886721   0.3667569  )
       119        S      tau( 119) = (   0.4999655   0.2886989   0.1180297  )
       120        S      tau( 120) = (   0.3754765   0.3605739   0.8517402  )
       121        Mo     tau( 121) = (   0.2500014   0.5773502  -0.7272732  )
       122        Mo     tau( 122) = (   0.3749983   0.5051825  -0.2424043  )
       123        S      tau( 123) = (   0.2500017   0.5773519  -0.3667810  )
       124        S      tau( 124) = (   0.3750014   0.5051812  -0.6030489  )
       125        S      tau( 125) = (   0.3750014   0.5051813  -0.8514963  )
       126        S      tau( 126) = (   0.2500018   0.5773519  -0.1180256  )
       127        Mo     tau( 127) = (   0.2499863   0.5773402   0.2423965  )
       128        Mo     tau( 128) = (   0.3762454   0.5050642   0.7275433  )
       129        S      tau( 129) = (   0.2483844   0.5764169   0.6061944  )
       130        S      tau( 130) = (   0.3749442   0.5052158   0.3668400  )
       131        S      tau( 131) = (   0.3749972   0.5051650   0.1180510  )
       132        S      tau( 132) = (   0.2577438   0.5818204   0.8557797  )
       133        Mo     tau( 133) = (   0.1250016   0.7938567  -0.7272732  )
       134        Mo     tau( 134) = (   0.2499995   0.7216883  -0.2424036  )
       135        S      tau( 135) = (   0.1250024   0.7938578  -0.3667813  )
       136        S      tau( 136) = (   0.2500016   0.7216877  -0.6030489  )
       137        S      tau( 137) = (   0.2500016   0.7216878  -0.8514963  )
       138        S      tau( 138) = (   0.1250024   0.7938579  -0.1180253  )
       139        Mo     tau( 139) = (   0.1250047   0.7938294   0.2424606  )
       140        Mo     tau( 140) = (   0.2505220   0.7228241   0.7275433  )
       141        S      tau( 141) = (   0.1250053   0.7939926   0.6027252  )
       142        S      tau( 142) = (   0.2500048   0.7216200   0.3668387  )
       143        S      tau( 143) = (   0.2499864   0.7216915   0.1180524  )
       144        S      tau( 144) = (   0.1250054   0.7944033   0.8517402  )
       145        Mo     tau( 145) = (   0.7500010   0.1443372  -0.7272732  )
       146        Mo     tau( 146) = (   0.8750038   0.0721696  -0.2424038  )
       147        S      tau( 147) = (   0.7500016   0.1443382  -0.3667789  )
       148        S      tau( 148) = (   0.8750010   0.0721682  -0.6030489  )
       149        S      tau( 149) = (   0.8750010   0.0721683  -0.8514963  )
       150        S      tau( 150) = (   0.7500016   0.1443384  -0.1180279  )
       151        Mo     tau( 151) = (   0.7499986   0.1443409   0.2423802  )
       152        Mo     tau( 152) = (   0.8750804   0.0721266   0.7263988  )
       153        S      tau( 153) = (   0.7497713   0.1444738   0.6023592  )
       154        S      tau( 154) = (   0.8749758   0.0721848   0.3667595  )
       155        S      tau( 155) = (   0.8750127   0.0721632   0.1180342  )
       156        S      tau( 156) = (   0.7501331   0.1442647   0.8512770  )
       157        Mo     tau( 157) = (   0.6250012   0.3608437  -0.7272732  )
       158        Mo     tau( 158) = (   0.7500028   0.2886769  -0.2424041  )
       159        S      tau( 159) = (   0.6250015   0.3608451  -0.3667792  )
       160        S      tau( 160) = (   0.7500012   0.2886747  -0.6030489  )
       161        S      tau( 161) = (   0.7500012   0.2886748  -0.8514963  )
       162        S      tau( 162) = (   0.6250016   0.3608454  -0.1180280  )
       163        Mo     tau( 163) = (   0.6250032   0.3608391   0.2423797  )
       164        Mo     tau( 164) = (   0.7498627   0.2885951   0.7270467  )
       165        S      tau( 165) = (   0.6250046   0.3605769   0.6023590  )
       166        S      tau( 166) = (   0.7499943   0.2886711   0.3667569  )
       167        S      tau( 167) = (   0.7500399   0.2886970   0.1180318  )
       168        S      tau( 168) = (   0.6250043   0.3609947   0.8512770  )
       169        Mo     tau( 169) = (   0.5000014   0.5773502  -0.7272732  )
       170        Mo     tau( 170) = (   0.6250029   0.5051841  -0.2424047  )
       171        S      tau( 171) = (   0.5000014   0.5773518  -0.3667794  )
       172        S      tau( 172) = (   0.6250014   0.5051812  -0.6030489  )
       173        S      tau( 173) = (   0.6250014   0.5051813  -0.8514963  )
       174        S      tau( 174) = (   0.5000016   0.5773516  -0.1180277  )
       175        Mo     tau( 175) = (   0.4999855   0.5773383   0.2424207  )
       176        Mo     tau( 176) = (   0.6250049   0.5052713   0.7263986  )
       177        S      tau( 177) = (   0.4998428   0.5773389   0.6020941  )
       178        S      tau( 178) = (   0.6250030   0.5051500   0.3667588  )
       179        S      tau( 179) = (   0.6250025   0.5051935   0.1180351  )
       180        S      tau( 180) = (   0.5012979   0.5776190   0.8514332  )
       181        Mo     tau( 181) = (   0.3750016   0.7938567  -0.7272732  )
       182        Mo     tau( 182) = (   0.5000025   0.7216901  -0.2424039  )
       183        S      tau( 183) = (   0.3750019   0.7938578  -0.3667793  )
       184        S      tau( 184) = (   0.5000016   0.7216877  -0.6030489  )
       185        S      tau( 185) = (   0.5000016   0.7216878  -0.8514963  )
       186        S      tau( 186) = (   0.3750020   0.7938579  -0.1180272  )
       187        Mo     tau( 187) = (   0.3749848   0.7938487   0.2424206  )
       188        Mo     tau( 188) = (   0.5001249   0.7217591   0.7266160  )
       189        S      tau( 189) = (   0.3749125   0.7937251   0.6020942  )
       190        S      tau( 190) = (   0.5000021   0.7216868   0.3667472  )
       191        S      tau( 191) = (   0.4999874   0.7216780   0.1180346  )
       192        S      tau( 192) = (   0.3758826   0.7948451   0.8514332  )
       193        Pd     tau( 193) = (   0.1250063   0.5051842   0.9601361  )
       194        Pt     tau( 194) = (   0.6249921   0.0723525   0.9702531  )

     --------------------------------------------
     DFT-D3 Dispersion Correction (3-body terms):
     --------------------------------------------
       Reference C6 values for interpolation: 

         atom   Coordination number   C6
         S          0.000           268.01
         S          0.995           261.99
         S          1.990           251.62
         Mo         0.000          1691.79
         Mo         1.942          1004.01
         Mo        11.056           674.22
         Pd         0.000          1217.01
         Pd         1.863           573.90
         Pd         5.710           531.75
         Pt         0.000           782.29
         Pt         1.919           692.72
         Pt         6.667           673.75

       Values used:

         atom   Coordination number  R0_AB[au]  C6      C8
         Mo        10.208            3.547    674.21  77634.20
         Mo        10.221            3.547    674.22  77634.20
         S          3.858            3.128    251.62  12327.25
         S          3.859            3.128    251.62  12327.25
         S          3.758            3.128    251.62  12327.25
         S          3.859            3.128    251.62  12327.25
         Mo        10.220            3.547    674.22  77634.20
         Mo        10.234            3.547    674.22  77634.20
         S          3.847            3.128    251.62  12327.25
         S          3.861            3.128    251.62  12327.25
         S          3.859            3.128    251.62  12327.25
         S          3.806            3.128    251.62  12327.25
         Mo        10.208            3.547    674.22  77634.20
         Mo        10.221            3.547    674.22  77634.20
         S          3.858            3.128    251.62  12327.25
         S          3.859            3.128    251.62  12327.25
         S          3.758            3.128    251.62  12327.25
         S          3.859            3.128    251.62  12327.25
         Mo        10.221            3.547    674.22  77634.20
         Mo        10.191            3.547    674.22  77634.20
         S          3.855            3.128    251.62  12327.25
         S          3.856            3.128    251.62  12327.25
         S          3.859            3.128    251.62  12327.25
         S          3.757            3.128    251.62  12327.25
         Mo        10.208            3.547    674.22  77634.20
         Mo        10.221            3.547    674.22  77634.20
         S          3.858            3.128    251.62  12327.25
         S          3.859            3.128    251.62  12327.25
         S          3.758            3.128    251.62  12327.25
         S          3.859            3.128    251.62  12327.25
         Mo        10.220            3.547    674.22  77634.20
         Mo        10.191            3.547    674.22  77634.20
         S          3.847            3.128    251.62  12327.25
         S          3.856            3.128    251.62  12327.25
         S          3.859            3.128    251.62  12327.25
         S          3.805            3.128    251.62  12327.25
         Mo        10.208            3.547    674.22  77634.20
         Mo        10.221            3.547    674.22  77634.20
         S          3.858            3.128    251.62  12327.25
         S          3.859            3.128    251.62  12327.25
         S          3.758            3.128    251.62  12327.25
         S          3.859            3.128    251.62  12327.25
         Mo        10.219            3.547    674.22  77634.20
         Mo        10.234            3.547    674.22  77634.20
         S          3.856            3.128    251.62  12327.25
         S          3.861            3.128    251.62  12327.25
         S          3.859            3.128    251.62  12327.25
         S          3.782            3.128    251.62  12327.25
         Mo        10.208            3.547    674.22  77634.20
         Mo        10.221            3.547    674.22  77634.20
         S          3.858            3.128    251.62  12327.25
         S          3.859            3.128    251.62  12327.25
         S          3.758            3.128    251.62  12327.25
         S          3.859            3.128    251.62  12327.25
         Mo        10.220            3.547    674.22  77634.20
         Mo        10.254            3.547    674.22  77634.20
         S          3.847            3.128    251.62  12327.25
         S          3.860            3.128    251.62  12327.25
         S          3.859            3.128    251.62  12327.25
         S          3.806            3.128    251.62  12327.25
         Mo        10.208            3.547    674.22  77634.20
         Mo        10.221            3.547    674.22  77634.20
         S          3.858            3.128    251.62  12327.25
         S          3.859            3.128    251.62  12327.25
         S          3.758            3.128    251.62  12327.25
         S          3.859            3.128    251.62  12327.25
         Mo        10.222            3.547    674.22  77634.20
         Mo        10.191            3.547    674.22  77634.20
         S          3.865            3.128    251.62  12327.25
         S          3.856            3.128    251.62  12327.25
         S          3.859            3.128    251.62  12327.25
         S          4.653            3.128    251.62  12327.25
         Mo        10.208            3.547    674.22  77634.20
         Mo        10.221            3.547    674.22  77634.20
         S          3.858            3.128    251.62  12327.25
         S          3.859            3.128    251.62  12327.25
         S          3.758            3.128    251.62  12327.25
         S          3.859            3.128    251.62  12327.25
         Mo        10.222            3.547    674.22  77634.20
         Mo        10.821            3.547    674.22  77634.20
         S          3.865            3.128    251.62  12327.25
         S          3.853            3.128    251.62  12327.25
         S          3.859            3.128    251.62  12327.25
         S          4.654            3.128    251.62  12327.25
         Mo        10.208            3.547    674.22  77634.20
         Mo        10.221            3.547    674.22  77634.20
         S          3.858            3.128    251.62  12327.25
         S          3.859            3.128    251.62  12327.25
         S          3.758            3.128    251.62  12327.25
         S          3.859            3.128    251.62  12327.25
         Mo        10.220            3.547    674.22  77634.20
         Mo        10.202            3.547    674.22  77634.20
         S          3.847            3.128    251.62  12327.25
         S          3.856            3.128    251.62  12327.25
         S          3.859            3.128    251.62  12327.25
         S          3.817            3.128    251.62  12327.25
         Mo        10.208            3.547    674.22  77634.20
         Mo        10.221            3.547    674.22  77634.20
         S          3.858            3.128    251.62  12327.25
         S          3.859            3.128    251.62  12327.25
         S          3.758            3.128    251.62  12327.25
         S          3.859            3.128    251.62  12327.25
         Mo        10.220            3.547    674.22  77634.20
         Mo        10.834            3.547    674.22  77634.20
         S          3.863            3.128    251.62  12327.25
         S          3.860            3.128    251.62  12327.25
         S          3.859            3.128    251.62  12327.25
         S          4.732            3.128    251.62  12327.25
         Mo        10.208            3.547    674.22  77634.20
         Mo        10.221            3.547    674.22  77634.20
         S          3.858            3.128    251.62  12327.25
         S          3.859            3.128    251.62  12327.25
         S          3.758            3.128    251.62  12327.25
         S          3.859            3.128    251.62  12327.25
         Mo        10.221            3.547    674.22  77634.20
         Mo        10.240            3.547    674.22  77634.20
         S          3.855            3.128    251.62  12327.25
         S          3.860            3.128    251.62  12327.25
         S          3.859            3.128    251.62  12327.25
         S          3.757            3.128    251.62  12327.25
         Mo        10.208            3.547    674.22  77634.20
         Mo        10.221            3.547    674.22  77634.20
         S          3.858            3.128    251.62  12327.25
         S          3.859            3.128    251.62  12327.25
         S          3.758            3.128    251.62  12327.25
         S          3.859            3.128    251.62  12327.25
         Mo        10.222            3.547    674.22  77634.20
         Mo        10.191            3.547    674.22  77634.20
         S          3.865            3.128    251.62  12327.25
         S          3.856            3.128    251.62  12327.25
         S          3.859            3.128    251.62  12327.25
         S          4.654            3.128    251.62  12327.25
         Mo        10.208            3.547    674.22  77634.20
         Mo        10.221            3.547    674.22  77634.20
         S          3.858            3.128    251.62  12327.25
         S          3.859            3.128    251.62  12327.25
         S          3.758            3.128    251.62  12327.25
         S          3.859            3.128    251.62  12327.25
         Mo        10.221            3.547    674.22  77634.20
         Mo        10.202            3.547    674.22  77634.20
         S          3.856            3.128    251.62  12327.25
         S          3.856            3.128    251.62  12327.25
         S          3.859            3.128    251.62  12327.25
         S          4.725            3.128    251.62  12327.25
         Mo        10.208            3.547    674.22  77634.20
         Mo        10.221            3.547    674.22  77634.20
         S          3.858            3.128    251.62  12327.25
         S          3.859            3.128    251.62  12327.25
         S          3.758            3.128    251.62  12327.25
         S          3.859            3.128    251.62  12327.25
         Mo        10.220            3.547    674.22  77634.20
         Mo        10.254            3.547    674.22  77634.20
         S          3.863            3.128    251.62  12327.25
         S          3.860            3.128    251.62  12327.25
         S          3.859            3.128    251.62  12327.25
         S          4.732            3.128    251.62  12327.25
         Mo        10.208            3.547    674.22  77634.20
         Mo        10.220            3.547    674.22  77634.20
         S          3.858            3.128    251.62  12327.25
         S          3.859            3.128    251.62  12327.25
         S          3.758            3.128    251.62  12327.25
         S          3.859            3.128    251.62  12327.25
         Mo        10.220            3.547    674.22  77634.20
         Mo        10.240            3.547    674.22  77634.20
         S          3.862            3.128    251.62  12327.25
         S          3.860            3.128    251.62  12327.25
         S          3.859            3.128    251.62  12327.25
         S          3.777            3.128    251.62  12327.25
         Mo        10.208            3.547    674.22  77634.20
         Mo        10.221            3.547    674.22  77634.20
         S          3.858            3.128    251.62  12327.25
         S          3.859            3.128    251.62  12327.25
         S          3.758            3.128    251.62  12327.25
         S          3.859            3.128    251.62  12327.25
         Mo        10.220            3.547    674.22  77634.20
         Mo        10.244            3.547    674.22  77634.20
         S          3.847            3.128    251.62  12327.25
         S          3.860            3.128    251.62  12327.25
         S          3.859            3.128    251.62  12327.25
         S          3.805            3.128    251.62  12327.25
         Mo        10.208            3.547    674.21  77634.20
         Mo        10.221            3.547    674.22  77634.20
         S          3.858            3.128    251.62  12327.25
         S          3.859            3.128    251.62  12327.25
         S          3.758            3.128    251.62  12327.25
         S          3.859            3.128    251.62  12327.25
         Mo        10.220            3.547    674.22  77634.20
         Mo        10.234            3.547    674.22  77634.20
         S          3.847            3.128    251.62  12327.25
         S          3.861            3.128    251.62  12327.25
         S          3.859            3.128    251.62  12327.25
         S          3.817            3.128    251.62  12327.25
         Pd         3.767            3.168    558.46  51168.38
         Pt         3.625            3.168    692.72  72035.25

         Molecular C6 ( Ry / a.u.^6 ) =  13983844.86


     number of k points=     4  Gaussian smearing, width (Ry)=  0.0100
                       cart. coord. in units 2pi/alat
        k(    1) = (   0.0000000   0.0000000   0.0000000), wk =   0.5000000
        k(    2) = (   0.0000000  -0.5773499   0.0000000), wk =   0.5000000
        k(    3) = (  -0.5000000  -0.2886744   0.0000000), wk =   0.5000000
        k(    4) = (  -0.5000000  -0.8660242   0.0000000), wk =   0.5000000

     Dense  grid:  7154885 G-vectors     FFT dimensions: ( 180, 180, 512)

     Smooth grid:  3090769 G-vectors     FFT dimensions: ( 135, 135, 400)

     Estimated max dynamical RAM per process >       4.31 GB

     Estimated total dynamical RAM >     155.10 GB

     Atomic positions and unit cell read from directory:
     ./outdir/pwscf.save/
     Atomic positions from file used, from input discarded
 

     The initial density is read from file :
     ./outdir/pwscf.save/charge-density


     negative rho (up, down):  8.973E-04 0.000E+00
     Cannot read wfcs: file not found
     Starting wfcs are 1179 randomized atomic wfcs
     Checking if some PAW data can be deallocated... 

     total cpu time spent up to now is      178.2 secs

     Self-consistent Calculation

     iteration #  1     ecut=    77.00 Ry     beta= 0.20
     Davidson diagonalization with overlap
     c_bands:  4 eigenvalues not converged
     c_bands:  4 eigenvalues not converged
     c_bands:  7 eigenvalues not converged
     c_bands:  7 eigenvalues not converged
     ethr =  1.00E-05,  avg # of iterations =110.0

     negative rho (up, down):  8.243E-04 0.000E+00

     total cpu time spent up to now is    10552.7 secs

     total energy              =  -33980.27034948 Ry
     estimated scf accuracy    <       0.23093237 Ry

     iteration #  2     ecut=    77.00 Ry     beta= 0.20
     Davidson diagonalization with overlap
     ethr =  1.35E-05,  avg # of iterations =  6.0

     negative rho (up, down):  7.891E-04 0.000E+00

     total cpu time spent up to now is    10983.7 secs

     total energy              =  -33980.27258620 Ry
     estimated scf accuracy    <       0.10654118 Ry

     iteration #  3     ecut=    77.00 Ry     beta= 0.20
     Davidson diagonalization with overlap
     ethr =  6.22E-06,  avg # of iterations =  8.2

     negative rho (up, down):  7.288E-04 0.000E+00

     total cpu time spent up to now is    11419.8 secs

     total energy              =  -33980.26534196 Ry
     estimated scf accuracy    <       0.03867620 Ry

     iteration #  4     ecut=    77.00 Ry     beta= 0.20
     Davidson diagonalization with overlap
     c_bands:  1 eigenvalues not converged
     c_bands:  3 eigenvalues not converged
     c_bands:  2 eigenvalues not converged
     c_bands:  4 eigenvalues not converged
     ethr =  2.26E-06,  avg # of iterations = 40.0

     negative rho (up, down):  7.362E-04 0.000E+00

     total cpu time spent up to now is    12512.5 secs

     total energy              =  -33980.28152937 Ry
     estimated scf accuracy    <       0.00944461 Ry

     iteration #  5     ecut=    77.00 Ry     beta= 0.20
     Davidson diagonalization with overlap
     c_bands:  1 eigenvalues not converged
     ethr =  5.51E-07,  avg # of iterations = 12.8

     negative rho (up, down):  7.879E-04 0.000E+00

     total cpu time spent up to now is    13075.8 secs

     total energy              =  -33980.28242704 Ry
     estimated scf accuracy    <       0.00514620 Ry

     iteration #  6     ecut=    77.00 Ry     beta= 0.20
     Davidson diagonalization with overlap
     c_bands:  1 eigenvalues not converged
     ethr =  3.00E-07,  avg # of iterations = 13.2

     negative rho (up, down):  8.152E-04 0.000E+00

     total cpu time spent up to now is    13639.9 secs

     total energy              =  -33980.28337785 Ry
     estimated scf accuracy    <       0.00180352 Ry

     iteration #  7     ecut=    77.00 Ry     beta= 0.20
     Davidson diagonalization with overlap
     c_bands:  1 eigenvalues not converged
     ethr =  1.05E-07,  avg # of iterations = 14.8

     negative rho (up, down):  8.275E-04 0.000E+00

     total cpu time spent up to now is    14404.8 secs

     total energy              =  -33980.28434196 Ry
     estimated scf accuracy    <       0.00051653 Ry

     iteration #  8     ecut=    77.00 Ry     beta= 0.20
     Davidson diagonalization with overlap
     ethr =  3.01E-08,  avg # of iterations = 13.0

     negative rho (up, down):  8.484E-04 0.000E+00

     total cpu time spent up to now is    15214.7 secs

     total energy              =  -33980.28467906 Ry
     estimated scf accuracy    <       0.00023195 Ry

     iteration #  9     ecut=    77.00 Ry     beta= 0.20
     Davidson diagonalization with overlap
     ethr =  1.35E-08,  avg # of iterations = 10.2

     negative rho (up, down):  8.761E-04 0.000E+00

     total cpu time spent up to now is    15747.5 secs

     total energy              =  -33980.28466993 Ry
     estimated scf accuracy    <       0.00009435 Ry

     iteration # 10     ecut=    77.00 Ry     beta= 0.20
     Davidson diagonalization with overlap
     ethr =  5.50E-09,  avg # of iterations = 17.5

     negative rho (up, down):  8.807E-04 0.000E+00

     total cpu time spent up to now is    16644.8 secs

     total energy              =  -33980.28475704 Ry
     estimated scf accuracy    <       0.00005968 Ry

     iteration # 11     ecut=    77.00 Ry     beta= 0.20
     Davidson diagonalization with overlap
     ethr =  3.48E-09,  avg # of iterations =  7.5

     negative rho (up, down):  8.860E-04 0.000E+00

     total cpu time spent up to now is    17078.7 secs

     total energy              =  -33980.28475291 Ry
     estimated scf accuracy    <       0.00001682 Ry

     iteration # 12     ecut=    77.00 Ry     beta= 0.20
     Davidson diagonalization with overlap
     ethr =  9.81E-10,  avg # of iterations = 16.5

     negative rho (up, down):  8.905E-04 0.000E+00

     total cpu time spent up to now is    18069.6 secs

     total energy              =  -33980.28477289 Ry
     estimated scf accuracy    <       0.00000670 Ry

     iteration # 13     ecut=    77.00 Ry     beta= 0.20
     Davidson diagonalization with overlap
     ethr =  3.91E-10,  avg # of iterations = 12.0

     negative rho (up, down):  8.929E-04 0.000E+00

     total cpu time spent up to now is    18745.3 secs

     total energy              =  -33980.28477466 Ry
     estimated scf accuracy    <       0.00000186 Ry

     iteration # 14     ecut=    77.00 Ry     beta= 0.20
     Davidson diagonalization with overlap
     c_bands:  2 eigenvalues not converged
     c_bands:  1 eigenvalues not converged
     ethr =  1.09E-10,  avg # of iterations = 23.2

     negative rho (up, down):  8.976E-04 0.000E+00

     total cpu time spent up to now is    19905.1 secs

     End of self-consistent calculation

          k = 0.0000 0.0000 0.0000 (386245 PWs)   bands (ev):

  -102.9522 -88.6625 -71.2636 -71.2477 -71.2418 -71.2391 -71.2268 -71.2241
   -71.2165 -66.5543 -66.5543 -66.5542 -66.5530 -66.5478 -66.5360 -66.5350
   -66.5331 -66.5330 -66.5330 -66.5330 -66.5330 -66.5329 -66.5329 -66.5329
   -66.5329 -66.5329 -66.5327 -66.5326 -66.5319 -66.5318 -66.5317 -66.5317
   -66.5317 -66.5317 -66.5316 -66.5274 -66.5152 -66.5132 -66.5117 -66.5117
   -66.5117 -66.5117 -66.5116 -66.5116 -66.5116 -66.5115 -66.5115 -66.5115
   -66.5115 -66.5115 -66.5114 -66.5114 -66.5114 -66.5113 -66.5113 -66.5112
   -66.5104 -66.5104 -66.5104 -66.5103 -66.5103 -66.5103 -66.5103 -66.5102
   -66.5102 -66.5007 -66.5003 -66.4977 -66.4957 -66.4941 -66.4897 -66.4734
   -66.4662 -57.2070 -57.1844 -57.1666 -54.4762 -54.4665 -54.4517 -40.8816
   -40.8816 -40.8816 -40.8816 -40.8815 -40.8814 -40.8810 -40.8810 -40.8810
   -40.8727 -40.8673 -40.8651 -40.8064 -40.8063 -40.8063 -40.8063 -40.8063
   -40.8063 -40.8062 -40.8062 -40.8062 -40.8062 -40.8061 -40.8060 -40.8057
   -40.8057 -40.8057 -40.8057 -40.8056 -40.8056 -40.7985 -40.7943 -40.7910
   -40.7883 -40.7787 -40.7752 -40.7663 -40.7337 -40.7138 -40.7137 -40.7132
   -40.7064 -40.6801 -40.6801 -40.6800 -40.6800 -40.6800 -40.6799 -40.6799
   -40.6799 -40.6799 -40.6799 -40.6798 -40.6798 -40.6797 -40.6792 -40.6792
   -40.6792 -40.6792 -40.6792 -40.6792 -40.6750 -40.6735 -40.6734 -40.6722
   -40.6722 -40.6721 -40.6721 -40.6721 -40.6721 -40.6720 -40.6720 -40.6720
   -40.6720 -40.6720 -40.6718 -40.6715 -40.6715 -40.6715 -40.6714 -40.6714
   -40.6714 -40.6710 -40.6687 -40.6684 -40.6652 -40.6527 -40.6467 -40.6450
   -40.6450 -40.6450 -40.6450 -40.6449 -40.6449 -40.6449 -40.6449 -40.6448
   -40.6448 -40.6448 -40.6446 -40.6444 -40.6442 -40.6441 -40.6441 -40.6441
   -40.6441 -40.6441 -40.6441 -40.6412 -40.6361 -40.6358 -40.6323 -40.6303
   -40.6303 -40.6302 -40.6302 -40.6302 -40.6301 -40.6301 -40.6301 -40.6301
   -40.6301 -40.6301 -40.6300 -40.6300 -40.6300 -40.6300 -40.6300 -40.6299
   -40.6299 -40.6298 -40.6295 -40.6295 -40.6295 -40.6295 -40.6295 -40.6294
   -40.6294 -40.6294 -40.6293 -40.6276 -40.6261 -40.6242 -40.6190 -40.6170
   -40.6152 -40.6107 -40.6075 -40.5666 -40.5666 -40.5666 -40.5666 -40.5665
   -40.5664 -40.5657 -40.5657 -40.5657 -40.5546 -40.5525 -40.5475 -40.5196
   -40.5195 -40.5195 -40.5195 -40.5195 -40.5194 -40.5194 -40.5194 -40.5194
   -40.5194 -40.5193 -40.5191 -40.5186 -40.5186 -40.5186 -40.5185 -40.5185
   -40.5185 -40.5057 -40.5057 -40.5004 -40.4977 -40.4956 -40.4889 -40.4719
   -40.4719 -40.4718 -40.4718 -40.4709 -40.4709 -40.4499 -40.4454 -20.0803
   -20.0186 -19.9180 -19.8157 -19.3039 -19.2900 -19.2395 -19.1983 -19.1940
   -19.1805 -19.1638 -19.1634 -19.1601 -19.1486 -19.1439 -19.1234 -19.0735
   -19.0732 -19.0698 -19.0610 -19.0575 -19.0405 -18.9716 -18.9712 -18.9699
   -18.9666 -18.9658 -18.9593 -18.8520 -18.7317 -18.5700 -18.5491 -18.5303
   -18.5059 -18.4573 -18.4424 -18.4278 -18.4092 -18.3756 -18.3629 -18.3537
   -18.3444 -18.3417 -18.3186 -18.2816 -18.2412 -18.2216 -18.2183 -18.2170
   -18.2027 -18.1806 -18.1535 -18.1340 -18.1253 -18.1150 -18.1115 -18.1045
   -18.1005 -18.0938 -18.0917 -18.0531 -18.0516 -18.0497 -18.0497 -18.0480
   -18.0479 -18.0245 -18.0199 -18.0165 -18.0154 -18.0144 -18.0073 -18.0063
   -18.0056 -18.0054 -17.9917 -17.9841 -17.9815 -17.9804 -17.9759 -17.9666
   -17.9652 -17.9638 -17.9498 -17.9453 -17.9415 -17.9380 -17.9327 -17.9304
   -17.9218 -17.9215 -17.9194 -17.8833 -17.8813 -17.8793 -17.8777 -17.8623
   -17.8571 -17.8543 -17.8489 -17.8488 -17.8276 -17.8257 -17.8220 -17.8147
   -17.8114 -17.8068 -17.8012 -17.7977 -17.7969 -17.7909 -17.7894 -17.7875
   -17.7713 -17.7710 -17.7703 -17.7622 -17.7604 -17.7584 -17.7537 -17.7525
   -17.7515 -17.7277 -17.7272 -17.7269 -17.7252 -17.7247 -17.7242 -12.0085
   -11.9124 -11.8277 -11.7905 -11.7318 -11.7196 -11.7105 -11.6984 -11.6088
   -11.5970 -11.5923 -11.4912 -11.4837 -11.4824 -11.4388 -11.3583 -11.2957
   -11.2693 -11.1849 -11.1768 -11.1719 -11.1681 -11.1608 -11.1602 -11.1133
   -11.0958 -11.0689 -11.0637 -11.0634 -11.0615 -11.0536 -11.0521 -11.0358
   -11.0267 -11.0178 -11.0099 -11.0022 -10.9942 -10.9940 -10.9939 -10.9846
   -10.9762 -10.9649 -10.9603 -10.9557 -10.9337 -10.9163 -10.9088 -10.8889
   -10.8859 -10.8809 -10.8668 -10.8595 -10.8445 -10.8399 -10.8285 -10.8258
   -10.8120 -10.8105 -10.7979 -10.7883 -10.7854 -10.7757 -10.7740 -10.7733
   -10.7664 -10.7623 -10.7588 -10.7580 -10.7554 -10.7488 -10.7481 -10.7423
   -10.7400 -10.7397 -10.7361 -10.7117 -10.7107 -10.7077 -10.7068 -10.7034
   -10.7018 -10.7001 -10.6980 -10.6894 -10.6680 -10.6679 -10.6672 -10.6668
   -10.6651 -10.6646 -10.5947 -10.5938 -10.5877 -10.5411 -10.5300 -10.5207
   -10.5172 -10.5159 -10.5125 -10.4670 -10.4024 -10.2310 -10.2172 -10.1284
   -10.0701 -10.0574  -9.9486  -9.8958  -9.8579  -9.8380  -9.7752  -9.7505
    -9.7449  -9.7390  -9.7355  -9.7337  -9.7152  -9.7083  -9.7031  -9.7012
    -9.7000  -9.6997  -9.6972  -9.6916  -9.6834  -9.6832  -9.6792  -9.6751
    -9.6742  -9.6535  -9.6453  -9.6373  -9.6028  -9.5823  -9.5718  -9.5663
    -9.5634  -9.5626  -9.5597  -9.5550  -9.5492  -9.5482  -9.5482  -9.5471
    -9.5466  -9.5438  -9.5416  -9.5039  -9.4865  -9.4799  -9.4715  -9.4715
    -9.4714  -9.4709  -9.4707  -9.4705  -9.4604  -9.4594  -9.4564  -9.4392
    -9.4320  -9.4303  -9.4190  -9.3904  -9.3788  -9.3068  -9.3057  -9.3052
    -9.2989  -9.2921  -9.2756  -9.2716  -9.2704  -9.2679  -9.2589  -9.2451
    -9.2407  -9.2086  -9.1939  -9.1791  -9.1743  -9.1664  -9.1602  -9.1384
    -9.1373  -9.1204  -9.1181  -9.1121  -9.1111  -9.1106  -9.1061  -9.0967
    -9.0829  -9.0733  -9.0703  -9.0386  -9.0339  -9.0054  -8.9898  -8.9745
    -8.9483  -8.9360  -8.9123  -8.9123  -8.9092  -8.9006  -8.8894  -8.8779
    -8.8772  -8.8689  -8.8479  -8.8472  -8.8470  -8.8460  -8.8395  -8.8302
    -8.8258  -8.8224  -8.8112  -8.7525  -8.7514  -8.7513  -8.7513  -8.7505
    -8.7499  -8.7030  -8.6928  -8.6862  -8.6815  -8.6689  -8.6584  -8.6323
    -8.6059  -8.6002  -8.5960  -8.5917  -8.5822  -8.5761  -8.5277  -8.5246
    -8.5218  -8.5217  -8.5203  -8.5172  -8.4587  -8.4540  -8.4051  -8.3840
    -8.3558  -8.2963  -8.2962  -8.2917  -8.2911  -8.2861  -8.2847  -8.2829
    -8.2609  -8.2391  -8.2139  -8.2059  -8.2057  -8.2054  -8.2047  -8.2038
    -8.1981  -8.1878  -8.1793  -8.1788  -8.1783  -8.1774  -8.1763  -8.1723
    -8.1509  -8.1508  -8.1505  -8.1500  -8.1496  -8.1483  -8.0400  -8.0138
    -7.9918  -7.9890  -7.8612  -7.7934  -7.7868  -7.7865  -7.7267  -7.7057
    -7.7013  -7.6509  -7.6367  -7.6312  -7.5828  -7.5824  -7.5744  -7.5743
    -7.5711  -7.5525  -7.5440  -7.5407  -7.5360  -7.5356  -7.5288  -7.5000
    -7.4889  -7.4878  -7.4737  -7.4687  -7.4673  -7.4637  -7.4633  -7.4632
    -7.4609  -7.4578  -7.4509  -7.4372  -7.4371  -7.4367  -7.4363  -7.4346
    -7.4288  -7.4213  -7.4188  -7.4124  -7.4122  -7.4117  -7.4114  -7.4097
    -7.4083  -7.3975  -7.3755  -7.3590  -7.3574  -7.3566  -7.3533  -7.3457
    -7.3412  -7.3347  -7.3146  -7.2865  -7.2839  -7.2770  -7.2667  -7.2474
    -7.2432  -7.2382  -7.2262  -7.2255  -7.2247  -7.2225  -7.2206  -7.2160
    -7.1804  -7.1801  -7.1621  -7.1616  -7.1561  -7.1436  -7.1434  -7.1241
    -7.0841  -7.0714  -7.0636  -7.0493  -7.0393  -7.0054  -6.9416  -6.9119
    -6.9043  -6.8538  -6.8318  -6.8162  -6.8054  -6.7907  -6.7430  -6.7235
    -6.7177  -6.7113  -6.7102  -6.6981  -6.6393  -6.6377  -6.6326  -6.6265
    -6.6143  -6.5920  -6.5660  -6.5639  -6.5604  -6.5563  -6.5454  -6.5403
    -6.5361  -6.5129  -6.5048  -6.4949  -6.4907  -6.4856  -6.4846  -6.4610
    -6.4467  -6.4449  -6.4426  -6.4409  -6.4404  -6.4378  -6.4363  -6.4354
    -6.4276  -6.4273  -6.4271  -6.4269  -6.4269  -6.4267  -6.4246  -6.3870
    -6.3835  -6.3782  -6.3590  -6.3463  -6.3430  -6.3390  -6.3303  -6.3271
    -6.2829  -6.2638  -6.2630  -6.2626  -6.2605  -6.2601  -6.2539  -6.2296
    -6.2265  -6.2252  -6.2241  -6.2195  -6.2147  -6.2077  -6.2031  -6.1864
    -6.1853  -6.1851  -6.1819  -6.1810  -6.1793  -6.1529  -6.1427  -6.1133
    -5.8953  -5.7972  -5.7206  -5.6792  -5.6189  -5.6062  -5.5299  -5.2411
    -5.0790  -4.1539  -3.8486  -3.7853  -3.7849  -3.7788  -3.7760  -3.7638
    -3.7594  -3.7561  -3.7542  -3.7526  -3.7521  -3.7325  -3.6983  -3.6408
    -3.6326  -3.6270  -3.6236  -3.6155  -3.6155  -3.6131  -3.6046  -3.6031
    -3.6008  -3.5085  -3.4762  -3.4529  -3.4454  -3.4425  -3.4401  -3.4366
    -3.4198  -3.4193  -3.4089  -3.4015  -3.4003  -3.3981  -3.3980  -3.3910
    -3.3863  -3.3792  -3.3759  -3.3728  -3.3717  -3.3716  -3.3691  -3.3588
    -3.3572  -3.3569  -3.3551  -3.3438  -3.3411  -3.3406  -3.3389  -3.3316
    -3.3302  -3.3299  -3.3285  -3.3234  -3.3199  -3.2922  -3.2876  -3.2843
    -3.2825  -3.2784  -3.2766  -3.2759  -3.2692  -3.2627  -3.2536  -3.2477
    -3.2377  -3.2215  -3.2178  -3.2157  -3.2130  -3.2110  -3.2016  -3.1871
    -3.1854  -3.1528  -3.1491  -3.1347  -3.1226  -3.0231  -3.0172  -3.0114
    -2.9959  -2.9952  -2.9896  -2.9857  -2.9771  -2.9725  -2.9648  -2.9466
    -2.9378  -2.9325  -2.9162  -2.9085  -2.9055  -2.9039  -2.9016  -2.9002
    -2.8962  -2.8923  -2.8921  -2.8905  -2.8865  -2.8826  -2.8822  -2.8817
    -2.8739  -2.8698  -2.8639  -2.8633  -2.8631  -2.8616  -2.8609  -2.8597
    -2.8587  -2.8481  -2.8457  -2.8325  -2.8232  -2.8193  -2.8104  -2.8081
    -2.8024  -2.7960  -2.7941  -2.7871  -2.7357  -2.7353  -2.7353  -2.7351
    -2.7349  -2.7344  -2.7339  -2.7332  -2.7318  -2.7164  -2.7132  -2.7130
    -2.6928  -2.6742  -2.6734  -2.6725  -2.6585  -2.6473  -2.6445  -2.6000
    -2.5981  -2.5711  -2.5694  -2.5569  -2.5559  -2.5526  -2.5455  -2.5454
    -2.5446  -2.5175  -2.5000  -2.4820  -2.4813  -2.4748  -2.4639  -2.3931
    -2.3849  -2.3795  -2.3739  -2.3693

          k = 0.0000-0.5773 0.0000 (386352 PWs)   bands (ev):

  -102.9522 -88.6625 -71.2637 -71.2477 -71.2418 -71.2391 -71.2268 -71.2241
   -71.2166 -66.5521 -66.5495 -66.5481 -66.5480 -66.5480 -66.5479 -66.5468
   -66.5468 -66.5399 -66.5374 -66.5374 -66.5373 -66.5372 -66.5361 -66.5361
   -66.5328 -66.5323 -66.5259 -66.5225 -66.5223 -66.5223 -66.5223 -66.5223
   -66.5222 -66.5220 -66.5220 -66.5210 -66.5210 -66.5210 -66.5210 -66.5179
   -66.5178 -66.5178 -66.5177 -66.5166 -66.5165 -66.5141 -66.5134 -66.5117
   -66.5116 -66.5116 -66.5116 -66.5115 -66.5115 -66.5114 -66.5112 -66.5104
   -66.5103 -66.5103 -66.5102 -66.5071 -66.5071 -66.5071 -66.5070 -66.5059
   -66.5058 -66.5012 -66.5011 -66.4975 -66.4956 -66.4937 -66.4898 -66.4736
   -66.4661 -57.2070 -57.1844 -57.1666 -54.4762 -54.4665 -54.4517 -40.8501
   -40.8500 -40.8500 -40.8500 -40.8500 -40.8499 -40.8498 -40.8497 -40.8494
   -40.8494 -40.8494 -40.8493 -40.8410 -40.8393 -40.8379 -40.8275 -40.8236
   -40.8232 -40.8231 -40.8231 -40.8230 -40.8226 -40.8225 -40.8111 -40.8111
   -40.8110 -40.8110 -40.8105 -40.8105 -40.8082 -40.7953 -40.7729 -40.7663
   -40.7604 -40.7604 -40.7604 -40.7604 -40.7604 -40.7603 -40.7603 -40.7603
   -40.7597 -40.7597 -40.7597 -40.7597 -40.7493 -40.7382 -40.7363 -40.7317
   -40.7293 -40.7049 -40.7016 -40.7016 -40.7016 -40.7015 -40.7011 -40.7010
   -40.6922 -40.6921 -40.6921 -40.6920 -40.6914 -40.6913 -40.6910 -40.6808
   -40.6808 -40.6807 -40.6807 -40.6802 -40.6801 -40.6795 -40.6786 -40.6662
   -40.6598 -40.6547 -40.6513 -40.6513 -40.6511 -40.6511 -40.6511 -40.6511
   -40.6509 -40.6509 -40.6505 -40.6505 -40.6505 -40.6505 -40.6504 -40.6454
   -40.6424 -40.6424 -40.6424 -40.6423 -40.6418 -40.6417 -40.6416 -40.6365
   -40.6310 -40.6307 -40.6307 -40.6306 -40.6305 -40.6302 -40.6302 -40.6302
   -40.6301 -40.6301 -40.6300 -40.6300 -40.6299 -40.6298 -40.6298 -40.6295
   -40.6294 -40.6294 -40.6294 -40.6276 -40.6247 -40.6218 -40.6214 -40.6214
   -40.6214 -40.6214 -40.6208 -40.6207 -40.6207 -40.6078 -40.6072 -40.5998
   -40.5998 -40.5997 -40.5997 -40.5997 -40.5997 -40.5996 -40.5994 -40.5989
   -40.5989 -40.5988 -40.5988 -40.5885 -40.5882 -40.5841 -40.5809 -40.5650
   -40.5650 -40.5650 -40.5650 -40.5650 -40.5649 -40.5648 -40.5648 -40.5641
   -40.5641 -40.5641 -40.5641 -40.5529 -40.5528 -40.5528 -40.5527 -40.5520
   -40.5519 -40.5512 -40.5479 -40.5437 -40.5410 -40.5336 -40.5335 -40.5335
   -40.5335 -40.5333 -40.5326 -40.5326 -40.5284 -40.5169 -40.5165 -40.5165
   -40.5165 -40.5164 -40.5156 -40.5156 -40.5114 -40.4922 -40.4859 -40.4858
   -40.4858 -40.4857 -40.4849 -40.4849 -40.4842 -40.4682 -40.4608 -19.8604
   -19.8366 -19.7879 -19.7791 -19.6881 -19.6814 -19.5839 -19.5811 -19.4074
   -19.4065 -19.3491 -19.3487 -19.2559 -19.2557 -19.1566 -19.1566 -18.8831
   -18.8391 -18.8097 -18.7244 -18.6843 -18.6584 -18.6514 -18.6502 -18.6493
   -18.6276 -18.6168 -18.6069 -18.5800 -18.5791 -18.5691 -18.5542 -18.5365
   -18.5345 -18.5038 -18.4854 -18.4848 -18.4803 -18.4690 -18.4582 -18.4518
   -18.4332 -18.4187 -18.4081 -18.3985 -18.3871 -18.3410 -18.3388 -18.3357
   -18.3289 -18.2988 -18.2825 -18.2624 -18.2619 -18.2563 -18.2073 -18.1901
   -18.1867 -18.1787 -18.1548 -18.1321 -18.1250 -18.1107 -18.1080 -18.0949
   -18.0691 -18.0540 -18.0378 -18.0357 -18.0325 -18.0277 -18.0244 -18.0238
   -18.0172 -18.0026 -17.9989 -17.9984 -17.9963 -17.9914 -17.9826 -17.9811
   -17.9782 -17.9746 -17.9724 -17.9402 -17.9373 -17.9362 -17.9342 -17.9318
   -17.9267 -17.9259 -17.9249 -17.9176 -17.9122 -17.8831 -17.8737 -17.8711
   -17.8652 -17.8623 -17.8603 -17.8234 -17.8227 -17.8187 -17.8115 -17.7965
   -17.7802 -17.7756 -17.7717 -17.7685 -17.7629 -17.7485 -17.7484 -17.7482
   -17.7472 -17.7470 -17.7466 -17.7351 -17.7329 -17.7167 -17.7120 -17.6920
   -17.6877 -17.6730 -17.6675 -17.6570 -17.6537 -17.6485 -17.6480 -11.8597
   -11.6614 -11.6478 -11.6177 -11.5513 -11.5372 -11.4709 -11.4641 -11.4361
   -11.4279 -11.4272 -11.4241 -11.4169 -11.4048 -11.3892 -11.3693 -11.3370
   -11.3183 -11.3122 -11.2979 -11.2842 -11.2638 -11.2628 -11.2507 -11.2445
   -11.2115 -11.2040 -11.1990 -11.1974 -11.1909 -11.1833 -11.1821 -11.1633
   -11.1404 -11.1340 -11.1284 -11.1219 -11.1161 -11.1138 -11.0988 -11.0964
   -11.0937 -11.0760 -11.0756 -11.0567 -11.0459 -11.0350 -11.0243 -10.9959
   -10.9861 -10.9783 -10.9509 -10.9067 -10.9040 -10.9014 -10.8698 -10.8635
   -10.8441 -10.8429 -10.8410 -10.8361 -10.8072 -10.7783 -10.7764 -10.7667
   -10.7599 -10.7496 -10.7486 -10.7430 -10.7405 -10.7401 -10.7392 -10.7354
   -10.7342 -10.7260 -10.7260 -10.7220 -10.7213 -10.7132 -10.7125 -10.7113
   -10.7083 -10.6730 -10.6725 -10.6720 -10.6716 -10.6056 -10.5772 -10.5277
   -10.4744 -10.4612 -10.4585 -10.4458 -10.4128 -10.3665 -10.3302 -10.2651
   -10.2481 -10.2055 -10.1500 -10.1350 -10.0820 -10.0692 -10.0598 -10.0529
   -10.0462 -10.0227 -10.0125 -10.0035  -9.9873  -9.9745  -9.9644  -9.9617
    -9.9594  -9.9510  -9.9316  -9.9273  -9.9173  -9.8991  -9.8642  -9.8596
    -9.8518  -9.8453  -9.8349  -9.8264  -9.8195  -9.8095  -9.7885  -9.7855
    -9.7713  -9.7600  -9.7389  -9.7234  -9.7144  -9.7126  -9.6888  -9.6854
    -9.6715  -9.6452  -9.6256  -9.6222  -9.6044  -9.5922  -9.5916  -9.5675
    -9.5560  -9.5506  -9.5314  -9.5185  -9.5045  -9.4999  -9.4765  -9.4734
    -9.4679  -9.4596  -9.4564  -9.4404  -9.4217  -9.4172  -9.4061  -9.4032
    -9.3985  -9.3891  -9.3851  -9.3838  -9.3752  -9.3623  -9.3515  -9.3301
    -9.3068  -9.2933  -9.2718  -9.2330  -9.2081  -9.1829  -9.1722  -9.1717
    -9.1491  -9.1336  -9.1291  -9.1152  -9.1059  -9.0990  -9.0906  -9.0728
    -9.0509  -9.0462  -9.0307  -9.0142  -9.0120  -8.9931  -8.9926  -8.9733
    -8.9685  -8.9675  -8.9598  -8.9304  -8.9245  -8.9219  -8.9050  -8.8901
    -8.8798  -8.8701  -8.8668  -8.8641  -8.8433  -8.8209  -8.8191  -8.8178
    -8.8165  -8.8130  -8.8117  -8.8082  -8.8057  -8.7988  -8.7974  -8.7920
    -8.7903  -8.7855  -8.7828  -8.7806  -8.7748  -8.7694  -8.7685  -8.7678
    -8.7420  -8.7221  -8.7212  -8.7206  -8.7167  -8.7141  -8.7108  -8.6964
    -8.6918  -8.6908  -8.6682  -8.6613  -8.6602  -8.6562  -8.6469  -8.6345
    -8.5893  -8.5842  -8.5795  -8.5446  -8.5170  -8.4458  -8.4309  -8.4304
    -8.3941  -8.3711  -8.3669  -8.3393  -8.2908  -8.2893  -8.2703  -8.2552
    -8.1965  -8.1615  -8.0569  -8.0564  -8.0520  -8.0476  -8.0455  -8.0361
    -8.0355  -8.0080  -7.9966  -7.9952  -7.9747  -7.9418  -7.8987  -7.8960
    -7.8586  -7.8512  -7.8254  -7.8198  -7.7851  -7.7849  -7.7683  -7.7601
    -7.7544  -7.7497  -7.7466  -7.7465  -7.7329  -7.7328  -7.7302  -7.7270
    -7.7250  -7.7198  -7.7135  -7.7115  -7.7115  -7.7077  -7.7038  -7.7036
    -7.6972  -7.6952  -7.6928  -7.6927  -7.6907  -7.6906  -7.6867  -7.6862
    -7.6640  -7.6619  -7.6600  -7.6565  -7.6562  -7.6278  -7.6259  -7.6257
    -7.6244  -7.6113  -7.6074  -7.5969  -7.5955  -7.5938  -7.5923  -7.5856
    -7.5844  -7.5701  -7.5615  -7.5409  -7.5385  -7.5370  -7.5313  -7.5307
    -7.5282  -7.5152  -7.5138  -7.5135  -7.5005  -7.4931  -7.4928  -7.4824
    -7.4812  -7.4768  -7.4605  -7.4020  -7.3897  -7.3886  -7.3857  -7.3651
    -7.3507  -7.3026  -7.2881  -7.1830  -7.1159  -7.1084  -7.1034  -7.1001
    -7.0933  -7.0913  -7.0643  -7.0641  -7.0464  -7.0345  -7.0328  -7.0166
    -7.0039  -6.9927  -6.9812  -6.9657  -6.9518  -6.9509  -6.9470  -6.9043
    -6.9039  -6.8645  -6.8522  -6.8489  -6.8437  -6.8430  -6.8375  -6.8134
    -6.8011  -6.7884  -6.7881  -6.7832  -6.7450  -6.7179  -6.7106  -6.7063
    -6.6949  -6.6905  -6.6546  -6.6166  -6.6103  -6.6058  -6.5739  -6.5630
    -6.5510  -6.5381  -6.5359  -6.5341  -6.5332  -6.5315  -6.5184  -6.5184
    -6.5156  -6.5156  -6.5125  -6.5081  -6.5076  -6.5074  -6.5073  -6.4998
    -6.4626  -6.4211  -6.3992  -6.3552  -6.3430  -6.3338  -6.2801  -6.2542
    -6.2537  -6.2511  -6.2457  -6.2338  -6.2325  -6.2074  -6.2059  -6.2056
    -6.2015  -6.2010  -6.1996  -6.1973  -6.1804  -6.1774  -6.1617  -6.1608
    -6.1494  -6.1324  -6.1305  -6.1276  -6.1219  -5.9664  -5.9535  -5.9380
    -5.9117  -5.9093  -5.8605  -5.8436  -5.8302  -5.7795  -5.7790  -5.7154
    -5.7113  -5.6774  -5.6419  -5.6221  -5.5680  -5.5475  -5.5361  -5.4766
    -5.4336  -4.1692  -4.0287  -4.0234  -4.0094  -3.9939  -3.8781  -3.8697
    -3.8605  -3.8533  -3.8302  -3.8132  -3.7719  -3.7689  -3.7587  -3.7523
    -3.7410  -3.7383  -3.7276  -3.7268  -3.7149  -3.7043  -3.6266  -3.6224
    -3.6171  -3.6167  -3.5386  -3.5380  -3.5302  -3.5293  -3.5244  -3.4969
    -3.4805  -3.4796  -3.4669  -3.4565  -3.4525  -3.4466  -3.4452  -3.4438
    -3.4225  -3.4142  -3.4091  -3.4082  -3.4048  -3.4026  -3.4019  -3.3994
    -3.3772  -3.3743  -3.3690  -3.3601  -3.3508  -3.3505  -3.3314  -3.3296
    -3.3044  -3.2809  -3.2794  -3.2779  -3.2754  -3.2680  -3.2669  -3.2633
    -3.2588  -3.2329  -3.2312  -3.2218  -3.2177  -3.2113  -3.2093  -3.2048
    -3.2024  -3.1969  -3.1939  -3.1807  -3.1768  -3.1652  -3.1641  -3.1636
    -3.1494  -3.1437  -3.1393  -3.1350  -3.1346  -3.1228  -3.1165  -3.1095
    -3.1074  -3.0952  -3.0943  -3.0896  -3.0891  -3.0889  -3.0656  -3.0557
    -3.0352  -3.0195  -3.0144  -2.9988  -2.9970  -2.9915  -2.9852  -2.9568
    -2.9540  -2.9507  -2.9498  -2.9482  -2.9475  -2.9401  -2.9384  -2.9368
    -2.9320  -2.9308  -2.9296  -2.9188  -2.9144  -2.9125  -2.9125  -2.9053
    -2.9037  -2.8999  -2.8972  -2.8866  -2.8854  -2.8751  -2.8740  -2.8707
    -2.8652  -2.8609  -2.8575  -2.8522  -2.8346  -2.8288  -2.8279  -2.8211
    -2.8145  -2.8142  -2.8000  -2.7980  -2.7874  -2.7284  -2.7225  -2.7193
    -2.7191  -2.6844  -2.6599  -2.6347  -2.6320  -2.5477  -2.5389  -2.5209
    -2.5172  -2.5037  -2.4893  -2.4834  -2.4730  -2.4582  -2.4572  -2.4520
    -2.4505  -2.4476  -2.4210  -2.3907  -2.3437  -2.3260  -2.3230  -2.3181
    -2.3099  -2.2995  -2.2702  -2.2694

          k =-0.5000-0.2887 0.0000 (386352 PWs)   bands (ev):

  -102.9522 -88.6625 -71.2637 -71.2477 -71.2418 -71.2391 -71.2268 -71.2241
   -71.2166 -66.5517 -66.5502 -66.5481 -66.5480 -66.5480 -66.5479 -66.5468
   -66.5468 -66.5383 -66.5374 -66.5374 -66.5373 -66.5372 -66.5361 -66.5361
   -66.5352 -66.5309 -66.5267 -66.5223 -66.5223 -66.5223 -66.5223 -66.5223
   -66.5222 -66.5222 -66.5221 -66.5210 -66.5210 -66.5210 -66.5210 -66.5179
   -66.5178 -66.5178 -66.5177 -66.5166 -66.5165 -66.5138 -66.5133 -66.5116
   -66.5116 -66.5116 -66.5115 -66.5115 -66.5115 -66.5114 -66.5114 -66.5103
   -66.5103 -66.5103 -66.5102 -66.5071 -66.5071 -66.5071 -66.5070 -66.5059
   -66.5059 -66.5010 -66.4996 -66.4979 -66.4976 -66.4934 -66.4894 -66.4736
   -66.4661 -57.2070 -57.1844 -57.1666 -54.4762 -54.4665 -54.4517 -40.8505
   -40.8500 -40.8500 -40.8500 -40.8499 -40.8499 -40.8499 -40.8499 -40.8498
   -40.8494 -40.8494 -40.8494 -40.8493 -40.8483 -40.8263 -40.8232 -40.8231
   -40.8231 -40.8230 -40.8226 -40.8225 -40.8213 -40.8146 -40.8111 -40.8111
   -40.8110 -40.8110 -40.8105 -40.8105 -40.8079 -40.7908 -40.7808 -40.7664
   -40.7604 -40.7604 -40.7604 -40.7604 -40.7604 -40.7604 -40.7603 -40.7603
   -40.7597 -40.7597 -40.7597 -40.7597 -40.7485 -40.7411 -40.7395 -40.7348
   -40.7314 -40.7078 -40.7016 -40.7016 -40.7016 -40.7015 -40.7011 -40.7010
   -40.6922 -40.6921 -40.6921 -40.6920 -40.6913 -40.6913 -40.6881 -40.6808
   -40.6808 -40.6807 -40.6807 -40.6802 -40.6801 -40.6755 -40.6729 -40.6704
   -40.6676 -40.6542 -40.6511 -40.6511 -40.6511 -40.6511 -40.6511 -40.6511
   -40.6510 -40.6510 -40.6505 -40.6505 -40.6505 -40.6505 -40.6504 -40.6424
   -40.6424 -40.6424 -40.6423 -40.6423 -40.6418 -40.6417 -40.6393 -40.6353
   -40.6343 -40.6307 -40.6307 -40.6306 -40.6305 -40.6302 -40.6301 -40.6301
   -40.6301 -40.6301 -40.6300 -40.6300 -40.6299 -40.6299 -40.6299 -40.6295
   -40.6294 -40.6294 -40.6294 -40.6280 -40.6253 -40.6214 -40.6214 -40.6214
   -40.6214 -40.6207 -40.6207 -40.6198 -40.6179 -40.6088 -40.6079 -40.5998
   -40.5998 -40.5998 -40.5997 -40.5997 -40.5997 -40.5995 -40.5995 -40.5989
   -40.5989 -40.5988 -40.5988 -40.5896 -40.5870 -40.5818 -40.5745 -40.5650
   -40.5650 -40.5650 -40.5650 -40.5649 -40.5649 -40.5648 -40.5648 -40.5641
   -40.5641 -40.5641 -40.5641 -40.5532 -40.5529 -40.5528 -40.5528 -40.5527
   -40.5520 -40.5519 -40.5471 -40.5454 -40.5410 -40.5400 -40.5336 -40.5336
   -40.5335 -40.5333 -40.5326 -40.5326 -40.5221 -40.5165 -40.5165 -40.5165
   -40.5164 -40.5156 -40.5156 -40.5155 -40.5119 -40.4959 -40.4885 -40.4859
   -40.4858 -40.4858 -40.4857 -40.4849 -40.4849 -40.4729 -40.4530 -19.8746
   -19.8259 -19.7902 -19.7701 -19.6894 -19.6757 -19.5838 -19.5795 -19.4181
   -19.4093 -19.3520 -19.3499 -19.2582 -19.2566 -19.1576 -19.1569 -18.8585
   -18.8141 -18.7929 -18.7309 -18.6961 -18.6824 -18.6517 -18.6502 -18.6493
   -18.6433 -18.6311 -18.6152 -18.5840 -18.5792 -18.5734 -18.5684 -18.5310
   -18.5142 -18.5007 -18.4841 -18.4824 -18.4794 -18.4725 -18.4564 -18.4482
   -18.4162 -18.4119 -18.4094 -18.3978 -18.3762 -18.3416 -18.3373 -18.3368
   -18.3193 -18.3088 -18.2887 -18.2718 -18.2611 -18.2514 -18.2158 -18.2023
   -18.1869 -18.1781 -18.1659 -18.1435 -18.1208 -18.1128 -18.1039 -18.0773
   -18.0668 -18.0571 -18.0466 -18.0346 -18.0310 -18.0277 -18.0264 -18.0218
   -18.0046 -18.0037 -17.9998 -17.9986 -17.9934 -17.9912 -17.9884 -17.9822
   -17.9790 -17.9739 -17.9642 -17.9396 -17.9376 -17.9356 -17.9325 -17.9291
   -17.9288 -17.9269 -17.9227 -17.9168 -17.9115 -17.8794 -17.8745 -17.8704
   -17.8650 -17.8606 -17.8557 -17.8242 -17.8215 -17.8194 -17.8100 -17.8015
   -17.7817 -17.7761 -17.7738 -17.7699 -17.7678 -17.7488 -17.7486 -17.7479
   -17.7475 -17.7470 -17.7463 -17.7349 -17.7331 -17.7161 -17.7125 -17.6914
   -17.6882 -17.6724 -17.6681 -17.6568 -17.6543 -17.6485 -17.6482 -11.8684
   -11.6609 -11.6540 -11.5992 -11.5745 -11.5180 -11.4682 -11.4511 -11.4377
   -11.4275 -11.4248 -11.4214 -11.4088 -11.3958 -11.3843 -11.3756 -11.3460
   -11.3172 -11.3078 -11.3049 -11.2879 -11.2784 -11.2665 -11.2514 -11.2458
   -11.2182 -11.2044 -11.1990 -11.1950 -11.1897 -11.1853 -11.1841 -11.1717
   -11.1387 -11.1363 -11.1301 -11.1206 -11.1156 -11.1008 -11.0986 -11.0969
   -11.0938 -11.0780 -11.0760 -11.0639 -11.0539 -11.0233 -11.0211 -10.9915
   -10.9885 -10.9735 -10.9366 -10.9143 -10.9017 -10.8893 -10.8744 -10.8603
   -10.8529 -10.8425 -10.8359 -10.8301 -10.8093 -10.7904 -10.7843 -10.7661
   -10.7628 -10.7603 -10.7545 -10.7409 -10.7404 -10.7396 -10.7393 -10.7344
   -10.7327 -10.7277 -10.7244 -10.7214 -10.7211 -10.7130 -10.7125 -10.7108
   -10.7096 -10.6728 -10.6725 -10.6720 -10.6717 -10.6255 -10.5751 -10.4838
   -10.4743 -10.4605 -10.4558 -10.4304 -10.4058 -10.3460 -10.3435 -10.3127
   -10.2664 -10.1986 -10.1763 -10.1082 -10.0858 -10.0663 -10.0631 -10.0453
   -10.0396 -10.0269 -10.0238  -9.9958  -9.9862  -9.9733  -9.9689  -9.9646
    -9.9622  -9.9464  -9.9393  -9.9315  -9.9189  -9.8708  -9.8656  -9.8584
    -9.8493  -9.8443  -9.8414  -9.8234  -9.8203  -9.8046  -9.7993  -9.7862
    -9.7689  -9.7590  -9.7426  -9.7187  -9.7142  -9.7043  -9.6983  -9.6763
    -9.6708  -9.6560  -9.6383  -9.6258  -9.6181  -9.5909  -9.5853  -9.5662
    -9.5575  -9.5464  -9.5390  -9.5188  -9.5028  -9.4915  -9.4857  -9.4733
    -9.4716  -9.4603  -9.4467  -9.4219  -9.4193  -9.4179  -9.4069  -9.4014
    -9.3948  -9.3883  -9.3862  -9.3841  -9.3703  -9.3661  -9.3553  -9.3170
    -9.2964  -9.2828  -9.2700  -9.2427  -9.2045  -9.1843  -9.1727  -9.1535
    -9.1403  -9.1377  -9.1325  -9.1301  -9.1088  -9.0911  -9.0785  -9.0726
    -9.0531  -9.0334  -9.0330  -9.0256  -9.0135  -8.9998  -8.9922  -8.9775
    -8.9752  -8.9678  -8.9636  -8.9425  -8.9293  -8.9078  -8.9022  -8.8926
    -8.8795  -8.8745  -8.8700  -8.8611  -8.8487  -8.8359  -8.8308  -8.8190
    -8.8165  -8.8156  -8.8149  -8.8115  -8.8045  -8.8019  -8.7977  -8.7967
    -8.7888  -8.7877  -8.7780  -8.7745  -8.7698  -8.7684  -8.7680  -8.7572
    -8.7445  -8.7289  -8.7225  -8.7209  -8.7172  -8.7132  -8.7129  -8.6923
    -8.6905  -8.6882  -8.6628  -8.6613  -8.6587  -8.6552  -8.6426  -8.6353
    -8.6009  -8.5863  -8.5809  -8.5700  -8.5219  -8.4347  -8.4318  -8.4285
    -8.4008  -8.3833  -8.3670  -8.3282  -8.2867  -8.2762  -8.2486  -8.2100
    -8.1839  -8.1446  -8.0640  -8.0564  -8.0560  -8.0489  -8.0468  -8.0463
    -8.0359  -8.0357  -8.0015  -7.9912  -7.9869  -7.9582  -7.9097  -7.8977
    -7.8923  -7.8562  -7.8086  -7.8006  -7.7820  -7.7710  -7.7656  -7.7617
    -7.7560  -7.7475  -7.7459  -7.7417  -7.7383  -7.7331  -7.7316  -7.7277
    -7.7244  -7.7204  -7.7175  -7.7119  -7.7103  -7.7077  -7.7023  -7.6991
    -7.6966  -7.6950  -7.6931  -7.6921  -7.6917  -7.6883  -7.6867  -7.6830
    -7.6742  -7.6620  -7.6601  -7.6582  -7.6578  -7.6379  -7.6272  -7.6259
    -7.6250  -7.6246  -7.6049  -7.5953  -7.5949  -7.5937  -7.5920  -7.5871
    -7.5793  -7.5621  -7.5523  -7.5383  -7.5370  -7.5343  -7.5297  -7.5288
    -7.5254  -7.5140  -7.5135  -7.5038  -7.4945  -7.4926  -7.4919  -7.4823
    -7.4804  -7.4752  -7.4651  -7.3960  -7.3901  -7.3881  -7.3835  -7.3687
    -7.3634  -7.3150  -7.2834  -7.1851  -7.1471  -7.1221  -7.1042  -7.0966
    -7.0947  -7.0917  -7.0657  -7.0499  -7.0419  -7.0373  -7.0251  -7.0171
    -7.0136  -6.9848  -6.9613  -6.9580  -6.9521  -6.9363  -6.9233  -6.9069
    -6.9047  -6.8922  -6.8668  -6.8473  -6.8438  -6.8392  -6.8358  -6.8112
    -6.8032  -6.7882  -6.7874  -6.7847  -6.7588  -6.7294  -6.7048  -6.6987
    -6.6867  -6.6726  -6.6531  -6.6196  -6.6142  -6.5948  -6.5727  -6.5583
    -6.5466  -6.5393  -6.5361  -6.5342  -6.5336  -6.5295  -6.5253  -6.5169
    -6.5162  -6.5149  -6.5141  -6.5078  -6.5076  -6.5074  -6.5071  -6.4891
    -6.4650  -6.4379  -6.4061  -6.3743  -6.3455  -6.3218  -6.2823  -6.2555
    -6.2522  -6.2495  -6.2485  -6.2354  -6.2270  -6.2220  -6.2059  -6.2058
    -6.2016  -6.2012  -6.1988  -6.1952  -6.1813  -6.1786  -6.1567  -6.1466
    -6.1457  -6.1321  -6.1309  -6.1227  -6.1193  -6.0082  -5.9435  -5.9274
    -5.9155  -5.8942  -5.8572  -5.8447  -5.8317  -5.7819  -5.7770  -5.7302
    -5.6858  -5.6801  -5.6461  -5.6135  -5.5760  -5.5539  -5.5363  -5.4970
    -5.4217  -4.1750  -4.0290  -4.0233  -4.0156  -3.9896  -3.8850  -3.8644
    -3.8543  -3.8473  -3.8460  -3.7921  -3.7725  -3.7688  -3.7594  -3.7515
    -3.7415  -3.7360  -3.7311  -3.7269  -3.7237  -3.6858  -3.6462  -3.6234
    -3.6180  -3.5824  -3.5448  -3.5413  -3.5324  -3.5294  -3.5260  -3.5006
    -3.4824  -3.4791  -3.4716  -3.4568  -3.4534  -3.4484  -3.4410  -3.4340
    -3.4320  -3.4150  -3.4110  -3.4071  -3.4054  -3.4032  -3.4016  -3.3924
    -3.3797  -3.3765  -3.3743  -3.3600  -3.3569  -3.3476  -3.3370  -3.3262
    -3.3045  -3.2849  -3.2796  -3.2757  -3.2734  -3.2720  -3.2666  -3.2629
    -3.2604  -3.2330  -3.2220  -3.2202  -3.2138  -3.2104  -3.2072  -3.2052
    -3.2041  -3.1980  -3.1898  -3.1785  -3.1709  -3.1662  -3.1625  -3.1590
    -3.1551  -3.1422  -3.1392  -3.1354  -3.1289  -3.1186  -3.1159  -3.1062
    -3.1021  -3.1012  -3.0966  -3.0901  -3.0891  -3.0890  -3.0767  -3.0588
    -3.0255  -3.0132  -3.0091  -3.0047  -3.0005  -2.9909  -2.9860  -2.9606
    -2.9550  -2.9504  -2.9498  -2.9481  -2.9473  -2.9432  -2.9408  -2.9360
    -2.9328  -2.9324  -2.9296  -2.9182  -2.9152  -2.9135  -2.9106  -2.9093
    -2.9031  -2.8989  -2.8950  -2.8927  -2.8885  -2.8766  -2.8739  -2.8717
    -2.8642  -2.8615  -2.8577  -2.8492  -2.8452  -2.8333  -2.8278  -2.8195
    -2.8137  -2.8077  -2.8027  -2.8005  -2.7778  -2.7288  -2.7263  -2.7177
    -2.7141  -2.6747  -2.6580  -2.6444  -2.6396  -2.5562  -2.5375  -2.5215
    -2.5108  -2.4982  -2.4872  -2.4827  -2.4715  -2.4627  -2.4574  -2.4544
    -2.4492  -2.4467  -2.4270  -2.3676  -2.3324  -2.3291  -2.3242  -2.3169
    -2.3079  -2.2993  -2.2698  -2.2686

          k =-0.5000-0.8660 0.0000 (386352 PWs)   bands (ev):

  -102.9522 -88.6625 -71.2637 -71.2477 -71.2418 -71.2391 -71.2268 -71.2241
   -71.2166 -66.5517 -66.5502 -66.5481 -66.5480 -66.5480 -66.5479 -66.5468
   -66.5468 -66.5383 -66.5374 -66.5374 -66.5373 -66.5372 -66.5361 -66.5361
   -66.5352 -66.5309 -66.5267 -66.5223 -66.5223 -66.5223 -66.5223 -66.5223
   -66.5222 -66.5222 -66.5221 -66.5210 -66.5210 -66.5210 -66.5210 -66.5179
   -66.5178 -66.5178 -66.5177 -66.5166 -66.5165 -66.5138 -66.5133 -66.5117
   -66.5116 -66.5116 -66.5115 -66.5115 -66.5115 -66.5114 -66.5114 -66.5104
   -66.5103 -66.5103 -66.5102 -66.5071 -66.5071 -66.5071 -66.5070 -66.5059
   -66.5058 -66.5010 -66.4996 -66.4979 -66.4976 -66.4934 -66.4894 -66.4736
   -66.4661 -57.2070 -57.1844 -57.1666 -54.4762 -54.4665 -54.4517 -40.8505
   -40.8501 -40.8500 -40.8500 -40.8500 -40.8499 -40.8499 -40.8498 -40.8498
   -40.8494 -40.8494 -40.8494 -40.8493 -40.8483 -40.8262 -40.8232 -40.8231
   -40.8231 -40.8230 -40.8226 -40.8225 -40.8213 -40.8146 -40.8111 -40.8111
   -40.8110 -40.8110 -40.8105 -40.8105 -40.8079 -40.7908 -40.7808 -40.7664
   -40.7604 -40.7604 -40.7604 -40.7604 -40.7604 -40.7604 -40.7603 -40.7603
   -40.7597 -40.7597 -40.7597 -40.7597 -40.7485 -40.7411 -40.7395 -40.7348
   -40.7314 -40.7078 -40.7017 -40.7016 -40.7015 -40.7015 -40.7011 -40.7010
   -40.6922 -40.6921 -40.6921 -40.6920 -40.6914 -40.6913 -40.6881 -40.6808
   -40.6808 -40.6807 -40.6807 -40.6802 -40.6801 -40.6755 -40.6729 -40.6704
   -40.6676 -40.6542 -40.6511 -40.6511 -40.6511 -40.6511 -40.6511 -40.6511
   -40.6511 -40.6510 -40.6505 -40.6505 -40.6505 -40.6505 -40.6504 -40.6424
   -40.6424 -40.6423 -40.6423 -40.6423 -40.6418 -40.6417 -40.6393 -40.6353
   -40.6343 -40.6307 -40.6307 -40.6306 -40.6305 -40.6302 -40.6301 -40.6301
   -40.6301 -40.6301 -40.6301 -40.6300 -40.6299 -40.6299 -40.6299 -40.6295
   -40.6294 -40.6294 -40.6294 -40.6280 -40.6253 -40.6214 -40.6214 -40.6214
   -40.6214 -40.6207 -40.6207 -40.6198 -40.6179 -40.6088 -40.6079 -40.5998
   -40.5998 -40.5997 -40.5997 -40.5997 -40.5996 -40.5995 -40.5995 -40.5989
   -40.5989 -40.5988 -40.5988 -40.5896 -40.5870 -40.5818 -40.5745 -40.5650
   -40.5650 -40.5650 -40.5650 -40.5649 -40.5649 -40.5648 -40.5648 -40.5641
   -40.5641 -40.5641 -40.5641 -40.5532 -40.5529 -40.5528 -40.5528 -40.5527
   -40.5520 -40.5519 -40.5471 -40.5454 -40.5410 -40.5400 -40.5336 -40.5336
   -40.5335 -40.5333 -40.5326 -40.5326 -40.5221 -40.5165 -40.5165 -40.5165
   -40.5164 -40.5156 -40.5156 -40.5155 -40.5119 -40.4959 -40.4886 -40.4859
   -40.4858 -40.4858 -40.4857 -40.4849 -40.4849 -40.4729 -40.4529 -19.8746
   -19.8259 -19.7902 -19.7701 -19.6894 -19.6757 -19.5838 -19.5795 -19.4181
   -19.4093 -19.3520 -19.3499 -19.2582 -19.2566 -19.1576 -19.1569 -18.8585
   -18.8141 -18.7928 -18.7309 -18.6961 -18.6824 -18.6517 -18.6502 -18.6493
   -18.6433 -18.6311 -18.6152 -18.5840 -18.5792 -18.5734 -18.5684 -18.5310
   -18.5142 -18.5007 -18.4841 -18.4824 -18.4793 -18.4725 -18.4564 -18.4482
   -18.4162 -18.4119 -18.4094 -18.3978 -18.3762 -18.3416 -18.3373 -18.3368
   -18.3193 -18.3088 -18.2887 -18.2718 -18.2611 -18.2514 -18.2158 -18.2023
   -18.1870 -18.1781 -18.1659 -18.1435 -18.1208 -18.1129 -18.1039 -18.0773
   -18.0668 -18.0571 -18.0466 -18.0346 -18.0310 -18.0277 -18.0264 -18.0218
   -18.0046 -18.0037 -17.9998 -17.9986 -17.9934 -17.9912 -17.9884 -17.9822
   -17.9790 -17.9739 -17.9642 -17.9396 -17.9376 -17.9357 -17.9325 -17.9291
   -17.9287 -17.9269 -17.9227 -17.9168 -17.9115 -17.8794 -17.8745 -17.8705
   -17.8649 -17.8606 -17.8557 -17.8242 -17.8215 -17.8194 -17.8100 -17.8015
   -17.7817 -17.7761 -17.7738 -17.7699 -17.7678 -17.7488 -17.7486 -17.7479
   -17.7475 -17.7470 -17.7463 -17.7349 -17.7331 -17.7161 -17.7125 -17.6914
   -17.6882 -17.6724 -17.6681 -17.6568 -17.6543 -17.6485 -17.6482 -11.8684
   -11.6609 -11.6541 -11.5992 -11.5745 -11.5180 -11.4682 -11.4511 -11.4377
   -11.4275 -11.4248 -11.4214 -11.4088 -11.3958 -11.3843 -11.3756 -11.3460
   -11.3172 -11.3078 -11.3049 -11.2879 -11.2784 -11.2665 -11.2514 -11.2458
   -11.2182 -11.2044 -11.1990 -11.1950 -11.1897 -11.1853 -11.1841 -11.1717
   -11.1387 -11.1363 -11.1301 -11.1206 -11.1156 -11.1008 -11.0986 -11.0969
   -11.0938 -11.0780 -11.0760 -11.0639 -11.0539 -11.0233 -11.0211 -10.9915
   -10.9885 -10.9735 -10.9366 -10.9143 -10.9017 -10.8893 -10.8744 -10.8603
   -10.8529 -10.8425 -10.8359 -10.8301 -10.8093 -10.7904 -10.7843 -10.7661
   -10.7628 -10.7603 -10.7545 -10.7409 -10.7404 -10.7396 -10.7393 -10.7344
   -10.7327 -10.7277 -10.7244 -10.7214 -10.7211 -10.7130 -10.7125 -10.7108
   -10.7096 -10.6728 -10.6725 -10.6720 -10.6717 -10.6255 -10.5751 -10.4838
   -10.4743 -10.4605 -10.4558 -10.4304 -10.4058 -10.3460 -10.3435 -10.3127
   -10.2664 -10.1986 -10.1763 -10.1082 -10.0858 -10.0663 -10.0631 -10.0453
   -10.0396 -10.0269 -10.0238  -9.9958  -9.9862  -9.9733  -9.9689  -9.9646
    -9.9622  -9.9464  -9.9393  -9.9315  -9.9189  -9.8708  -9.8656  -9.8584
    -9.8493  -9.8443  -9.8414  -9.8234  -9.8203  -9.8046  -9.7993  -9.7862
    -9.7689  -9.7590  -9.7426  -9.7187  -9.7142  -9.7043  -9.6983  -9.6763
    -9.6708  -9.6560  -9.6383  -9.6258  -9.6181  -9.5909  -9.5853  -9.5662
    -9.5575  -9.5464  -9.5390  -9.5188  -9.5029  -9.4914  -9.4857  -9.4733
    -9.4716  -9.4603  -9.4467  -9.4219  -9.4193  -9.4179  -9.4069  -9.4014
    -9.3948  -9.3883  -9.3862  -9.3842  -9.3703  -9.3661  -9.3553  -9.3170
    -9.2964  -9.2828  -9.2701  -9.2427  -9.2045  -9.1843  -9.1726  -9.1535
    -9.1403  -9.1377  -9.1325  -9.1301  -9.1087  -9.0911  -9.0785  -9.0726
    -9.0531  -9.0334  -9.0330  -9.0256  -9.0134  -8.9999  -8.9922  -8.9775
    -8.9752  -8.9677  -8.9636  -8.9425  -8.9293  -8.9078  -8.9022  -8.8926
    -8.8795  -8.8745  -8.8700  -8.8611  -8.8487  -8.8359  -8.8308  -8.8190
    -8.8165  -8.8156  -8.8149  -8.8115  -8.8045  -8.8019  -8.7977  -8.7967
    -8.7888  -8.7877  -8.7781  -8.7745  -8.7698  -8.7684  -8.7680  -8.7572
    -8.7445  -8.7289  -8.7225  -8.7210  -8.7172  -8.7132  -8.7129  -8.6923
    -8.6906  -8.6882  -8.6628  -8.6613  -8.6587  -8.6552  -8.6426  -8.6353
    -8.6009  -8.5863  -8.5809  -8.5700  -8.5219  -8.4347  -8.4318  -8.4285
    -8.4008  -8.3833  -8.3670  -8.3282  -8.2867  -8.2762  -8.2486  -8.2100
    -8.1839  -8.1446  -8.0640  -8.0564  -8.0560  -8.0489  -8.0468  -8.0463
    -8.0359  -8.0357  -8.0015  -7.9912  -7.9868  -7.9582  -7.9097  -7.8977
    -7.8923  -7.8562  -7.8086  -7.8006  -7.7820  -7.7710  -7.7656  -7.7617
    -7.7559  -7.7475  -7.7459  -7.7417  -7.7383  -7.7331  -7.7316  -7.7277
    -7.7244  -7.7204  -7.7175  -7.7118  -7.7104  -7.7076  -7.7023  -7.6991
    -7.6966  -7.6950  -7.6931  -7.6922  -7.6916  -7.6883  -7.6866  -7.6830
    -7.6742  -7.6620  -7.6602  -7.6582  -7.6578  -7.6379  -7.6272  -7.6259
    -7.6250  -7.6246  -7.6049  -7.5952  -7.5949  -7.5937  -7.5920  -7.5871
    -7.5793  -7.5621  -7.5523  -7.5383  -7.5370  -7.5343  -7.5297  -7.5288
    -7.5254  -7.5140  -7.5135  -7.5038  -7.4945  -7.4926  -7.4919  -7.4823
    -7.4804  -7.4752  -7.4651  -7.3960  -7.3901  -7.3881  -7.3835  -7.3687
    -7.3634  -7.3150  -7.2834  -7.1851  -7.1471  -7.1220  -7.1042  -7.0966
    -7.0948  -7.0917  -7.0657  -7.0499  -7.0419  -7.0373  -7.0251  -7.0171
    -7.0136  -6.9848  -6.9613  -6.9580  -6.9521  -6.9363  -6.9233  -6.9069
    -6.9047  -6.8922  -6.8668  -6.8473  -6.8438  -6.8392  -6.8358  -6.8112
    -6.8032  -6.7882  -6.7874  -6.7847  -6.7588  -6.7294  -6.7048  -6.6987
    -6.6867  -6.6726  -6.6531  -6.6196  -6.6142  -6.5948  -6.5727  -6.5582
    -6.5466  -6.5393  -6.5361  -6.5342  -6.5336  -6.5295  -6.5253  -6.5169
    -6.5163  -6.5150  -6.5141  -6.5078  -6.5076  -6.5074  -6.5072  -6.4891
    -6.4650  -6.4379  -6.4061  -6.3743  -6.3455  -6.3218  -6.2823  -6.2556
    -6.2521  -6.2495  -6.2485  -6.2354  -6.2270  -6.2220  -6.2059  -6.2058
    -6.2016  -6.2012  -6.1988  -6.1952  -6.1813  -6.1786  -6.1567  -6.1466
    -6.1457  -6.1320  -6.1310  -6.1228  -6.1193  -6.0082  -5.9435  -5.9274
    -5.9155  -5.8943  -5.8572  -5.8447  -5.8317  -5.7818  -5.7770  -5.7302
    -5.6858  -5.6801  -5.6461  -5.6135  -5.5760  -5.5539  -5.5363  -5.4970
    -5.4217  -4.1750  -4.0290  -4.0233  -4.0155  -3.9896  -3.8850  -3.8644
    -3.8543  -3.8473  -3.8460  -3.7921  -3.7725  -3.7688  -3.7594  -3.7515
    -3.7415  -3.7360  -3.7311  -3.7269  -3.7237  -3.6858  -3.6462  -3.6234
    -3.6180  -3.5824  -3.5448  -3.5414  -3.5323  -3.5294  -3.5260  -3.5007
    -3.4824  -3.4791  -3.4716  -3.4568  -3.4534  -3.4484  -3.4410  -3.4340
    -3.4320  -3.4150  -3.4110  -3.4071  -3.4054  -3.4032  -3.4016  -3.3924
    -3.3797  -3.3765  -3.3743  -3.3600  -3.3569  -3.3476  -3.3370  -3.3262
    -3.3045  -3.2849  -3.2797  -3.2757  -3.2734  -3.2720  -3.2666  -3.2629
    -3.2604  -3.2330  -3.2220  -3.2202  -3.2138  -3.2104  -3.2072  -3.2052
    -3.2041  -3.1980  -3.1898  -3.1785  -3.1708  -3.1662  -3.1625  -3.1590
    -3.1551  -3.1422  -3.1392  -3.1354  -3.1290  -3.1186  -3.1160  -3.1062
    -3.1022  -3.1013  -3.0967  -3.0901  -3.0891  -3.0890  -3.0768  -3.0589
    -3.0256  -3.0132  -3.0091  -3.0047  -3.0005  -2.9909  -2.9861  -2.9606
    -2.9551  -2.9504  -2.9498  -2.9481  -2.9473  -2.9433  -2.9409  -2.9360
    -2.9328  -2.9324  -2.9296  -2.9182  -2.9153  -2.9136  -2.9106  -2.9094
[...]
     atom  169 type  1   force =     0.00001747    0.00000824    0.00068697
     atom  170 type  1   force =    -0.00001079    0.00000709   -0.00000099
     atom  171 type  2   force =     0.00000490    0.00000341   -0.00000957
     atom  172 type  2   force =     0.00000055    0.00000160    0.00163196
     atom  173 type  2   force =    -0.00000025   -0.00000007   -0.00237868
     atom  174 type  2   force =     0.00000566    0.00000309    0.00000059
     atom  175 type  1   force =     0.00000897   -0.00000569    0.00001917
     atom  176 type  1   force =    -0.00000156    0.00002096   -0.00031850
     atom  177 type  2   force =    -0.00038990   -0.00025117   -0.00025135
     atom  178 type  2   force =     0.00000024    0.00000605    0.00003565
     atom  179 type  2   force =     0.00000070   -0.00000893   -0.00000745
     atom  180 type  2   force =    -0.00008716   -0.00004896   -0.00025828
     atom  181 type  1   force =     0.00000620    0.00000540    0.00068511
     atom  182 type  1   force =     0.00001638   -0.00001571   -0.00001239
     atom  183 type  2   force =     0.00000617   -0.00000592   -0.00001423
     atom  184 type  2   force =     0.00000312   -0.00000038    0.00163054
     atom  185 type  2   force =     0.00000029   -0.00000204   -0.00237626
     atom  186 type  2   force =     0.00000378   -0.00000472    0.00000379
     atom  187 type  1   force =     0.00000682    0.00002390    0.00002435
     atom  188 type  1   force =     0.00006498   -0.00001024   -0.00028891
     atom  189 type  2   force =    -0.00040944    0.00021070    0.00052915
     atom  190 type  2   force =     0.00002011   -0.00000351    0.00002812
     atom  191 type  2   force =    -0.00000237    0.00000638   -0.00000604
     atom  192 type  2   force =     0.00032425   -0.00012994    0.00017576
     atom  193 type  3   force =     0.00000102    0.00004359   -0.00029600
     atom  194 type  4   force =     0.00000002    0.00020700   -0.00050718

     Total force =     0.003549     Total SCF correction =     0.002487
     SCF correction compared to forces is large: reduce conv_thr to get better values
     Energy error            =      4.9E-05 Ry
     Gradient error          =      8.6E-04 Ry/Bohr

     bfgs converged in  16 scf cycles and  15 bfgs steps
     (criteria: energy <  1.0E-04 Ry, force <  1.0E-03 Ry/Bohr)

     End of BFGS Geometry Optimization

     Final energy             =  -33980.2847736118 Ry

     File ./outdir/pwscf.bfgs deleted, as requested
Begin final coordinates

ATOMIC_POSITIONS (angstrom)
Mo               0.0000119917        1.8193638619       -9.1672481230    0   0   0
Mo               1.5756136568        0.9097075315       -3.0554901653    0   0   0
S                0.0000188998        1.8193822938       -4.6232556019    0   0   0
S                1.5756321638        0.9096773839       -7.6014065489    0   0   0
S                1.5756326175        0.9096785128      -10.7330757790    0   0   0
S                0.0000189190        1.8193860094       -1.4877129945    0   0   0
Mo              -0.0001343246        1.8194747912        3.0561407647
Mo               1.5756702959        0.9095129250        9.1475120017
S               -0.0002609048        1.8237722242        7.5805824199
S                1.5756534367        0.9093863406        4.6231535353
S                1.5756541360        0.9099449957        1.4881958703
S                0.0148976017        1.8059301934       10.7297118569
Mo              -1.5756053507        4.5484193819       -9.1672481230    0   0   0
Mo               0.0000378379        3.6387394919       -3.0554952701    0   0   0
S               -1.5755913433        4.5484363582       -4.6232494962    0   0   0
S                0.0000148214        3.6387329039       -7.6014065489    0   0   0
S                0.0000152751        3.6387340328      -10.7330757790    0   0   0
S               -1.5755906502        4.5484413613       -1.4877305502    0   0   0
Mo              -1.5755452241        4.5484804523        3.0564585926
Mo              -0.0060695315        3.6283182070        9.1667281326
S               -1.5736951786        4.5473949714        7.5882664566
S                0.0006409507        3.6391799957        4.6236644454
S               -0.0002234137        3.6387673417        1.4882077299
S               -1.5697925541        4.5606948873       10.7327206384
Mo              -3.1512226931        7.2774749019       -9.1672481230    0   0   0
Mo              -1.5755910988        6.3678216792       -3.0555115988    0   0   0
S               -3.1512162438        7.2774954350       -4.6232578178    0   0   0
S               -1.5756025210        6.3677884239       -7.6014065489    0   0   0
S               -1.5756020673        6.3677895528      -10.7330757790    0   0   0
S               -3.1512127704        7.2774877076       -1.4877200710    0   0   0
Mo              -3.1510944158        7.2774249666        3.0557142742
Mo              -1.5892950096        6.3659777898        9.1609030318
S               -3.1527275074        7.2788076676        7.5847201555
S               -1.5752770170        6.3682953610        4.6239182883
S               -1.5754569748        6.3676329140        1.4882796439
S               -3.1659551361        7.2806983856       10.7281211030
Mo              -4.7268400355       10.0065304219       -9.1672481230    0   0   0
Mo              -3.1512405618        9.0968403586       -3.0554816746    0   0   0
S               -4.7268341792       10.0065523623       -4.6232463762    0   0   0
S               -3.1512198634        9.0968439439       -7.6014065489    0   0   0
S               -3.1512194097        9.0968450728      -10.7330757790    0   0   0
S               -4.7268370797       10.0065537885       -1.4877176751    0   0   0
Mo              -4.7268153326       10.0064618094        3.0554197672
Mo              -3.1543391376        9.0966236948        9.1575029353
S               -4.7267960825       10.0024399665        7.5838164010
S               -3.1511484498        9.0968171331        4.6230234854
S               -3.1508417643        9.0969014297        1.4880296124
S               -4.7267959756       10.0082888389       10.7224446082
Mo               3.1512517547        1.8193638619       -9.1672481230    0   0   0
Mo               4.7269020221        0.9097289540       -3.0554823951    0   0   0
S                3.1512612351        1.8193882564       -4.6232320683    0   0   0
S                4.7268719268        0.9096773839       -7.6014065489    0   0   0
S                4.7268723805        0.9096785128      -10.7330757790    0   0   0
S                3.1512592485        1.8193890201       -1.4877261251    0   0   0
Mo               3.1514497742        1.8194737155        3.0561404595
Mo               4.7066195133        0.9053658624        9.1610360029
S                3.1515977463        1.8237726003        7.5805818133
S                4.7276672063        0.9099388865        4.6239615564
S                4.7269238434        0.9096046399        1.4883356186
S                3.1364434104        1.8059327687       10.7297051417
Mo               1.5756344123        4.5484193819       -9.1672481230    0   0   0
Mo               3.1512756394        3.6387769522       -3.0554814834    0   0   0
S                1.5756504879        4.5484423799       -4.6232390542    0   0   0
S                3.1512545844        3.6387329039       -7.6014065489    0   0   0
S                3.1512550381        3.6387340328      -10.7330757790    0   0   0
S                1.5756466253        4.5484431864       -1.4877251801    0   0   0
Mo               1.5756566739        4.5487166425        3.0553478755
Mo               3.1574188668        3.6283201609        9.1667225987
S                1.5756732261        4.5728156622        7.6353600193
S                3.1506756050        3.6391808730        4.6236608039
S                3.1515409080        3.6387681431        1.4882174503
S                1.5756775083        4.4430949098       10.7842175182
Mo               0.0000170699        7.2774749019       -9.1672481230    0   0   0
Mo               1.5756764447        6.3678236689       -3.0554877708    0   0   0
S                0.0000381981        7.2774979204       -4.6232454413    0   0   0
S                1.5756372420        6.3677884239       -7.6014065489    0   0   0
S                1.5756376957        6.3677895528      -10.7330757790    0   0   0
S                0.0000328088        7.2774946042       -1.4877307940    0   0   0
Mo               0.0002571143        7.2775712252        3.0558488478
Mo               1.5756795176        6.3681698857        9.2210096815
S                0.0209156255        7.2657353504        7.6309660583
S                1.5756607377        6.3677907840        4.6233381742
S                1.5756619307        6.3680091661        1.4877129263
S               -0.1063176087        7.3145493742       10.7862004795
Mo              -1.5756002725       10.0065304219       -9.1672481230    0   0   0
Mo               0.0000873425        9.0968676911       -3.0554912329    0   0   0
S               -1.5755883952       10.0065504530       -4.6232240150    0   0   0
S                0.0000198996        9.0968439439       -7.6014065489    0   0   0
S                0.0000203533        9.0968450728      -10.7330757790    0   0   0
S               -1.5755859047       10.0065492576       -1.4877362381    0   0   0
Mo              -1.5752052142       10.0065478307        3.0562980938
Mo              -0.0213531662        9.0940764021        9.1764065574
S               -1.5757646229       10.0042135454        7.5881815574
S                0.0005325663        9.0966248951        4.6245708311
S                0.0001486836        9.0969754691        1.4883570523
S               -1.5918504605       10.0157899724       10.7322461267
Mo               6.3024915177        1.8193638619       -9.1672481230    0   0   0
Mo               7.8781001445        0.9096521684       -3.0554919963    0   0   0
S                6.3025008696        1.8193826232       -4.6232480596    0   0   0
S                7.8781116898        0.9096773839       -7.6014065489    0   0   0
S                7.8781121435        0.9096785128      -10.7330757790    0   0   0
S                6.3025042007        1.8193849068       -1.4877147524    0   0   0
Mo               6.3027745300        1.8192599511        3.0557113564
Mo               7.8781472497        0.9110588871        9.2186807008
S                6.3267710682        1.8073268480        7.6386531244
S                7.8781364172        0.9096412344        4.6238454885
S                7.8781349986        0.9094233354        1.4879394017
S                6.1728143404        1.8933744006       10.7988164042
Mo               4.7268741753        4.5484193819       -9.1672481230    0   0   0
Mo               6.3024679138        3.6387501714       -3.0554895197    0   0   0
S                4.7268748770        4.5484386753       -4.6232519432    0   0   0
S                6.3024943474        3.6387329039       -7.6014065489    0   0   0
S                6.3024948011        3.6387340328      -10.7330757790    0   0   0
S                4.7268770533        4.5484432419       -1.4877137856    0   0   0
Mo               4.7268601586        4.5484814969        3.0564571072
Mo               6.2974821797        3.6570380727        9.1669009991
S                4.7250468491        4.5474010638        7.5882630467
S                6.3026692622        3.6381391524        4.6240002015
S                6.3023951751        3.6388627407        1.4883440449
S                4.7211448908        4.5607005204       10.7327114255
Mo               3.1512568329        7.2774749019       -9.1672481230    0   0   0
Mo               4.7268384135        6.3678043337       -3.0554959052    0   0   0
S                3.1512606125        7.2774972547       -4.6232589675    0   0   0
S                4.7268770050        6.3677884239       -7.6014065489    0   0   0
S                4.7268774587        6.3677895528      -10.7330757790    0   0   0
S                3.1512629079        7.2774963749       -1.4877081835    0   0   0
Mo               3.1510690201        7.2775711448        3.0558499959
Mo               4.7406539030        6.3659829156        9.1608979650
S                3.1304416577        7.2657401592        7.6309648091
S                4.7265992284        6.3682997679        4.6239258839
S                4.7267805321        6.3676340139        1.4882832335
S                3.2576787808        7.3145505119       10.7861969320
Mo               1.5756394905       10.0065304219       -9.1672481230    0   0   0
Mo               3.1512330605        9.0968514907       -3.0554878870    0   0   0
S                1.5756499830       10.0065443759       -4.6232632674    0   0   0
S                3.1512596626        9.0968439439       -7.6014065489    0   0   0
S                3.1512601163        9.0968450728      -10.7330757790    0   0   0
S                1.5756503041       10.0065459699       -1.4877044377    0   0   0
Mo               1.5756664524       10.0065233774        3.0562607280
Mo               3.1727200014        9.0940774101        9.1764075616
S                1.5756826435       10.0303521267        7.6463248144
S                3.1507951016        9.0966257321        4.6245765215
S                3.1511787313        9.0969767560        1.4883544555
S                1.5756844904        9.8541577399       10.8085440091
Mo               9.4537312807        1.8193638619       -9.1672481230    0   0   0
Mo              11.0293863460        0.9096952246       -3.0554894007    0   0   0
S                9.4537395970        1.8193770750       -4.6232328036    0   0   0
S               11.0293514528        0.9096773839       -7.6014065489    0   0   0
S               11.0293519066        0.9096785128      -10.7330757790    0   0   0
S                9.4537393632        1.8193794783       -1.4877366147    0   0   0
Mo               9.4534949666        1.8192573548        3.0557129035
Mo              11.0496807338        0.9053635116        9.1610414629
S                9.4295330107        1.8073260156        7.6386533771
S               11.0285983123        0.9099389360        4.6239597730
S               11.0293412746        0.9096013809        1.4883369380
S                9.5834715658        1.8933617415       10.7988240582
Mo               7.8781139383        4.5484193819       -9.1672481230    0   0   0
Mo               9.4537539161        3.6387607911       -3.0554933032    0   0   0
S                7.8781175448        4.5484378232       -4.6232366318    0   0   0
S                9.4537341104        3.6387329039       -7.6014065489    0   0   0
S                9.4537345641        3.6387340328      -10.7330757790    0   0   0
S                7.8781194018        4.5484411585       -1.4877377057    0   0   0
Mo               7.8781388030        4.5481804043        3.0560924252
Mo               9.4588275377        3.6570344682        9.1669061586
S                7.8781581846        4.5486136202        7.5902052960
S                9.4536095650        3.6381401702        4.6239906173
S                9.4538782710        3.6388613699        1.4883458684
S                7.8781554023        4.5553162075       10.7293532124
Mo               6.3024965959        7.2774749019       -9.1672481230    0   0   0
Mo               7.8781361655        6.3678242352       -3.0555014130    0   0   0
S                6.3024973331        7.2774953556       -4.6232392528    0   0   0
S                7.8781167680        6.3677884239       -7.6014065489    0   0   0
S                7.8781172217        6.3677895528      -10.7330757790    0   0   0
S                6.3024989866        7.2774929744       -1.4877349119    0   0   0
Mo               6.3024177717        7.2774236329        3.0557156699
Mo               7.8781598546        6.3708937513        9.1559320853
S                6.3040934265        7.2788109207        7.5847172470
S                7.8781407657        6.3676380111        4.6231718465
S                7.8781377273        6.3675827557        1.4880847674
S                6.3173165127        7.2806991219       10.7281188075
Mo               4.7268792535       10.0065304219       -9.1672481230    0   0   0
Mo               6.3025111524        9.0968738021       -3.0554915260    0   0   0
S                4.7268840634       10.0065452125       -4.6232380477    0   0   0
S                6.3024994256        9.0968439439       -7.6014065489    0   0   0
S                6.3024998793        9.0968450728      -10.7330757790    0   0   0
S                4.7268847312       10.0065459141       -1.4877283294    0   0   0
Mo               4.7265351985       10.0065471142        3.0562994171
Mo               6.3057063475        9.0966249812        9.1575029982
S                4.7271324381       10.0042149350        7.5881791284
S                6.3024797472        9.0968185667        4.6230202036
S                6.3021703495        9.0969007130        1.4880387852
S                4.7432200528       10.0157878083       10.7322505007
Pd               1.5756834809        6.3792358835       12.1037310732
Pt               7.8781316089        0.9018133325       11.9618037380
End final coordinates



     Writing all to output data dir ./outdir/pwscf.save/ :
     XML data file, charge density, pseudopotentials, collected wavefunctions
 
     init_run     :    173.48s CPU    177.41s WALL (       1 calls)
     electrons    :  19527.47s CPU  19727.58s WALL (       1 calls)
     forces       :    131.22s CPU    133.62s WALL (       1 calls)
     force_dftd3  :      0.65s CPU      0.70s WALL (       1 calls)

     Called by init_run:
     wfcinit      :    149.51s CPU    151.88s WALL (       1 calls)
     potinit      :      1.37s CPU      1.53s WALL (       1 calls)
     hinit0       :     12.93s CPU     13.12s WALL (       1 calls)

     Called by electrons:
     c_bands      :  18521.44s CPU  18684.72s WALL (      14 calls)
     sum_band     :    893.99s CPU    913.00s WALL (      14 calls)
     v_of_rho     :      5.25s CPU      6.05s WALL (      15 calls)
     newd         :     94.41s CPU    111.69s WALL (      15 calls)
     PAW_pot      :     12.95s CPU     13.13s WALL (      15 calls)
     mix_rho      :      1.55s CPU      1.74s WALL (      14 calls)
     energy_dftd3 :      0.38s CPU      0.39s WALL (       1 calls)

     Called by c_bands:
     init_us_2    :     29.71s CPU     30.06s WALL (     120 calls)
     init_us_2:cp :     29.71s CPU     30.06s WALL (     120 calls)
     cegterg      :  18397.09s CPU  18559.35s WALL (      79 calls)

     Called by *egterg:
     cdiaghg      :    880.01s CPU    912.60s WALL (    1281 calls)
     h_psi        :   8889.24s CPU   8944.54s WALL (    1303 calls)
     s_psi        :   1973.08s CPU   1986.64s WALL (    1303 calls)
     g_psi        :     19.79s CPU     19.88s WALL (    1220 calls)

     Called by h_psi:
     h_psi:calbec :   2042.01s CPU   2050.24s WALL (    1303 calls)
     vloc_psi     :   4836.50s CPU   4862.37s WALL (    1303 calls)
     add_vuspsi   :   1973.52s CPU   1987.39s WALL (    1303 calls)

     General routines
     calbec       :   2396.36s CPU   2406.32s WALL (    1375 calls)
     fft          :      6.16s CPU      6.75s WALL (     204 calls)
     ffts         :      0.27s CPU      0.29s WALL (      29 calls)
     fftw         :   3335.89s CPU   3353.27s WALL (  874960 calls)
     interpolate  :      0.46s CPU      0.52s WALL (      15 calls)
 
     Parallel routines
 
     PWSCF        :      5h30m CPU      5h35m WALL

 
   This run was terminated on:  21: 0: 5  19Mar2024            

=------------------------------------------------------------------------------=
   JOB DONE.
=------------------------------------------------------------------------------=
