
     Program PWSCF v.7.3 starts on 27Mar2024 at  9:23:26 

     This program is part of the open-source Quantum ESPRESSO suite
     for quantum simulation of materials; please cite
         "P. Giannozzi et al., J. Phys.:Condens. Matter 21 395502 (2009);
         "P. Giannozzi et al., J. Phys.:Condens. Matter 29 465901 (2017);
         "P. Giannozzi et al., J. Chem. Phys. 152 154105 (2020);
          URL http://www.quantum-espresso.org", 
     in publications or presentations arising from this work. More details at
     http://www.quantum-espresso.org/quote

     Parallel version (MPI & OpenMP), running on      36 processor cores
     Number of MPI processes:                36
     Threads/MPI process:                     1

     MPI processes distributed on     1 nodes
     557165 MiB available memory on the printing compute node when the environment starts
 
     Waiting for input...
     Reading input from standard input
Warning: card &CELL ignored
Warning: card / ignored

     Current dimensions of program PWSCF are:
     Max number of different atomic species (ntypx) = 10
     Max number of k-points (npk) =  40000
     Max angular momentum in pseudopotentials (lmaxx) =  4
     file Mo.pbe-spn-kjpaw_psl.1.0.0.UPF: wavefunction(s)  4S 4D renormalized
     file S.pbe-n-kjpaw_psl.1.0.0.UPF: wavefunction(s)  3S 3P renormalized
     file Pt.pbe-spfn-kjpaw_psl.1.0.0.UPF: wavefunction(s)  5P 4F renormalized
     file Pd.pbe-spn-kjpaw_psl.1.0.0.UPF: wavefunction(s)  4S 5S 4D renormalized
 
     R & G space division:  proc/nbgrp/npool/nimage =      36
     Subspace diagonalization in iterative solution of the eigenvalue problem:
     one sub-group per band group will be used
     scalapack distributed-memory algorithm (size of sub-group:  6*  6 procs)

 
     Parallelization info
     --------------------
     sticks:   dense  smooth     PW     G-vecs:    dense   smooth      PW
     Min         586     335     89               165416    71459    9765
     Max         587     337     90               165425    71461    9778
     Sum       21109   12085   3205              5955087  2572543  351657
 
     Using Slab Decomposition
 


     bravais-lattice index     =            0
     lattice parameter (alat)  =      23.8395  a.u.
     unit-cell volume          =   28182.8498 (a.u.)^3
     number of atoms/cell      =          147
     number of atomic types    =            4
     number of electrons       =      1330.00
     number of Kohn-Sham states=          798
     kinetic-energy cutoff     =      77.0000  Ry
     charge density cutoff     =     539.0000  Ry
     scf convergence threshold =      1.0E-06
     mixing beta               =       0.2000
     number of iterations used =            8  plain     mixing
     energy convergence thresh.=      1.0E-04
     force convergence thresh. =      1.0E-03
     Exchange-correlation= SLA  PW   PBX  PBC
                           (   1   4   3   4   0   0   0)
     nstep                     =         1000


     Effective Screening Medium Method
     =================================
     Boundary Conditions: Vacuum-Slab-Vacuum
     total charge in unit cell        =   0.0000
     grid points for fit at edges     =        4 
 

     celldm(1)=  23.839504  celldm(2)=   0.000000  celldm(3)=   0.000000
     celldm(4)=   0.000000  celldm(5)=   0.000000  celldm(6)=   0.000000

     crystal axes: (cart. coord. in units of alat)
               a(1) = (   1.000000   0.000000   0.000000 )  
               a(2) = (  -0.500001   0.866026   0.000000 )  
               a(3) = (   0.000000   0.000000   2.401941 )  

     reciprocal axes: (cart. coord. in units 2 pi/alat)
               b(1) = (  1.000000  0.577351  0.000000 )  
               b(2) = (  0.000000  1.154700  0.000000 )  
               b(3) = (  0.000000  0.000000  0.416330 )  


     PseudoPot. # 1 for Mo read from file:
     ./pseudo/Mo.pbe-spn-kjpaw_psl.1.0.0.UPF
     MD5 check sum: 317bf72632116215fd98f72de1686f13
     Pseudo is Projector augmented-wave + core cor, Zval = 14.0
     Generated using 'atomic' code by A. Dal Corso  v.7.2
     Shape of augmentation charge: PSQ
     Using radial grid of 1229 points,  6 beta functions with: 
                l(1) =   0
                l(2) =   0
                l(3) =   1
                l(4) =   1
                l(5) =   2
                l(6) =   2
     Q(r) pseudized with 0 coefficients 


     PseudoPot. # 2 for S  read from file:
     ./pseudo/S.pbe-n-kjpaw_psl.1.0.0.UPF
     MD5 check sum: 8b7b5302570d38d5e87fed6a1065abda
     Pseudo is Projector augmented-wave + core cor, Zval =  6.0
     Generated using 'atomic' code by A. Dal Corso  v.7.2
     Shape of augmentation charge: PSQ
     Using radial grid of 1151 points,  6 beta functions with: 
                l(1) =   0
                l(2) =   0
                l(3) =   1
                l(4) =   1
                l(5) =   2
                l(6) =   2
     Q(r) pseudized with 0 coefficients 


     PseudoPot. # 3 for Pt read from file:
     ./pseudo/Pt.pbe-spfn-kjpaw_psl.1.0.0.UPF
     MD5 check sum: 620096ebf4e6ebacc94de60fd67efcb5
     Pseudo is Projector augmented-wave + core cor, Zval = 32.0
     Generated using 'atomic' code by A. Dal Corso  v.7.2
     Shape of augmentation charge: PSQ
     Using radial grid of 1277 points,  8 beta functions with: 
                l(1) =   0
                l(2) =   0
                l(3) =   1
                l(4) =   1
                l(5) =   2
                l(6) =   2
                l(7) =   3
                l(8) =   3
     Q(r) pseudized with 0 coefficients 


     PseudoPot. # 4 for Pd read from file:
     ./pseudo/Pd.pbe-spn-kjpaw_psl.1.0.0.UPF
     MD5 check sum: a60571a671f2502b8a6a4569d20a6edb
     Pseudo is Projector augmented-wave + core cor, Zval = 18.0
     Generated using 'atomic' code by A. Dal Corso  v.7.2
     Shape of augmentation charge: PSQ
     Using radial grid of 1235 points,  6 beta functions with: 
                l(1) =   0
                l(2) =   0
                l(3) =   1
                l(4) =   1
                l(5) =   2
                l(6) =   2
     Q(r) pseudized with 0 coefficients 


     atomic species   valence    mass     pseudopotential
     Mo               14.00    95.95000     Mo( 1.00)
     S                 6.00    32.06000     S ( 1.00)
     Pt               32.00   195.08400     Pt( 1.00)
     Pd               18.00   106.42000     Pd( 1.00)

     No symmetry found



   Cartesian axes

     site n.     atom                  positions (alat units)
         1        Mo     tau(   1) = (   0.1245154   0.2145629   0.4838883  )
         2        Mo     tau(   2) = (   0.1250004   0.0721694  -0.4825273  )
         3        Mo     tau(   3) = (   0.0000425   0.1442456   0.0000619  )
         4        S      tau(   4) = (   0.0000004   0.0000006  -0.6064556  )
         5        S      tau(   5) = (   0.1250289   0.0721378  -0.1240905  )
         6        S      tau(   6) = (   0.0004348   0.1425943   0.3589312  )
         7        S      tau(   7) = (   0.0000004   0.0000005  -0.3584711  )
         8        S      tau(   8) = (   0.1250590   0.0720566   0.1242171  )
         9        S      tau(   9) = (  -0.0003812   0.1430770   0.6082257  )
        10        Mo     tau(  10) = (  -0.0007514   0.4316905   0.4830160  )
        11        Mo     tau(  11) = (   0.0000001   0.2886759  -0.4825273  )
        12        Mo     tau(  12) = (  -0.1249521   0.3607434   0.0000147  )
        13        S      tau(  13) = (  -0.1249999   0.2165071  -0.6064556  )
        14        S      tau(  14) = (   0.0000696   0.2885943  -0.1240368  )
        15        S      tau(  15) = (  -0.1243620   0.3589267   0.3580713  )
        16        S      tau(  16) = (  -0.1249998   0.2165070  -0.3584711  )
        17        S      tau(  17) = (   0.0000810   0.2885804   0.1243185  )
        18        S      tau(  18) = (  -0.1257647   0.3594678   0.6068568  )
        19        Mo     tau(  19) = (  -0.1258132   0.6483948   0.4805624  )
        20        Mo     tau(  20) = (  -0.1250002   0.5051824  -0.4825273  )
        21        Mo     tau(  21) = (  -0.2499883   0.5772682  -0.0000419  )
        22        S      tau(  22) = (  -0.2500002   0.4330136  -0.6064556  )
        23        S      tau(  23) = (  -0.1249379   0.5050979  -0.1240947  )
        24        S      tau(  24) = (  -0.2506625   0.5759186   0.3568926  )
        25        S      tau(  25) = (  -0.2500001   0.4330135  -0.3584711  )
        26        S      tau(  26) = (  -0.1250441   0.5050577   0.1241569  )
        27        S      tau(  27) = (  -0.2487337   0.5760113   0.6060824  )
        28        Mo     tau(  28) = (   0.2499313  -0.0010413   0.4821860  )
        29        Mo     tau(  29) = (  -0.2500004   0.7216889  -0.4825273  )
        30        Mo     tau(  30) = (  -0.3749657   0.7937917  -0.0000260  )
        31        S      tau(  31) = (  -0.3750004   0.6495201  -0.6064556  )
        32        S      tau(  32) = (  -0.2499441   0.7216334  -0.1241298  )
        33        S      tau(  33) = (  -0.3753987   0.7929794   0.3583883  )
        34        S      tau(  34) = (  -0.3750004   0.6495200  -0.3584711  )
        35        S      tau(  35) = (  -0.2499697   0.7216106   0.1241587  )
        36        S      tau(  36) = (  -0.3740548   0.7924718   0.6070428  )
        37        Mo     tau(  37) = (   0.3754903   0.2138312   0.4824355  )
        38        Mo     tau(  38) = (   0.3750004   0.0721694  -0.4825273  )
        39        Mo     tau(  39) = (   0.2500190   0.1443049   0.0000251  )
        40        S      tau(  40) = (   0.2500004   0.0000006  -0.6064556  )
        41        S      tau(  41) = (   0.3750395   0.0721655  -0.1240658  )
        42        S      tau(  42) = (   0.2492498   0.1434297   0.3583124  )
        43        S      tau(  43) = (   0.2500004   0.0000005  -0.3584711  )
        44        S      tau(  44) = (   0.3749990   0.0721134   0.1242290  )
        45        S      tau(  45) = (   0.2505186   0.1425747   0.6070242  )
        46        Mo     tau(  46) = (   0.2489619   0.4303408   0.4857216  )
        47        Mo     tau(  47) = (   0.2500001   0.2886759  -0.4825273  )
        48        Mo     tau(  48) = (   0.1250526   0.3607813   0.0000840  )
        49        S      tau(  49) = (   0.1250001   0.2165071  -0.6064556  )
        50        S      tau(  50) = (   0.2500419   0.2886606  -0.1240379  )
        51        S      tau(  51) = (   0.1261759   0.3597087   0.3613462  )
        52        S      tau(  52) = (   0.1250002   0.2165070  -0.3584711  )
        53        S      tau(  53) = (   0.2500376   0.2886120   0.1243390  )
        54        S      tau(  54) = (   0.1185564   0.3555008   0.6138384  )
        55        Mo     tau(  55) = (   0.1202279   0.6507949   0.4802728  )
        56        Mo     tau(  56) = (   0.1249998   0.5051824  -0.4825273  )
        57        Mo     tau(  57) = (   0.0000374   0.5772595   0.0000671  )
        58        S      tau(  58) = (  -0.0000002   0.4330136  -0.6064556  )
        59        S      tau(  59) = (   0.1250566   0.5051315  -0.1240039  )
        60        S      tau(  60) = (  -0.0017492   0.5751181   0.3561394  )
        61        S      tau(  61) = (  -0.0000001   0.4330135  -0.3584711  )
        62        S      tau(  62) = (   0.1250592   0.5050887   0.1243806  )
        63        S      tau(  63) = (  -0.0025886   0.5770810   0.6054654  )
        64        Mo     tau(  64) = (   0.4997787  -0.0005006   0.4806072  )
        65        Mo     tau(  65) = (  -0.0000004   0.7216889  -0.4825273  )
        66        Mo     tau(  66) = (  -0.1249578   0.7938077  -0.0000124  )
        67        S      tau(  67) = (  -0.1250004   0.6495201  -0.6064556  )
        68        S      tau(  68) = (   0.0000912   0.7216231  -0.1240278  )
        69        S      tau(  69) = (  -0.1257861   0.7933803   0.3568273  )
        70        S      tau(  70) = (  -0.1250004   0.6495200  -0.3584711  )
        71        S      tau(  71) = (  -0.0000101   0.7216131   0.1242707  )
        72        S      tau(  72) = (  -0.1247631   0.7926968   0.6053221  )
        73        Mo     tau(  73) = (   0.6254983   0.2150747   0.4816248  )
        74        Mo     tau(  74) = (   0.6250004   0.0721694  -0.4825273  )
        75        Mo     tau(  75) = (   0.5000176   0.1443256   0.0000522  )
        76        S      tau(  76) = (   0.5000004   0.0000006  -0.6064556  )
        77        S      tau(  77) = (   0.6250309   0.0721123  -0.1240107  )
        78        S      tau(  78) = (   0.5001073   0.1438670   0.3568675  )
        79        S      tau(  79) = (   0.5000004   0.0000005  -0.3584711  )
        80        S      tau(  80) = (   0.6250184   0.0721649   0.1242372  )
        81        S      tau(  81) = (   0.5008579   0.1421657   0.6061011  )
        82        Mo     tau(  82) = (   0.5020927   0.4305259   0.4835992  )
        83        Mo     tau(  83) = (   0.5000001   0.2886759  -0.4825273  )
        84        Mo     tau(  84) = (   0.3750096   0.3608300   0.0000853  )
        85        S      tau(  85) = (   0.3750001   0.2165071  -0.6064556  )
        86        S      tau(  86) = (   0.5000130   0.2886647  -0.1240153  )
        87        S      tau(  87) = (   0.3740918   0.3603366   0.3614179  )
        88        S      tau(  88) = (   0.3750002   0.2165070  -0.3584711  )
        89        S      tau(  89) = (   0.4999600   0.2886676   0.1243287  )
        90        S      tau(  90) = (   0.3826295   0.3540684   0.6107884  )
        91        Mo     tau(  91) = (   0.3754347   0.6495598   0.4856131  )
        92        Mo     tau(  92) = (   0.3749998   0.5051824  -0.4825273  )
        93        Mo     tau(  93) = (   0.2500442   0.5772815   0.0001210  )
        94        S      tau(  94) = (   0.2499998   0.4330136  -0.6064556  )
        95        S      tau(  95) = (   0.3750010   0.5051487  -0.1240235  )
        96        S      tau(  96) = (   0.2505704   0.5754266   0.3628441  )
        97        S      tau(  97) = (   0.2499999   0.4330135  -0.3584711  )
        98        S      tau(  98) = (   0.3750559   0.5051422   0.1243805  )
        99        S      tau(  99) = (   0.2381374   0.5825819   0.6067890  )
       100        Mo     tau( 100) = (   0.7497549  -0.0007739   0.4829754  )
       101        Mo     tau( 101) = (   0.2499996   0.7216889  -0.4825273  )
       102        Mo     tau( 102) = (   0.1250535   0.7937975   0.0001168  )
       103        S      tau( 103) = (   0.1249996   0.6495201  -0.6064556  )
       104        S      tau( 104) = (   0.2500248   0.7216238  -0.1239807  )
       105        S      tau( 105) = (   0.1250865   0.7943282   0.3561776  )
       106        S      tau( 106) = (   0.1249996   0.6495200  -0.3584711  )
       107        S      tau( 107) = (   0.2500804   0.7215701   0.1244010  )
       108        S      tau( 108) = (   0.1230625   0.7940424   0.6054764  )
       109        Mo     tau( 109) = (  -0.1247968   0.2149139   0.4827366  )
       110        Mo     tau( 110) = (   0.8750004   0.0721694  -0.4825273  )
       111        Mo     tau( 111) = (   0.7500535   0.1442576   0.0000659  )
       112        S      tau( 112) = (   0.7500004   0.0000006  -0.6064556  )
       113        S      tau( 113) = (   0.8750311   0.0720720  -0.1240212  )
       114        S      tau( 114) = (   0.7507437   0.1426622   0.3580001  )
       115        S      tau( 115) = (   0.7500004   0.0000005  -0.3584711  )
       116        S      tau( 116) = (   0.8750679   0.0720215   0.1243391  )
       117        S      tau( 117) = (   0.7495917   0.1435798   0.6069484  )
       118        Mo     tau( 118) = (  -0.2495513   0.4315827   0.4815648  )
       119        Mo     tau( 119) = (   0.7500001   0.2886759  -0.4825273  )
       120        Mo     tau( 120) = (   0.6250173   0.3607849   0.0000853  )
       121        S      tau( 121) = (   0.6250001   0.2165071  -0.6064556  )
       122        S      tau( 122) = (   0.7500100   0.2885948  -0.1240341  )
       123        S      tau( 123) = (   0.6253146   0.3594994   0.3574324  )
       124        S      tau( 124) = (   0.6250002   0.2165070  -0.3584711  )
       125        S      tau( 125) = (   0.7500616   0.2885920   0.1242759  )
       126        S      tau( 126) = (   0.6276913   0.3582815   0.6066892  )
       127        Mo     tau( 127) = (  -0.3734392   0.6486538   0.4825126  )
       128        Mo     tau( 128) = (   0.6249998   0.5051824  -0.4825273  )
       129        Mo     tau( 129) = (   0.5000108   0.5772931   0.0000391  )
       130        S      tau( 130) = (   0.4999998   0.4330136  -0.6064556  )
       131        S      tau( 131) = (   0.6249933   0.5050874  -0.1240675  )
       132        S      tau( 132) = (   0.4990505   0.5765481   0.3615193  )
       133        S      tau( 133) = (   0.4999999   0.4330135  -0.3584711  )
       134        S      tau( 134) = (   0.6249857   0.5051595   0.1242674  )
       135        S      tau( 135) = (   0.5084858   0.5722242   0.6106609  )
       136        Mo     tau( 136) = (   0.0003958  -0.0008070   0.4838665  )
       137        Mo     tau( 137) = (   0.4999996   0.7216889  -0.4825273  )
       138        Mo     tau( 138) = (   0.3750498   0.7937581   0.0000905  )
       139        S      tau( 139) = (   0.3749996   0.6495201  -0.6064556  )
       140        S      tau( 140) = (   0.5000109   0.7216246  -0.1240696  )
       141        S      tau( 141) = (   0.3755073   0.7912798   0.3612018  )
       142        S      tau( 142) = (   0.3749996   0.6495200  -0.3584711  )
       143        S      tau( 143) = (   0.5000873   0.7215932   0.1243026  )
       144        S      tau( 144) = (   0.3753273   0.8000111   0.6138078  )
       145        Pt     tau( 145) = (   0.2576892   0.4411371   0.7122167  )
       146        Pt     tau( 146) = (   0.3705587   0.6371970   0.7119237  )
       147        Pd     tau( 147) = (   0.2577025   0.4411302   0.9024740  )

     --------------------------------------------
     DFT-D3 Dispersion Correction (3-body terms):
     --------------------------------------------
       Reference C6 values for interpolation: 

         atom   Coordination number   C6
         S          0.000           268.01
         S          0.995           261.99
         S          1.990           251.62
         Mo         0.000          1691.79
         Mo         1.942          1004.01
         Mo        11.056           674.22
         Pd         0.000          1217.01
         Pd         1.863           573.90
         Pd         5.710           531.75
         Pt         0.000           782.29
         Pt         1.919           692.72
         Pt         6.667           673.75

       Values used:

         atom   Coordination number  R0_AB[au]  C6      C8
         Mo        10.221            3.547    674.22  77634.20
         Mo        10.189            3.547    674.22  77634.20
         Mo        10.201            3.547    674.22  77634.20
         S          3.753            3.128    251.62  12327.25
         S          3.858            3.128    251.62  12327.25
         S          3.859            3.128    251.62  12327.25
         S          3.858            3.128    251.62  12327.25
         S          3.859            3.128    251.62  12327.25
         S          3.815            3.128    251.62  12327.25
         Mo        10.208            3.547    674.21  77634.20
         Mo        10.189            3.547    674.22  77634.20
         Mo        10.200            3.547    674.22  77634.20
         S          3.753            3.128    251.62  12327.25
         S          3.858            3.128    251.62  12327.25
         S          3.858            3.128    251.62  12327.25
         S          3.858            3.128    251.62  12327.25
         S          3.854            3.128    251.62  12327.25
         S          3.807            3.128    251.62  12327.25
         Mo        10.273            3.547    674.22  77634.20
         Mo        10.189            3.547    674.22  77634.20
         Mo        10.200            3.547    674.22  77634.20
         S          3.753            3.128    251.62  12327.25
         S          3.858            3.128    251.62  12327.25
         S          3.855            3.128    251.62  12327.25
         S          3.858            3.128    251.62  12327.25
         S          3.864            3.128    251.62  12327.25
         S          3.819            3.128    251.62  12327.25
         Mo        10.240            3.547    674.22  77634.20
         Mo        10.189            3.547    674.22  77634.20
         Mo        10.201            3.547    674.22  77634.20
         S          3.753            3.128    251.62  12327.25
         S          3.857            3.128    251.62  12327.25
         S          3.867            3.128    251.62  12327.25
         S          3.858            3.128    251.62  12327.25
         S          3.862            3.128    251.62  12327.25
         S          3.762            3.128    251.62  12327.25
         Mo        10.206            3.547    674.22  77634.20
         Mo        10.189            3.547    674.22  77634.20
         Mo        10.201            3.547    674.22  77634.20
         S          3.753            3.128    251.62  12327.25
         S          3.858            3.128    251.62  12327.25
         S          3.865            3.128    251.62  12327.25
         S          3.858            3.128    251.62  12327.25
         S          3.862            3.128    251.62  12327.25
         S          3.762            3.128    251.62  12327.25
         Mo        10.822            3.547    674.22  77634.20
         Mo        10.189            3.547    674.22  77634.20
         Mo        10.202            3.547    674.22  77634.20
         S          3.753            3.128    251.62  12327.25
         S          3.858            3.128    251.62  12327.25
         S          3.845            3.128    251.62  12327.25
         S          3.858            3.128    251.62  12327.25
         S          3.853            3.128    251.62  12327.25
         S          4.630            3.128    251.62  12327.25
         Mo        10.153            3.547    674.22  77634.20
         Mo        10.189            3.547    674.22  77634.20
         Mo        10.200            3.547    674.22  77634.20
         S          3.753            3.128    251.62  12327.25
         S          3.858            3.128    251.62  12327.25
         S          3.837            3.128    251.62  12327.25
         S          3.858            3.128    251.62  12327.25
         S          3.851            3.128    251.62  12327.25
         S          3.837            3.128    251.62  12327.25
         Mo        10.271            3.547    674.22  77634.20
         Mo        10.189            3.547    674.22  77634.20
         Mo        10.199            3.547    674.22  77634.20
         S          3.753            3.128    251.62  12327.25
         S          3.858            3.128    251.62  12327.25
         S          3.856            3.128    251.62  12327.25
         S          3.858            3.128    251.62  12327.25
         S          3.862            3.128    251.62  12327.25
         S          3.791            3.128    251.62  12327.25
         Mo        10.245            3.547    674.22  77634.20
         Mo        10.189            3.547    674.22  77634.20
         Mo        10.200            3.547    674.22  77634.20
         S          3.753            3.128    251.62  12327.25
         S          3.858            3.128    251.62  12327.25
         S          3.854            3.128    251.62  12327.25
         S          3.858            3.128    251.62  12327.25
         S          3.863            3.128    251.62  12327.25
         S          3.817            3.128    251.62  12327.25
         Mo        10.140            3.547    674.22  77634.20
         Mo        10.189            3.547    674.22  77634.20
         Mo        10.202            3.547    674.22  77634.20
         S          3.753            3.128    251.62  12327.25
         S          3.858            3.128    251.62  12327.25
         S          3.856            3.128    251.62  12327.25
         S          3.858            3.128    251.62  12327.25
         S          3.857            3.128    251.62  12327.25
         S          4.676            3.128    251.62  12327.25
         Mo        10.819            3.547    674.22  77634.20
         Mo        10.189            3.547    674.22  77634.20
         Mo        10.202            3.547    674.22  77634.20
         S          3.753            3.128    251.62  12327.25
         S          3.858            3.128    251.62  12327.25
         S          3.873            3.128    251.62  12327.25
         S          3.858            3.128    251.62  12327.25
         S          3.848            3.128    251.62  12327.25
         S          5.679            3.128    251.62  12327.25
         Mo        10.209            3.547    674.22  77634.20
         Mo        10.189            3.547    674.22  77634.20
         Mo        10.200            3.547    674.22  77634.20
         S          3.753            3.128    251.62  12327.25
         S          3.858            3.128    251.62  12327.25
         S          3.837            3.128    251.62  12327.25
         S          3.858            3.128    251.62  12327.25
         S          3.851            3.128    251.62  12327.25
         S          3.836            3.128    251.62  12327.25
         Mo        10.229            3.547    674.22  77634.20
         Mo        10.189            3.547    674.22  77634.20
         Mo        10.200            3.547    674.22  77634.20
         S          3.753            3.128    251.62  12327.25
         S          3.858            3.128    251.62  12327.25
         S          3.858            3.128    251.62  12327.25
         S          3.858            3.128    251.62  12327.25
         S          3.854            3.128    251.62  12327.25
         S          3.806            3.128    251.62  12327.25
         Mo        10.244            3.547    674.22  77634.20
         Mo        10.189            3.547    674.22  77634.20
         Mo        10.201            3.547    674.22  77634.20
         S          3.753            3.128    251.62  12327.25
         S          3.858            3.128    251.62  12327.25
         S          3.846            3.128    251.62  12327.25
         S          3.858            3.128    251.62  12327.25
         S          3.859            3.128    251.62  12327.25
         S          3.836            3.128    251.62  12327.25
         Mo        10.204            3.547    674.22  77634.20
         Mo        10.189            3.547    674.22  77634.20
         Mo        10.202            3.547    674.22  77634.20
         S          3.753            3.128    251.62  12327.25
         S          3.858            3.128    251.62  12327.25
         S          3.857            3.128    251.62  12327.25
         S          3.858            3.128    251.62  12327.25
         S          3.858            3.128    251.62  12327.25
         S          4.672            3.128    251.62  12327.25
         Mo        10.221            3.547    674.22  77634.20
         Mo        10.189            3.547    674.22  77634.20
         Mo        10.202            3.547    674.22  77634.20
         S          3.753            3.128    251.62  12327.25
         S          3.858            3.128    251.62  12327.25
         S          3.843            3.128    251.62  12327.25
         S          3.858            3.128    251.62  12327.25
         S          3.853            3.128    251.62  12327.25
         S          4.627            3.128    251.62  12327.25
         Pt         5.543            3.168    673.75  70061.90
         Pt         4.608            3.168    673.75  70061.91
         Pd         1.031            3.168    670.97  61476.94

         Molecular C6 ( Ry / a.u.^6 ) =   8092715.78


     number of k points=     4  Gaussian smearing, width (Ry)=  0.0100
                       cart. coord. in units 2pi/alat
        k(    1) = (   0.0000000   0.0000000   0.0000000), wk =   0.5000000
        k(    2) = (   0.0000000  -0.5773499   0.0000000), wk =   0.5000000
        k(    3) = (  -0.5000000  -0.2886755   0.0000000), wk =   0.5000000
        k(    4) = (  -0.5000000  -0.8660254   0.0000000), wk =   0.5000000

     Dense  grid:  5955087 G-vectors     FFT dimensions: ( 180, 180, 432)

     Smooth grid:  2572543 G-vectors     FFT dimensions: ( 135, 135, 320)

     Estimated max dynamical RAM per process >       3.09 GB

     Estimated total dynamical RAM >     111.14 GB

     Initial potential from superposition of free atoms

     starting charge    1329.9539, renormalised to    1330.0000

     negative rho (up, down):  8.118E-04 0.000E+00
     Starting wfcs are  908 randomized atomic wfcs
     Checking if some PAW data can be deallocated... 

     total cpu time spent up to now is      103.1 secs

     Self-consistent Calculation

     iteration #  1     ecut=    77.00 Ry     beta= 0.20
     Davidson diagonalization with overlap
     ethr =  1.00E-02,  avg # of iterations =  2.0

     Threshold (ethr) on eigenvalues was too large:
     Diagonalizing with lowered threshold

     Davidson diagonalization with overlap
     ethr =  2.00E-04,  avg # of iterations = 15.5

     negative rho (up, down):  2.621E-04 0.000E+00

     total cpu time spent up to now is     1124.5 secs

     total energy              =  -27706.27380376 Ry
     estimated scf accuracy    <       5.10690592 Ry

     iteration #  2     ecut=    77.00 Ry     beta= 0.20
     Davidson diagonalization with overlap
     ethr =  3.84E-04,  avg # of iterations =  6.0

     negative rho (up, down):  8.025E-05 0.000E+00

     total cpu time spent up to now is     1362.4 secs

     total energy              =  -27705.72968704 Ry
     estimated scf accuracy    <       2.56096259 Ry

     iteration #  3     ecut=    77.00 Ry     beta= 0.20
     Davidson diagonalization with overlap
     ethr =  1.93E-04,  avg # of iterations =  9.5

     negative rho (up, down):  2.763E-05 0.000E+00

     total cpu time spent up to now is     1607.4 secs

     total energy              =  -27705.37082419 Ry
     estimated scf accuracy    <       1.70630187 Ry

     iteration #  4     ecut=    77.00 Ry     beta= 0.20
     Davidson diagonalization with overlap
     ethr =  1.28E-04,  avg # of iterations = 12.8

     negative rho (up, down):  3.008E-05 0.000E+00

     total cpu time spent up to now is     1887.2 secs

     total energy              =  -27704.62510495 Ry
     estimated scf accuracy    <      23.62823832 Ry

     iteration #  5     ecut=    77.00 Ry     beta= 0.20
     Davidson diagonalization with overlap
     c_bands:  1 eigenvalues not converged
     c_bands:  1 eigenvalues not converged
     c_bands:  1 eigenvalues not converged
     c_bands:  1 eigenvalues not converged
     ethr =  1.28E-04,  avg # of iterations = 20.0

     negative rho (up, down):  2.469E-05 0.000E+00

     total cpu time spent up to now is     2158.3 secs

     total energy              =  -27705.68723870 Ry
     estimated scf accuracy    <       1.66885350 Ry

     iteration #  6     ecut=    77.00 Ry     beta= 0.20
     Davidson diagonalization with overlap
     ethr =  1.25E-04,  avg # of iterations =  5.5

     negative rho (up, down):  2.309E-05 0.000E+00

     total cpu time spent up to now is     2395.0 secs

     total energy              =  -27705.84513001 Ry
     estimated scf accuracy    <       0.44323210 Ry

     iteration #  7     ecut=    77.00 Ry     beta= 0.20
     Davidson diagonalization with overlap
     c_bands:  2 eigenvalues not converged
     c_bands:  1 eigenvalues not converged
     c_bands:  1 eigenvalues not converged
     ethr =  3.33E-05,  avg # of iterations = 18.5

     negative rho (up, down):  3.540E-05 0.000E+00

     total cpu time spent up to now is     3242.0 secs

     total energy              =  -27706.36388339 Ry
     estimated scf accuracy    <       0.74831609 Ry

     iteration #  8     ecut=    77.00 Ry     beta= 0.20
     Davidson diagonalization with overlap
     ethr =  3.33E-05,  avg # of iterations =  2.0

     negative rho (up, down):  5.801E-05 0.000E+00

     total cpu time spent up to now is     3468.4 secs

     total energy              =  -27706.30777306 Ry
     estimated scf accuracy    <       0.50929758 Ry

     iteration #  9     ecut=    77.00 Ry     beta= 0.20
     Davidson diagonalization with overlap
     ethr =  3.33E-05,  avg # of iterations =  1.0

     negative rho (up, down):  3.399E-04 0.000E+00

     total cpu time spent up to now is     3675.3 secs

     total energy              =  -27706.16977960 Ry
     estimated scf accuracy    <       0.36391500 Ry

     iteration # 10     ecut=    77.00 Ry     beta= 0.20
     Davidson diagonalization with overlap
     ethr =  2.74E-05,  avg # of iterations = 13.5

     negative rho (up, down):  2.198E-04 0.000E+00

     total cpu time spent up to now is     4066.2 secs

     total energy              =  -27706.29204829 Ry
     estimated scf accuracy    <       0.53443721 Ry

     iteration # 11     ecut=    77.00 Ry     beta= 0.20
     Davidson diagonalization with overlap
     ethr =  2.74E-05,  avg # of iterations =  4.2

     negative rho (up, down):  2.452E-04 0.000E+00

     total cpu time spent up to now is     4297.2 secs

     total energy              =  -27706.34301289 Ry
     estimated scf accuracy    <       0.06440543 Ry

     iteration # 12     ecut=    77.00 Ry     beta= 0.20
     Davidson diagonalization with overlap
     c_bands:  5 eigenvalues not converged
     c_bands:  1 eigenvalues not converged
     c_bands:  5 eigenvalues not converged
     ethr =  4.84E-06,  avg # of iterations = 43.2

     negative rho (up, down):  2.467E-04 0.000E+00

     total cpu time spent up to now is     5023.2 secs

     total energy              =  -27706.36349154 Ry
     estimated scf accuracy    <       0.03742610 Ry

     iteration # 13     ecut=    77.00 Ry     beta= 0.20
     Davidson diagonalization with overlap
     c_bands:  2 eigenvalues not converged
     c_bands:  2 eigenvalues not converged
     ethr =  2.81E-06,  avg # of iterations = 21.2

     negative rho (up, down):  3.779E-04 0.000E+00

     total cpu time spent up to now is     5418.4 secs

     total energy              =  -27706.36901243 Ry
     estimated scf accuracy    <       0.03107937 Ry

     iteration # 14     ecut=    77.00 Ry     beta= 0.20
     Davidson diagonalization with overlap
     c_bands:  2 eigenvalues not converged
     c_bands:  2 eigenvalues not converged
     ethr =  2.34E-06,  avg # of iterations = 11.5

     negative rho (up, down):  6.627E-04 0.000E+00

     total cpu time spent up to now is     5670.0 secs

     total energy              =  -27706.36731055 Ry
     estimated scf accuracy    <       0.01095216 Ry

     iteration # 15     ecut=    77.00 Ry     beta= 0.20
     Davidson diagonalization with overlap
     c_bands:  4 eigenvalues not converged
     c_bands:  2 eigenvalues not converged
     ethr =  8.23E-07,  avg # of iterations = 17.0

     negative rho (up, down):  7.741E-04 0.000E+00

     total cpu time spent up to now is     6039.4 secs

     total energy              =  -27706.37221948 Ry
     estimated scf accuracy    <       0.00365916 Ry

     iteration # 16     ecut=    77.00 Ry     beta= 0.20
     Davidson diagonalization with overlap
     c_bands:  5 eigenvalues not converged
     c_bands:  1 eigenvalues not converged
     ethr =  2.75E-07,  avg # of iterations = 21.8

     negative rho (up, down):  6.628E-04 0.000E+00

     total cpu time spent up to now is     6610.6 secs

     total energy              =  -27706.37486844 Ry
     estimated scf accuracy    <       0.00418627 Ry

     iteration # 17     ecut=    77.00 Ry     beta= 0.20
     Davidson diagonalization with overlap
     c_bands:  3 eigenvalues not converged
     c_bands:  1 eigenvalues not converged
     ethr =  2.75E-07,  avg # of iterations = 13.5

     negative rho (up, down):  6.703E-04 0.000E+00

     total cpu time spent up to now is     6869.2 secs

     total energy              =  -27706.37507632 Ry
     estimated scf accuracy    <       0.00052245 Ry

     iteration # 18     ecut=    77.00 Ry     beta= 0.20
     Davidson diagonalization with overlap
     c_bands:  4 eigenvalues not converged
     ethr =  3.93E-08,  avg # of iterations = 19.0

     negative rho (up, down):  7.326E-04 0.000E+00

     total cpu time spent up to now is     7609.5 secs

     total energy              =  -27706.37580259 Ry
     estimated scf accuracy    <       0.00030495 Ry

     iteration # 19     ecut=    77.00 Ry     beta= 0.20
     Davidson diagonalization with overlap
     c_bands:  1 eigenvalues not converged
     ethr =  2.29E-08,  avg # of iterations = 15.0

     negative rho (up, down):  7.764E-04 0.000E+00

     total cpu time spent up to now is     7934.5 secs

     total energy              =  -27706.37586217 Ry
     estimated scf accuracy    <       0.00021722 Ry

     iteration # 20     ecut=    77.00 Ry     beta= 0.20
     Davidson diagonalization with overlap
     ethr =  1.63E-08,  avg # of iterations =  8.2

     negative rho (up, down):  8.037E-04 0.000E+00

     total cpu time spent up to now is     8237.5 secs

     total energy              =  -27706.37590302 Ry
     estimated scf accuracy    <       0.00008735 Ry

     iteration # 21     ecut=    77.00 Ry     beta= 0.20
     Davidson diagonalization with overlap
     ethr =  6.57E-09,  avg # of iterations = 14.2

     negative rho (up, down):  8.008E-04 0.000E+00

     total cpu time spent up to now is     8679.9 secs

     total energy              =  -27706.37594669 Ry
     estimated scf accuracy    <       0.00005104 Ry

     iteration # 22     ecut=    77.00 Ry     beta= 0.20
     Davidson diagonalization with overlap
     ethr =  3.84E-09,  avg # of iterations =  6.2

     negative rho (up, down):  8.037E-04 0.000E+00

     total cpu time spent up to now is     8936.8 secs

     total energy              =  -27706.37594669 Ry
     estimated scf accuracy    <       0.00001414 Ry

     iteration # 23     ecut=    77.00 Ry     beta= 0.20
     Davidson diagonalization with overlap
     c_bands:  2 eigenvalues not converged
     ethr =  1.06E-09,  avg # of iterations = 18.0

     negative rho (up, down):  8.139E-04 0.000E+00

     total cpu time spent up to now is     9797.1 secs

     total energy              =  -27706.37596092 Ry
     estimated scf accuracy    <       0.00004811 Ry

     iteration # 24     ecut=    77.00 Ry     beta= 0.20
     Davidson diagonalization with overlap
     c_bands:  1 eigenvalues not converged
     ethr =  1.06E-09,  avg # of iterations =  9.5

     negative rho (up, down):  8.196E-04 0.000E+00

     total cpu time spent up to now is    10124.0 secs

     total energy              =  -27706.37595613 Ry
     estimated scf accuracy    <       0.00001036 Ry

     iteration # 25     ecut=    77.00 Ry     beta= 0.20
     Davidson diagonalization with overlap
     c_bands:  1 eigenvalues not converged
     ethr =  7.79E-10,  avg # of iterations = 14.2

     negative rho (up, down):  8.173E-04 0.000E+00

     total cpu time spent up to now is    10637.4 secs

     total energy              =  -27706.37596342 Ry
     estimated scf accuracy    <       0.00001366 Ry

     iteration # 26     ecut=    77.00 Ry     beta= 0.20
     Davidson diagonalization with overlap
     c_bands:  1 eigenvalues not converged
     ethr =  7.79E-10,  avg # of iterations =  6.2

     negative rho (up, down):  8.180E-04 0.000E+00

     total cpu time spent up to now is    10866.0 secs

     total energy              =  -27706.37596183 Ry
     estimated scf accuracy    <       0.00000256 Ry

     iteration # 27     ecut=    77.00 Ry     beta= 0.20
     Davidson diagonalization with overlap
     ethr =  1.92E-10,  avg # of iterations = 13.5

     negative rho (up, down):  8.204E-04 0.000E+00

     total cpu time spent up to now is    11449.6 secs

     total energy              =  -27706.37596337 Ry
     estimated scf accuracy    <       0.00000596 Ry

     iteration # 28     ecut=    77.00 Ry     beta= 0.20
     Davidson diagonalization with overlap
     ethr =  1.92E-10,  avg # of iterations =  2.0

     negative rho (up, down):  8.215E-04 0.000E+00

     total cpu time spent up to now is    11676.7 secs

     total energy              =  -27706.37596220 Ry
     estimated scf accuracy    <       0.00000196 Ry

     iteration # 29     ecut=    77.00 Ry     beta= 0.20
     Davidson diagonalization with overlap
     ethr =  1.47E-10,  avg # of iterations =  5.8

     negative rho (up, down):  8.204E-04 0.000E+00

     total cpu time spent up to now is    11948.6 secs

     End of self-consistent calculation

          k = 0.0000 0.0000 0.0000 (321495 PWs)   bands (ev):

  -103.2832-103.0342 -87.2214 -71.6599 -71.6525 -71.6066 -71.5838 -71.5664
   -71.5379 -71.5331 -71.4089 -71.4044 -71.3649 -71.3207 -71.3138 -71.2884
   -71.2828 -66.6812 -66.6601 -66.6601 -66.6601 -66.6601 -66.6601 -66.6601
   -66.6390 -66.6390 -66.6389 -66.6389 -66.6389 -66.6389 -66.6389 -66.6389
   -66.6389 -66.6156 -66.5950 -66.5949 -66.5947 -66.5944 -66.5941 -66.5941
   -66.5822 -66.5740 -66.5738 -66.5737 -66.5737 -66.5735 -66.5734 -66.5730
   -66.5729 -66.5723 -66.5499 -66.5392 -66.5381 -66.5291 -66.5255 -66.5229
   -66.5208 -66.5106 -66.4984 -66.4934 -66.4915 -66.4754 -66.4658 -66.4538
   -66.4507 -57.6308 -57.4965 -57.3710 -57.2975 -57.2354 -57.1047 -53.3251
   -52.9010 -52.8416 -41.0077 -41.0077 -41.0077 -40.9410 -40.9408 -40.9406
   -40.9328 -40.9328 -40.9328 -40.9328 -40.9328 -40.9328 -40.8781 -40.8738
   -40.8679 -40.8664 -40.8663 -40.8662 -40.8660 -40.8659 -40.8657 -40.8413
   -40.8130 -40.8073 -40.8073 -40.8073 -40.8073 -40.8073 -40.8073 -40.8027
   -40.7999 -40.7999 -40.7999 -40.7999 -40.7999 -40.7999 -40.7903 -40.7878
   -40.7762 -40.7745 -40.7724 -40.7724 -40.7724 -40.7724 -40.7724 -40.7724
   -40.7680 -40.7582 -40.7582 -40.7582 -40.7582 -40.7582 -40.7582 -40.7582
   -40.7582 -40.7581 -40.7574 -40.7409 -40.7409 -40.7407 -40.7405 -40.7404
   -40.7404 -40.7353 -40.7352 -40.7350 -40.7350 -40.7347 -40.7345 -40.7344
   -40.7064 -40.7061 -40.7061 -40.7059 -40.7058 -40.7056 -40.7056 -40.6946
   -40.6946 -40.6946 -40.6938 -40.6936 -40.6935 -40.6935 -40.6934 -40.6932
   -40.6929 -40.6928 -40.6922 -40.6862 -40.6833 -40.6820 -40.6732 -40.6711
   -40.6693 -40.6661 -40.6612 -40.6566 -40.6530 -40.6497 -40.6478 -40.6478
   -40.6478 -40.6478 -40.6478 -40.6478 -40.6453 -40.6437 -40.6387 -40.6379
   -40.6355 -40.6291 -40.6282 -40.6281 -40.6281 -40.6275 -40.6237 -40.6218
   -40.6112 -40.6072 -40.6037 -40.6005 -40.6005 -40.6005 -40.5944 -40.5817
   -40.5817 -40.5815 -40.5812 -40.5811 -40.5809 -40.5600 -40.5496 -40.5424
   -40.5341 -40.5341 -40.5095 -40.5078 -40.4967 -40.4883 -40.4843 -40.4816
   -40.4412 -40.4306 -20.2793 -20.1018 -19.9465 -19.7307 -19.2887 -19.2810
   -19.2494 -19.2483 -19.2461 -19.2402 -19.2267 -19.2241 -19.1599 -19.1554
   -19.1348 -19.0984 -19.0808 -19.0790 -19.0487 -19.0446 -19.0118 -18.8762
   -18.7749 -18.7107 -18.5446 -18.5349 -18.5195 -18.5041 -18.4614 -18.4505
   -18.4317 -18.4112 -18.3854 -18.3818 -18.3457 -18.3007 -18.2782 -18.2753
   -18.2189 -18.2118 -18.2008 -18.1636 -18.1603 -18.1547 -18.1410 -18.1408
   -18.1404 -18.1403 -18.1400 -18.1399 -18.1005 -18.1003 -18.1002 -18.0791
   -18.0712 -18.0643 -18.0609 -18.0580 -18.0555 -18.0509 -18.0308 -18.0284
   -18.0260 -18.0150 -17.9870 -17.9826 -17.9718 -17.9685 -17.9582 -17.9476
   -17.9437 -17.9420 -17.9372 -17.9233 -17.9197 -17.9165 -17.9148 -17.9130
   -17.8934 -17.8852 -17.8811 -17.8730 -17.8610 -17.8502 -17.8493 -17.8453
   -17.8443 -17.8244 -17.8181 -17.8135 -17.7985 -17.7843 -17.7770 -17.7678
   -17.7657 -17.7597 -12.3791 -12.2979 -11.9414 -11.8768 -11.7646 -11.7550
   -11.7526 -11.7437 -11.6728 -11.6679 -11.6663 -11.5053 -11.4657 -11.3740
   -11.2996 -11.2662 -11.2139 -11.2099 -11.2045 -11.2030 -11.1836 -11.1761
   -11.1400 -11.1334 -11.1299 -11.1263 -11.1238 -11.1213 -11.1019 -11.0981
   -11.0440 -11.0032 -10.9998 -10.9953 -10.9869 -10.9829 -10.9801 -10.9484
   -10.9350 -10.9219 -10.9178 -10.9159 -10.8927 -10.8882 -10.8805 -10.8758
   -10.8569 -10.8411 -10.8376 -10.8323 -10.8321 -10.8312 -10.8297 -10.8253
   -10.8203 -10.8036 -10.8030 -10.8018 -10.7874 -10.7869 -10.7844 -10.7810
   -10.7787 -10.7758 -10.7430 -10.7370 -10.7211 -10.7078 -10.6977 -10.6679
   -10.6401 -10.6296 -10.6223 -10.6057 -10.6002 -10.5523 -10.4096 -10.3180
   -10.2142 -10.0504 -10.0497 -10.0473  -9.9996  -9.9211  -9.9112  -9.8870
    -9.8325  -9.8067  -9.7926  -9.7826  -9.7779  -9.7708  -9.7586  -9.7468
    -9.7263  -9.7197  -9.7113  -9.6982  -9.6863  -9.6814  -9.6675  -9.6405
    -9.6325  -9.6267  -9.6256  -9.6214  -9.6198  -9.6094  -9.6002  -9.5837
    -9.5764  -9.5754  -9.5745  -9.5721  -9.5712  -9.5694  -9.5484  -9.5434
    -9.5397  -9.5220  -9.4724  -9.4617  -9.4579  -9.4429  -9.4378  -9.4364
    -9.4300  -9.3813  -9.3704  -9.3602  -9.3567  -9.3470  -9.3293  -9.3154
    -9.3057  -9.2754  -9.2652  -9.2441  -9.2353  -9.2257  -9.2157  -9.2049
    -9.2015  -9.1914  -9.1728  -9.1598  -9.1230  -9.0955  -9.0661  -9.0290
    -9.0268  -9.0231  -9.0220  -9.0191  -9.0191  -9.0180  -9.0070  -8.9707
    -8.9427  -8.9426  -8.9371  -8.9225  -8.8850  -8.8712  -8.8649  -8.8556
    -8.8369  -8.8211  -8.8094  -8.8005  -8.7974  -8.7958  -8.7915  -8.7888
    -8.7744  -8.7672  -8.7567  -8.7559  -8.7334  -8.7274  -8.7177  -8.7114
    -8.7109  -8.6985  -8.5600  -8.5320  -8.4304  -8.4304  -8.4106  -8.3892
    -8.3579  -8.3578  -8.3565  -8.3192  -8.3185  -8.3182  -8.3181  -8.3181
    -8.3180  -8.3121  -8.2996  -8.2780  -8.2575  -8.2464  -8.2443  -8.2411
    -8.2410  -8.2392  -8.2288  -8.2019  -8.1841  -8.0502  -7.9741  -7.9710
    -7.9366  -7.9266  -7.8773  -7.8238  -7.7437  -7.7198  -7.7019  -7.6928
    -7.6593  -7.5845  -7.5829  -7.5827  -7.5826  -7.5825  -7.5823  -7.5732
    -7.5377  -7.5374  -7.5366  -7.5365  -7.5361  -7.5360  -7.5257  -7.5173
    -7.5162  -7.5127  -7.5078  -7.5041  -7.5028  -7.5013  -7.4931  -7.4799
    -7.4706  -7.4694  -7.4647  -7.4632  -7.4627  -7.4582  -7.4541  -7.4403
    -7.4328  -7.4268  -7.4202  -7.4193  -7.4161  -7.4082  -7.4017  -7.3670
    -7.3423  -7.3309  -7.3035  -7.3016  -7.3013  -7.2940  -7.2433  -7.2316
    -7.2311  -7.2149  -7.2082  -7.1882  -7.1670  -7.1356  -7.0586  -7.0106
    -6.9664  -6.9465  -6.9115  -6.9048  -6.8787  -6.8455  -6.8116  -6.7993
    -6.7971  -6.7848  -6.7495  -6.7118  -6.6884  -6.6741  -6.6686  -6.6478
    -6.6312  -6.6221  -6.6200  -6.6118  -6.6040  -6.5995  -6.5535  -6.5494
    -6.5233  -6.5203  -6.5185  -6.5134  -6.5056  -6.5012  -6.4965  -6.4862
    -6.4702  -6.4506  -6.4430  -6.4375  -6.4311  -6.4261  -6.4231  -6.4172
    -6.4041  -6.3671  -6.3514  -6.3495  -6.3495  -6.3495  -6.3495  -6.3494
    -6.3492  -6.3167  -6.2977  -6.2804  -6.2732  -6.2728  -6.2716  -6.2712
    -6.2691  -6.2588  -6.2160  -6.2142  -6.1881  -6.1410  -6.1085  -5.9804
    -5.7667  -5.6000  -5.4493  -5.3043  -5.2785  -5.1589  -5.0510  -4.9607
    -4.9125  -4.6524  -3.9765  -3.8366  -3.8358  -3.8338  -3.8311  -3.8181
    -3.8098  -3.8048  -3.8029  -3.8003  -3.7997  -3.7868  -3.7586  -3.6164
    -3.6114  -3.6049  -3.5916  -3.5878  -3.5840  -3.5737  -3.5716  -3.5684
    -3.5668  -3.4901  -3.4901  -3.4901  -3.4797  -3.4788  -3.4734  -3.4721
    -3.4706  -3.4702  -3.4687  -3.4362  -3.4251  -3.4234  -3.4229  -3.4149
    -3.3966  -3.3875  -3.3846  -3.3784  -3.3749  -3.3691  -3.3629  -3.3575
    -3.3542  -3.3479  -3.3464  -3.3350  -3.3300  -3.3182  -3.3051  -3.2792
    -3.2763  -3.2637  -3.2556  -3.2493  -3.2305  -3.2011  -3.1896  -3.1677
    -3.1111  -3.0307  -3.0243  -3.0241  -3.0213  -3.0185  -3.0183  -2.9662
    -2.9534  -2.9517  -2.9515  -2.9513  -2.9512  -2.9510  -2.9508  -2.9483
    -2.9401  -2.9342  -2.9276  -2.9222  -2.9168  -2.9094  -2.9006  -2.8978
    -2.8908  -2.8848  -2.8806  -2.8791  -2.8772  -2.8736  -2.8682  -2.8671
    -2.8549  -2.8458  -2.8308  -2.8217  -2.8152  -2.7973  -2.7924  -2.7697
    -2.7641  -2.7614  -2.7383  -2.7371  -2.7366  -2.7352  -2.7340  -2.7288
    -2.6958  -2.6924  -2.6830  -2.6650  -2.6585  -2.6356  -2.6297  -2.6117
    -2.6042  -2.5813  -2.5621  -2.5391  -2.5358  -2.5309  -2.5152  -2.5125
    -2.4932  -2.4784  -2.4722  -2.4534  -2.4400  -2.4311

          k = 0.0000-0.5773 0.0000 (321564 PWs)   bands (ev):

  -103.2832-103.0342 -87.2214 -71.6599 -71.6525 -71.6066 -71.5838 -71.5664
   -71.5379 -71.5331 -71.4089 -71.4044 -71.3649 -71.3207 -71.3138 -71.2884
   -71.2829 -66.6751 -66.6751 -66.6645 -66.6645 -66.6495 -66.6495 -66.6495
   -66.6495 -66.6452 -66.6451 -66.6389 -66.6389 -66.6389 -66.6389 -66.6345
   -66.6345 -66.6096 -66.6094 -66.5990 -66.5989 -66.5842 -66.5841 -66.5839
   -66.5838 -66.5821 -66.5797 -66.5795 -66.5738 -66.5732 -66.5732 -66.5732
   -66.5689 -66.5689 -66.5471 -66.5463 -66.5326 -66.5297 -66.5258 -66.5233
   -66.5208 -66.5105 -66.4981 -66.4934 -66.4919 -66.4751 -66.4661 -66.4538
   -66.4507 -57.6308 -57.4965 -57.3710 -57.2975 -57.2354 -57.1048 -53.3251
   -52.9010 -52.8416 -40.9763 -40.9762 -40.9762 -40.9762 -40.9496 -40.9496
   -40.9377 -40.9377 -40.9097 -40.9094 -40.9093 -40.9093 -40.8872 -40.8872
   -40.8872 -40.8872 -40.8829 -40.8827 -40.8709 -40.8708 -40.8595 -40.8532
   -40.8354 -40.8292 -40.8292 -40.8292 -40.8212 -40.8206 -40.8205 -40.8205
   -40.8205 -40.8193 -40.8193 -40.8123 -40.8085 -40.8085 -40.7921 -40.7791
   -40.7791 -40.7791 -40.7791 -40.7704 -40.7704 -40.7684 -40.7659 -40.7643
   -40.7640 -40.7583 -40.7583 -40.7582 -40.7582 -40.7582 -40.7582 -40.7528
   -40.7527 -40.7496 -40.7496 -40.7465 -40.7435 -40.7435 -40.7408 -40.7346
   -40.7308 -40.7275 -40.7275 -40.7275 -40.7275 -40.7179 -40.7142 -40.7142
   -40.7140 -40.7139 -40.7055 -40.7053 -40.7026 -40.6980 -40.6936 -40.6931
   -40.6931 -40.6931 -40.6930 -40.6930 -40.6930 -40.6930 -40.6918 -40.6917
   -40.6846 -40.6846 -40.6810 -40.6810 -40.6730 -40.6721 -40.6687 -40.6662
   -40.6618 -40.6618 -40.6615 -40.6613 -40.6610 -40.6609 -40.6608 -40.6601
   -40.6512 -40.6451 -40.6449 -40.6449 -40.6396 -40.6336 -40.6268 -40.6266
   -40.6265 -40.6265 -40.6265 -40.6230 -40.6209 -40.6146 -40.6144 -40.6144
   -40.6144 -40.6129 -40.6072 -40.5975 -40.5955 -40.5951 -40.5949 -40.5858
   -40.5799 -40.5785 -40.5784 -40.5783 -40.5548 -40.5482 -40.5479 -40.5467
   -40.5424 -40.5415 -40.5299 -40.5164 -40.5143 -40.5045 -40.4848 -40.4722
   -40.4615 -40.4432 -20.2299 -19.8787 -19.8684 -19.7804 -19.7185 -19.6594
   -19.5482 -19.4485 -19.4336 -19.3796 -19.2926 -19.2548 -19.1196 -18.8426
   -18.8088 -18.7459 -18.7395 -18.7337 -18.7307 -18.7199 -18.7186 -18.6786
   -18.6415 -18.6149 -18.6111 -18.6034 -18.5940 -18.5528 -18.5495 -18.5361
   -18.4939 -18.4855 -18.4776 -18.4558 -18.4351 -18.4165 -18.3983 -18.3926
   -18.3742 -18.3287 -18.3124 -18.2860 -18.2578 -18.2408 -18.2259 -18.2158
   -18.1876 -18.1716 -18.1620 -18.1252 -18.1210 -18.1208 -18.1207 -18.1205
   -18.1052 -18.1005 -18.0735 -18.0710 -18.0530 -18.0482 -18.0436 -18.0400
   -18.0364 -18.0274 -18.0080 -17.9940 -17.9911 -17.9841 -17.9764 -17.9598
   -17.9442 -17.9388 -17.9379 -17.9294 -17.9170 -17.9125 -17.8830 -17.8788
   -17.8676 -17.8576 -17.8575 -17.8530 -17.8194 -17.8150 -17.8031 -17.7985
   -17.7980 -17.7838 -17.7821 -17.7758 -17.7686 -17.7538 -17.7388 -17.7385
   -17.6845 -17.6819 -12.3492 -12.2197 -11.7508 -11.7441 -11.6738 -11.5952
   -11.5536 -11.4696 -11.4670 -11.4653 -11.4644 -11.4449 -11.4395 -11.4069
   -11.3814 -11.3715 -11.3691 -11.3559 -11.3451 -11.3190 -11.3109 -11.2900
   -11.2800 -11.2731 -11.2595 -11.2503 -11.2503 -11.2223 -11.2075 -11.2046
   -11.2016 -11.1569 -11.1513 -11.1478 -11.1452 -11.0913 -11.0648 -11.0345
   -11.0092 -10.9767 -10.9632 -10.9597 -10.9520 -10.9324 -10.9099 -10.9022
   -10.8993 -10.8828 -10.8689 -10.8490 -10.8423 -10.8306 -10.8243 -10.8237
   -10.8233 -10.8212 -10.8140 -10.8132 -10.7928 -10.7757 -10.7618 -10.7564
   -10.7502 -10.7487 -10.6731 -10.6399 -10.5822 -10.5618 -10.4962 -10.4892
   -10.4767 -10.4168 -10.3681 -10.3326 -10.2684 -10.2392 -10.1307 -10.1257
   -10.1123 -10.1110 -10.0613 -10.0509 -10.0164 -10.0149  -9.9599  -9.9582
    -9.9428  -9.9410  -9.9313  -9.9238  -9.9159  -9.9058  -9.8985  -9.8949
    -9.8793  -9.8752  -9.8572  -9.8113  -9.7977  -9.7808  -9.7601  -9.7530
    -9.7422  -9.7327  -9.7145  -9.7049  -9.6988  -9.6959  -9.6919  -9.6672
    -9.6568  -9.6461  -9.6319  -9.6199  -9.6085  -9.6000  -9.5702  -9.5571
    -9.5505  -9.5298  -9.5203  -9.5123  -9.5034  -9.4760  -9.4634  -9.4541
    -9.4257  -9.3912  -9.3453  -9.3190  -9.2863  -9.2469  -9.2226  -9.2043
    -9.1764  -9.1697  -9.1676  -9.1485  -9.1410  -9.1214  -9.1095  -9.1034
    -9.0990  -9.0946  -9.0722  -9.0392  -9.0381  -9.0249  -9.0235  -9.0083
    -8.9885  -8.9871  -8.9716  -8.9644  -8.9522  -8.9437  -8.9340  -8.9293
    -8.9260  -8.9242  -8.9086  -8.8986  -8.8809  -8.8735  -8.8694  -8.8534
    -8.8505  -8.8441  -8.8363  -8.8335  -8.8330  -8.8318  -8.8228  -8.8154
    -8.8066  -8.7975  -8.7870  -8.7606  -8.7559  -8.7440  -8.7307  -8.7129
    -8.6980  -8.6242  -8.5689  -8.5561  -8.5057  -8.5053  -8.4535  -8.4350
    -8.4245  -8.4147  -8.3985  -8.3716  -8.2225  -8.2028  -8.1868  -8.1868
    -8.1354  -8.1150  -8.1142  -8.0897  -8.0857  -8.0421  -7.9847  -7.9388
    -7.9254  -7.9237  -7.8818  -7.8569  -7.8541  -7.8483  -7.8463  -7.8434
    -7.8406  -7.8400  -7.8400  -7.8354  -7.8196  -7.7959  -7.7946  -7.7936
    -7.7928  -7.7808  -7.7702  -7.7684  -7.7620  -7.7542  -7.7509  -7.7407
    -7.7354  -7.7261  -7.7186  -7.7156  -7.7083  -7.7051  -7.6953  -7.6859
    -7.6820  -7.6692  -7.6549  -7.6549  -7.6545  -7.6514  -7.6412  -7.6265
    -7.6137  -7.6076  -7.5974  -7.5867  -7.5812  -7.5716  -7.5561  -7.5540
    -7.5272  -7.5122  -7.4910  -7.4876  -7.4643  -7.3733  -7.3457  -7.3229
    -7.3137  -7.2704  -7.2339  -7.2287  -7.2195  -7.2145  -7.1508  -7.1233
    -7.1151  -7.1079  -7.0782  -7.0676  -7.0515  -7.0069  -7.0045  -6.9969
    -6.9945  -6.9758  -6.9480  -6.9370  -6.9285  -6.9122  -6.9003  -6.8906
    -6.8678  -6.8392  -6.8291  -6.8207  -6.7830  -6.7382  -6.7143  -6.7077
    -6.6910  -6.6756  -6.6518  -6.6517  -6.6517  -6.6516  -6.6340  -6.6028
    -6.5938  -6.5877  -6.5835  -6.5829  -6.5805  -6.5770  -6.5500  -6.5143
    -6.4987  -6.4685  -6.4443  -6.4198  -6.4045  -6.3208  -6.3204  -6.3202
    -6.3201  -6.2670  -6.2640  -6.2539  -6.2452  -6.2428  -6.2415  -6.2342
    -6.2285  -6.2189  -6.1991  -6.1918  -6.1779  -6.1605  -6.1531  -6.0542
    -5.9717  -5.9717  -5.9242  -5.8981  -5.8921  -5.8433  -5.7922  -5.7467
    -5.6494  -5.5755  -5.5608  -5.4563  -5.3051  -5.2681  -5.0566  -4.9541
    -4.9172  -4.6404  -4.0429  -4.0170  -4.0136  -3.9937  -3.9114  -3.8872
    -3.8871  -3.8594  -3.8473  -3.8229  -3.8226  -3.7880  -3.7787  -3.7674
    -3.7602  -3.7203  -3.6798  -3.6359  -3.6225  -3.5919  -3.5902  -3.5872
    -3.5855  -3.5728  -3.5726  -3.5534  -3.5496  -3.5204  -3.5003  -3.4953
    -3.4902  -3.4773  -3.4740  -3.4693  -3.4632  -3.4576  -3.4530  -3.4258
    -3.4040  -3.3979  -3.3702  -3.3575  -3.3564  -3.3469  -3.3405  -3.3385
    -3.3233  -3.3124  -3.3082  -3.3005  -3.2981  -3.2777  -3.2651  -3.2641
    -3.2631  -3.2623  -3.2423  -3.2354  -3.2310  -3.2275  -3.2187  -3.2087
    -3.2030  -3.1984  -3.1893  -3.1860  -3.1752  -3.1706  -3.1374  -3.1232
    -3.1152  -3.1056  -3.0916  -3.0607  -3.0593  -3.0532  -3.0333  -3.0204
    -3.0184  -3.0010  -3.0008  -2.9999  -2.9998  -2.9824  -2.9729  -2.9606
    -2.9526  -2.9519  -2.9371  -2.9352  -2.9300  -2.9177  -2.9160  -2.9051
    -2.8978  -2.8909  -2.8819  -2.8735  -2.8663  -2.8579  -2.8458  -2.8428
    -2.8274  -2.8165  -2.7978  -2.7956  -2.7918  -2.7751  -2.7397  -2.7308
    -2.7034  -2.7000  -2.6640  -2.6429  -2.6379  -2.6367  -2.6286  -2.6160
    -2.5617  -2.5563  -2.5252  -2.5079  -2.4917  -2.4821  -2.4793  -2.4689
    -2.3713  -2.3604  -2.3273  -2.2959  -2.2814  -2.2561

          k =-0.5000-0.2887 0.0000 (321564 PWs)   bands (ev):

  -103.2832-103.0342 -87.2214 -71.6599 -71.6525 -71.6066 -71.5838 -71.5664
   -71.5379 -71.5331 -71.4089 -71.4044 -71.3649 -71.3207 -71.3138 -71.2884
   -71.2828 -66.6751 -66.6750 -66.6645 -66.6645 -66.6495 -66.6495 -66.6495
   -66.6495 -66.6452 -66.6451 -66.6389 -66.6389 -66.6389 -66.6389 -66.6345
   -66.6345 -66.6095 -66.6094 -66.5990 -66.5989 -66.5841 -66.5841 -66.5839
   -66.5838 -66.5821 -66.5796 -66.5795 -66.5734 -66.5734 -66.5733 -66.5732
   -66.5690 -66.5689 -66.5480 -66.5456 -66.5321 -66.5298 -66.5251 -66.5230
   -66.5219 -66.5105 -66.4986 -66.4935 -66.4914 -66.4750 -66.4662 -66.4538
   -66.4507 -57.6308 -57.4965 -57.3710 -57.2975 -57.2354 -57.1047 -53.3251
   -52.9010 -52.8416 -40.9762 -40.9762 -40.9762 -40.9762 -40.9496 -40.9496
   -40.9377 -40.9377 -40.9095 -40.9094 -40.9094 -40.9093 -40.8872 -40.8872
   -40.8872 -40.8872 -40.8829 -40.8828 -40.8709 -40.8708 -40.8518 -40.8483
   -40.8420 -40.8333 -40.8292 -40.8292 -40.8285 -40.8206 -40.8206 -40.8205
   -40.8204 -40.8193 -40.8193 -40.8129 -40.8085 -40.8085 -40.7920 -40.7791
   -40.7791 -40.7791 -40.7791 -40.7704 -40.7704 -40.7697 -40.7642 -40.7641
   -40.7619 -40.7583 -40.7583 -40.7582 -40.7582 -40.7582 -40.7582 -40.7528
   -40.7526 -40.7496 -40.7496 -40.7458 -40.7435 -40.7434 -40.7414 -40.7320
   -40.7282 -40.7275 -40.7275 -40.7275 -40.7275 -40.7209 -40.7141 -40.7141
   -40.7141 -40.7140 -40.7055 -40.7054 -40.7010 -40.6959 -40.6933 -40.6932
   -40.6932 -40.6931 -40.6930 -40.6930 -40.6930 -40.6930 -40.6918 -40.6916
   -40.6846 -40.6846 -40.6810 -40.6810 -40.6779 -40.6730 -40.6659 -40.6650
   -40.6637 -40.6618 -40.6618 -40.6612 -40.6611 -40.6610 -40.6608 -40.6574
   -40.6508 -40.6449 -40.6449 -40.6443 -40.6395 -40.6314 -40.6289 -40.6266
   -40.6266 -40.6265 -40.6264 -40.6233 -40.6171 -40.6145 -40.6144 -40.6144
   -40.6144 -40.6122 -40.6068 -40.5973 -40.5954 -40.5952 -40.5942 -40.5896
   -40.5836 -40.5785 -40.5783 -40.5782 -40.5611 -40.5564 -40.5481 -40.5479
   -40.5419 -40.5296 -40.5245 -40.5200 -40.5124 -40.5042 -40.4899 -40.4670
   -40.4598 -40.4461 -20.2294 -19.8795 -19.8683 -19.7843 -19.7177 -19.6625
   -19.5349 -19.4493 -19.4335 -19.3817 -19.2932 -19.2552 -19.1267 -18.8478
   -18.7996 -18.7475 -18.7386 -18.7336 -18.7307 -18.7220 -18.7135 -18.6845
   -18.6374 -18.6157 -18.6096 -18.6000 -18.5969 -18.5526 -18.5502 -18.5358
   -18.4933 -18.4852 -18.4773 -18.4552 -18.4368 -18.4161 -18.3985 -18.3925
   -18.3741 -18.3271 -18.3149 -18.2911 -18.2560 -18.2414 -18.2247 -18.2149
   -18.1870 -18.1727 -18.1575 -18.1261 -18.1211 -18.1209 -18.1207 -18.1206
   -18.1055 -18.0998 -18.0749 -18.0696 -18.0530 -18.0476 -18.0458 -18.0402
   -18.0370 -18.0277 -18.0060 -17.9944 -17.9908 -17.9822 -17.9745 -17.9652
   -17.9444 -17.9398 -17.9379 -17.9287 -17.9197 -17.9144 -17.8847 -17.8780
   -17.8648 -17.8575 -17.8575 -17.8557 -17.8198 -17.8120 -17.7990 -17.7979
   -17.7966 -17.7846 -17.7812 -17.7806 -17.7654 -17.7527 -17.7382 -17.7372
   -17.6887 -17.6818 -12.3534 -12.2153 -11.7497 -11.7428 -11.6751 -11.5985
   -11.5508 -11.4702 -11.4671 -11.4652 -11.4643 -11.4450 -11.4396 -11.4086
   -11.3811 -11.3712 -11.3686 -11.3575 -11.3454 -11.3175 -11.3136 -11.2855
   -11.2808 -11.2701 -11.2609 -11.2503 -11.2503 -11.2218 -11.2057 -11.2046
   -11.1982 -11.1558 -11.1519 -11.1470 -11.1453 -11.0852 -11.0670 -11.0331
   -11.0129 -10.9817 -10.9656 -10.9634 -10.9540 -10.9295 -10.9092 -10.9029
   -10.8990 -10.8817 -10.8697 -10.8499 -10.8453 -10.8310 -10.8246 -10.8237
   -10.8233 -10.8216 -10.8154 -10.8148 -10.7920 -10.7739 -10.7617 -10.7564
   -10.7494 -10.7471 -10.6699 -10.6456 -10.5823 -10.5607 -10.4966 -10.4870
   -10.4749 -10.4177 -10.3676 -10.3310 -10.2713 -10.2378 -10.1335 -10.1236
   -10.1124 -10.1111 -10.0633 -10.0474 -10.0176 -10.0136  -9.9638  -9.9578
    -9.9483  -9.9376  -9.9327  -9.9242  -9.9170  -9.9011  -9.8969  -9.8957
    -9.8787  -9.8728  -9.8610  -9.8122  -9.8035  -9.7806  -9.7584  -9.7547
    -9.7423  -9.7289  -9.7119  -9.7059  -9.6976  -9.6965  -9.6915  -9.6613
    -9.6575  -9.6495  -9.6344  -9.6211  -9.6092  -9.6000  -9.5740  -9.5612
    -9.5503  -9.5293  -9.5206  -9.5139  -9.4907  -9.4717  -9.4634  -9.4494
    -9.4090  -9.3919  -9.3502  -9.3183  -9.2822  -9.2659  -9.2129  -9.2046
    -9.1874  -9.1695  -9.1671  -9.1503  -9.1398  -9.1210  -9.1200  -9.1057
    -9.0972  -9.0943  -9.0610  -9.0422  -9.0372  -9.0320  -9.0235  -9.0081
    -8.9871  -8.9846  -8.9742  -8.9654  -8.9528  -8.9429  -8.9336  -8.9287
    -8.9259  -8.9232  -8.9137  -8.8972  -8.8788  -8.8720  -8.8672  -8.8550
    -8.8504  -8.8469  -8.8362  -8.8334  -8.8329  -8.8319  -8.8226  -8.8161
    -8.8111  -8.7973  -8.7742  -8.7609  -8.7561  -8.7493  -8.7278  -8.7225
    -8.7016  -8.6163  -8.5894  -8.5283  -8.5057  -8.5054  -8.4611  -8.4282
    -8.4206  -8.4132  -8.4029  -8.3512  -8.2244  -8.2049  -8.1868  -8.1868
    -8.1370  -8.1149  -8.1142  -8.1050  -8.0747  -8.0514  -7.9909  -7.9383
    -7.9252  -7.9208  -7.8790  -7.8592  -7.8575  -7.8481  -7.8444  -7.8411
    -7.8401  -7.8400  -7.8381  -7.8345  -7.8137  -7.7978  -7.7949  -7.7935
    -7.7926  -7.7860  -7.7703  -7.7687  -7.7619  -7.7559  -7.7528  -7.7437
    -7.7346  -7.7272  -7.7182  -7.7155  -7.7110  -7.7060  -7.6930  -7.6858
    -7.6818  -7.6648  -7.6600  -7.6549  -7.6548  -7.6530  -7.6392  -7.6277
    -7.6166  -7.6129  -7.5993  -7.5871  -7.5821  -7.5766  -7.5586  -7.5490
    -7.5284  -7.4980  -7.4879  -7.4778  -7.4600  -7.3766  -7.3587  -7.3127
    -7.2816  -7.2777  -7.2393  -7.2286  -7.2248  -7.2124  -7.2011  -7.1241
    -7.1207  -7.1040  -7.0836  -7.0606  -7.0453  -7.0191  -7.0057  -7.0023
    -6.9814  -6.9613  -6.9546  -6.9437  -6.9209  -6.9139  -6.8995  -6.8887
    -6.8542  -6.8438  -6.8231  -6.8192  -6.7810  -6.7352  -6.7271  -6.6981
    -6.6788  -6.6520  -6.6519  -6.6518  -6.6516  -6.6473  -6.6379  -6.6248
    -6.6043  -6.5844  -6.5839  -6.5823  -6.5800  -6.5521  -6.5420  -6.5105
    -6.4923  -6.4847  -6.4486  -6.4268  -6.3887  -6.3571  -6.3206  -6.3203
    -6.3200  -6.3193  -6.2641  -6.2567  -6.2479  -6.2418  -6.2412  -6.2360
    -6.2333  -6.2163  -6.2012  -6.1890  -6.1745  -6.1531  -6.1351  -5.9864
    -5.9716  -5.9716  -5.9210  -5.8986  -5.8908  -5.8611  -5.8093  -5.7507
    -5.6560  -5.5898  -5.5537  -5.4434  -5.3049  -5.2705  -5.0602  -4.9518
    -4.9170  -4.6312  -4.0410  -4.0153  -4.0117  -3.9907  -3.9225  -3.8870
    -3.8870  -3.8623  -3.8474  -3.8229  -3.8226  -3.7853  -3.7795  -3.7708
    -3.7588  -3.7181  -3.6891  -3.6521  -3.6168  -3.5926  -3.5909  -3.5875
    -3.5846  -3.5729  -3.5725  -3.5557  -3.5472  -3.5200  -3.5016  -3.4972
    -3.4899  -3.4772  -3.4751  -3.4685  -3.4643  -3.4566  -3.4534  -3.4338
    -3.4290  -3.3878  -3.3695  -3.3646  -3.3520  -3.3473  -3.3406  -3.3394
    -3.3136  -3.3124  -3.3069  -3.3005  -3.2970  -3.2740  -3.2651  -3.2639
    -3.2630  -3.2620  -3.2421  -3.2367  -3.2294  -3.2231  -3.2195  -3.2054
    -3.1986  -3.1964  -3.1925  -3.1876  -3.1780  -3.1573  -3.1266  -3.1213
    -3.1143  -3.0976  -3.0906  -3.0720  -3.0601  -3.0581  -3.0336  -3.0221
    -3.0184  -3.0013  -3.0006  -3.0003  -2.9998  -2.9920  -2.9692  -2.9610
    -2.9521  -2.9516  -2.9415  -2.9346  -2.9178  -2.9165  -2.9103  -2.9043
    -2.8997  -2.8905  -2.8814  -2.8696  -2.8647  -2.8497  -2.8452  -2.8321
    -2.8264  -2.8145  -2.8054  -2.7968  -2.7928  -2.7652  -2.7392  -2.7309
    -2.7033  -2.7014  -2.6610  -2.6387  -2.6374  -2.6365  -2.6283  -2.6233
    -2.5619  -2.5541  -2.5211  -2.5100  -2.4975  -2.4880  -2.4859  -2.4711
    -2.3689  -2.3607  -2.3396  -2.3068  -2.2661  -2.2294

          k =-0.5000-0.8660 0.0000 (321564 PWs)   bands (ev):

  -103.2832-103.0342 -87.2214 -71.6599 -71.6525 -71.6066 -71.5838 -71.5664
   -71.5379 -71.5331 -71.4089 -71.4044 -71.3649 -71.3207 -71.3138 -71.2884
   -71.2828 -66.6751 -66.6751 -66.6645 -66.6645 -66.6495 -66.6495 -66.6495
   -66.6495 -66.6452 -66.6451 -66.6390 -66.6389 -66.6389 -66.6389 -66.6345
   -66.6345 -66.6098 -66.6091 -66.5990 -66.5989 -66.5844 -66.5841 -66.5837
   -66.5837 -66.5821 -66.5799 -66.5792 -66.5738 -66.5737 -66.5737 -66.5723
   -66.5690 -66.5689 -66.5493 -66.5407 -66.5383 -66.5289 -66.5242 -66.5223
   -66.5215 -66.5107 -66.4982 -66.4934 -66.4918 -66.4753 -66.4660 -66.4538
   -66.4507 -57.6308 -57.4965 -57.3710 -57.2975 -57.2354 -57.1048 -53.3251
   -52.9010 -52.8416 -40.9763 -40.9762 -40.9762 -40.9762 -40.9496 -40.9496
   -40.9377 -40.9377 -40.9097 -40.9097 -40.9096 -40.9087 -40.8872 -40.8872
   -40.8872 -40.8872 -40.8831 -40.8825 -40.8709 -40.8708 -40.8644 -40.8577
   -40.8367 -40.8292 -40.8292 -40.8214 -40.8206 -40.8205 -40.8205 -40.8204
   -40.8193 -40.8193 -40.8085 -40.8085 -40.8070 -40.7998 -40.7961 -40.7859
   -40.7791 -40.7791 -40.7791 -40.7791 -40.7704 -40.7704 -40.7644 -40.7639
   -40.7622 -40.7583 -40.7583 -40.7582 -40.7582 -40.7582 -40.7582 -40.7528
   -40.7527 -40.7498 -40.7496 -40.7496 -40.7456 -40.7435 -40.7434 -40.7377
   -40.7327 -40.7275 -40.7275 -40.7275 -40.7275 -40.7214 -40.7145 -40.7143
   -40.7138 -40.7138 -40.7058 -40.7051 -40.7029 -40.6935 -40.6935 -40.6935
   -40.6930 -40.6930 -40.6930 -40.6930 -40.6923 -40.6918 -40.6916 -40.6891
   -40.6846 -40.6845 -40.6837 -40.6810 -40.6810 -40.6771 -40.6698 -40.6618
   -40.6618 -40.6615 -40.6613 -40.6609 -40.6609 -40.6603 -40.6571 -40.6551
   -40.6486 -40.6453 -40.6449 -40.6449 -40.6380 -40.6339 -40.6311 -40.6267
   -40.6265 -40.6265 -40.6264 -40.6220 -40.6181 -40.6148 -40.6144 -40.6144
   -40.6142 -40.6102 -40.6070 -40.5994 -40.5958 -40.5957 -40.5949 -40.5912
   -40.5785 -40.5784 -40.5712 -40.5659 -40.5575 -40.5530 -40.5484 -40.5476
   -40.5472 -40.5347 -40.5280 -40.5169 -40.5126 -40.5081 -40.4938 -40.4769
   -40.4641 -40.4339 -20.2298 -19.8801 -19.8679 -19.7850 -19.7166 -19.6627
   -19.5241 -19.4516 -19.4331 -19.3877 -19.2934 -19.2576 -19.1389 -18.8342
   -18.7682 -18.7583 -18.7480 -18.7336 -18.7305 -18.7218 -18.7133 -18.7002
   -18.6389 -18.6140 -18.6074 -18.6028 -18.5957 -18.5497 -18.5415 -18.5402
   -18.4911 -18.4852 -18.4741 -18.4513 -18.4339 -18.4252 -18.4002 -18.3922
   -18.3683 -18.3332 -18.3044 -18.3020 -18.2810 -18.2344 -18.2206 -18.2152
   -18.1896 -18.1779 -18.1427 -18.1304 -18.1213 -18.1210 -18.1208 -18.1206
   -18.1125 -18.0964 -18.0811 -18.0651 -18.0501 -18.0484 -18.0474 -18.0405
   -18.0385 -18.0145 -18.0116 -17.9896 -17.9875 -17.9838 -17.9735 -17.9687
   -17.9465 -17.9364 -17.9350 -17.9266 -17.9220 -17.9120 -17.8886 -17.8729
   -17.8635 -17.8579 -17.8575 -17.8574 -17.8202 -17.8123 -17.7981 -17.7978
   -17.7935 -17.7862 -17.7820 -17.7813 -17.7644 -17.7603 -17.7392 -17.7368
   -17.6907 -17.6791 -12.3444 -12.2560 -11.7305 -11.7167 -11.6541 -11.5627
   -11.5314 -11.4706 -11.4691 -11.4664 -11.4653 -11.4462 -11.4362 -11.4107
   -11.3891 -11.3796 -11.3709 -11.3590 -11.3315 -11.3139 -11.3064 -11.3060
   -11.2790 -11.2741 -11.2634 -11.2503 -11.2503 -11.2360 -11.2088 -11.2055
   -11.2015 -11.1727 -11.1481 -11.1462 -11.1378 -11.1327 -11.0782 -11.0155
   -11.0122 -10.9953 -10.9693 -10.9643 -10.9496 -10.9206 -10.9111 -10.9087
   -10.9054 -10.8770 -10.8720 -10.8701 -10.8444 -10.8315 -10.8246 -10.8237
   -10.8229 -10.8223 -10.8095 -10.7947 -10.7869 -10.7696 -10.7629 -10.7547
   -10.7535 -10.7469 -10.7038 -10.6175 -10.5813 -10.5801 -10.5120 -10.4900
   -10.4805 -10.4005 -10.3534 -10.2770 -10.2489 -10.2099 -10.1671 -10.1351
   -10.1197 -10.1026 -10.0964 -10.0724 -10.0349 -10.0000  -9.9895  -9.9778
    -9.9453  -9.9348  -9.9276  -9.9260  -9.9244  -9.9110  -9.9039  -9.8868
    -9.8792  -9.8785  -9.8447  -9.8252  -9.7988  -9.7905  -9.7655  -9.7428
    -9.7372  -9.7230  -9.7130  -9.7113  -9.6993  -9.6947  -9.6797  -9.6652
    -9.6627  -9.6547  -9.6467  -9.6146  -9.6113  -9.5983  -9.5968  -9.5509
    -9.5339  -9.5276  -9.5208  -9.5071  -9.4821  -9.4638  -9.4605  -9.4369
    -9.3699  -9.3385  -9.3222  -9.3117  -9.2829  -9.2807  -9.2380  -9.2052
    -9.2000  -9.1778  -9.1482  -9.1385  -9.1334  -9.1316  -9.1182  -9.1143
    -9.1038  -9.0973  -9.0504  -9.0461  -9.0356  -9.0308  -9.0241  -9.0040
    -8.9987  -8.9777  -8.9724  -8.9689  -8.9480  -8.9436  -8.9387  -8.9375
    -8.9256  -8.9224  -8.9115  -8.8960  -8.8846  -8.8780  -8.8648  -8.8534
    -8.8506  -8.8489  -8.8421  -8.8378  -8.8330  -8.8324  -8.8200  -8.8156
    -8.7909  -8.7780  -8.7731  -8.7570  -8.7553  -8.7397  -8.7303  -8.7243
    -8.7116  -8.6359  -8.5947  -8.5387  -8.5056  -8.5053  -8.4909  -8.4252
    -8.4229  -8.4027  -8.3700  -8.3121  -8.2729  -8.2501  -8.1868  -8.1868
    -8.1159  -8.1154  -8.1137  -8.1050  -8.0864  -8.0708  -8.0329  -7.9550
    -7.9263  -7.9232  -7.8670  -7.8582  -7.8573  -7.8465  -7.8427  -7.8414
    -7.8401  -7.8400  -7.8346  -7.8305  -7.8279  -7.7953  -7.7945  -7.7932
    -7.7924  -7.7790  -7.7706  -7.7699  -7.7562  -7.7542  -7.7524  -7.7352
    -7.7298  -7.7221  -7.7174  -7.7144  -7.7078  -7.7031  -7.6961  -7.6818
    -7.6769  -7.6665  -7.6647  -7.6548  -7.6547  -7.6440  -7.6414  -7.6273
    -7.6154  -7.6132  -7.5915  -7.5888  -7.5818  -7.5732  -7.5632  -7.5368
    -7.5309  -7.5024  -7.4696  -7.4624  -7.4263  -7.3973  -7.3384  -7.3098
    -7.2886  -7.2651  -7.2467  -7.2250  -7.2225  -7.2100  -7.1941  -7.1409
    -7.1232  -7.1071  -7.0755  -7.0490  -7.0333  -7.0287  -7.0147  -7.0050
    -7.0022  -6.9652  -6.9434  -6.9417  -6.9355  -6.9090  -6.8969  -6.8895
    -6.8661  -6.8496  -6.8266  -6.8217  -6.7978  -6.7417  -6.7038  -6.6839
    -6.6765  -6.6702  -6.6520  -6.6518  -6.6517  -6.6516  -6.6270  -6.6055
    -6.6003  -6.5879  -6.5846  -6.5826  -6.5811  -6.5768  -6.5415  -6.5302
    -6.5136  -6.4910  -6.4468  -6.4246  -6.3986  -6.3336  -6.3205  -6.3203
    -6.3202  -6.3189  -6.2598  -6.2558  -6.2484  -6.2470  -6.2428  -6.2367
    -6.2354  -6.2131  -6.2000  -6.1890  -6.1686  -6.1551  -6.1365  -6.0678
    -5.9716  -5.9716  -5.8999  -5.8961  -5.8644  -5.8402  -5.8024  -5.7490
    -5.6559  -5.5993  -5.5408  -5.4335  -5.3043  -5.2615  -5.0515  -4.9611
    -4.9000  -4.6081  -4.0614  -4.0094  -4.0074  -3.9939  -3.9371  -3.8870
    -3.8870  -3.8618  -3.8486  -3.8227  -3.8221  -3.7796  -3.7701  -3.7633
    -3.7586  -3.7168  -3.7017  -3.6467  -3.6158  -3.5939  -3.5912  -3.5877
    -3.5847  -3.5731  -3.5724  -3.5563  -3.5451  -3.5176  -3.4985  -3.4969
    -3.4921  -3.4883  -3.4785  -3.4758  -3.4643  -3.4589  -3.4550  -3.4397
    -3.4269  -3.4134  -3.3730  -3.3649  -3.3586  -3.3420  -3.3398  -3.3375
    -3.3113  -3.3104  -3.3055  -3.3015  -3.2836  -3.2701  -3.2653  -3.2640
    -3.2633  -3.2602  -3.2565  -3.2384  -3.2336  -3.2282  -3.2214  -3.2098
    -3.2029  -3.1958  -3.1913  -3.1775  -3.1767  -3.1538  -3.1438  -3.1232
    -3.1129  -3.1026  -3.0869  -3.0665  -3.0608  -3.0566  -3.0296  -3.0231
    -3.0202  -3.0130  -3.0011  -3.0001  -2.9994  -2.9987  -2.9745  -2.9671
    -2.9533  -2.9522  -2.9451  -2.9420  -2.9221  -2.9196  -2.9129  -2.9065
    -2.8943  -2.8930  -2.8785  -2.8740  -2.8671  -2.8632  -2.8454  -2.8359
    -2.8160  -2.8003  -2.7938  -2.7932  -2.7919  -2.7474  -2.7368  -2.7213
    -2.7035  -2.6967  -2.6456  -2.6418  -2.6374  -2.6319  -2.6286  -2.6178
    -2.5652  -2.5531  -2.5110  -2.5043  -2.4926  -2.4895  -2.4841  -2.4439
    -2.3617  -2.3536  -2.3384  -2.3032  -2.2739  -2.2617

     the Fermi energy is    -4.7648 ev

!    total energy              =  -27706.37596215 Ry
     total all-electron energy =   -549111.638401 Ry
     estimated scf accuracy    <       0.00000042 Ry
     smearing contrib. (-TS)   =      -0.00483429 Ry
     internal energy E=F+TS    =  -27706.37112786 Ry

     The total energy is F=E-TS. E is the sum of the following terms:
     one-electron contribution =  529756.66226217 Ry
     hartree contribution      = -265059.03992578 Ry
     xc contribution           =   -1610.10394918 Ry
     ewald contribution        = -274010.20006769 Ry
     DFT-D3 Dispersion         =      -4.04316084 Ry
     one-center paw contrib.   =  -16779.64628654 Ry

     convergence has been achieved in  29 iterations

     negative rho (up, down):  8.204E-04 0.000E+00

     Forces acting on atoms (cartesian axes, Ry/au):

     atom    1 type  1   force =    -0.00231172   -0.00067379   -0.00209078
     atom    2 type  1   force =     0.00000431   -0.00000097    0.00192952
     atom    3 type  1   force =     0.00003953   -0.00002052    0.00009498
     atom    4 type  2   force =     0.00000135   -0.00000036   -0.00351744
     atom    5 type  2   force =    -0.00002499   -0.00003215   -0.00018749
     atom    6 type  2   force =     0.00042287    0.00042981   -0.00069694
     atom    7 type  2   force =     0.00000349   -0.00000503    0.00171583
     atom    8 type  2   force =     0.00002604   -0.00003193    0.00028235
     atom    9 type  2   force =    -0.00059965    0.00093741    0.00100594
     atom   10 type  1   force =    -0.00067067   -0.00277122   -0.00007216
     atom   11 type  1   force =     0.00000691   -0.00000079    0.00192248
     atom   12 type  1   force =     0.00000800   -0.00002643    0.00011432
     atom   13 type  2   force =     0.00000179    0.00000122   -0.00351652
     atom   14 type  2   force =     0.00000692   -0.00001257   -0.00018203
     atom   15 type  2   force =     0.00031930    0.00060209   -0.00073443
     atom   16 type  2   force =     0.00000395   -0.00000316    0.00172645
     atom   17 type  2   force =     0.00004417    0.00000910    0.00028791
     atom   18 type  2   force =    -0.00047219   -0.00020474    0.00085719
     atom   19 type  1   force =     0.00035875    0.00044295   -0.00088828
     atom   20 type  1   force =     0.00000235    0.00000288    0.00193425
     atom   21 type  1   force =    -0.00003474   -0.00001895    0.00005471
     atom   22 type  2   force =     0.00000049    0.00000146   -0.00351747
     atom   23 type  2   force =     0.00000270   -0.00003912   -0.00014464
     atom   24 type  2   force =     0.00018649   -0.00020172   -0.00006005
     atom   25 type  2   force =     0.00000363   -0.00000190    0.00171677
     atom   26 type  2   force =    -0.00000703    0.00000103    0.00029134
     atom   27 type  2   force =     0.00049152   -0.00051433    0.00029722
     atom   28 type  1   force =    -0.00007837   -0.00044289   -0.00133076
     atom   29 type  1   force =    -0.00000102    0.00000159    0.00193068
     atom   30 type  1   force =    -0.00004506   -0.00003573   -0.00000709
     atom   31 type  2   force =     0.00000059   -0.00000033   -0.00351271
     atom   32 type  2   force =    -0.00003036   -0.00002033   -0.00014669
     atom   33 type  2   force =    -0.00056431    0.00026099   -0.00022515
     atom   34 type  2   force =    -0.00000145   -0.00000677    0.00171673
     atom   35 type  2   force =    -0.00008930   -0.00002951    0.00024890
     atom   36 type  2   force =     0.00038408    0.00077497    0.00109458
     atom   37 type  1   force =     0.00284995    0.00113907   -0.00371613
     atom   38 type  1   force =    -0.00000744   -0.00000178    0.00192407
     atom   39 type  1   force =     0.00001875   -0.00002735   -0.00008743
     atom   40 type  2   force =     0.00000033    0.00000023   -0.00351563
     atom   41 type  2   force =     0.00001717   -0.00009209   -0.00024037
     atom   42 type  2   force =     0.00029246    0.00003334    0.00037272
     atom   43 type  2   force =     0.00000372    0.00000133    0.00171142
     atom   44 type  2   force =    -0.00001378   -0.00001003    0.00018843
     atom   45 type  2   force =    -0.00029824   -0.00102684    0.00122971
     atom   46 type  1   force =     0.00222198    0.00569929    0.00860968
     atom   47 type  1   force =    -0.00000838    0.00000053    0.00192214
     atom   48 type  1   force =     0.00004531    0.00000726    0.00005361
     atom   49 type  2   force =     0.00000078    0.00000142   -0.00351605
     atom   50 type  2   force =    -0.00004383   -0.00001604   -0.00020574
     atom   51 type  2   force =    -0.00100453   -0.00119311   -0.00168178
     atom   52 type  2   force =     0.00000920    0.00000239    0.00171064
     atom   53 type  2   force =     0.00001997   -0.00007658    0.00015699
     atom   54 type  2   force =     0.00129117    0.00027715   -0.00325903
     atom   55 type  1   force =     0.00030284    0.00053979    0.00245439
     atom   56 type  1   force =     0.00000179   -0.00000205    0.00192218
     atom   57 type  1   force =     0.00000164   -0.00000971   -0.00003852
     atom   58 type  2   force =     0.00000196    0.00000068   -0.00351387
     atom   59 type  2   force =    -0.00000560   -0.00003736   -0.00015685
     atom   60 type  2   force =     0.00051106    0.00068123   -0.00004152
     atom   61 type  2   force =     0.00001310   -0.00000802    0.00171922
     atom   62 type  2   force =    -0.00002521    0.00000190    0.00021588
     atom   63 type  2   force =    -0.00129449   -0.00051368    0.00067633
     atom   64 type  1   force =    -0.00073069    0.00006397   -0.00024545
     atom   65 type  1   force =     0.00000325   -0.00000469    0.00192346
     atom   66 type  1   force =    -0.00001139   -0.00001921    0.00007577
     atom   67 type  2   force =     0.00000059    0.00000011   -0.00351799
     atom   68 type  2   force =    -0.00002349   -0.00002547   -0.00016173
     atom   69 type  2   force =    -0.00010434   -0.00034623   -0.00032164
     atom   70 type  2   force =     0.00001078   -0.00000246    0.00171071
     atom   71 type  2   force =     0.00005510   -0.00003919    0.00031012
     atom   72 type  2   force =    -0.00028486   -0.00002341    0.00043897
     atom   73 type  1   force =    -0.00062941   -0.00027991   -0.00033072
     atom   74 type  1   force =    -0.00000128   -0.00000358    0.00192326
     atom   75 type  1   force =    -0.00001642   -0.00006542   -0.00003223
     atom   76 type  2   force =    -0.00000110    0.00000010   -0.00351912
     atom   77 type  2   force =     0.00001918   -0.00004328   -0.00023256
     atom   78 type  2   force =    -0.00101930    0.00007953   -0.00013890
     atom   79 type  2   force =     0.00000049   -0.00000717    0.00172296
     atom   80 type  2   force =    -0.00000685   -0.00001869    0.00018337
     atom   81 type  2   force =     0.00061774    0.00046574    0.00138836
     atom   82 type  1   force =     0.00021669   -0.00265262    0.00113718
     atom   83 type  1   force =    -0.00000210   -0.00000204    0.00192803
     atom   84 type  1   force =    -0.00004985    0.00002342   -0.00002166
     atom   85 type  2   force =     0.00000028    0.00000029   -0.00352051
     atom   86 type  2   force =    -0.00000554   -0.00002270   -0.00023141
     atom   87 type  2   force =    -0.00014212   -0.00058136   -0.00194480
     atom   88 type  2   force =    -0.00000041    0.00000196    0.00172060
     atom   89 type  2   force =     0.00001488   -0.00002876    0.00019749
     atom   90 type  2   force =     0.00472099   -0.00344610   -0.00438070
     atom   91 type  1   force =    -0.00187740   -0.00247956    0.00538848
     atom   92 type  1   force =    -0.00000444    0.00000185    0.00192965
     atom   93 type  1   force =     0.00003342   -0.00007164    0.00009494
     atom   94 type  2   force =     0.00000050    0.00000049   -0.00351579
     atom   95 type  2   force =    -0.00002692   -0.00004057   -0.00025371
     atom   96 type  2   force =    -0.00021388    0.00037988   -0.00243188
     atom   97 type  2   force =     0.00000126   -0.00000236    0.00171293
     atom   98 type  2   force =     0.00002312   -0.00006819    0.00007371
     atom   99 type  2   force =     0.00935940   -0.00369374   -0.01200298
     atom  100 type  1   force =     0.00023708   -0.00119438    0.00042277
     atom  101 type  1   force =    -0.00000405   -0.00000316    0.00192290
     atom  102 type  1   force =    -0.00000071   -0.00007448   -0.00004039
     atom  103 type  2   force =    -0.00000081    0.00000138   -0.00351786
[...]
     atom   44 type  2   force =     0.00001500   -0.00002055   -0.00009589
     atom   45 type  2   force =    -0.00032142    0.00028269    0.00000758
     atom   46 type  1   force =    -0.00029589    0.00061915    0.00028507
     atom   47 type  1   force =    -0.00000671   -0.00000898    0.00189406
     atom   48 type  1   force =    -0.00004657   -0.00006629   -0.00001165
     atom   49 type  2   force =    -0.00000088    0.00000356   -0.00328358
     atom   50 type  2   force =    -0.00003527   -0.00004438   -0.00001383
     atom   51 type  2   force =     0.00008830   -0.00014864   -0.00043419
     atom   52 type  2   force =    -0.00001116   -0.00003744    0.00150039
     atom   53 type  2   force =    -0.00003832    0.00003586    0.00000079
     atom   54 type  2   force =    -0.00101188   -0.00106056   -0.00065752
     atom   55 type  1   force =    -0.00022498    0.00002798    0.00004291
     atom   56 type  1   force =    -0.00000179   -0.00001254    0.00189462
     atom   57 type  1   force =    -0.00004925   -0.00002834   -0.00000096
     atom   58 type  2   force =    -0.00000122    0.00000386   -0.00328307
     atom   59 type  2   force =    -0.00003012    0.00000210    0.00004127
     atom   60 type  2   force =    -0.00056887   -0.00028280   -0.00041410
     atom   61 type  2   force =    -0.00000192   -0.00005024    0.00151234
     atom   62 type  2   force =     0.00001085   -0.00005563   -0.00000518
     atom   63 type  2   force =    -0.00054704   -0.00042431   -0.00027890
     atom   64 type  1   force =     0.00030832    0.00005071    0.00018764
     atom   65 type  1   force =    -0.00000378   -0.00001009    0.00189877
     atom   66 type  1   force =    -0.00001568   -0.00002970   -0.00002533
     atom   67 type  2   force =    -0.00000140    0.00000354   -0.00328252
     atom   68 type  2   force =    -0.00003885    0.00000082   -0.00003811
     atom   69 type  2   force =     0.00037868   -0.00030792   -0.00021968
     atom   70 type  2   force =    -0.00000498   -0.00004415    0.00151307
     atom   71 type  2   force =     0.00001507    0.00000303   -0.00005335
     atom   72 type  2   force =     0.00057698   -0.00008018    0.00044955
     atom   73 type  1   force =    -0.00030398    0.00042326   -0.00001631
     atom   74 type  1   force =    -0.00000333   -0.00000928    0.00190112
     atom   75 type  1   force =     0.00002163   -0.00002951   -0.00002769
     atom   76 type  2   force =    -0.00000146    0.00000341   -0.00328272
     atom   77 type  2   force =     0.00001305   -0.00005102   -0.00001002
     atom   78 type  2   force =     0.00030365   -0.00045005   -0.00046266
     atom   79 type  2   force =    -0.00000537   -0.00004407    0.00151630
     atom   80 type  2   force =    -0.00002901   -0.00004900    0.00009622
     atom   81 type  2   force =     0.00027370   -0.00009211    0.00087663
     atom   82 type  1   force =    -0.00006793    0.00048789    0.00000077
     atom   83 type  1   force =    -0.00000407   -0.00001017    0.00189836
     atom   84 type  1   force =    -0.00001883   -0.00003053   -0.00001124
     atom   85 type  2   force =    -0.00000086    0.00000360   -0.00328191
     atom   86 type  2   force =     0.00000167   -0.00000077   -0.00003340
     atom   87 type  2   force =    -0.00003480    0.00018351   -0.00014938
     atom   88 type  2   force =    -0.00001231   -0.00003964    0.00151257
     atom   89 type  2   force =    -0.00005068   -0.00001378    0.00004239
     atom   90 type  2   force =     0.00040205   -0.00045887   -0.00042352
     atom   91 type  1   force =     0.00001649    0.00019643   -0.00034320
     atom   92 type  1   force =    -0.00000725   -0.00000972    0.00189510
     atom   93 type  1   force =     0.00000814   -0.00003699   -0.00001352
     atom   94 type  2   force =    -0.00000064    0.00000391   -0.00328364
     atom   95 type  2   force =     0.00003086    0.00001243   -0.00001747
     atom   96 type  2   force =    -0.00008463    0.00004930    0.00029597
     atom   97 type  2   force =    -0.00001414   -0.00004423    0.00149675
     atom   98 type  2   force =    -0.00004212   -0.00003742    0.00004646
     atom   99 type  2   force =    -0.00005193    0.00043897   -0.00004033
     atom  100 type  1   force =     0.00016220   -0.00003396    0.00016434
     atom  101 type  1   force =    -0.00000126   -0.00001161    0.00189604
     atom  102 type  1   force =    -0.00000966   -0.00000464   -0.00000643
     atom  103 type  2   force =    -0.00000125    0.00000357   -0.00328259
     atom  104 type  2   force =    -0.00001802   -0.00000814   -0.00004428
     atom  105 type  2   force =     0.00018897    0.00067029   -0.00025979
     atom  106 type  2   force =    -0.00000355   -0.00004561    0.00151494
     atom  107 type  2   force =    -0.00001299   -0.00005981   -0.00000453
     atom  108 type  2   force =    -0.00010160   -0.00033547    0.00030261
     atom  109 type  1   force =     0.00025162    0.00029469   -0.00002667
     atom  110 type  1   force =    -0.00000228   -0.00001066    0.00189701
     atom  111 type  1   force =    -0.00006398   -0.00006261    0.00001472
     atom  112 type  2   force =    -0.00000163    0.00000343   -0.00328308
     atom  113 type  2   force =    -0.00005677   -0.00003889   -0.00007227
     atom  114 type  2   force =    -0.00023830    0.00014322    0.00021489
     atom  115 type  2   force =    -0.00000158   -0.00004169    0.00152579
     atom  116 type  2   force =    -0.00004865   -0.00005138   -0.00003950
     atom  117 type  2   force =     0.00001428    0.00075241   -0.00007973
     atom  118 type  1   force =    -0.00007241    0.00028204    0.00015259
     atom  119 type  1   force =    -0.00000349   -0.00001029    0.00189961
     atom  120 type  1   force =    -0.00003952   -0.00001783    0.00002631
     atom  121 type  2   force =    -0.00000169    0.00000367   -0.00328319
     atom  122 type  2   force =    -0.00003830   -0.00004360    0.00003605
     atom  123 type  2   force =    -0.00002058    0.00075139   -0.00035395
     atom  124 type  2   force =    -0.00000570   -0.00004402    0.00151489
     atom  125 type  2   force =    -0.00005458   -0.00002791    0.00005710
     atom  126 type  2   force =    -0.00027680    0.00050227    0.00064121
     atom  127 type  1   force =    -0.00021512    0.00008875    0.00021291
     atom  128 type  1   force =    -0.00000490   -0.00001178    0.00190022
     atom  129 type  1   force =     0.00000597   -0.00001520    0.00000411
     atom  130 type  2   force =    -0.00000116    0.00000358   -0.00328231
     atom  131 type  2   force =     0.00004309    0.00001345    0.00000980
     atom  132 type  2   force =    -0.00030338    0.00026207   -0.00033136
     atom  133 type  2   force =    -0.00001831   -0.00004564    0.00150114
     atom  134 type  2   force =    -0.00002832    0.00003502    0.00001439
     atom  135 type  2   force =    -0.00032264    0.00039574    0.00014973
     atom  136 type  1   force =    -0.00041097   -0.00050698    0.00044797
     atom  137 type  1   force =    -0.00000759   -0.00000995    0.00189689
     atom  138 type  1   force =    -0.00000691   -0.00003744   -0.00004382
     atom  139 type  2   force =    -0.00000103    0.00000316   -0.00328350
     atom  140 type  2   force =     0.00003189   -0.00000529   -0.00007672
     atom  141 type  2   force =    -0.00019810   -0.00069610   -0.00052080
     atom  142 type  2   force =    -0.00001681   -0.00004256    0.00150281
     atom  143 type  2   force =     0.00005773   -0.00002377   -0.00002587
     atom  144 type  2   force =    -0.00029414    0.00041425    0.00008228
     atom  145 type  3   force =     0.00063585    0.00010458    0.00062205
     atom  146 type  3   force =    -0.00002716   -0.00092493   -0.00070702
     atom  147 type  4   force =     0.00105254   -0.00066505   -0.00057374

     Total force =     0.004939     Total SCF correction =     0.000367
     Energy error            =      4.5E-05 Ry
     Gradient error          =      1.1E-03 Ry/Bohr

     number of scf cycles    =  44
     number of bfgs steps    =  43

     energy             old  =  -27706.4661587820 Ry
     energy             new  =  -27706.4662036670 Ry

     CASE: energy            _new < energy            _old

     new trust radius        =       0.0460523081 bohr
     new conv_thr            =       0.0000000100 Ry


ATOMIC_POSITIONS (angstrom)
Mo               1.5598644517        2.6939970341        6.0953918800
Mo               1.5769197498        0.9104407117       -6.0872367793    0   0   0
Mo              -0.0012912220        1.8123561532        0.0014571022
S                0.0000044503        0.0000077495       -7.6506323570    0   0   0
S                1.5747808382        0.9026681014       -1.5654948039
S               -0.0065014989        1.7938577995        4.5136922297
S                0.0000053241        0.0000068460       -4.5222282367    0   0   0
S                1.5756505236        0.9008027319        1.5668322618
S               -0.0165626734        1.7892951468        7.6605609406
Mo              -0.0195060935        5.4333670976        6.0961789629
Mo               0.0000011799        3.6417399547       -6.0872367793    0   0   0
Mo              -1.5781005213        4.5435216655        0.0005944170
S               -1.5769141197        2.7313069925       -7.6506323570    0   0   0
S               -0.0008158092        3.6333606487       -1.5641264519
S               -1.5792484915        4.5169804924        4.5131280807
S               -1.5769132459        2.7313060890       -4.5222282367    0   0   0
S               -0.0006117474        3.6336650874        1.5685761419
S               -1.6069970800        4.5163779714        7.6513964258
Mo              -1.5918628212        8.1611482359        6.0658119597
Mo              -1.5769173901        6.3730391977       -6.0872367793    0   0   0
Mo              -3.1559193122        7.2742778514       -0.0012469233
S               -3.1538326896        5.4626062355       -7.6506323570    0   0   0
S               -1.5777423560        6.3640878176       -1.5656246924
S               -3.1633484651        7.2469948682        4.4995699501
S               -3.1538318159        5.4626053320       -4.5222282367    0   0   0
S               -1.5792543751        6.3644238922        1.5663983220
S               -3.1516344995        7.2470050992        7.6397440232
Mo               3.1396636991       -0.0308270036        6.0709597600
Mo              -3.1538359601        9.1043384407       -6.0872367793    0   0   0
Mo              -4.7331907274       10.0059959405       -0.0008188510
S               -4.7307512596        8.1939054785       -7.6506323570    0   0   0
S               -3.1558473287        9.0959681101       -1.5662291467
S               -4.7467987733        9.9863631828        4.5061300504
S               -4.7307503859        8.1939045750       -4.5222282367    0   0   0
S               -3.1564877162        9.0947550492        1.5654268649
S               -4.7329200081        9.9830541563        7.6445974064
Mo               4.7208225562        2.6817928423        6.0804163811
Mo               4.7307503218        0.9104407117       -6.0872367793    0   0   0
Mo               3.1519210023        1.8123144768       -0.0001442792
S                3.1538350223        0.0000077495       -7.6506323570    0   0   0
S                4.7289555936        0.9020028207       -1.5655010201
S                3.1325741717        1.7950697402        4.5121031610
S                3.1538358961        0.0000068460       -4.5222282367    0   0   0
S                4.7281560711        0.9012047716        1.5668763122
S                3.1448940999        1.7777658380        7.6509382274
Mo               3.1322424414        5.4021429659        6.1349423211
Mo               3.1538317519        3.6417399547       -6.0872367793    0   0   0
Mo               1.5759714958        4.5438628691        0.0010516000
S                1.5769164523        2.7313069925       -7.6506323570    0   0   0
S                3.1519398406        3.6334727119       -1.5654173255
S                1.5780028336        4.5275244673        4.5573096043
S                1.5769173261        2.7313060890       -4.5222282367    0   0   0
S                3.1527216067        3.6327450273        1.5678999862
S                1.4553802310        4.4563638351        7.7522399178
Mo               1.5209753193        8.1894762364        6.0777115513
Mo               1.5769131819        6.3730391977       -6.0872367793    0   0   0
Mo              -0.0012975940        7.2744660595        0.0004600149
S               -0.0000021176        5.4626062355       -7.6506323570    0   0   0
S                1.5757338844        6.3644847066       -1.5649028335
S               -0.0150519528        7.2439331631        4.5047629380
S               -0.0000012439        5.4626053320       -4.5222282367    0   0   0
S                1.5762091909        6.3645244643        1.5687426713
S               -0.0362297749        7.2623358380        7.6503938409
Mo               6.2921449720       -0.0268315296        6.0639277588
Mo              -0.0000053881        9.1043384407       -6.0872367793    0   0   0
Mo              -1.5788805878       10.0058701109       -0.0003647541
S               -1.5769206876        8.1939054785       -7.6506323570    0   0   0
S               -0.0011447047        9.0955686147       -1.5649223033
S               -1.5949154851        9.9855538590        4.4986454629
S               -1.5769198139        8.1939045750       -4.5222282367    0   0   0
S               -0.0024441930        9.0951061532        1.5674631130
S               -1.5927949829        9.9845004900        7.6330873515
Mo               7.8742054087        2.6963628179        6.0683795736
Mo               7.8845808939        0.9104407117       -6.0872367793    0   0   0
Mo               6.3055519421        1.8121920273        0.0002105815
S                6.3076655943        0.0000077495       -7.6506323570    0   0   0
S                7.8832773225        0.9019455313       -1.5644115603
S                6.2909830196        1.7935666043        4.5007031017
S                6.3076664681        0.0000068460       -4.5222282367    0   0   0
S                7.8823427683        0.9018086530        1.5671591159
S                6.3026803755        1.7797342107        7.6402596924
Mo               6.3176596674        5.4155607538        6.1012253129
Mo               6.3076623239        3.6417399547       -6.0872367793    0   0   0
Mo               4.7287990317        4.5436401326       -0.0002504463
S                4.7307470244        2.7313069925       -7.6506323570    0   0   0
S                6.3060040534        3.6329717048       -1.5653866230
S                4.7080158850        4.5282506323        4.5552490690
S                4.7307478981        2.7313060890       -4.5222282367    0   0   0
S                6.3049094248        3.6331464665        1.5672455913
S                4.7905698886        4.4545147749        7.7021781729
Mo               4.7421039059        8.1874259886        6.1309399581
Mo               4.7307437539        6.3730391977       -6.0872367793    0   0   0
Mo               3.1524215296        7.2747317380        0.0006609723
S                3.1538284544        5.4626062355       -7.6506323570    0   0   0
S                4.7284068582        6.3644528293       -1.5659205519
S                3.1599655470        7.2420052978        4.5850697062
S                3.1538293281        5.4626053320       -4.5222282367    0   0   0
S                4.7293274145        6.3639182658        1.5674811410
S                3.0583200752        7.3058839287        7.6388024901
Mo               9.4450081649       -0.0258430913        6.0847753190
Mo               3.1538251839        9.1043384407       -6.0872367793    0   0   0
Mo               1.5753115527       10.0058412770        0.0010327518
S                1.5769098844        8.1939054785       -7.6506323570    0   0   0
S                3.1520617271        9.0959871470       -1.5645025740
S                1.5664601469        9.9898344859        4.5002022585
S                1.5769107581        8.1939045750       -4.5222282367    0   0   0
S                3.1522612646        9.0946512024        1.5689651616
S                1.5475217215       10.0059981153        7.6436688181
Mo              -1.5872710424        2.6970766654        6.0809231612
Mo              11.0384114659        0.9104407117       -6.0872367793    0   0   0
Mo               9.4602278324        1.8120907276        0.0011751986
S                9.4614961663        0.0000077495       -7.6506323570    0   0   0
S               11.0372316124        0.9019934987       -1.5639250590
S                9.4561380411        1.7853805898        4.5073065056
S                9.4614970401        0.0000068460       -4.5222282367    0   0   0
S               11.0372400236        0.9006054526        1.5688020828
S                9.4414476678        1.7976744928        7.6465192904
Mo              -3.1637459196        5.4266127420        6.0700213370
Mo               9.4614928959        3.6417399547       -6.0872367793    0   0   0
Mo               7.8827218366        4.5432441914        0.0002278709
S                7.8845775964        2.7313069925       -7.6506323570    0   0   0
S                9.4604090753        3.6328635011       -1.5647230844
S                7.8680687169        4.5202910108        4.5062368542
S                7.8845784701        2.7313060890       -4.5222282367    0   0   0
S                9.4598837269        3.6332273744        1.5675743221
S                7.8997939837        4.5002399177        7.6501451681
Mo              -4.7215773116        8.1654999034        6.0750838321
Mo               7.8845743259        6.3730391977       -6.0872367793    0   0   0
Mo               6.3054169192        7.2744858819       -0.0007367113
S                6.3076590264        5.4626062355       -7.6506323570    0   0   0
S                7.8823873004        6.3636207233       -1.5661673615
S                6.2842691177        7.2530785865        4.5537648996
S                6.3076599001        5.4626053320       -4.5222282367    0   0   0
S                7.8819806841        6.3644944708        1.5666775243
S                6.3925688799        7.2211843257        7.6973247529
Mo              -0.0043148434       -0.0211150966        6.0861040126
Mo               6.3076557559        9.1043384407       -6.0872367793    0   0   0
Mo               4.7288884405       10.0056710159        0.0010857957
S                4.7307404564        8.1939054785       -7.6506323570    0   0   0
S                6.3048830805        9.0959176245       -1.5656658103
S                4.7250607007        9.9696640152        4.5489453030
S                4.7307413301        8.1939045750       -4.5222282367    0   0   0
S                6.3058952097        9.0944297977        1.5673585432
S                4.7247886438       10.1140322565        7.7394156957
Pt               3.1205528886        5.5324061069        9.0148007270
Pt               4.6276652665        8.1403558634        9.0099832239
Pd               4.0702382917        6.7267686380       11.0594878490



     Writing config-only to output data dir ./outdir/pwscf.save/ :
     XML data file
     NEW-OLD atomic charge density approx. for the potential

     negative rho (up, down):  9.258E-04 0.000E+00

     total cpu time spent up to now is   258731.2 secs

     Self-consistent Calculation

     iteration #  1     ecut=    77.00 Ry     beta= 0.20
     Davidson diagonalization with overlap
     ethr =  1.00E-06,  avg # of iterations = 18.5

     Threshold (ethr) on eigenvalues was too large:
     Diagonalizing with lowered threshold

     Davidson diagonalization with overlap
