145
Lattice="12.615322175253082 0.0 0.0 -6.307673702948716 10.925197002145726 0.0 0.0 0.0 30.30125956094956" Properties=species:S:1:pos:R:3:forces:R:3 energy=-331395.79909066245 free_energy=-331395.79909066245 pbc="T T T"
Mo       1.57689383       2.73128033       6.08503471      -0.04090162      -0.01647409      -0.02714211
Mo       1.57692032       0.91044023      -6.08723735      -0.00025608      -0.00019258       0.04853137
Mo      -0.00002397       1.82086659      -0.00094741       0.00013781      -0.00064792      -0.00050471
S        0.00000505       0.00000757      -7.65063278       0.00000077      -0.00005605      -0.08132862
S        1.57689256       0.91043771      -1.56640797      -0.00001594       0.00010927       0.00338794
S       -0.00002018       1.82085019       4.51935212      -0.01819930      -0.00807866      -0.00915056
S        0.00000505       0.00000631      -4.52222842       0.00000180      -0.00005374       0.03492998
S        1.57689256       0.91043645       1.56625532       0.00006788      -0.00009359      -0.00456139
S       -0.00001892       1.82085019       7.65396953       0.00986841      -0.00871090       0.00546154
Mo      -0.00002649       5.46257958       6.08503471      -0.16929892       0.04480713      -0.12370606
Mo       0.00000126       3.64173948      -6.08723735      -0.00025094       0.00018769       0.04843753
Mo      -1.57692663       4.55215322      -0.00093858      -0.00081504       0.00075565      -0.00057773
S       -1.57691401       2.73130682      -7.65063278      -0.00000668       0.00002597      -0.08126871
S       -0.00002145       3.64173191      -1.56640292       0.00006248      -0.00000257       0.00360340
S       -1.57694050       4.55214692       4.51935086       0.00657174       0.00892790       0.00889550
S       -1.57691275       2.73130556      -4.52222842      -0.00000566       0.00002905       0.03493024
S       -0.00002145       3.64173065       1.56625659       0.00023706       0.00028873      -0.00326222
S       -1.57694050       4.55214818       7.65396827      -0.00706385      -0.00892533       0.00852346
Mo      -1.57694681       8.19388009       6.08503471      -0.00087649       0.01188107      -0.00383866
Mo      -1.57691779       6.37303873      -6.08723735      -0.00014398       0.00016429       0.04849769
Mo      -3.15385451       7.28345878      -0.00094236      -0.00022291      -0.00037435      -0.00089089
S       -3.15383307       5.46260607      -7.65063278       0.00000823       0.00001183      -0.08116253
S       -1.57693924       6.37302738      -1.56639283       0.00011724       0.00003162       0.00354889
S       -3.15385956       7.28344617       4.51935086       0.00002211      -0.00492469       0.00564383
S       -3.15383181       5.46260481      -4.52222842      -0.00004731       0.00003548       0.03488036
S       -1.57694176       6.37302864       1.56625280      -0.00019695      -0.00003214      -0.00397878
S       -3.15385956       7.28344617       7.65396953      -0.00003857      -0.00400449      -0.01070530
Mo       3.15381162      -0.00001766       6.08503597      -0.00012984      -0.05287139      -0.00120739
Mo      -3.15383559       9.10433798      -6.08723735      -0.00017406      -0.00015041       0.04848046
Mo      -4.73078997      10.01478326      -0.00094741      -0.00009976      -0.00008922      -0.00099656
S       -4.73075086       8.19390532      -7.65063278       0.00000720      -0.00003985      -0.08114967
S       -3.15386082       9.10433041      -1.56639283       0.00002340       0.00012238       0.00350570
S       -4.73077483      10.01474542       4.51935086       0.00155397       0.00342085      -0.00137168
S       -4.73075086       8.19390406      -4.52222842       0.00000797      -0.00000566       0.03483485
S       -3.15386587       9.10433168       1.56624776       0.00004448       0.00001286      -0.00405489
S       -4.73077483      10.01474415       7.65396701      -0.01067779       0.00743974      -0.00990132
Mo       4.73072185       2.73128033       6.08503219       0.04095922      -0.01652808      -0.02716268
Mo       4.73075086       0.91044023      -6.08723735       0.00005682      -0.00025840       0.04863524
Mo       3.15379648       1.82087290      -0.00094615       0.00039441      -0.00115134      -0.00023191
S        3.15383559       0.00000757      -7.65063278      -0.00000900      -0.00012084      -0.08130805
S        4.73072311       0.91043392      -1.56639914       0.00004859       0.00001671       0.00343525
S        3.15380910       1.82085019       4.51935086       0.00000566      -0.01999084      -0.01485712
S        3.15383559       0.00000631      -4.52222842      -0.00000026      -0.00000591       0.03494695
S        4.73072311       0.91043771       1.56625280       0.00001054      -0.00005811      -0.00461642
S        3.15381036       1.82084893       7.65396953       0.00000257       0.08866089      -0.00990363
Mo       3.15380657       5.46257958       6.08503471       0.00009076       0.23263470      -0.46504263
Mo       3.15383181       3.64173948      -6.08723735       0.00001594      -0.00000489       0.04858974
Mo       1.57688752       4.55217088      -0.00094236      -0.00007713      -0.00005476      -0.00127347
S        1.57691653       2.73130682      -7.65063278      -0.00000231      -0.00003985      -0.08138313
S        3.15380153       3.64173318      -1.56640419      -0.00002365       0.00003111       0.00368568
S        1.57689130       4.55214692       4.51935086      -0.01262077      -0.01097218       0.05981929
S        1.57691779       2.73130556      -4.52222842      -0.00006891      -0.00007199       0.03495260
S        3.15380279       3.64173318       1.56625532      -0.00005425       0.00016918      -0.00215510
S        1.57689130       4.55214692       7.65396827      -0.12682558      -0.25304386       0.34982687
Mo       1.57688500       8.19388009       6.08503597       0.04801844       0.02785430       0.00244898
Mo       1.57691275       6.37303873      -6.08723735      -0.00005245       0.00025454       0.04859719
Mo      -0.00001388       7.28345878      -0.00094110      -0.00074408       0.00064972       0.00008330
S       -0.00000252       5.46260607      -7.65063278      -0.00011004       0.00001851      -0.08135639
S        1.57688752       6.37302864      -1.56640292       0.00000823      -0.00001620       0.00357692
S       -0.00002902       7.28344490       4.51935212      -0.01111822       0.00422072      -0.00887905
S       -0.00000126       5.46260481      -4.52222842      -0.00004988       0.00004602       0.03496238
S        1.57689004       6.37302864       1.56625911      -0.00002571      -0.00058107      -0.00302799
S       -0.00002775       7.28344617       7.65396953      -0.00089089      -0.00229857      -0.00657817
Mo       6.30763964      -0.00001766       6.08503471       0.00084255       0.01602723       0.01435036
Mo      -0.00000505       9.10433798      -6.08723735      -0.00010619       0.00016172       0.04868255
Mo      -1.57693924      10.01476939      -0.00093858       0.00022549       0.00052348      -0.00111252
S       -1.57692032       8.19390532      -7.65063278      -0.00003034      -0.00003342      -0.08125252
S       -0.00003028       9.10432789      -1.56639914       0.00003959      -0.00000900       0.00351058
S       -1.57694807      10.01474668       4.51934834      -0.00152106       0.00344194      -0.00137297
S       -1.57692032       8.19390406      -4.52222842       0.00001234       0.00002314       0.03481197
S       -0.00002775       9.10433041       1.56625406      -0.00011776       0.00006531      -0.00425569
S       -1.57694681      10.01474542       7.65397332       0.01067573       0.00743640      -0.01002602
Mo       7.88455491       2.73128411       6.08503597      -0.01594470       0.00304367       0.00720860
Mo       7.88458141       0.91044023      -6.08723735      -0.00012933       0.00007379       0.04866815
Mo       6.30764216       1.82086406      -0.00094741      -0.00027177      -0.00046408      -0.00050548
S        6.30766613       0.00000757      -7.65063278       0.00007328      -0.00000566      -0.08138724
S        7.88455744       0.91043519      -1.56640545      -0.00003188       0.00004217       0.00355301
S        6.30763838       1.82085019       4.51935086       0.01828209      -0.00806092      -0.00914207
S        6.30766613       0.00000631      -4.52222842       0.00002443      -0.00005296       0.03501328
S        7.88455618       0.91043519       1.56625532      -0.00007199       0.00002031      -0.00378364
S        6.30763964       1.82084893       7.65396827      -0.00988898      -0.00870010       0.00555667
Mo       6.30763712       5.46258084       6.08503724       0.16911302       0.04466289      -0.12375079
Mo       6.30766235       3.64173948      -6.08723735       0.00017355       0.00006325       0.04852134
Mo       4.73070040       4.55216458      -0.00094489       0.00086132       0.00028976      -0.00123567
S        4.73074708       2.73130682      -7.65063278       0.00009076      -0.00000206      -0.08139470
S        6.30763333       3.64173444      -1.56639662      -0.00005476      -0.00001851       0.00360880
S        4.73072311       4.55214692       4.51935086       0.01263440      -0.01095187       0.05984988
S        4.73074834       2.73130556      -4.52222842       0.00007842       0.00002700       0.03506136
S        6.30763207       3.64173318       1.56625028      -0.00019900       0.00024297      -0.00334732
S        4.73072185       4.55214565       7.65396827       0.12744084      -0.25303743       0.34935147
Mo       4.73072059       8.19387883       6.08503471      -0.04794567       0.02768410       0.00255773
Mo       4.73074329       6.37303873      -6.08723735       0.00013627       0.00018563       0.04837016
Mo       3.15379396       7.28346257      -0.00094363       0.00016789       0.00004217       0.00047514
S        3.15382802       5.46260607      -7.65063278       0.00004654       0.00006196      -0.08137876
S        4.73071554       6.37302864      -1.56640166      -0.00002725      -0.00003908       0.00367025
S        3.15380279       7.28344617       4.51935212       0.00004859      -0.01050116       0.04256024
S        3.15382928       5.46260481      -4.52222842      -0.00000206       0.00010773       0.03509941
S        4.73071680       6.37302990       1.56625280       0.00001851      -0.00055459      -0.00307273
S        3.15380279       7.28344490       7.65396827       0.00004962       0.06947764       0.05332442
Mo       9.46147271      -0.00001514       6.08503724      -0.00009230      -0.00365894      -0.00534404
Mo       3.15382550       9.10433798      -6.08723735       0.00000746       0.00000668       0.04842570
Mo       1.57689004      10.01476812      -0.00094867      -0.00074922      -0.00006891      -0.00083895
S        1.57691023       8.19390532      -7.65063278       0.00002263       0.00009539      -0.08130188
S        3.15380153       9.10432789      -1.56640545      -0.00001363      -0.00003111       0.00351058
S        1.57688373      10.01474668       4.51934960      -0.00565411      -0.00794857       0.00593488
S        1.57691023       8.19390406      -4.52222842      -0.00001363       0.00008639       0.03497369
S        3.15380027       9.10432915       1.56625532      -0.00001466       0.00022317      -0.00351367
S        1.57688247      10.01474668       7.65397332       0.00068160      -0.00163471       0.00066437
Mo      -1.57693672       2.73128285       6.08503471       0.01591821       0.00308352       0.00733201
Mo      11.03841195       0.91044023      -6.08723735       0.00014244      -0.00016584       0.04860619
Mo       9.46147775       1.82085650      -0.00094489      -0.00028899       0.00032499      -0.00083047
S        9.46149668       0.00000757      -7.65063278       0.00000231      -0.00002108      -0.08128928
S       11.03838672       0.91043519      -1.56640797       0.00000257      -0.00005605       0.00349619
S        9.46147019       1.82085019       4.51935212       0.00004319      -0.00001363       0.00209956
S        9.46149668       0.00000631      -4.52222842      -0.00000514      -0.00002957       0.03496880
S       11.03838798       0.91043519       1.56625659       0.00005888      -0.00002134      -0.00374275
S        9.46147019       1.82085145       7.65396827       0.00003497       0.00191959      -0.00509438
Mo      -3.15385451       5.46258210       6.08503345       0.00012418      -0.00595467       0.00249988
Mo       9.46149289       3.64173948      -6.08723735      -0.00024940       0.00009025       0.04841362
Mo       7.88454861       4.55215953      -0.00094236       0.00016224       0.00052451      -0.00053350
S        7.88457762       2.73130682      -7.65063278       0.00003522       0.00001774      -0.08121292
S        9.46147019       3.64173065      -1.56639535       0.00001183       0.00005656       0.00350827
S        7.88455113       4.55214944       4.51935086      -0.00653369       0.00889499       0.00886182
S        7.88457888       2.73130556      -4.52222842      -0.00002777       0.00003291       0.03489296
S        9.46146766       3.64173065       1.56625154       0.00001388       0.00006402      -0.00457194
S        7.88455365       4.55214818       7.65397079       0.00709367      -0.00891196       0.00851267
Mo      -4.73077231       8.19388009       6.08503471       0.00080938       0.01199420      -0.00381706
Mo       7.88457384       6.37303873      -6.08723735       0.00004242       0.00009436       0.04840462
Mo       6.30762198       7.28346761      -0.00094867       0.00059521       0.00016455       0.00006299
S        6.30765856       5.46260607      -7.65063278       0.00009050      -0.00001877      -0.08127129
S        7.88454861       6.37302990      -1.56639409      -0.00004217      -0.00004757       0.00348102
S        6.30763586       7.28344490       4.51935212       0.01119535       0.00425363      -0.00885257
S        6.30765983       5.46260481      -4.52222842       0.00002005      -0.00000489       0.03496238
S        7.88454482       6.37303116       1.56624776       0.00019052      -0.00010079      -0.00395461
S        6.30763712       7.28344490       7.65396953       0.00088883      -0.00234819      -0.00662933
Mo      -0.00001514      -0.00001640       6.08503471      -0.00073096       0.01593493       0.01443134
Mo       6.30765604       9.10433798      -6.08723735       0.00008022       0.00011621       0.04846041
Mo       4.73070671      10.01477443      -0.00094489       0.00063481      -0.00021392      -0.00082455
S        4.73074077       8.19390532      -7.65063278       0.00004217       0.00004937      -0.08120598
S        6.30762703       9.10433168      -1.56640166      -0.00007276       0.00004294       0.00349850
S        4.73071554      10.01474668       4.51935086       0.00569474      -0.00796014       0.00601432
S        4.73074077       8.19390406      -4.52222842       0.00005862       0.00005991       0.03487881
S        6.30762829       9.10433168       1.56625028       0.00012547       0.00012058      -0.00421789
S        4.73071554      10.01474542       7.65397079      -0.00059470      -0.00158251       0.00065512
Pd       3.15399959       4.55200058       9.35400026      -0.00068186       0.08938389      -0.20462510
145
Lattice="12.615322175253082 0.0 0.0 -6.307673702948716 10.925197002145726 0.0 0.0 0.0 30.30125956094956" Properties=species:S:1:pos:R:3:forces:R:3 energy=-331395.8117657251 free_energy=-331395.8117657251 pbc="T T T"
Mo       1.57605218       2.73094150       6.08447575      -0.02042921      -0.00784006       0.01145555
Mo       1.57691975       0.91044071      -6.08723678       0.00000926       0.00005142       0.04912992
Mo      -0.00002051       1.82085364      -0.00095743      -0.00069883       0.00233559       0.00258730
S        0.00000445       0.00000775      -7.65063236       0.00001825       0.00009436      -0.08386064
S        1.57689245       0.91044004      -1.56633789       0.00002597       0.00004757      -0.00216204
S       -0.00039527       1.82068446       4.51916378      -0.01794193      -0.00877492      -0.01889864
S        0.00000532       0.00000685      -4.52222824       0.00001517       0.00008073       0.03841151
S        1.57689364       0.91043494       1.56616167      -0.00008690      -0.00005836       0.00057670
S        0.00018386       1.82067105       7.65408180       0.00577444      -0.00913384       0.00590300
Mo      -0.00351142       5.46350226       6.08248887      -0.06908400       0.00772874      -0.00767886
Mo       0.00000118       3.64173995      -6.08723678      -0.00009744       0.00033321       0.04910061
Mo      -1.57694385       4.55216867      -0.00095003       0.00208362      -0.00239653       0.00251557
S       -1.57691412       2.73130699      -7.65063236       0.00000694       0.00013987      -0.08381231
S       -0.00002030       3.64173204      -1.56632861      -0.00008176       0.00001106      -0.00205303
S       -1.57680510       4.55233115       4.51953415      -0.01455013       0.00099527      -0.01819030
S       -1.57691325       2.73130609      -4.52222824       0.00000154       0.00016069       0.03837963
S       -0.00001657       3.64173629       1.56618987      -0.00001800       0.00007868       0.00117371
S       -1.57708597       4.55196394       7.65414359      -0.01024893      -0.00415310       0.00396438
Mo      -1.57696434       8.19412400       6.08495592       0.00275674       0.01362145      -0.00037924
Mo      -1.57691739       6.37303920      -6.08723678       0.00003445       0.00001003       0.04913815
Mo      -3.15385956       7.28345124      -0.00096007       0.00075873       0.00088549       0.00374481
S       -3.15383269       5.46260624      -7.65063236       0.00005091       0.00007610      -0.08372103
S       -1.57693696       6.37302759      -1.56631948      -0.00001054       0.00015170      -0.00214121
S       -3.15385954       7.28334500       4.51946696       0.00000154      -0.00109169      -0.00171261
S       -3.15383182       5.46260533      -4.52222824       0.00003291       0.00005965       0.03837037
S       -1.57694530       6.37302753       1.56617109      -0.00028616       0.00011441       0.00125367
S       -3.15386019       7.28336330       7.65374948      -0.00001260      -0.00064175      -0.00541140
Mo       3.15380877      -0.00110529       6.08501174       0.00010644      -0.01231456       0.00613208
Mo      -3.15383596       9.10433844      -6.08723678      -0.00003959       0.00006556       0.04912555
Mo      -4.73079174      10.01478189      -0.00096751      -0.00019258       0.00049005       0.00372373
S       -4.73075126       8.19390548      -7.65063236       0.00002982       0.00008459      -0.08378660
S       -3.15386029       9.10433319      -1.56632077      -0.00002854       0.00007173      -0.00230371
S       -4.73074251      10.01481590       4.51932295      -0.00071014       0.00174861      -0.00534018
S       -4.73075039       8.19390457      -4.52222824       0.00001620       0.00009127       0.03844725
S       -3.15386460       9.10433196       1.56616492      -0.00003214      -0.00001208       0.00127681
S       -4.73099458      10.01489776       7.65376385      -0.00805629       0.00497997      -0.00136834
Mo       4.73156549       2.73094057       6.08447367       0.02050403      -0.00794934       0.01149026
Mo       4.73075032       0.91044071      -6.08723678      -0.00006608       0.00004577       0.04905125
Mo       3.15380401       1.82084867      -0.00095043      -0.00130278       0.00360700       0.00173472
S        3.15383502       0.00000775      -7.65063236       0.00000848       0.00014270      -0.08377965
S        4.73072409       0.91043463      -1.56632855      -0.00004037       0.00010979      -0.00211756
S        3.15380975       1.82043812       4.51904455      -0.00000566      -0.02209349      -0.01723410
S        3.15383590       0.00000685      -4.52222824      -0.00003214       0.00009153       0.03835109
S        4.73072275       0.91043656       1.56615806       0.00003702      -0.00002237       0.00051911
S        3.15380994       1.82267420       7.65376616       0.00001260       0.05942874      -0.02884752
Mo       3.15380801       5.46736736       6.07546271      -0.00006042       0.06018361      -0.06494169
Mo       3.15383175       3.64173995      -6.08723678      -0.00004859       0.00018383       0.04908005
Mo       1.57688636       4.55216922      -0.00096875       0.00015452       0.00005862       0.00490104
S        1.57691645       2.73130699      -7.65063236       0.00005785       0.00015915      -0.08373723
S        3.15380147       3.64173400      -1.56632772       0.00001594      -0.00004062      -0.00185299
S        1.57663158       4.55192095       4.52058262      -0.03788161      -0.00642879       0.01697854
S        1.57691733       2.73130609      -4.52222824       0.00001363       0.00014270       0.03827936
S        3.15380136       3.64173625       1.56621129       0.00004397       0.00006556       0.00166890
S        1.57428135       4.54693883       7.66116829      -0.11797661      -0.16130664       0.15424871
Mo       1.57787322       8.19445327       6.08508656       0.01574158       0.01516102       0.01633062
Mo       1.57691318       6.37303920      -6.08723678      -0.00008073       0.00009179       0.04914252
Mo      -0.00002913       7.28347269      -0.00093881       0.00241709      -0.00200289       0.00103333
S       -0.00000212       5.46260624      -7.65063236       0.00001774       0.00008330      -0.08373055
S        1.57688829       6.37302867      -1.56632962      -0.00001080       0.00016892      -0.00162802
S       -0.00025752       7.28353238       4.51916877      -0.01129897       0.02085705      -0.02350631
S       -0.00000124       5.46260533      -4.52222824       0.00000746       0.00004757       0.03824773
S        1.57688910       6.37301680       1.56619722       0.00007508      -0.00017304       0.00169461
S       -0.00004672       7.28339824       7.65383443      -0.00064972      -0.00676380      -0.01893900
Mo       6.30765749       0.00031187       6.08533005       0.00149098       0.00546051       0.00523837
Mo      -0.00000539       9.10433844      -6.08723678       0.00005168       0.00004962       0.04904199
Mo      -1.57693487      10.01477985      -0.00096123      -0.00015529      -0.00147941       0.00385074
S       -1.57692069       8.19390548      -7.65063236       0.00001131       0.00006145      -0.08379611
S       -0.00002889       9.10432790      -1.56632649      -0.00012778       0.00010567      -0.00216307
S       -1.57697963      10.01481807       4.51932010       0.00067877       0.00171827      -0.00523477
S       -1.57691981       8.19390457      -4.52222824      -0.00003600       0.00004294       0.03840123
S       -0.00002976       9.10433149       1.56616702      -0.00014707       0.00034530       0.00089166
S       -1.57672695      10.01489852       7.65376643       0.00802184       0.00499308      -0.00144522
Mo       7.88422634       2.73134622       6.08518404      -0.00378723       0.00432074       0.00776293
Mo       7.88458089       0.91044071      -6.08723678       0.00010824       0.00010336       0.04907259
Mo       6.30763680       1.82085504      -0.00095730       0.00112152       0.00155269       0.00259450
S        6.30766559       0.00000775      -7.65063236      -0.00000566       0.00010053      -0.08388301
S        7.88455705       0.91043595      -1.56633217      -0.00003908       0.00009359      -0.00211962
S        6.30801519       1.82068424       4.51916260       0.01795376      -0.00874432      -0.01887035
S        6.30766647       0.00000685      -4.52222824      -0.00002674       0.00008408       0.03840945
S        7.88455465       0.91043514       1.56617775       0.00002057       0.00003342       0.00135240
S        6.30743632       1.82067024       7.65408314      -0.00579218      -0.00908628       0.00582561
Mo       6.31111779       5.46349988       6.08249052       0.06933905       0.00777424      -0.00776910
Mo       6.30766232       3.64173995      -6.08723678       0.00004422       0.00021957       0.04907696
Mo       4.73071813       4.55217033      -0.00096991      -0.00220395      -0.00102330       0.00410785
S        4.73074702       2.73130699      -7.65063236      -0.00004988       0.00010233      -0.08375420
S        6.30763217       3.64173392      -1.56632278       0.00000489       0.00002237      -0.00197512
S        4.73098305       4.55192167       4.52058281       0.03793766      -0.00650103       0.01701068
S        4.73074790       2.73130609      -4.52222824      -0.00008305       0.00014321       0.03830789
S        6.30762766       3.64173879       1.56618159      -0.00004602       0.00007739       0.00111792
S        4.73334516       4.54693720       7.66115842       0.11839030      -0.16137838       0.15387435
Mo       4.72973333       8.19444910       6.08508786      -0.01576292       0.01530192       0.01630722
Mo       4.73074375       6.37303920      -6.08723678       0.00000926       0.00008665       0.04911578
Mo       3.15379733       7.28346298      -0.00093359      -0.00062838       0.00039569      -0.00048388
S        3.15382845       5.46260624      -7.65063236      -0.00003111       0.00006042      -0.08373980
S        4.73071495       6.37302843      -1.56632656      -0.00002545       0.00019360      -0.00161054
S        3.15380406       7.28322942       4.52022763      -0.00001646       0.04676580      -0.03875372
S        3.15382933       5.46260533      -4.52222824      -0.00006788       0.00004011       0.03825596
S        4.73071709       6.37301839       1.56618943      -0.00010104      -0.00018563       0.00168973
S        3.15380441       7.28487503       7.65506578       0.00001594       0.03740852       0.01439638
Mo       9.46147119      -0.00009057       6.08492739       0.00001877       0.00134032      -0.00118734
Mo       3.15382518       9.10433844      -6.08723678      -0.00001825       0.00008639       0.04905819
Mo       1.57687477      10.01476699      -0.00096579       0.00225691       0.00023911       0.00319845
S        1.57690988       8.19390548      -7.65063236       0.00000668       0.00002134      -0.08376988
S        3.15380067       9.10432745      -1.56633278       0.00001028       0.00004988      -0.00194607
S        1.57676715      10.01458337       4.51947204      -0.00440147      -0.00284261      -0.00117911
S        1.57691076       8.19390457      -4.52222824       0.00000540       0.00001851       0.03829761
S        3.15379971       9.10433373       1.56618278      -0.00002905       0.00024297       0.00132258
S        1.57689707      10.01471327       7.65398652       0.00225229       0.00305961       0.00400115
Mo      -1.57660873       2.73134609       6.08518529       0.00371961       0.00438862       0.00773362
Mo      11.03841147       0.91044071      -6.08723678      -0.00002288       0.00009950       0.04908416
Mo       9.46147122       1.82086293      -0.00096156       0.00093074      -0.00078342       0.00305987
S        9.46149617       0.00000775      -7.65063236      -0.00000848       0.00011801      -0.08385164
S       11.03838737       0.91043385      -1.56633594       0.00003445       0.00014810      -0.00213016
S        9.46147081       1.82085034       4.51939566      -0.00001260       0.00109169      -0.00018383
S        9.46149704       0.00000685      -4.52222824      -0.00000411       0.00010233       0.03840071
S       11.03838945       0.91043449       1.56618013      -0.00008099       0.00006273       0.00138351
S        9.46147090       1.82089091       7.65386402      -0.00002648       0.00065126      -0.00238573
Mo      -3.15385228       5.46245990       6.08508487      -0.00012290      -0.01253824       0.00796631
Mo       9.46149290       3.64173995      -6.08723678       0.00006119       0.00021623       0.04911013
Mo       7.88455213       4.55217056      -0.00095325      -0.00017869      -0.00182908       0.00253871
S        7.88457760       2.73130699      -7.65063236       0.00004628       0.00009899      -0.08384625
S        9.46147036       3.64173219      -1.56632317      -0.00000540       0.00012007      -0.00216024
S        7.88441615       4.55233195       4.51953300       0.01451619       0.00100736      -0.01813193
S        7.88457847       2.73130609      -4.52222824       0.00004114       0.00012984       0.03840585
S        9.46146780       3.64173184       1.56615785      -0.00003085       0.00008228       0.00061989
S        7.88469942       4.55196483       7.65414562       0.01025613      -0.00413922       0.00391116
Mo      -4.73075563       8.19412731       6.08495593      -0.00270866       0.01345021      -0.00032859
Mo       7.88457433       6.37303920      -6.08723678       0.00008459       0.00005914       0.04910807
Mo       6.30763365       7.28347116      -0.00094700      -0.00204994      -0.00016944       0.00112871
S        6.30765903       5.46260624      -7.65063236      -0.00000617       0.00005991      -0.08382311
S        7.88454786       6.37302888      -1.56632256      -0.00001491       0.00018152      -0.00212142
S        6.30786600       7.28353200       4.51917018       0.01127532       0.02080691      -0.02346080
S        6.30765990       5.46260533      -4.52222824      -0.00002443       0.00008536       0.03832178
S        7.88454928       6.37302866       1.56616649       0.00025788       0.00013395       0.00120559
S        6.30765511       7.28339679       7.65383317       0.00061321      -0.00677846      -0.01894389
Mo      -0.00003042       0.00031162       6.08533197      -0.00148404       0.00536384       0.00516380