Mo S Mo S Mo S Mo S Mo S Mo S Mo S Mo S Mo S Mo S Mo S Mo S Mo S Mo S Mo S Mo S Pd
           1
    12.615322    0.000000    0.000000
    -6.307674   10.925197    0.000000
     0.000000    0.000000   30.301260
 Mo  S   Mo  S   Mo  S   Mo  S   Mo  S   Mo  S   Mo  S   Mo  S   Mo  S   Mo  S   Mo  S   Mo  S   Mo  S   Mo  S   Mo  S   Mo  S   Pd 
   3   6   3   6   3   6   3   6   3   6   3   6   3   6   3   6   3   6   3   6   3   6   3   6   3   6   3   6   3   6   3   6   1
Direct configuration=     1
  0.24999768  0.24999827  0.20081788
  0.16666748  0.08333399  0.79910943
  0.08333162  0.16666671  0.99996873
  0.00000075  0.00000069  0.74751436
  0.16666516  0.08333376  0.94830552
  0.08333117  0.16666520  0.14914734
  0.00000069  0.00000058  0.85075774
  0.16666510  0.08333364  0.05168945
  0.08333127  0.16666520  0.25259575
  0.24999753  0.49999827  0.20081788
  0.16666743  0.33333399  0.79910943
  0.08333229  0.41666555  0.99996903
  0.00000070  0.25000069  0.74751436
  0.16666528  0.33333329  0.94830568
  0.08333090  0.41666497  0.14914729
  0.00000074  0.25000058  0.85075774
  0.16666522  0.33333318  0.05168949
  0.08333096  0.41666509  0.25259571
  0.24999744  0.74999838  0.20081788
  0.16666738  0.58333399  0.79910943
  0.08333183  0.66666613  0.99996890
  0.00000065  0.50000069  0.74751436
  0.16666516  0.58333295  0.94830602
  0.08333085  0.66666497  0.14914729
  0.00000069  0.50000058  0.85075774
  0.16666502  0.58333306  0.05168936
  0.08333085  0.66666497  0.25259575
  0.24999769  0.99999838  0.20081792
  0.16666743  0.83333399  0.79910943
  0.08333164  0.91666844  0.99996873
  0.00000070  0.75000069  0.74751436
  0.16666508  0.83333329  0.94830602
  0.08333110  0.91666497  0.14914729
  0.00000064  0.75000058  0.85075774
  0.16666474  0.83333341  0.05168920
  0.08333105  0.91666486  0.25259567
  0.49999748  0.24999827  0.20081780
  0.41666748  0.08333399  0.79910943
  0.33333111  0.16666728  0.99996878
  0.25000075  0.00000069  0.74751436
  0.41666499  0.08333341  0.94830581
  0.33333107  0.16666520  0.14914729
  0.25000069  0.00000058  0.85075774
  0.41666516  0.08333376  0.05168936
  0.33333111  0.16666509  0.25259575
  0.49999773  0.49999827  0.20081788
  0.41666743  0.33333399  0.79910943
  0.33333180  0.41666717  0.99996890
  0.25000070  0.25000069  0.74751436
  0.41666474  0.33333341  0.94830564
  0.33333100  0.41666497  0.14914729
  0.25000074  0.25000058  0.85075774
  0.41666484  0.33333341  0.05168945
  0.33333100  0.41666497  0.25259571
  0.49999754  0.74999838  0.20081792
  0.41666738  0.58333399  0.79910943
  0.33333263  0.66666613  0.99996894
  0.25000065  0.50000069  0.74751436
  0.41666492  0.58333306  0.94830568
  0.33333080  0.66666486  0.14914734
  0.25000069  0.50000058  0.85075774
  0.41666512  0.58333306  0.05168957
  0.33333095  0.66666497  0.25259575
  0.49999749  0.99999838  0.20081788
  0.41666743  0.83333399  0.79910943
  0.33333260  0.91666717  0.99996903
  0.25000070  0.75000069  0.74751436
  0.41666497  0.83333306  0.94830581
  0.33333086  0.91666509  0.14914721
  0.25000064  0.75000058  0.85075774
  0.41666528  0.83333329  0.05168940
  0.33333090  0.91666497  0.25259588
  0.74999786  0.24999861  0.20081792
  0.66666748  0.08333399  0.79910943
  0.58333190  0.16666647  0.99996873
  0.50000075  0.00000069  0.74751436
  0.66666535  0.08333353  0.94830560
  0.58333097  0.16666520  0.14914729
  0.50000069  0.00000058  0.85075774
  0.66666525  0.08333353  0.05168945
  0.58333101  0.16666509  0.25259571
  0.74999779  0.49999838  0.20081796
  0.66666743  0.33333399  0.79910943
  0.58333011  0.41666659  0.99996882
  0.50000070  0.25000069  0.74751436
  0.66666490  0.33333353  0.94830589
  0.58333110  0.41666497  0.14914729
  0.50000074  0.25000058  0.85075774
  0.66666474  0.33333341  0.05168928
  0.58333095  0.41666486  0.25259571
  0.74999788  0.74999827  0.20081788
  0.66666738  0.58333399  0.79910943
  0.58333100  0.66666647  0.99996886
  0.50000065  0.50000069  0.74751436
  0.66666472  0.58333306  0.94830572
  0.58333095  0.66666497  0.14914734
  0.50000069  0.50000058  0.85075774
  0.66666487  0.58333318  0.05168936
  0.58333090  0.66666486  0.25259571
  0.74999781  0.99999861  0.20081796
  0.66666743  0.83333399  0.79910943
  0.58333244  0.91666705  0.99996869
  0.50000070  0.75000069  0.74751436
  0.66666507  0.83333306  0.94830560
  0.58333096  0.91666509  0.14914725
  0.50000064  0.75000058  0.85075774
  0.66666502  0.83333318  0.05168945
  0.58333086  0.91666509  0.25259588
  0.99999780  0.24999850  0.20081788
  0.91666748  0.08333399  0.79910943
  0.83333196  0.16666578  0.99996882
  0.75000075  0.00000069  0.74751436
  0.91666525  0.08333353  0.94830552
  0.83333107  0.16666520  0.14914734
  0.75000069  0.00000058  0.85075774
  0.91666535  0.08333353  0.05168949
  0.83333113  0.16666532  0.25259571
  0.99999785  0.49999850  0.20081784
  0.91666743  0.33333399  0.79910943
  0.83333128  0.41666613  0.99996890
  0.75000070  0.25000069  0.74751436
  0.91666522  0.33333318  0.94830593
  0.83333102  0.41666520  0.14914729
  0.75000074  0.25000058  0.85075774
  0.91666502  0.33333318  0.05168932
  0.83333116  0.41666509  0.25259580
  0.99999784  0.74999838  0.20081788
  0.91666738  0.58333399  0.79910943
  0.83333103  0.66666694  0.99996869
  0.75000065  0.50000069  0.74751436
  0.91666497  0.58333318  0.94830597
  0.83333110  0.66666486  0.14914734
  0.75000069  0.50000058  0.85075774
  0.91666473  0.58333329  0.05168920
  0.83333120  0.66666486  0.25259575
  0.99999805  0.99999850  0.20081788
  0.91666743  0.83333399  0.79910943
  0.83333163  0.91666763  0.99996882
  0.75000070  0.75000069  0.74751436
  0.91666484  0.83333341  0.94830572
  0.83333106  0.91666509  0.14914729
  0.75000064  0.75000058  0.85075774
  0.91666494  0.83333341  0.05168928
  0.83333100  0.91666497  0.25259580
  0.45833961  0.41665158  0.30870005
Mo S Mo S Mo S Mo S Mo S Mo S Mo S Mo S Mo S Mo S Mo S Mo S Mo S Mo S Mo S Mo S Pd
           1
    12.615322    0.000000    0.000000
    -6.307674   10.925197    0.000000
     0.000000    0.000000   30.301260
 Mo  S   Mo  S   Mo  S   Mo  S   Mo  S   Mo  S   Mo  S   Mo  S   Mo  S   Mo  S   Mo  S   Mo  S   Mo  S   Mo  S   Mo  S   Mo  S   Pd 
   3   6   3   6   3   6   3   6   3   6   3   6   3   6   3   6   3   6   3   6   3   6   3   6   3   6   3   6   3   6   3   6   1
Direct configuration=     1
  0.24991546  0.24996725  0.20079943
  0.16666745  0.08333403  0.79910945
  0.08333130  0.16666552  0.99996840
  0.00000071  0.00000071  0.74751438
  0.16666526  0.08333397  0.94830783
  0.08329385  0.16665004  0.14914112
  0.00000074  0.00000063  0.85075775
  0.16666512  0.08333350  0.05168636
  0.08333914  0.16664881  0.25259946
  0.24976352  0.50008272  0.20073386
  0.16666744  0.33333403  0.79910945
  0.08333163  0.41666696  0.99996865
  0.00000070  0.25000071  0.74751438
  0.16666538  0.33333331  0.94830814
  0.08335007  0.41668184  0.14915334
  0.00000072  0.25000063  0.85075775
  0.16666587  0.33333370  0.05168729
  0.08331100  0.41664823  0.25260150
  0.25000721  0.75002071  0.20081528
  0.16666743  0.58333403  0.79910945
  0.08333109  0.66666544  0.99996832
  0.00000068  0.50000071  0.74751438
  0.16666535  0.58333297  0.94830844
  0.08332622  0.66665571  0.14915113
  0.00000071  0.50000063  0.85075775
  0.16666468  0.58333296  0.05168667
  0.08332701  0.66665739  0.25258849
  0.24994769  0.99989883  0.20081712
  0.16666742  0.83333403  0.79910945
  0.08333143  0.91666831  0.99996807
  0.00000067  0.75000071  0.74751438
  0.16666525  0.83333355  0.94830839
  0.08333689  0.91667142  0.14914637
  0.00000070  0.75000062  0.85075775
  0.16666485  0.83333344  0.05168646
  0.08332066  0.91667892  0.25258897
  0.50004881  0.24996717  0.20079936
  0.41666746  0.08333403  0.79910945
  0.33333060  0.16666507  0.99996863
  0.25000071  0.00000071  0.74751438
  0.41666510  0.08333347  0.94830814
  0.33331226  0.16662749  0.14913718
  0.25000074  0.00000063  0.85075775
  0.41666508  0.08333365  0.05168624
  0.33341461  0.16683216  0.25258904
  0.50021696  0.50043650  0.20050199
  0.41666744  0.33333403  0.79910945
  0.33333163  0.41666701  0.99996803
  0.25000070  0.25000071  0.74751438
  0.41666477  0.33333349  0.94830816
  0.33330007  0.41664429  0.14918794
  0.25000073  0.25000063  0.85075775
  0.41666487  0.33333369  0.05168799
  0.33288576  0.41618827  0.25283333
  0.50010211  0.75005085  0.20081959
  0.41666743  0.58333403  0.79910945
  0.33333206  0.66666740  0.99996902
  0.25000069  0.50000071  0.74751438
  0.41666498  0.58333307  0.94830810
  0.33331669  0.66667286  0.14914128
  0.25000071  0.50000063  0.85075775
  0.41666450  0.58333198  0.05168753
  0.33332726  0.66666059  0.25259130
  0.50001399  0.00002855  0.20082763
  0.41666742  0.83333403  0.79910945
  0.33333343  0.91666812  0.99996828
  0.25000067  0.75000071  0.74751438
  0.41666508  0.83333306  0.94830821
  0.33333163  0.91667162  0.14914628
  0.25000070  0.75000062  0.85075775
  0.41666517  0.83333339  0.05168653
  0.33335534  0.91667899  0.25258905
  0.74997465  0.25000430  0.20082281
  0.66666746  0.08333403  0.79910945
  0.58333107  0.16666565  0.99996841
  0.50000071  0.00000071  0.74751438
  0.66666535  0.08333360  0.94830802
  0.58335324  0.16665001  0.14914108
  0.50000074  0.00000063  0.85075775
  0.66666512  0.08333352  0.05168689
  0.58330672  0.16664873  0.25259950
  0.75031576  0.50008250  0.20073392
  0.66666745  0.33333403  0.79910945
  0.58333178  0.41666712  0.99996799
  0.50000070  0.25000071  0.74751438
  0.66666478  0.33333348  0.94830833
  0.58334140  0.41664436  0.14918795
  0.50000073  0.25000063  0.85075775
  0.66666465  0.33333392  0.05168701
  0.58330052  0.41618812  0.25283300
  0.74994572  0.75005047  0.20081963
  0.66666743  0.58333403  0.79910945
  0.58333129  0.66666651  0.99996919
  0.50000069  0.50000071  0.74751438
  0.66666466  0.58333305  0.94830820
  0.58332113  0.66664513  0.14917623
  0.50000072  0.50000063  0.85075775
  0.66666437  0.58333213  0.05168727
  0.58339647  0.66679576  0.25263193
  0.74999423  0.99999171  0.20081434
  0.66666742  0.83333403  0.79910945
  0.58333118  0.91666695  0.99996813
  0.50000068  0.75000071  0.74751438
  0.66666498  0.83333302  0.94830800
  0.58331425  0.91665014  0.14915129
  0.50000070  0.75000062  0.85075775
  0.66666519  0.83333360  0.05168705
  0.58333049  0.91666203  0.25259632
  0.00002669  0.25000429  0.20082285
  0.91666746  0.08333403  0.79910945
  0.83333173  0.16666637  0.99996827
  0.75000071  0.00000071  0.74751438
  0.91666524  0.08333340  0.94830789
  0.83333113  0.16666522  0.14914877
  0.75000074  0.00000063  0.85075775
  0.91666543  0.08333346  0.05168696
  0.83333299  0.16666893  0.25259227
  0.99999243  0.49998731  0.20081954
  0.91666745  0.33333403  0.79910945
  0.83333206  0.41666714  0.99996854
  0.75000070  0.25000071  0.74751438
  0.91666531  0.33333332  0.94830831
  0.83332867  0.41668191  0.14915330
  0.75000073  0.25000063  0.85075775
  0.91666509  0.33333329  0.05168623
  0.83333432  0.41664831  0.25260157
  0.00001048  0.75002101  0.20081528
  0.91666744  0.58333403  0.79910945
  0.83333212  0.66666726  0.99996875
  0.75000069  0.50000071  0.74751438
  0.91666487  0.58333309  0.94830834
  0.83335332  0.66667283  0.14914133
  0.75000072  0.50000063  0.85075775
  0.91666497  0.58333307  0.05168651
  0.83333042  0.66666045  0.25259125
  0.00001185  0.00002852  0.20082769
  0.91666743  0.83333403  0.79910945
  0.83333244  0.91666718  0.99996825
  0.75000068  0.75000071  0.74751438
  0.91666479  0.83333347  0.94830810
  0.83333284  0.91665011  0.14915140
  0.75000071  0.75000062  0.85075775
  0.91666524  0.83333361  0.05168641
  0.83332857  0.91666202  0.25259622
  0.45842269  0.41681991  0.30856105
Mo S Mo S Mo S Mo S Mo S Mo S Mo S Mo S Mo S Mo S Mo S Mo S Mo S Mo S Mo S Mo S Pd
           1
    12.615322    0.000000    0.000000
    -6.307674   10.925197    0.000000
     0.000000    0.000000   30.301260
 Mo  S   Mo  S   Mo  S   Mo  S   Mo  S   Mo  S   Mo  S   Mo  S   Mo  S   Mo  S   Mo  S   Mo  S   Mo  S   Mo  S   Mo  S   Mo  S   Pd 
   3   6   3   6   3   6   3   6   3   6   3   6   3   6   3   6   3   6   3   6   3   6   3   6   3   6   3   6   3   6   3   6   1
Direct configuration=     1
  0.24983194  0.24993673  0.20080885
  0.16666745  0.08333403  0.79910945
  0.08333299  0.16667261  0.99997126
  0.00000071  0.00000071  0.74751438
  0.16666542  0.08333416  0.94830583
  0.08322423  0.16661961  0.14911856
  0.00000074  0.00000063  0.85075775
  0.16666480  0.08333329  0.05168641
  0.08334202  0.16661703  0.25260684
  0.24954322  0.50012313  0.20070908
  0.16666744  0.33333403  0.79910945
  0.08333342  0.41665972  0.99997142
  0.00000070  0.25000071  0.74751438
  0.16666519  0.33333334  0.94830628
  0.08331578  0.41668818  0.14913394
  0.00000072  0.25000063  0.85075775
  0.16666607  0.33333405  0.05168819
  0.08327284  0.41663198  0.25260709
  0.25003793  0.75006771  0.20081435
  0.16666743  0.58333403  0.79910945
  0.08333440  0.66666808  0.99997243
  0.00000068  0.50000071  0.74751438
  0.16666560  0.58333345  0.94830648
  0.08332364  0.66665051  0.14914992
  0.00000071  0.50000063  0.85075775
  0.16666402  0.58333331  0.05168757
  0.08332524  0.66665393  0.25258098
  0.24991909  0.99984114  0.20082390
  0.16666742  0.83333403  0.79910945
  0.08333163  0.91666982  0.99997215
  0.00000067  0.75000071  0.74751438
  0.16666531  0.83333382  0.94830625
  0.08333881  0.91667814  0.14914016
  0.00000070  0.75000062  0.85075775
  0.16666476  0.83333340  0.05168738
  0.08330459  0.91669722  0.25258613
  0.50010184  0.24993628  0.20080882
  0.41666746  0.08333403  0.79910945
  0.33333263  0.16667596  0.99997056
  0.25000071  0.00000071  0.74751438
  0.41666518  0.08333382  0.94830619
  0.33327401  0.16655100  0.14911577
  0.25000074  0.00000063  0.85075775
  0.41666514  0.08333356  0.05168622
  0.33352381  0.16705049  0.25255514
  0.50035316  0.50070916  0.20036806
  0.41666744  0.33333403  0.79910945
  0.33333211  0.41666718  0.99997340
  0.25000070  0.25000071  0.74751438
  0.41666475  0.33333337  0.94830655
  0.33318121  0.41662017  0.14921492
  0.25000073  0.25000063  0.85075775
  0.41666510  0.33333396  0.05168960
  0.33222723  0.41559118  0.25305322
  0.50018866  0.75010844  0.20083837
  0.41666743  0.58333403  0.79910945
  0.33333537  0.66666136  0.99997020
  0.25000069  0.50000071  0.74751438
  0.41666521  0.58333359  0.94830673
  0.33331599  0.66673978  0.14911356
  0.25000071  0.50000063  0.85075775
  0.41666432  0.58333123  0.05168905
  0.33331420  0.66663855  0.25256903
  0.50002975  0.00005145  0.20083542
  0.41666742  0.83333403  0.79910945
  0.33333085  0.91666368  0.99997249
  0.25000067  0.75000071  0.74751438
  0.41666490  0.83333339  0.94830622
  0.33333631  0.91667825  0.14914018
  0.25000070  0.75000062  0.85075775
  0.41666529  0.83333450  0.05168699
  0.33338963  0.91669733  0.25258611
  0.74996671  0.25001895  0.20083252
  0.66666746  0.08333403  0.79910945
  0.58333638  0.16667035  0.99997127
  0.50000071  0.00000071  0.74751438
  0.66666539  0.08333390  0.94830608
  0.58339254  0.16661969  0.14911856
  0.50000074  0.00000063  0.85075775
  0.66666521  0.08333363  0.05168792
  0.58327208  0.16661710  0.25260681
  0.75057714  0.50012300  0.20070903
  0.66666745  0.33333403  0.79910945
  0.58332451  0.41666401  0.99997247
  0.50000070  0.25000071  0.74751438
  0.66666481  0.33333354  0.94830656
  0.58343619  0.41662002  0.14921497
  0.50000073  0.25000063  0.85075775
  0.66666462  0.33333425  0.05168784
  0.58336317  0.41559081  0.25305241
  0.74991692  0.75010843  0.20083840
  0.66666743  0.58333403  0.79910945
  0.58333026  0.66666777  0.99996870
  0.50000069  0.50000071  0.74751438
  0.66666488  0.58333364  0.94830686
  0.58339252  0.66678797  0.14913796
  0.50000072  0.50000063  0.85075775
  0.66666371  0.58333134  0.05168878
  0.58346772  0.66693812  0.25265515
  0.74999570  0.99999459  0.20081230
  0.66666742  0.83333403  0.79910945
  0.58333744  0.91666767  0.99997163
  0.50000068  0.75000071  0.74751438
  0.66666507  0.83333317  0.94830625
  0.58329464  0.91663836  0.14915073
  0.50000070  0.75000062  0.85075775
  0.66666553  0.83333444  0.05168809
  0.58334132  0.91667103  0.25260093
  0.00004920  0.25001916  0.20083255
  0.91666746  0.08333403  0.79910945
  0.83333300  0.16666403  0.99997162
  0.75000071  0.00000071  0.74751438
  0.91666555  0.08333385  0.94830594
  0.83333281  0.16666864  0.14914884
  0.75000074  0.00000063  0.85075775
  0.91666532  0.08333365  0.05168804
  0.83333430  0.16667167  0.25258891
  0.99997141  0.49994585  0.20082887
  0.91666745  0.33333403  0.79910945
  0.83332886  0.41666159  0.99997134
  0.75000070  0.25000071  0.74751438
  0.91666549  0.33333372  0.94830633
  0.83336923  0.41668828  0.14913396
  0.75000073  0.25000063  0.85075775
  0.91666515  0.33333357  0.05168634
  0.83335629  0.41663211  0.25260710
  0.00002663  0.75006751  0.20081441
  0.91666744  0.58333403  0.79910945
  0.83332651  0.66666679  0.99997003
  0.75000069  0.50000071  0.74751438
  0.91666509  0.58333364  0.94830639
  0.83342083  0.66673960  0.14911366
  0.75000072  0.50000063  0.85075775
  0.91666592  0.58333345  0.05168736
  0.83332131  0.66663835  0.25256898
  0.00001888  0.00005109  0.20083541
  0.91666743  0.83333403  0.79910945
  0.83332843  0.91666905  0.99997163
  0.75000068  0.75000071  0.74751438
  0.91666520  0.83333376  0.94830608
  0.83334065  0.91663822  0.14915081
  0.75000071  0.75000062  0.85075775
  0.91666611  0.83333459  0.05168687
  0.83332669  0.91667095  0.25260088
  0.45858314  0.41714363  0.30837952
Mo S Mo S Mo S Mo S Mo S Mo S Mo S Mo S Mo S Mo S Mo S Mo S Mo S Mo S Mo S Mo S Pd
           1
    12.615322    0.000000    0.000000
    -6.307674   10.925197    0.000000
     0.000000    0.000000   30.301260
 Mo  S   Mo  S   Mo  S   Mo  S   Mo  S   Mo  S   Mo  S   Mo  S   Mo  S   Mo  S   Mo  S   Mo  S   Mo  S   Mo  S   Mo  S   Mo  S   Pd 
   3   6   3   6   3   6   3   6   3   6   3   6   3   6   3   6   3   6   3   6   3   6   3   6   3   6   3   6   3   6   3   6   1
Direct configuration=     1
  0.24970967  0.24987230  0.20081269
  0.16666745  0.08333403  0.79910945
  0.08333065  0.16666586  0.99996801
  0.00000071  0.00000071  0.74751438
  0.16666506  0.08333521  0.94830690
  0.08313635  0.16658158  0.14909516
  0.00000074  0.00000063  0.85075775
  0.16666488  0.08333482  0.05168668
  0.08332243  0.16656400  0.25261715
  0.24934459  0.50012217  0.20071118
  0.16666744  0.33333403  0.79910945
  0.08333105  0.41666551  0.99996787
  0.00000070  0.25000071  0.74751438
  0.16666709  0.33333406  0.94830690
  0.08323901  0.41668591  0.14910567
  0.00000072  0.25000063  0.85075775
  0.16666711  0.33333474  0.05169085
  0.08320650  0.41661403  0.25261790
  0.25006392  0.75011181  0.20080992
  0.16666743  0.58333403  0.79910945
  0.08333133  0.66666449  0.99996839
  0.00000068  0.50000071  0.74751438
  0.16666557  0.58333245  0.94830761
  0.08332153  0.66664611  0.14915620
  0.00000071  0.50000063  0.85075775
  0.16666435  0.58333192  0.05168874
  0.08332887  0.66666095  0.25257011
  0.24991382  0.99983066  0.20083263
  0.16666742  0.83333403  0.79910945
  0.08333093  0.91667131  0.99996727
  0.00000067  0.75000071  0.74751438
  0.16666543  0.83333440  0.94830738
  0.08334344  0.91669546  0.14913516
  0.00000070  0.75000062  0.85075775
  0.16666467  0.83333365  0.05168963
  0.08329190  0.91671931  0.25258907
  0.50015959  0.24987147  0.20081246
  0.41666746  0.08333403  0.79910945
  0.33333053  0.16666722  0.99996876
  0.25000071  0.00000071  0.74751438
  0.41666520  0.08333396  0.94830792
  0.33323084  0.16646490  0.14910027
  0.25000074  0.00000063  0.85075775
  0.41666528  0.08333433  0.05168595
  0.33362600  0.16725493  0.25250699
  0.50040161  0.50080617  0.20037397
  0.41666744  0.33333403  0.79910945
  0.33333151  0.41666614  0.99996894
  0.25000070  0.25000071  0.74751438
  0.41666440  0.33333537  0.94830729
  0.33303365  0.41662628  0.14925046
  0.25000073  0.25000063  0.85075775
  0.41666578  0.33333704  0.05169608
  0.33143556  0.41497862  0.25322506
  0.50024867  0.75014123  0.20084750
  0.41666743  0.58333403  0.79910945
  0.33333376  0.66666657  0.99996967
  0.25000069  0.50000071  0.74751438
  0.41666473  0.58333170  0.94830715
  0.33332805  0.66683664  0.14908822
  0.25000071  0.50000063  0.85075775
  0.41666578  0.58332831  0.05169319
  0.33329040  0.66661144  0.25253830
  0.50005240  0.00007447  0.20083344
  0.41666742  0.83333403  0.79910945
  0.33333593  0.91666920  0.99996737
  0.25000067  0.75000071  0.74751438
  0.41666605  0.83333368  0.94830748
  0.33334903  0.91669553  0.14913524
  0.25000070  0.75000062  0.85075775
  0.41666614  0.83333474  0.05168688
  0.33342454  0.91671945  0.25258897
  0.74996406  0.25003701  0.20083575
  0.66666746  0.08333403  0.79910945
  0.58333175  0.16666450  0.99996801
  0.50000071  0.00000071  0.74751438
  0.66666584  0.08333384  0.94830712
  0.58344240  0.16658157  0.14909513
  0.50000074  0.00000063  0.85075775
  0.66666625  0.08333339  0.05168955
  0.58323861  0.16656404  0.25261718
  0.75077520  0.50012229  0.20071100
  0.66666745  0.33333403  0.79910945
  0.58332886  0.41666523  0.99996863
  0.50000070  0.25000071  0.74751438
  0.66666390  0.33333409  0.94830744
  0.58358970  0.41662599  0.14925045
  0.50000073  0.25000063  0.85075775
  0.66666429  0.33333515  0.05168987
  0.58354351  0.41497812  0.25322382
  0.74988945  0.75014117  0.20084747
  0.66666743  0.58333403  0.79910945
  0.58333145  0.66666862  0.99996935
  0.50000069  0.50000071  0.74751438
  0.66666315  0.58333209  0.94830753
  0.58349990  0.66700271  0.14908069
  0.50000072  0.50000063  0.85075775
  0.66665874  0.58332813  0.05169234
  0.58353464  0.66707196  0.25266998
  0.75000160  0.00000613  0.20080546
  0.66666742  0.83333403  0.79910945
  0.58333178  0.91666844  0.99996766
  0.50000068  0.75000071  0.74751438
  0.66666554  0.83333425  0.94830643
  0.58327825  0.91663771  0.14915332
  0.50000070  0.75000062  0.85075775
  0.66666619  0.83333575  0.05168869
  0.58336515  0.91669951  0.25261100
  0.00007019  0.25003713  0.20083576
  0.91666746  0.08333403  0.79910945
  0.83333227  0.16666539  0.99996774
  0.75000071  0.00000071  0.74751438
  0.91666604  0.08333411  0.94830682
  0.83333745  0.16667773  0.14915516
  0.75000074  0.00000063  0.85075775
  0.91666502  0.08333364  0.05168984
  0.83333562  0.16667429  0.25258530
  0.99994855  0.49989969  0.20082953
  0.91666745  0.33333403  0.79910945
  0.83333319  0.41666650  0.99996777
  0.75000070  0.25000071  0.74751438
  0.91666581  0.33333289  0.94830713
  0.83344390  0.41668584  0.14910566
  0.75000073  0.25000063  0.85075775
  0.91666521  0.33333214  0.05168639
  0.83340477  0.41661401  0.25261788
  0.00004520  0.75011181  0.20081000
  0.91666744  0.58333403  0.79910945
  0.83333125  0.66666830  0.99996962
  0.75000069  0.50000071  0.74751438
  0.91666531  0.58333351  0.94830774
  0.83350559  0.66683660  0.14908827
  0.75000072  0.50000063  0.85075775
  0.91666537  0.58333295  0.05168837
  0.83331797  0.66661126  0.25253831
  0.00001923  0.00007453  0.20083331
  0.91666743  0.83333403  0.79910945
  0.83333382  0.91666933  0.99996771
  0.75000068  0.75000071  0.74751438
  0.91666521  0.83333537  0.94830709
  0.83335650  0.91663770  0.14915337
  0.75000071  0.75000062  0.85075775
  0.91666646  0.83333624  0.05168694
  0.83333147  0.91669967  0.25261100
  0.45883381  0.41764929  0.30812495
Mo S Mo S Mo S Mo S Mo S Mo S Mo S Mo S Mo S Mo S Mo S Mo S Mo S Mo S Mo S Mo S Pd
           1
    12.615322    0.000000    0.000000
    -6.307674   10.925197    0.000000
     0.000000    0.000000   30.301260
 Mo  S   Mo  S   Mo  S   Mo  S   Mo  S   Mo  S   Mo  S   Mo  S   Mo  S   Mo  S   Mo  S   Mo  S   Mo  S   Mo  S   Mo  S   Mo  S   Pd 
   3   6   3   6   3   6   3   6   3   6   3   6   3   6   3   6   3   6   3   6   3   6   3   6   3   6   3   6   3   6   3   6   1
Direct configuration=     1
  0.24955426  0.24978763  0.20079964
  0.16666745  0.08333403  0.79910945
  0.08333019  0.16666654  0.99996855
  0.00000071  0.00000071  0.74751438
  0.16666542  0.08333638  0.94830610
  0.08302533  0.16653568  0.14906706
  0.00000074  0.00000063  0.85075775
  0.16666410  0.08333500  0.05168533
  0.08325952  0.16647584  0.25262956
  0.24917237  0.50008080  0.20073122
  0.16666744  0.33333403  0.79910945
  0.08333123  0.41666594  0.99996826
  0.00000070  0.25000071  0.74751438
  0.16666776  0.33333428  0.94830689
  0.08312467  0.41667522  0.14906982
  0.00000072  0.25000063  0.85075775
  0.16666698  0.33333509  0.05169056
  0.08309236  0.41658718  0.25263646
  0.25009424  0.75016723  0.20080166
  0.16666743  0.58333403  0.79910945
  0.08333139  0.66666483  0.99996847
  0.00000068  0.50000071  0.74751438
  0.16666673  0.58333294  0.94830729
  0.08332317  0.66664905  0.14916569
  0.00000071  0.50000063  0.85075775
  0.16666374  0.58333104  0.05168871
  0.08333789  0.66667855  0.25255646
  0.24992619  0.99985550  0.20084174
  0.16666742  0.83333403  0.79910945
  0.08333097  0.91667085  0.99996654
  0.00000067  0.75000071  0.74751438
  0.16666540  0.83333445  0.94830732
  0.08335755  0.91672678  0.14913157
  0.00000070  0.75000062  0.85075775
  0.16666497  0.83333418  0.05168927
  0.08328279  0.91675072  0.25259569
  0.50022996  0.24978631  0.20079925
  0.41666746  0.08333403  0.79910945
  0.33333139  0.16666815  0.99997061
  0.25000071  0.00000071  0.74751438
  0.41666532  0.08333478  0.94830715
  0.33318818  0.16637993  0.14908850
  0.25000074  0.00000063  0.85075775
  0.41666553  0.08333401  0.05168450
  0.33371674  0.16743637  0.25244864
  0.50034157  0.50068632  0.20051089
  0.41666744  0.33333403  0.79910945
  0.33333142  0.41666472  0.99996983
  0.25000070  0.25000071  0.74751438
  0.41666394  0.33333569  0.94830759
  0.33288834  0.41667258  0.14931385
  0.25000073  0.25000063  0.85075775
  0.41666711  0.33334053  0.05170125
  0.33045877  0.41433898  0.25334712
  0.50028107  0.75017360  0.20084179
  0.41666743  0.58333403  0.79910945
  0.33333370  0.66666761  0.99997179
  0.25000069  0.50000071  0.74751438
  0.41666478  0.58333161  0.94830755
  0.33334758  0.66695103  0.14906912
  0.25000071  0.50000063  0.85075775
  0.41666568  0.58332357  0.05169604
  0.33325917  0.66658442  0.25250388
  0.50007539  0.00008146  0.20082892
  0.41666742  0.83333403  0.79910945
  0.33333601  0.91666966  0.99996654
  0.25000067  0.75000071  0.74751438
  0.41666612  0.83333281  0.94830688
  0.33336628  0.91672675  0.14913168
  0.25000070  0.75000062  0.85075775
  0.41666684  0.83333737  0.05168522
  0.33346501  0.91675074  0.25259555
  0.74997832  0.25005096  0.20083534
  0.66666746  0.08333403  0.79910945
  0.58333305  0.16666562  0.99996855
  0.50000071  0.00000071  0.74751438
  0.66666606  0.08333386  0.94830652
  0.58350757  0.16653536  0.14906696
  0.50000074  0.00000063  0.85075775
  0.66666766  0.08333255  0.05168933
  0.58321329  0.16647571  0.25262966
  0.75090677  0.50008132  0.20073087
  0.66666745  0.33333403  0.79910945
  0.58332840  0.41666435  0.99996963
  0.50000070  0.25000071  0.74751438
  0.66666347  0.33333405  0.94830737
  0.58378104  0.41667219  0.14931370
  0.50000073  0.25000063  0.85075775
  0.66666470  0.33333536  0.05168948
  0.58388161  0.41433823  0.25334557
  0.74988933  0.75017381  0.20084181
  0.66666743  0.58333403  0.79910945
  0.58333191  0.66666870  0.99997207
  0.50000069  0.50000071  0.74751438
  0.66666280  0.58333227  0.94830799
  0.58360511  0.66721331  0.14902901
  0.50000072  0.50000063  0.85075775
  0.66665363  0.58332334  0.05169506
  0.58359749  0.66719783  0.25268889
  0.75000910  0.00002098  0.20080251
  0.66666742  0.83333403  0.79910945
  0.58333144  0.91666842  0.99996692
  0.50000068  0.75000071  0.74751438
  0.66666555  0.83333450  0.94830621
  0.58326793  0.91664611  0.14915693
  0.50000070  0.75000062  0.85075775
  0.66666902  0.83334157  0.05168642
  0.58340183  0.91674606  0.25262257
  0.00007040  0.25005132  0.20083535
  0.91666746  0.08333403  0.79910945
  0.83333204  0.16666586  0.99996742
  0.75000071  0.00000071  0.74751438
  0.91666642  0.08333433  0.94830623
  0.83334628  0.16669516  0.14916385
  0.75000074  0.00000063  0.85075775
  0.91666340  0.08333300  0.05168967
  0.83333844  0.16667979  0.25258068
  0.99992167  0.49984530  0.20082487
  0.91666745  0.33333403  0.79910945
  0.83333275  0.41666621  0.99996820
  0.75000070  0.25000071  0.74751438
  0.91666586  0.33333245  0.94830625
  0.83354797  0.41667495  0.14906971
  0.75000073  0.25000063  0.85075775
  0.91666461  0.33333025  0.05168396
  0.83349238  0.41658713  0.25263642
  0.00007073  0.75016759  0.20080171
  0.91666744  0.58333403  0.79910945
  0.83333172  0.66666904  0.99997161
  0.75000069  0.50000071  0.74751438
  0.91666523  0.58333446  0.94830743
  0.83360063  0.66695132  0.14906903
  0.75000072  0.50000063  0.85075775
  0.91666584  0.58333249  0.05168838
  0.83332222  0.66658437  0.25250393
  0.00000344  0.00008188  0.20082885
  0.91666743  0.83333403  0.79910945
  0.83333411  0.91666912  0.99996700
  0.75000068  0.75000071  0.74751438
  0.91666475  0.83333518  0.94830650
  0.83337526  0.91664620  0.14915692
  0.75000071  0.75000062  0.85075775
  0.91666883  0.83333965  0.05168534
  0.83334148  0.91674638  0.25262258
  0.45922606  0.41843940  0.30778060
Mo S Mo S Mo S Mo S Mo S Mo S Mo S Mo S Mo S Mo S Mo S Mo S Mo S Mo S Mo S Mo S Pd
           1
    12.615322    0.000000    0.000000
    -6.307674   10.925197    0.000000
     0.000000    0.000000   30.301260
 Mo  S   Mo  S   Mo  S   Mo  S   Mo  S   Mo  S   Mo  S   Mo  S   Mo  S   Mo  S   Mo  S   Mo  S   Mo  S   Mo  S   Mo  S   Mo  S   Pd 
   3   6   3   6   3   6   3   6   3   6   3   6   3   6   3   6   3   6   3   6   3   6   3   6   3   6   3   6   3   6   3   6   1
Direct configuration=     1
  0.24939209  0.24969156  0.20077330
  0.16666745  0.08333403  0.79910945
  0.08332901  0.16666570  0.99996823
  0.00000071  0.00000071  0.74751438