
     Program PWSCF v.7.2 starts on 17Dec2023 at 23:47:40 

     This program is part of the open-source Quantum ESPRESSO suite
     for quantum simulation of materials; please cite
         "P. Giannozzi et al., J. Phys.:Condens. Matter 21 395502 (2009);
         "P. Giannozzi et al., J. Phys.:Condens. Matter 29 465901 (2017);
         "P. Giannozzi et al., J. Chem. Phys. 152 154105 (2020);
          URL http://www.quantum-espresso.org", 
     in publications or presentations arising from this work. More details at
     http://www.quantum-espresso.org/quote

     Parallel version (MPI), running on    36 processors

     MPI processes distributed on     1 nodes
     768504 MiB available memory on the printing compute node when the environment starts
 
     Waiting for input...
     Reading input from standard input
Warning: card &CELL ignored
Warning: card / ignored

     Current dimensions of program PWSCF are:
     Max number of different atomic species (ntypx) = 10
     Max number of k-points (npk) =  40000
     Max angular momentum in pseudopotentials (lmaxx) =  4
     file Mo.pbe-spn-kjpaw_psl.1.0.0.UPF: wavefunction(s)  4S 4D renormalized
     file C.pbe-n-kjpaw_psl.1.0.0.UPF: wavefunction(s)  2S 2P renormalized
     Found identity + (  0.0000 -0.5000  0.0000) symmetry
     This is a supercell, fractional translations are disabled
 
     R & G space division:  proc/nbgrp/npool/nimage =      36
     Subspace diagonalization in iterative solution of the eigenvalue problem:
     one sub-group per band group will be used
     custom distributed-memory algorithm (size of sub-group:  6*  6 procs)

 
     Parallelization info
     --------------------
     sticks:   dense  smooth     PW     G-vecs:    dense   smooth      PW
     Min         531     303     79               138571    59851    8029
     Max         532     304     80               138578    59866    8038
     Sum       19129   10931   2861              4988647  2154821  289227
 
     Using Slab Decomposition
 


     bravais-lattice index     =            0
     lattice parameter (alat)  =      22.7468  a.u.
     unit-cell volume          =   23608.3613 (a.u.)^3
     number of atoms/cell      =          144
     number of atomic types    =            2
     number of electrons       =      1536.00
     number of Kohn-Sham states=          922
     kinetic-energy cutoff     =      77.0000  Ry
     charge density cutoff     =     539.0000  Ry
     scf convergence threshold =      1.0E-06
     mixing beta               =       0.1000
     number of iterations used =            8  plain     mixing
     energy convergence thresh.=      1.0E-04
     force convergence thresh. =      1.0E-03
     Exchange-correlation= SLA  PW   PBX  PBC
                           (   1   4   3   4   0   0   0)
     nstep                     =         1000


     Effective Screening Medium Method
     =================================
     Boundary Conditions: Vacuum-Slab-Vacuum
     total charge in unit cell        =   0.0000
     grid points for fit at edges     =        4 
 

     celldm(1)=  22.746779  celldm(2)=   0.000000  celldm(3)=   0.000000
     celldm(4)=   0.000000  celldm(5)=   0.000000  celldm(6)=   0.000000

     crystal axes: (cart. coord. in units of alat)
               a(1) = (   1.000000   0.000000   0.000000 )  
               a(2) = (  -0.000001   0.862478   0.000000 )  
               a(3) = (   0.000000   0.000000   2.325724 )  

     reciprocal axes: (cart. coord. in units 2 pi/alat)
               b(1) = (  1.000000  0.000001  0.000000 )  
               b(2) = (  0.000000  1.159450  0.000000 )  
               b(3) = (  0.000000  0.000000  0.429974 )  


     PseudoPot. # 1 for Mo read from file:
     ./pseudo/Mo.pbe-spn-kjpaw_psl.1.0.0.UPF
     MD5 check sum: 317bf72632116215fd98f72de1686f13
     Pseudo is Projector augmented-wave + core cor, Zval = 14.0
     Generated using 'atomic' code by A. Dal Corso  v.7.2
     Shape of augmentation charge: PSQ
     Using radial grid of 1229 points,  6 beta functions with: 
                l(1) =   0
                l(2) =   0
                l(3) =   1
                l(4) =   1
                l(5) =   2
                l(6) =   2
     Q(r) pseudized with 0 coefficients 


     PseudoPot. # 2 for C  read from file:
     ./pseudo/C.pbe-n-kjpaw_psl.1.0.0.UPF
     MD5 check sum: 6b0792899573946bb42fe395835041da
     Pseudo is Projector augmented-wave + core cor, Zval =  4.0
     Generated using 'atomic' code by A. Dal Corso  v.7.2
     Shape of augmentation charge: PSQ
     Using radial grid of 1073 points,  4 beta functions with: 
                l(1) =   0
                l(2) =   0
                l(3) =   1
                l(4) =   1
     Q(r) pseudized with 0 coefficients 


     atomic species   valence    mass     pseudopotential
        Mo            14.00    95.95000     Mo( 1.00)
        C              4.00    12.01100     C ( 1.00)

     No symmetry found



   Cartesian axes

     site n.     atom                  positions (alat units)
         1           Mo  tau(   1) = (   0.0614122   0.3970395   0.5397868  )
         2           Mo  tau(   2) = (   0.4385838   0.0341984   0.3405629  )
         3           Mo  tau(   3) = (   0.1885855   0.1814210   0.5365558  )
         4           Mo  tau(   4) = (   0.3114153   0.2498181   0.3437956  )
         5           Mo  tau(   5) = (   0.1885854   0.0341989   0.3437947  )
         6           Mo  tau(   6) = (   0.3114154   0.3970400   0.5365546  )
         7           Mo  tau(   7) = (   0.0614122   0.2498182   0.3405637  )
         8           Mo  tau(   8) = (   0.4385840   0.1814216   0.5397871  )
         9           C   tau(   9) = (   0.1887289   0.3234299   0.2441831  )
        10           C   tau(  10) = (   0.3112712   0.1078086   0.2441823  )
        11           C   tau(  11) = (   0.0612687   0.1078093   0.4401754  )
        12           C   tau(  12) = (   0.4387281   0.3234301   0.4401750  )
        13           Mo  tau(  13) = (   0.0614116   0.3970395   0.1478020  )
        14           Mo  tau(  14) = (   0.4385833   0.0341984  -0.0514219  )
        15           Mo  tau(  15) = (   0.1885850   0.1814210   0.1445710  )
        16           Mo  tau(  16) = (   0.3114148   0.2498181  -0.0481891  )
        17           Mo  tau(  17) = (   0.1885849   0.0341989  -0.0481900  )
        18           Mo  tau(  18) = (   0.3114149   0.3970400   0.1445699  )
        19           Mo  tau(  19) = (   0.0614117   0.2498182  -0.0514211  )
        20           Mo  tau(  20) = (   0.4385835   0.1814216   0.1478024  )
        21           C   tau(  21) = (   0.1887283   0.3234299  -0.1478016  )
        22           C   tau(  22) = (   0.3112707   0.1078086  -0.1478024  )
        23           C   tau(  23) = (   0.0612682   0.1078093   0.0481906  )
        24           C   tau(  24) = (   0.4387276   0.3234301   0.0481903  )
        25           Mo  tau(  25) = (   0.0614111   0.3970395  -0.2441827  )
        26           Mo  tau(  26) = (   0.4385828   0.0341984  -0.4434066  )
        27           Mo  tau(  27) = (   0.1885845   0.1814210  -0.2474137  )
        28           Mo  tau(  28) = (   0.3114143   0.2498181  -0.4401738  )
        29           Mo  tau(  29) = (   0.1885843   0.0341989  -0.4401747  )
        30           Mo  tau(  30) = (   0.3114144   0.3970401  -0.2474148  )
        31           Mo  tau(  31) = (   0.0614112   0.2498182  -0.4434058  )
        32           Mo  tau(  32) = (   0.4385830   0.1814216  -0.2441823  )
        33           C   tau(  33) = (   0.1887278   0.3234299  -0.5397864  )
        34           C   tau(  34) = (   0.3112702   0.1078087  -0.5397871  )
        35           C   tau(  35) = (   0.0612677   0.1078093  -0.3437941  )
        36           C   tau(  36) = (   0.4387271   0.3234301  -0.3437944  )
        37           Mo  tau(  37) = (   0.0614118   0.8282784   0.5397868  )
        38           Mo  tau(  38) = (   0.4385835   0.4654373   0.3405629  )
        39           Mo  tau(  39) = (   0.1885852   0.6126599   0.5365558  )
        40           Mo  tau(  40) = (   0.3114149   0.6810570   0.3437956  )
        41           Mo  tau(  41) = (   0.1885850   0.4654378   0.3437947  )
        42           Mo  tau(  42) = (   0.3114151   0.8282790   0.5365546  )
        43           Mo  tau(  43) = (   0.0614119   0.6810571   0.3405637  )
        44           Mo  tau(  44) = (   0.4385837   0.6126605   0.5397871  )
        45           C   tau(  45) = (   0.1887285   0.7546688   0.2441831  )
        46           C   tau(  46) = (   0.3112709   0.5390475   0.2441823  )
        47           C   tau(  47) = (   0.0612684   0.5390482   0.4401754  )
        48           C   tau(  48) = (   0.4387278   0.7546690   0.4401750  )
        49           Mo  tau(  49) = (   0.0614113   0.8282784   0.1478020  )
        50           Mo  tau(  50) = (   0.4385830   0.4654373  -0.0514219  )
        51           Mo  tau(  51) = (   0.1885847   0.6126599   0.1445710  )
        52           Mo  tau(  52) = (   0.3114144   0.6810570  -0.0481891  )
        53           Mo  tau(  53) = (   0.1885845   0.4654378  -0.0481900  )
        54           Mo  tau(  54) = (   0.3114146   0.8282790   0.1445699  )
        55           Mo  tau(  55) = (   0.0614114   0.6810571  -0.0514211  )
        56           Mo  tau(  56) = (   0.4385832   0.6126605   0.1478024  )
        57           C   tau(  57) = (   0.1887280   0.7546688  -0.1478016  )
        58           C   tau(  58) = (   0.3112704   0.5390476  -0.1478024  )
        59           C   tau(  59) = (   0.0612679   0.5390482   0.0481906  )
        60           C   tau(  60) = (   0.4387273   0.7546690   0.0481903  )
        61           Mo  tau(  61) = (   0.0614108   0.8282784  -0.2441827  )
        62           Mo  tau(  62) = (   0.4385825   0.4654373  -0.4434066  )
        63           Mo  tau(  63) = (   0.1885842   0.6126599  -0.2474137  )
        64           Mo  tau(  64) = (   0.3114139   0.6810570  -0.4401738  )
        65           Mo  tau(  65) = (   0.1885840   0.4654378  -0.4401747  )
        66           Mo  tau(  66) = (   0.3114141   0.8282790  -0.2474148  )
        67           Mo  tau(  67) = (   0.0614109   0.6810571  -0.4434058  )
        68           Mo  tau(  68) = (   0.4385827   0.6126605  -0.2441823  )
        69           C   tau(  69) = (   0.1887275   0.7546688  -0.5397864  )
        70           C   tau(  70) = (   0.3112699   0.5390476  -0.5397871  )
        71           C   tau(  71) = (   0.0612674   0.5390482  -0.3437941  )
        72           C   tau(  72) = (   0.4387268   0.7546690  -0.3437944  )
        73           Mo  tau(  73) = (   0.5614122   0.3970395   0.5397868  )
        74           Mo  tau(  74) = (   0.9385838   0.0341984   0.3405629  )
        75           Mo  tau(  75) = (   0.6885855   0.1814210   0.5365558  )
        76           Mo  tau(  76) = (   0.8114153   0.2498181   0.3437956  )
        77           Mo  tau(  77) = (   0.6885854   0.0341989   0.3437947  )
        78           Mo  tau(  78) = (   0.8114154   0.3970400   0.5365546  )
        79           Mo  tau(  79) = (   0.5614122   0.2498182   0.3405637  )
        80           Mo  tau(  80) = (   0.9385840   0.1814216   0.5397871  )
        81           C   tau(  81) = (   0.6887289   0.3234299   0.2441831  )
        82           C   tau(  82) = (   0.8112712   0.1078086   0.2441823  )
        83           C   tau(  83) = (   0.5612687   0.1078093   0.4401754  )
        84           C   tau(  84) = (   0.9387281   0.3234301   0.4401750  )
        85           Mo  tau(  85) = (   0.5614116   0.3970395   0.1478020  )
        86           Mo  tau(  86) = (   0.9385833   0.0341984  -0.0514219  )
        87           Mo  tau(  87) = (   0.6885850   0.1814210   0.1445710  )
        88           Mo  tau(  88) = (   0.8114148   0.2498181  -0.0481891  )
        89           Mo  tau(  89) = (   0.6885849   0.0341989  -0.0481900  )
        90           Mo  tau(  90) = (   0.8114149   0.3970400   0.1445699  )
        91           Mo  tau(  91) = (   0.5614117   0.2498182  -0.0514211  )
        92           Mo  tau(  92) = (   0.9385835   0.1814216   0.1478024  )
        93           C   tau(  93) = (   0.6887283   0.3234299  -0.1478016  )
        94           C   tau(  94) = (   0.8112707   0.1078086  -0.1478024  )
        95           C   tau(  95) = (   0.5612682   0.1078093   0.0481906  )
        96           C   tau(  96) = (   0.9387276   0.3234301   0.0481903  )
        97           Mo  tau(  97) = (   0.5614111   0.3970395  -0.2441827  )
        98           Mo  tau(  98) = (   0.9385828   0.0341984  -0.4434066  )
        99           Mo  tau(  99) = (   0.6885845   0.1814210  -0.2474137  )
       100           Mo  tau( 100) = (   0.8114143   0.2498181  -0.4401738  )
       101           Mo  tau( 101) = (   0.6885843   0.0341989  -0.4401747  )
       102           Mo  tau( 102) = (   0.8114144   0.3970401  -0.2474148  )
       103           Mo  tau( 103) = (   0.5614112   0.2498182  -0.4434058  )
       104           Mo  tau( 104) = (   0.9385830   0.1814216  -0.2441823  )
       105           C   tau( 105) = (   0.6887278   0.3234299  -0.5397864  )
       106           C   tau( 106) = (   0.8112702   0.1078087  -0.5397871  )
       107           C   tau( 107) = (   0.5612677   0.1078093  -0.3437941  )
       108           C   tau( 108) = (   0.9387271   0.3234301  -0.3437944  )
       109           Mo  tau( 109) = (   0.5614118   0.8282784   0.5397868  )
       110           Mo  tau( 110) = (   0.9385835   0.4654373   0.3405629  )
       111           Mo  tau( 111) = (   0.6885852   0.6126599   0.5365558  )
       112           Mo  tau( 112) = (   0.8114149   0.6810570   0.3437956  )
       113           Mo  tau( 113) = (   0.6885850   0.4654378   0.3437947  )
       114           Mo  tau( 114) = (   0.8114151   0.8282790   0.5365546  )
       115           Mo  tau( 115) = (   0.5614119   0.6810571   0.3405637  )
       116           Mo  tau( 116) = (   0.9385837   0.6126605   0.5397871  )
       117           C   tau( 117) = (   0.6887285   0.7546688   0.2441831  )
       118           C   tau( 118) = (   0.8112709   0.5390475   0.2441823  )
       119           C   tau( 119) = (   0.5612684   0.5390482   0.4401754  )
       120           C   tau( 120) = (   0.9387278   0.7546690   0.4401750  )
       121           Mo  tau( 121) = (   0.5614113   0.8282784   0.1478020  )
       122           Mo  tau( 122) = (   0.9385830   0.4654373  -0.0514219  )
       123           Mo  tau( 123) = (   0.6885847   0.6126599   0.1445710  )
       124           Mo  tau( 124) = (   0.8114144   0.6810570  -0.0481891  )
       125           Mo  tau( 125) = (   0.6885845   0.4654378  -0.0481900  )
       126           Mo  tau( 126) = (   0.8114146   0.8282790   0.1445699  )
       127           Mo  tau( 127) = (   0.5614114   0.6810571  -0.0514211  )
       128           Mo  tau( 128) = (   0.9385832   0.6126605   0.1478024  )
       129           C   tau( 129) = (   0.6887280   0.7546688  -0.1478016  )
       130           C   tau( 130) = (   0.8112704   0.5390476  -0.1478024  )
       131           C   tau( 131) = (   0.5612679   0.5390482   0.0481906  )
       132           C   tau( 132) = (   0.9387273   0.7546690   0.0481903  )
       133           Mo  tau( 133) = (   0.5614108   0.8282784  -0.2441827  )
       134           Mo  tau( 134) = (   0.9385825   0.4654373  -0.4434066  )
       135           Mo  tau( 135) = (   0.6885842   0.6126599  -0.2474137  )
       136           Mo  tau( 136) = (   0.8114139   0.6810570  -0.4401738  )
       137           Mo  tau( 137) = (   0.6885840   0.4654378  -0.4401747  )
       138           Mo  tau( 138) = (   0.8114141   0.8282790  -0.2474148  )
       139           Mo  tau( 139) = (   0.5614109   0.6810571  -0.4434058  )
       140           Mo  tau( 140) = (   0.9385827   0.6126605  -0.2441823  )
       141           C   tau( 141) = (   0.6887275   0.7546688  -0.5397864  )
       142           C   tau( 142) = (   0.8112699   0.5390476  -0.5397871  )
       143           C   tau( 143) = (   0.5612674   0.5390482  -0.3437941  )
       144           C   tau( 144) = (   0.9387268   0.7546690  -0.3437944  )

     --------------------------------------------
     DFT-D3 Dispersion Correction (3-body terms):
     --------------------------------------------
       Reference C6 values for interpolation: 

         atom   Coordination number   C6
         C          0.000            98.23
         C          0.987            86.49
         C          1.998            58.72
         C          2.999            51.56
         C          3.984            36.41
         Mo         0.000          1691.79
         Mo         1.942          1004.01
         Mo        11.056           674.22

       Values used:

         atom   Coordination number  R0_AB[au]  C6      C8
         Mo         9.786            3.547    674.22  77634.20
         Mo        13.626            3.547    674.22  77634.20
         Mo         8.900            3.547    674.22  77634.20
         Mo        13.620            3.547    674.22  77634.20
         Mo        13.620            3.547    674.22  77634.20
         Mo         8.901            3.547    674.22  77634.20
         Mo        13.626            3.547    674.22  77634.20
         Mo         9.786            3.547    674.22  77634.20
         C          6.054            2.750     36.41   1053.14
         C          6.054            2.750     36.41   1053.14
         C          6.032            2.750     36.41   1053.14
         C          6.032            2.750     36.41   1053.14
         Mo        13.652            3.547    674.22  77634.20
         Mo        13.652            3.547    674.22  77634.20
         Mo        13.652            3.547    674.22  77634.20
         Mo        13.652            3.547    674.22  77634.20
         Mo        13.652            3.547    674.22  77634.20
         Mo        13.652            3.547    674.22  77634.20
         Mo        13.652            3.547    674.22  77634.20
         Mo        13.652            3.547    674.22  77634.20
         C          6.054            2.750     36.41   1053.14
         C          6.054            2.750     36.41   1053.14
         C          6.055            2.750     36.41   1053.14
         C          6.055            2.750     36.41   1053.14
         Mo        13.633            3.547    674.22  77634.20
         Mo        10.798            3.547    674.22  77634.20
         Mo        13.633            3.547    674.22  77634.20
         Mo        10.887            3.547    674.22  77634.20
         Mo        10.887            3.547    674.21  77634.20
         Mo        13.633            3.547    674.22  77634.20
         Mo        10.798            3.547    674.22  77634.20
         Mo        13.633            3.547    674.22  77634.20
         C          3.034            2.750     51.21   1481.14
         C          3.034            2.750     51.21   1481.14
         C          6.034            2.750     36.41   1053.14
         C          6.034            2.750     36.41   1053.14
         Mo         9.786            3.547    674.22  77634.20
         Mo        13.626            3.547    674.22  77634.20
         Mo         8.900            3.547    674.22  77634.20
         Mo        13.620            3.547    674.22  77634.20
         Mo        13.620            3.547    674.22  77634.20
         Mo         8.901            3.547    674.22  77634.20
         Mo        13.626            3.547    674.22  77634.20
         Mo         9.786            3.547    674.22  77634.20
         C          6.054            2.750     36.41   1053.14
         C          6.054            2.750     36.41   1053.14
         C          6.032            2.750     36.41   1053.14
         C          6.032            2.750     36.41   1053.14
         Mo        13.652            3.547    674.22  77634.20
         Mo        13.652            3.547    674.22  77634.20
         Mo        13.652            3.547    674.22  77634.20
         Mo        13.652            3.547    674.22  77634.20
         Mo        13.652            3.547    674.22  77634.20
         Mo        13.652            3.547    674.22  77634.20
         Mo        13.652            3.547    674.22  77634.20
         Mo        13.652            3.547    674.22  77634.20
         C          6.054            2.750     36.41   1053.14
         C          6.054            2.750     36.41   1053.14
         C          6.055            2.750     36.41   1053.14
         C          6.055            2.750     36.41   1053.14
         Mo        13.633            3.547    674.22  77634.20
         Mo        10.798            3.547    674.22  77634.20
         Mo        13.633            3.547    674.22  77634.20
         Mo        10.887            3.547    674.22  77634.20
         Mo        10.887            3.547    674.22  77634.20
         Mo        13.633            3.547    674.22  77634.20
         Mo        10.798            3.547    674.22  77634.20
         Mo        13.633            3.547    674.22  77634.20
         C          3.034            2.750     51.21   1481.14
         C          3.034            2.750     51.21   1481.14
         C          6.034            2.750     36.41   1053.14
         C          6.034            2.750     36.41   1053.14
         Mo         9.786            3.547    674.22  77634.20
         Mo        13.626            3.547    674.22  77634.20
         Mo         8.900            3.547    674.22  77634.20
         Mo        13.620            3.547    674.22  77634.20
         Mo        13.620            3.547    674.22  77634.20
         Mo         8.901            3.547    674.22  77634.20
         Mo        13.626            3.547    674.22  77634.20
         Mo         9.786            3.547    674.22  77634.20
         C          6.054            2.750     36.41   1053.14
         C          6.054            2.750     36.41   1053.14
         C          6.032            2.750     36.41   1053.14
         C          6.032            2.750     36.41   1053.14
         Mo        13.652            3.547    674.22  77634.20
         Mo        13.652            3.547    674.22  77634.20
         Mo        13.652            3.547    674.22  77634.20
         Mo        13.652            3.547    674.22  77634.20
         Mo        13.652            3.547    674.22  77634.20
         Mo        13.652            3.547    674.22  77634.20
         Mo        13.652            3.547    674.22  77634.20
         Mo        13.652            3.547    674.22  77634.20
         C          6.054            2.750     36.41   1053.14
         C          6.054            2.750     36.41   1053.14
         C          6.055            2.750     36.41   1053.14
         C          6.055            2.750     36.41   1053.14
         Mo        13.633            3.547    674.22  77634.20
         Mo        10.798            3.547    674.22  77634.20
         Mo        13.633            3.547    674.22  77634.20
         Mo        10.887            3.547    674.22  77634.20
         Mo        10.887            3.547    674.22  77634.20
         Mo        13.633            3.547    674.22  77634.20
         Mo        10.798            3.547    674.22  77634.20
         Mo        13.633            3.547    674.22  77634.20
         C          3.034            2.750     51.21   1481.14
         C          3.034            2.750     51.21   1481.14
         C          6.034            2.750     36.41   1053.14
         C          6.034            2.750     36.41   1053.14
         Mo         9.786            3.547    674.22  77634.20
         Mo        13.626            3.547    674.22  77634.20
         Mo         8.900            3.547    674.22  77634.20
         Mo        13.620            3.547    674.22  77634.20
         Mo        13.620            3.547    674.22  77634.20
         Mo         8.901            3.547    674.22  77634.20
         Mo        13.626            3.547    674.22  77634.20
         Mo         9.786            3.547    674.22  77634.20
         C          6.054            2.750     36.41   1053.14
         C          6.054            2.750     36.41   1053.14
         C          6.032            2.750     36.41   1053.14
         C          6.032            2.750     36.41   1053.14
         Mo        13.652            3.547    674.22  77634.20
         Mo        13.652            3.547    674.22  77634.20
         Mo        13.652            3.547    674.22  77634.20
         Mo        13.652            3.547    674.22  77634.20
         Mo        13.652            3.547    674.22  77634.20
         Mo        13.652            3.547    674.22  77634.20
         Mo        13.652            3.547    674.22  77634.20
         Mo        13.652            3.547    674.22  77634.20
         C          6.054            2.750     36.41   1053.14
         C          6.054            2.750     36.41   1053.14
         C          6.055            2.750     36.41   1053.14
         C          6.055            2.750     36.41   1053.14
         Mo        13.633            3.547    674.22  77634.20
         Mo        10.798            3.547    674.22  77634.20
         Mo        13.633            3.547    674.22  77634.20
         Mo        10.887            3.547    674.21  77634.20
         Mo        10.887            3.547    674.22  77634.20
         Mo        13.633            3.547    674.22  77634.20
         Mo        10.798            3.547    674.22  77634.20
         Mo        13.633            3.547    674.22  77634.20
         C          3.034            2.750     51.21   1481.14
         C          3.034            2.750     51.21   1481.14
         C          6.034            2.750     36.41   1053.14
         C          6.034            2.750     36.41   1053.14

         Molecular C6 ( Ry / a.u.^6 ) =   7759309.35


     number of k points=     4  Gaussian smearing, width (Ry)=  0.0100
                       cart. coord. in units 2pi/alat
        k(    1) = (   0.0000000   0.0000000   0.0000000), wk =   0.5000000
        k(    2) = (   0.0000000  -0.5797250   0.0000000), wk =   0.5000000
        k(    3) = (  -0.5000000  -0.0000004   0.0000000), wk =   0.5000000
        k(    4) = (  -0.5000000  -0.5797255   0.0000000), wk =   0.5000000

     Dense  grid:  4988647 G-vectors     FFT dimensions: ( 180, 150, 400)

     Smooth grid:  2154821 G-vectors     FFT dimensions: ( 128, 120, 300)

     Estimated max dynamical RAM per process >       1.81 GB

     Estimated total dynamical RAM >      65.18 GB

     Check: negative core charge=   -0.000001

     Initial potential from superposition of free atoms

     starting charge    1535.9135, renormalised to    1536.0000

     negative rho (up, down):  1.062E-03 0.000E+00
     Starting wfcs are 1152 randomized atomic wfcs
     Checking if some PAW data can be deallocated... 

     total cpu time spent up to now is      100.8 secs

     Self-consistent Calculation

     iteration #  1     ecut=    77.00 Ry     beta= 0.10
     Davidson diagonalization with overlap
     ethr =  1.00E-02,  avg # of iterations =  2.0

     negative rho (up, down):  2.541E-06 0.000E+00

     total cpu time spent up to now is      320.8 secs

     total energy              =  -35805.36002512 Ry
     estimated scf accuracy    <      68.91881477 Ry

     iteration #  2     ecut=    77.00 Ry     beta= 0.10
     Davidson diagonalization with overlap
     ethr =  4.49E-03,  avg # of iterations =  2.0

     negative rho (up, down):  2.312E-06 0.000E+00

     total cpu time spent up to now is      534.4 secs

     total energy              =  -35798.59964973 Ry
     estimated scf accuracy    <    2708.21650436 Ry

     iteration #  3     ecut=    77.00 Ry     beta= 0.10
     Davidson diagonalization with overlap
     ethr =  4.49E-03,  avg # of iterations =  1.0

     negative rho (up, down):  1.619E-06 0.000E+00

     total cpu time spent up to now is      724.7 secs

     total energy              =  -35812.21616456 Ry
     estimated scf accuracy    <     390.67929343 Ry

     iteration #  4     ecut=    77.00 Ry     beta= 0.10
     Davidson diagonalization with overlap
     ethr =  4.49E-03,  avg # of iterations =  1.0

     negative rho (up, down):  1.029E-06 0.000E+00

     total cpu time spent up to now is      916.1 secs

     total energy              =  -35816.12603718 Ry
     estimated scf accuracy    <     166.04856938 Ry

     iteration #  5     ecut=    77.00 Ry     beta= 0.10
     Davidson diagonalization with overlap
     ethr =  4.49E-03,  avg # of iterations =  1.0

     total cpu time spent up to now is     1106.5 secs

     total energy              =  -35814.03614150 Ry
     estimated scf accuracy    <      24.45154873 Ry

     iteration #  6     ecut=    77.00 Ry     beta= 0.10
     Davidson diagonalization with overlap
     ethr =  1.59E-03,  avg # of iterations =  4.5

     total cpu time spent up to now is     1320.9 secs

     total energy              =  -35813.47481323 Ry
     estimated scf accuracy    <      13.60666182 Ry

     iteration #  7     ecut=    77.00 Ry     beta= 0.10
     Davidson diagonalization with overlap
     ethr =  8.86E-04,  avg # of iterations = 16.0

     total cpu time spent up to now is     1780.2 secs

     total energy              =  -35822.51601718 Ry
     estimated scf accuracy    <      12.15463246 Ry

     iteration #  8     ecut=    77.00 Ry     beta= 0.10
     Davidson diagonalization with overlap
     ethr =  7.91E-04,  avg # of iterations =  1.2

     total cpu time spent up to now is     1976.2 secs

     total energy              =  -35823.78441585 Ry
     estimated scf accuracy    <       6.47210469 Ry

     iteration #  9     ecut=    77.00 Ry     beta= 0.10
     Davidson diagonalization with overlap
     ethr =  4.21E-04,  avg # of iterations =  1.8

     total cpu time spent up to now is     2183.5 secs

     total energy              =  -35822.98242746 Ry
     estimated scf accuracy    <       9.85861514 Ry

     iteration # 10     ecut=    77.00 Ry     beta= 0.10
     Davidson diagonalization with overlap
     ethr =  4.21E-04,  avg # of iterations =  1.2

     negative rho (up, down):  1.299E-07 0.000E+00

     total cpu time spent up to now is     2379.2 secs

     total energy              =  -35821.72864389 Ry
     estimated scf accuracy    <       5.23623309 Ry

     iteration # 11     ecut=    77.00 Ry     beta= 0.10
     Davidson diagonalization with overlap
     ethr =  3.41E-04,  avg # of iterations =  4.5

     negative rho (up, down):  2.733E-07 0.000E+00

     total cpu time spent up to now is     2603.5 secs

     total energy              =  -35822.11558821 Ry
     estimated scf accuracy    <       1.68381053 Ry

     iteration # 12     ecut=    77.00 Ry     beta= 0.10
     Davidson diagonalization with overlap
     ethr =  1.10E-04,  avg # of iterations = 11.8

     negative rho (up, down):  6.491E-07 0.000E+00

     total cpu time spent up to now is     2969.6 secs

     total energy              =  -35822.91642284 Ry
     estimated scf accuracy    <       0.91340308 Ry

     iteration # 13     ecut=    77.00 Ry     beta= 0.10
     Davidson diagonalization with overlap
     ethr =  5.95E-05,  avg # of iterations = 14.8

     negative rho (up, down):  8.269E-07 0.000E+00

     total cpu time spent up to now is     3286.5 secs

     total energy              =  -35823.07316070 Ry
     estimated scf accuracy    <       0.41440061 Ry

     iteration # 14     ecut=    77.00 Ry     beta= 0.10
     Davidson diagonalization with overlap
     ethr =  2.70E-05,  avg # of iterations = 14.0

     negative rho (up, down):  6.339E-07 0.000E+00

     total cpu time spent up to now is     3672.7 secs

     total energy              =  -35823.11066518 Ry
     estimated scf accuracy    <       0.62017695 Ry

     iteration # 15     ecut=    77.00 Ry     beta= 0.10
     Davidson diagonalization with overlap
     ethr =  2.70E-05,  avg # of iterations =  2.0

     negative rho (up, down):  3.467E-06 0.000E+00

     total cpu time spent up to now is     3869.9 secs

     total energy              =  -35823.15412264 Ry
     estimated scf accuracy    <       1.71162926 Ry

     iteration # 16     ecut=    77.00 Ry     beta= 0.10
     Davidson diagonalization with overlap
     ethr =  2.70E-05,  avg # of iterations =  1.2

     negative rho (up, down):  1.359E-05 0.000E+00

     total cpu time spent up to now is     4065.7 secs

     total energy              =  -35823.07845766 Ry
     estimated scf accuracy    <       0.49355388 Ry

     iteration # 17     ecut=    77.00 Ry     beta= 0.10
     Davidson diagonalization with overlap
     ethr =  2.70E-05,  avg # of iterations =  1.2

     negative rho (up, down):  1.971E-05 0.000E+00

     total cpu time spent up to now is     4261.8 secs

     total energy              =  -35823.07133009 Ry
     estimated scf accuracy    <       0.24179052 Ry

     iteration # 18     ecut=    77.00 Ry     beta= 0.10
     Davidson diagonalization with overlap
     c_bands:  3 eigenvalues not converged
     ethr =  1.57E-05,  avg # of iterations = 10.2

     negative rho (up, down):  4.480E-05 0.000E+00

     total cpu time spent up to now is     4506.6 secs

     total energy              =  -35823.06752956 Ry
     estimated scf accuracy    <       0.13907015 Ry

     iteration # 19     ecut=    77.00 Ry     beta= 0.10
     Davidson diagonalization with overlap
     c_bands:  3 eigenvalues not converged
     c_bands:  3 eigenvalues not converged
     c_bands:  2 eigenvalues not converged
     ethr =  9.05E-06,  avg # of iterations = 22.5

     negative rho (up, down):  2.699E-05 0.000E+00

     total cpu time spent up to now is     5033.4 secs

     total energy              =  -35823.13495851 Ry
     estimated scf accuracy    <       0.11115448 Ry

     iteration # 20     ecut=    77.00 Ry     beta= 0.10
     Davidson diagonalization with overlap
     ethr =  7.24E-06,  avg # of iterations =  1.8

     negative rho (up, down):  2.309E-05 0.000E+00

     total cpu time spent up to now is     5240.7 secs

     total energy              =  -35823.13488456 Ry
     estimated scf accuracy    <       0.08246357 Ry

     iteration # 21     ecut=    77.00 Ry     beta= 0.10
     Davidson diagonalization with overlap
     ethr =  5.37E-06,  avg # of iterations =  1.5

     negative rho (up, down):  2.075E-05 0.000E+00

     total cpu time spent up to now is     5442.1 secs

     total energy              =  -35823.14117196 Ry
     estimated scf accuracy    <       0.06565673 Ry

     iteration # 22     ecut=    77.00 Ry     beta= 0.10
     Davidson diagonalization with overlap
     ethr =  4.27E-06,  avg # of iterations =  1.5

     negative rho (up, down):  3.969E-05 0.000E+00

     total cpu time spent up to now is     5643.9 secs

     total energy              =  -35823.13027735 Ry
     estimated scf accuracy    <       0.11861619 Ry

     iteration # 23     ecut=    77.00 Ry     beta= 0.10
     Davidson diagonalization with overlap
     ethr =  4.27E-06,  avg # of iterations =  3.2

     negative rho (up, down):  1.083E-04 0.000E+00

     total cpu time spent up to now is     5855.9 secs

     total energy              =  -35823.12361880 Ry
     estimated scf accuracy    <       0.05441390 Ry

     iteration # 24     ecut=    77.00 Ry     beta= 0.10
     Davidson diagonalization with overlap
     c_bands:  3 eigenvalues not converged
     c_bands:  2 eigenvalues not converged
     ethr =  3.54E-06,  avg # of iterations = 31.0

     negative rho (up, down):  1.674E-04 0.000E+00

     total cpu time spent up to now is     6451.1 secs

     total energy              =  -35823.14219724 Ry
     estimated scf accuracy    <       0.16260232 Ry

     iteration # 25     ecut=    77.00 Ry     beta= 0.10
     Davidson diagonalization with overlap
     ethr =  3.54E-06,  avg # of iterations =  1.5

     negative rho (up, down):  2.855E-04 0.000E+00

     total cpu time spent up to now is     6652.2 secs

     total energy              =  -35823.13905525 Ry
     estimated scf accuracy    <       0.08483111 Ry

     iteration # 26     ecut=    77.00 Ry     beta= 0.10
     Davidson diagonalization with overlap
     ethr =  3.54E-06,  avg # of iterations =  1.0

     negative rho (up, down):  4.671E-04 0.000E+00

     total cpu time spent up to now is     6842.2 secs

     total energy              =  -35823.14177203 Ry
     estimated scf accuracy    <       0.01963548 Ry

     iteration # 27     ecut=    77.00 Ry     beta= 0.10
     Davidson diagonalization with overlap
     c_bands:  1 eigenvalues not converged
     c_bands:  3 eigenvalues not converged
     ethr =  1.28E-06,  avg # of iterations = 37.5

     negative rho (up, down):  4.474E-04 0.000E+00

     total cpu time spent up to now is     7473.6 secs

     total energy              =  -35823.13986289 Ry
     estimated scf accuracy    <       0.03956171 Ry

     iteration # 28     ecut=    77.00 Ry     beta= 0.10
     Davidson diagonalization with overlap
     c_bands:  1 eigenvalues not converged
     ethr =  1.28E-06,  avg # of iterations =  9.2

     negative rho (up, down):  4.784E-04 0.000E+00

     total cpu time spent up to now is     7735.0 secs

     total energy              =  -35823.14332212 Ry
     estimated scf accuracy    <       0.03651227 Ry

     iteration # 29     ecut=    77.00 Ry     beta= 0.10
     Davidson diagonalization with overlap
     ethr =  1.28E-06,  avg # of iterations =  1.5

     negative rho (up, down):  4.988E-04 0.000E+00

     total cpu time spent up to now is     7936.4 secs

     total energy              =  -35823.14398669 Ry
     estimated scf accuracy    <       0.01477105 Ry

     iteration # 30     ecut=    77.00 Ry     beta= 0.10
     Davidson diagonalization with overlap
     ethr =  9.62E-07,  avg # of iterations =  1.8

     negative rho (up, down):  5.410E-04 0.000E+00

     total cpu time spent up to now is     8143.7 secs

     total energy              =  -35823.14394877 Ry
     estimated scf accuracy    <       0.00306946 Ry

     iteration # 31     ecut=    77.00 Ry     beta= 0.10
     Davidson diagonalization with overlap
     c_bands:  1 eigenvalues not converged
     c_bands:  2 eigenvalues not converged
     ethr =  2.00E-07,  avg # of iterations = 19.2

     negative rho (up, down):  7.111E-04 0.000E+00

     total cpu time spent up to now is     8689.1 secs

     total energy              =  -35823.14597246 Ry
     estimated scf accuracy    <       0.00698299 Ry

     iteration # 32     ecut=    77.00 Ry     beta= 0.10
     Davidson diagonalization with overlap
     ethr =  2.00E-07,  avg # of iterations =  4.2

     negative rho (up, down):  7.197E-04 0.000E+00

     total cpu time spent up to now is     8915.2 secs

     total energy              =  -35823.14633816 Ry
     estimated scf accuracy    <       0.00992740 Ry

     iteration # 33     ecut=    77.00 Ry     beta= 0.10
     Davidson diagonalization with overlap
     ethr =  2.00E-07,  avg # of iterations =  1.0

     negative rho (up, down):  8.363E-04 0.000E+00

     total cpu time spent up to now is     9105.3 secs

     total energy              =  -35823.14643121 Ry
     estimated scf accuracy    <       0.00542757 Ry

     iteration # 34     ecut=    77.00 Ry     beta= 0.10
     Davidson diagonalization with overlap
     ethr =  2.00E-07,  avg # of iterations =  1.0

     negative rho (up, down):  8.673E-04 0.000E+00

     total cpu time spent up to now is     9295.4 secs

     total energy              =  -35823.14650006 Ry
     estimated scf accuracy    <       0.00080689 Ry

     iteration # 35     ecut=    77.00 Ry     beta= 0.10
     Davidson diagonalization with overlap
     c_bands:  2 eigenvalues not converged
     ethr =  5.25E-08,  avg # of iterations = 14.8

     negative rho (up, down):  8.683E-04 0.000E+00

     total cpu time spent up to now is     9686.5 secs

     total energy              =  -35823.14682127 Ry
     estimated scf accuracy    <       0.00085408 Ry

     iteration # 36     ecut=    77.00 Ry     beta= 0.10
     Davidson diagonalization with overlap
     ethr =  5.25E-08,  avg # of iterations =  3.2

     negative rho (up, down):  9.269E-04 0.000E+00

     total cpu time spent up to now is     9887.6 secs

     total energy              =  -35823.14679340 Ry
     estimated scf accuracy    <       0.00220430 Ry

     iteration # 37     ecut=    77.00 Ry     beta= 0.10
     Davidson diagonalization with overlap
     ethr =  5.25E-08,  avg # of iterations =  5.0

     negative rho (up, down):  1.035E-03 0.000E+00

     total cpu time spent up to now is    10123.3 secs

     total energy              =  -35823.14681630 Ry
     estimated scf accuracy    <       0.00038874 Ry

     iteration # 38     ecut=    77.00 Ry     beta= 0.10
     Davidson diagonalization with overlap
     ethr =  2.53E-08,  avg # of iterations =  9.5

     negative rho (up, down):  1.092E-03 0.000E+00

     total cpu time spent up to now is    10396.9 secs

     total energy              =  -35823.14674737 Ry
     estimated scf accuracy    <       0.00047838 Ry

     iteration # 39     ecut=    77.00 Ry     beta= 0.10
     Davidson diagonalization with overlap
     ethr =  2.53E-08,  avg # of iterations =  6.0

     negative rho (up, down):  1.114E-03 0.000E+00

     total cpu time spent up to now is    10642.8 secs

     total energy              =  -35823.14681890 Ry
     estimated scf accuracy    <       0.00010191 Ry

     iteration # 40     ecut=    77.00 Ry     beta= 0.10
     Davidson diagonalization with overlap
     c_bands:  1 eigenvalues not converged
     c_bands:  2 eigenvalues not converged
     ethr =  6.63E-09,  avg # of iterations = 20.2

     negative rho (up, down):  1.108E-03 0.000E+00

     total cpu time spent up to now is    11199.8 secs

     total energy              =  -35823.14688554 Ry
     estimated scf accuracy    <       0.00036046 Ry

     iteration # 41     ecut=    77.00 Ry     beta= 0.10
     Davidson diagonalization with overlap
     ethr =  6.63E-09,  avg # of iterations =  1.5

     negative rho (up, down):  1.117E-03 0.000E+00

     total cpu time spent up to now is    11401.1 secs

     total energy              =  -35823.14687833 Ry
     estimated scf accuracy    <       0.00008407 Ry

     iteration # 42     ecut=    77.00 Ry     beta= 0.10
     Davidson diagonalization with overlap
     ethr =  5.47E-09,  avg # of iterations =  2.0

     negative rho (up, down):  1.123E-03 0.000E+00

     total cpu time spent up to now is    11614.9 secs

     total energy              =  -35823.14686924 Ry
     estimated scf accuracy    <       0.00010144 Ry

     iteration # 43     ecut=    77.00 Ry     beta= 0.10
     Davidson diagonalization with overlap
     ethr =  5.47E-09,  avg # of iterations =  3.5

     negative rho (up, down):  1.142E-03 0.000E+00

     total cpu time spent up to now is    11831.9 secs

     total energy              =  -35823.14686345 Ry
     estimated scf accuracy    <       0.00008922 Ry

     iteration # 44     ecut=    77.00 Ry     beta= 0.10
     Davidson diagonalization with overlap
     ethr =  5.47E-09,  avg # of iterations =  1.8

     negative rho (up, down):  1.151E-03 0.000E+00

     total cpu time spent up to now is    12039.1 secs

     total energy              =  -35823.14685856 Ry
     estimated scf accuracy    <       0.00024112 Ry

     iteration # 45     ecut=    77.00 Ry     beta= 0.10
     Davidson diagonalization with overlap
     ethr =  5.47E-09,  avg # of iterations =  5.0

     negative rho (up, down):  1.175E-03 0.000E+00

     total cpu time spent up to now is    12260.8 secs

     total energy              =  -35823.14685611 Ry
     estimated scf accuracy    <       0.00002897 Ry

     iteration # 46     ecut=    77.00 Ry     beta= 0.10
     Davidson diagonalization with overlap
     c_bands:  3 eigenvalues not converged
     ethr =  1.89E-09,  avg # of iterations = 16.5

     negative rho (up, down):  1.171E-03 0.000E+00

     total cpu time spent up to now is    12694.1 secs

     total energy              =  -35823.14688041 Ry
     estimated scf accuracy    <       0.00004577 Ry

     iteration # 47     ecut=    77.00 Ry     beta= 0.10
     Davidson diagonalization with overlap
     ethr =  1.89E-09,  avg # of iterations =  1.0

     negative rho (up, down):  1.163E-03 0.000E+00

     total cpu time spent up to now is    12884.2 secs

     total energy              =  -35823.14688300 Ry
     estimated scf accuracy    <       0.00000984 Ry

     iteration # 48     ecut=    77.00 Ry     beta= 0.10
     Davidson diagonalization with overlap
     ethr =  6.41E-10,  avg # of iterations = 13.2

     negative rho (up, down):  1.164E-03 0.000E+00

     total cpu time spent up to now is    13158.4 secs

     total energy              =  -35823.14688449 Ry
     estimated scf accuracy    <       0.00000850 Ry

     iteration # 49     ecut=    77.00 Ry     beta= 0.10
     Davidson diagonalization with overlap
     ethr =  5.53E-10,  avg # of iterations =  2.5

     negative rho (up, down):  1.161E-03 0.000E+00

     total cpu time spent up to now is    13373.9 secs

     total energy              =  -35823.14688569 Ry
     estimated scf accuracy    <       0.00001034 Ry

     iteration # 50     ecut=    77.00 Ry     beta= 0.10
     Davidson diagonalization with overlap
     ethr =  5.53E-10,  avg # of iterations =  1.0

     negative rho (up, down):  1.163E-03 0.000E+00

     total cpu time spent up to now is    13564.0 secs

     total energy              =  -35823.14688660 Ry
     estimated scf accuracy    <       0.00000699 Ry

     iteration # 51     ecut=    77.00 Ry     beta= 0.10
     Davidson diagonalization with overlap
     ethr =  4.55E-10,  avg # of iterations =  4.5

     negative rho (up, down):  1.165E-03 0.000E+00

     total cpu time spent up to now is    13786.9 secs

     total energy              =  -35823.14688321 Ry
     estimated scf accuracy    <       0.00000982 Ry

     iteration # 52     ecut=    77.00 Ry     beta= 0.10
     Davidson diagonalization with overlap
     ethr =  4.55E-10,  avg # of iterations =  8.8

     negative rho (up, down):  1.170E-03 0.000E+00

     total cpu time spent up to now is    14032.6 secs

     total energy              =  -35823.14688184 Ry
     estimated scf accuracy    <       0.00001073 Ry

     iteration # 53     ecut=    77.00 Ry     beta= 0.10
     Davidson diagonalization with overlap
     ethr =  4.55E-10,  avg # of iterations =  4.8

     negative rho (up, down):  1.180E-03 0.000E+00

     total cpu time spent up to now is    14246.8 secs

     total energy              =  -35823.14687827 Ry
     estimated scf accuracy    <       0.00000418 Ry

     iteration # 54     ecut=    77.00 Ry     beta= 0.10
     Davidson diagonalization with overlap
     c_bands:  1 eigenvalues not converged
     ethr =  2.72E-10,  avg # of iterations = 15.2

     negative rho (up, down):  1.188E-03 0.000E+00

     total cpu time spent up to now is    14662.0 secs

     total energy              =  -35823.14687729 Ry
     estimated scf accuracy    <       0.00002326 Ry

     iteration # 55     ecut=    77.00 Ry     beta= 0.10
     Davidson diagonalization with overlap
     ethr =  2.72E-10,  avg # of iterations =  1.0

     negative rho (up, down):  1.191E-03 0.000E+00

     total cpu time spent up to now is    14852.1 secs

     total energy              =  -35823.14687671 Ry
     estimated scf accuracy    <       0.00000172 Ry

     iteration # 56     ecut=    77.00 Ry     beta= 0.10
     Davidson diagonalization with overlap
     ethr =  1.12E-10,  avg # of iterations =  7.8

     negative rho (up, down):  1.190E-03 0.000E+00

     total cpu time spent up to now is    15082.7 secs

     total energy              =  -35823.14687671 Ry
     estimated scf accuracy    <       0.00000493 Ry

     iteration # 57     ecut=    77.00 Ry     beta= 0.10
     Davidson diagonalization with overlap
     ethr =  1.12E-10,  avg # of iterations =  7.0

     negative rho (up, down):  1.195E-03 0.000E+00

     total cpu time spent up to now is    15312.2 secs

     total energy              =  -35823.14687519 Ry
     estimated scf accuracy    <       0.00000581 Ry

     iteration # 58     ecut=    77.00 Ry     beta= 0.10
     Davidson diagonalization with overlap
     ethr =  1.12E-10,  avg # of iterations = 12.8

     negative rho (up, down):  1.195E-03 0.000E+00

     total cpu time spent up to now is    15627.0 secs

     total energy              =  -35823.14687531 Ry
     estimated scf accuracy    <       0.00000323 Ry

     iteration # 59     ecut=    77.00 Ry     beta= 0.10
     Davidson diagonalization with overlap
     ethr =  1.12E-10,  avg # of iterations =  1.5

     negative rho (up, down):  1.196E-03 0.000E+00

     total cpu time spent up to now is    15828.4 secs

     End of self-consistent calculation

          k = 0.0000 0.0000 0.0000 (269311 PWs)   bands (ev):

   -66.6933 -66.6624 -66.6512 -66.6443 -66.6443 -66.6436 -66.6288 -66.6288
   -66.6176 -66.6079 -66.6035 -66.6035 -66.6030 -66.6015 -66.6015 -66.6014
   -66.5869 -66.5865 -66.5840 -66.5840 -66.5800 -66.5800 -66.5765 -66.5721
   -66.5710 -66.5706 -66.5706 -66.5649 -66.5648 -66.5636 -66.5511 -66.5510
   -66.5476 -66.5464 -66.5457 -66.5457 -66.5455 -66.5434 -66.5434 -66.5412
   -66.5343 -66.5332 -66.5327 -66.5325 -66.5325 -66.5307 -66.5273 -66.5271
   -66.5261 -66.5231 -66.5212 -66.5206 -66.5206 -66.5147 -66.5147 -66.5078
   -66.5077 -66.5077 -66.5073 -66.5072 -66.5066 -66.5066 -66.5010 -66.5005
   -66.3089 -66.3039 -66.2986 -66.2877 -66.2794 -66.2794 -66.2776 -66.2776
   -66.2738 -66.2738 -66.2730 -66.2643 -66.2643 -66.2603 -66.2582 -66.2452
   -66.2414 -66.2414 -66.2356 -66.2336 -66.2319 -66.2319 -66.2214 -66.2170
   -66.1450 -66.1401 -66.1297 -66.1297 -66.1278 -66.1278 -66.1121 -66.1104
   -41.3462 -41.2965 -41.2965 -41.2814 -41.2730 -41.2730 -41.2674 -41.2403
   -41.2364 -41.2100 -41.2030 -41.2030 -41.1936 -41.1891 -41.1848 -41.1848
   -41.1742 -41.1741 -41.1574 -41.1300 -41.1231 -41.1136 -41.1120 -41.1120
   -41.0948 -41.0821 -41.0821 -41.0677 -41.0677 -41.0570 -41.0556 -41.0450
   -41.0298 -41.0293 -41.0229 -41.0229 -41.0103 -41.0060 -40.9947 -40.9927
   -40.9927 -40.9827 -40.9801 -40.9680 -40.9626 -40.9600 -40.9433 -40.9433
   -40.9325 -40.9325 -40.9320 -40.9257 -40.9189 -40.9189 -40.8978 -40.8978
   -40.8823 -40.8787 -40.8787 -40.8757 -40.8757 -40.8748 -40.8731 -40.8550
   -40.8550 -40.8470 -40.8426 -40.8406 -40.8392 -40.8321 -40.8265 -40.8265
   -40.8261 -40.8255 -40.8109 -40.8109 -40.8085 -40.7992 -40.7992 -40.7894
   -40.7894 -40.7781 -40.7726 -40.7726 -40.7702 -40.7659 -40.7630 -40.7541
   -40.7447 -40.7447 -40.7432 -40.7363 -40.7336 -40.7233 -40.7113 -40.7113
   -40.7078 -40.7077 -40.7072 -40.7048 -40.6985 -40.6878 -40.6836 -40.6836
   -40.6762 -40.6700 -40.6691 -40.6637 -40.6637 -40.6633 -40.6523 -40.6523
   -40.6514 -40.6502 -40.6361 -40.6360 -40.6348 -40.6345 -40.6281 -40.6281
   -40.6272 -40.6105 -40.6091 -40.6083 -40.6083 -40.5954 -40.5954 -40.5927
   -40.5927 -40.5915 -40.5894 -40.5880 -40.5880 -40.5874 -40.5859 -40.5713
   -40.5711 -40.5680 -40.5680 -40.5660 -40.5632 -40.5587 -40.5563 -40.5563
   -40.5427 -40.5427 -40.5425 -40.5419 -40.5365 -40.5365 -40.5314 -40.5299
   -40.5283 -40.5226 -40.5163 -40.5163 -40.5122 -40.5110 -40.5104 -40.5092
   -40.5092 -40.5075 -40.5075 -40.5032 -40.4927 -40.4927 -40.4818 -40.4811
   -40.4810 -40.4735 -40.4677 -40.4677 -40.4676 -40.4633 -40.4620 -40.4613
   -40.4613 -40.4591 -40.4591 -40.4590 -40.4557 -40.4453 -40.4453 -40.4412
   -40.4410 -40.4275 -40.4263 -40.4240 -40.4240 -40.4221 -40.4190 -40.4186
   -40.4186 -40.4133 -40.4120 -40.4050 -40.4031 -40.4031 -40.3979 -40.3842
   -40.3833 -40.3769 -40.3769 -40.3754 -40.3722 -40.3722 -40.3707 -40.3698
   -40.3497 -40.3490 -40.3438 -40.3413 -40.3413 -40.3309 -40.3309 -40.3293
   -40.3285 -40.3209 -40.3149 -40.3149 -40.3072 -40.3066 -40.3066 -40.3057
   -40.3018 -40.3018 -40.2927 -40.2927 -40.2879 -40.2790 -40.2790 -40.2766
   -40.2738 -40.2738 -40.2724 -40.2715 -40.2703 -40.2639 -40.2623 -40.2623
   -40.2612 -40.2612 -40.2589 -40.2574 -40.2561 -40.2494 -40.2485 -40.2396
   -40.2330 -40.2158 -40.2147 -40.1967 -40.1874 -40.1874 -40.1824 -40.1821
   -40.1821 -40.1792 -40.1792 -40.1772 -40.1763 -40.1674 -40.1658 -40.1658
   -40.1590 -40.1590 -40.1580 -40.1425 -40.1221 -40.1023 -40.1023 -40.1020
   -40.0998 -40.0998 -40.0945 -40.0925 -40.0471 -40.0436 -40.0401 -40.0291
   -40.0291 -39.9797 -39.9797 -39.9730 -39.9730 -39.9296 -39.9013 -39.8891
   -18.4658 -18.0070 -17.7657 -17.7551 -17.6986 -17.6986 -17.5288 -17.4902
   -17.4902 -17.4531 -17.4111 -17.2752 -17.2446 -17.2445 -17.2322 -17.2322
   -17.1966 -17.1965 -17.1913 -17.1913 -17.1129 -17.1053 -17.0463 -17.0462
   -17.0417 -17.0068 -17.0067 -16.9267 -16.9033 -16.9013 -16.9013 -16.8630
   -16.8313 -16.8155 -16.7386 -16.7087 -16.7087 -16.6713 -16.6380 -16.4094
   -15.1096 -15.0133 -14.8876 -14.8876 -14.8631 -14.8630 -14.6488 -14.5186
   -12.4171 -12.3184 -12.2311 -12.2270 -12.1782 -12.1782 -12.0146 -12.0145
   -11.9516 -11.9347 -11.8779 -11.8457 -11.8343 -11.8343 -11.8146 -11.8146
   -11.7711 -11.7325 -11.7325 -11.6651 -11.6171 -11.6171 -11.5108 -11.5108
   -11.4855 -11.4855 -11.4577 -11.4452 -11.4452 -11.4427 -11.4215 -11.4009
   -11.3595 -11.3595 -11.2885 -11.2368 -11.2367 -11.2323 -11.2015 -11.1891
   -11.0659 -11.0585 -11.0256 -10.9948 -10.9948 -10.9558 -10.9404 -10.8803
   -10.8367 -10.8320 -10.8320 -10.8008 -10.7626 -10.7298 -10.7124 -10.7099
   -10.7098 -10.7081 -10.7080 -10.6877 -10.6876 -10.6100 -10.6094 -10.6094
   -10.5790 -10.5395 -10.5022 -10.4984 -10.4983 -10.4896 -10.4896 -10.4423
   -10.4409 -10.4214 -10.4106 -10.3961 -10.3959 -10.3290 -10.3237 -10.3037
   -10.2957 -10.2944 -10.2943 -10.2576 -10.1582 -10.1582 -10.1448 -10.1425
   -10.1425 -10.1398 -10.0992 -10.0992 -10.0457 -10.0017 -10.0017  -9.9848
    -9.9774  -9.9568  -9.9073  -9.9073  -9.8821  -9.8821  -9.8635  -9.8328
    -9.8214  -9.8214  -9.8166  -9.7940  -9.7774  -9.7773  -9.7533  -9.7399
    -9.6914  -9.6914  -9.5645  -9.5068  -9.5058  -9.5057  -9.4207  -9.4106
    -9.3110  -9.2927  -9.2926  -9.1634  -9.1634  -9.1498  -9.1391  -9.1391
    -9.1037  -9.0833  -9.0047  -9.0047  -8.9867  -8.9861  -8.9860  -8.9243
    -8.9064  -8.9024  -8.9024  -8.8486  -8.7911  -8.7813  -8.7813  -8.7271
    -8.6691  -8.6355  -8.6355  -8.6048  -8.5922  -8.5921  -8.5915  -8.5579
    -8.5579  -8.5488  -8.5077  -8.5075  -8.5075  -8.4851  -8.3645  -8.3429
    -8.3429  -8.3399  -8.3350  -8.3350  -8.3144  -8.3143  -8.3008  -8.2921
    -8.2593  -8.2421  -8.2317  -8.2317  -8.2188  -8.2017  -8.2016  -8.1916
    -8.1715  -8.1715  -8.1548  -8.1289  -8.1135  -8.1051  -8.1051  -8.0939
    -8.0938  -8.0635  -8.0437  -8.0306  -8.0305  -8.0296  -8.0060  -7.9854
    -7.9325  -7.9325  -7.9249  -7.9049  -7.8923  -7.8206  -7.8154  -7.8112
    -7.8044  -7.7454  -7.7387  -7.7387  -7.7223  -7.7223  -7.6826  -7.6232
    -7.5911  -7.5677  -7.5598  -7.5129  -7.5115  -7.5115  -7.4796  -7.4775
    -7.4774  -7.4351  -7.4220  -7.4142  -7.3927  -7.3927  -7.3764  -7.3675
    -7.3674  -7.3232  -7.3080  -7.3079  -7.2772  -7.2663  -7.2436  -7.2369
    -7.2369  -7.2247  -7.2000  -7.1959  -7.1652  -7.1407  -7.1406  -7.1278
    -7.1278  -7.1080  -7.1079  -7.0903  -7.0775  -7.0737  -7.0581  -7.0415
    -6.9914  -6.9781  -6.9697  -6.9697  -6.8903  -6.8671  -6.8542  -6.8516
    -6.8516  -6.8004  -6.8004  -6.7959  -6.7700  -6.7177  -6.6882  -6.6882
    -6.6843  -6.6584  -6.6290  -6.6138  -6.6138  -6.6019  -6.5764  -6.5576
    -6.5576  -6.5003  -6.4224  -6.4139  -6.3697  -6.3530  -6.3530  -6.3384
    -6.3245  -6.3009  -6.2665  -6.2583  -6.2583  -6.2135  -6.2135  -6.2121
    -6.1925  -6.1671  -6.1590  -6.1590  -6.0403  -6.0381  -6.0282  -6.0282
    -6.0256  -6.0256  -6.0211  -5.9591  -5.9591  -5.9382  -5.9078  -5.9075
    -5.8940  -5.8569  -5.8569  -5.8457  -5.8457  -5.7610  -5.7180  -5.7126
    -5.7126  -5.6927  -5.6606  -5.6605  -5.6481  -5.6481  -5.6221  -5.6063
    -5.6063  -5.5094  -5.4991  -5.4577  -5.4396  -5.4396  -5.4303  -5.4302
    -5.3522  -5.3372  -5.3355  -5.3175  -5.2996  -5.2996  -5.2892  -5.2417
    -5.1828  -5.1827  -5.1716  -5.1716  -5.1588  -5.1278  -5.0414  -5.0205
    -5.0186  -5.0186  -5.0151  -5.0150  -4.9971  -4.9546  -4.9002  -4.9002
    -4.8943  -4.8941  -4.8578  -4.8443  -4.7944  -4.7904  -4.7567  -4.7566
    -4.7389  -4.7389  -4.7217  -4.6925  -4.6632  -4.6339  -4.6339  -4.6259
    -4.6259  -4.5615  -4.5490  -4.5410  -4.5123  -4.5123  -4.5091  -4.5091
    -4.4987  -4.4741  -4.4400  -4.4400  -4.4331  -4.4331  -4.4153  -4.3668
    -4.3517  -4.3178  -4.3019  -4.3018  -4.3008  -4.2918  -4.2818  -4.2754
    -4.2385  -4.2385  -4.2317  -4.1816  -4.1564  -4.1514  -4.1436  -4.1408
    -4.1408  -4.1386  -4.1386  -4.1086  -4.0299  -3.9968  -3.9634  -3.9621
    -3.9533  -3.9356  -3.9356  -3.8945  -3.8945  -3.8909  -3.8641  -3.8442
    -3.8090  -3.8034  -3.8034  -3.7905  -3.7905  -3.7870  -3.7666  -3.7230
    -3.7230  -3.7098  -3.6914  -3.6731  -3.6731  -3.6498  -3.6219  -3.6218
    -3.5984  -3.5578  -3.5442  -3.5301  -3.5245  -3.5245  -3.4744  -3.4744
    -3.4731  -3.4513  -3.4430  -3.4429  -3.4080  -3.3793  -3.3789  -3.3744
    -3.3715  -3.3714  -3.3501  -3.3412  -3.3412  -3.3045  -3.3044  -3.2769
    -3.2762  -3.2760  -3.2729  -3.2371  -3.2089  -3.2088  -3.2068  -3.2067
    -3.1649  -3.1645  -3.1636  -3.0833  -3.0703  -3.0698  -3.0492  -3.0491
    -3.0088  -3.0067  -2.9995  -2.9994  -2.9951  -2.9612  -2.9610  -2.9586
    -2.9555  -2.9537  -2.8889  -2.8722  -2.8719  -2.8582  -2.8454  -2.8032
    -2.7870  -2.7764

          k = 0.0000-0.5797 0.0000 (269394 PWs)   bands (ev):

   -66.6789 -66.6789 -66.6522 -66.6522 -66.6374 -66.6374 -66.6336 -66.6336
   -66.6119 -66.6119 -66.6069 -66.6069 -66.6010 -66.6010 -66.5940 -66.5940
   -66.5931 -66.5931 -66.5840 -66.5840 -66.5788 -66.5788 -66.5765 -66.5765
   -66.5678 -66.5678 -66.5641 -66.5641 -66.5636 -66.5636 -66.5486 -66.5486
   -66.5464 -66.5464 -66.5438 -66.5437 -66.5419 -66.5419 -66.5383 -66.5383
   -66.5379 -66.5379 -66.5339 -66.5339 -66.5336 -66.5336 -66.5305 -66.5305
   -66.5285 -66.5285 -66.5246 -66.5246 -66.5188 -66.5188 -66.5092 -66.5092
   -66.5071 -66.5071 -66.5070 -66.5070 -66.5032 -66.5032 -66.5010 -66.5010
   -66.2985 -66.2985 -66.2964 -66.2964 -66.2922 -66.2922 -66.2804 -66.2804
   -66.2662 -66.2662 -66.2648 -66.2648 -66.2640 -66.2640 -66.2519 -66.2519
   -66.2401 -66.2401 -66.2347 -66.2347 -66.2262 -66.2262 -66.2246 -66.2246
   -66.1412 -66.1411 -66.1368 -66.1368 -66.1171 -66.1171 -66.1164 -66.1163
   -41.3309 -41.3309 -41.2621 -41.2621 -41.2530 -41.2530 -41.2456 -41.2456
   -41.2106 -41.2106 -41.2090 -41.2090 -41.1847 -41.1847 -41.1826 -41.1826
   -41.1711 -41.1711 -41.1609 -41.1609 -41.1286 -41.1286 -41.1274 -41.1274
   -41.1163 -41.1163 -41.0640 -41.0640 -41.0618 -41.0618 -41.0601 -41.0601
   -41.0321 -41.0321 -41.0132 -41.0132 -41.0129 -41.0129 -40.9929 -40.9929
   -40.9877 -40.9877 -40.9792 -40.9792 -40.9701 -40.9701 -40.9677 -40.9677
   -40.9580 -40.9580 -40.9421 -40.9421 -40.9365 -40.9365 -40.9288 -40.9288
   -40.9007 -40.9007 -40.8828 -40.8828 -40.8613 -40.8613 -40.8599 -40.8599
   -40.8440 -40.8440 -40.8314 -40.8314 -40.8210 -40.8210 -40.8148 -40.8148
   -40.8116 -40.8116 -40.8015 -40.8015 -40.7884 -40.7884 -40.7785 -40.7785
   -40.7757 -40.7757 -40.7601 -40.7601 -40.7587 -40.7587 -40.7441 -40.7441
   -40.7342 -40.7342 -40.7273 -40.7273 -40.7170 -40.7170 -40.7009 -40.7009
   -40.7005 -40.7005 -40.6992 -40.6992 -40.6868 -40.6868 -40.6826 -40.6826
   -40.6659 -40.6659 -40.6639 -40.6639 -40.6621 -40.6621 -40.6546 -40.6546
   -40.6467 -40.6467 -40.6426 -40.6426 -40.6338 -40.6338 -40.6304 -40.6304
   -40.6278 -40.6278 -40.6190 -40.6190 -40.6119 -40.6119 -40.6071 -40.6071
   -40.5886 -40.5886 -40.5885 -40.5885 -40.5872 -40.5872 -40.5827 -40.5827
   -40.5695 -40.5695 -40.5666 -40.5666 -40.5646 -40.5646 -40.5638 -40.5638
   -40.5537 -40.5537 -40.5451 -40.5451 -40.5444 -40.5444 -40.5309 -40.5309
   -40.5281 -40.5281 -40.5213 -40.5213 -40.5162 -40.5162 -40.5096 -40.5096
   -40.5047 -40.5047 -40.4971 -40.4971 -40.4918 -40.4918 -40.4795 -40.4795
   -40.4787 -40.4787 -40.4755 -40.4755 -40.4741 -40.4741 -40.4729 -40.4729
   -40.4602 -40.4602 -40.4586 -40.4586 -40.4497 -40.4497 -40.4469 -40.4469
   -40.4448 -40.4448 -40.4374 -40.4374 -40.4310 -40.4310 -40.4143 -40.4143
   -40.4053 -40.4053 -40.3961 -40.3961 -40.3924 -40.3924 -40.3887 -40.3887
   -40.3756 -40.3756 -40.3729 -40.3729 -40.3623 -40.3623 -40.3575 -40.3575
   -40.3570 -40.3570 -40.3515 -40.3515 -40.3378 -40.3378 -40.3331 -40.3331
   -40.3260 -40.3260 -40.3142 -40.3142 -40.3062 -40.3062 -40.3044 -40.3044
   -40.3000 -40.3000 -40.2936 -40.2936 -40.2831 -40.2831 -40.2802 -40.2802
   -40.2752 -40.2752 -40.2736 -40.2736 -40.2653 -40.2653 -40.2651 -40.2651
   -40.2628 -40.2628 -40.2432 -40.2432 -40.2371 -40.2371 -40.2282 -40.2282
   -40.2216 -40.2216 -40.2178 -40.2178 -40.2044 -40.2044 -40.1981 -40.1981
   -40.1865 -40.1865 -40.1739 -40.1739 -40.1650 -40.1650 -40.1551 -40.1551
   -40.1385 -40.1385 -40.1352 -40.1352 -40.1322 -40.1322 -40.1272 -40.1272
   -40.1143 -40.1142 -40.0771 -40.0771 -40.0584 -40.0584 -40.0304 -40.0304
   -40.0144 -40.0144 -39.9456 -39.9456 -39.9413 -39.9413 -39.9191 -39.9191
   -18.2321 -18.2321 -17.8444 -17.8444 -17.6013 -17.6013 -17.5914 -17.5914
   -17.4307 -17.4307 -17.3474 -17.3474 -17.3410 -17.3410 -17.2319 -17.2319
   -17.2216 -17.2215 -17.1924 -17.1924 -17.0733 -17.0733 -16.9951 -16.9951
   -16.9300 -16.9300 -16.9200 -16.9200 -16.8775 -16.8775 -16.8500 -16.8500
   -16.8295 -16.8295 -16.8077 -16.8077 -16.7601 -16.7601 -16.4962 -16.4962
   -15.0522 -15.0522 -14.9862 -14.9862 -14.7301 -14.7301 -14.6242 -14.6242
   -12.2913 -12.2913 -12.1029 -12.1029 -12.1003 -12.1003 -12.0838 -12.0838
   -12.0273 -12.0273 -11.9011 -11.9011 -11.8998 -11.8998 -11.8456 -11.8456
   -11.8321 -11.8321 -11.6604 -11.6604 -11.6522 -11.6521 -11.6483 -11.6483
   -11.5426 -11.5426 -11.5289 -11.5289 -11.4631 -11.4630 -11.2990 -11.2990
   -11.2937 -11.2937 -11.1358 -11.1358 -11.1338 -11.1338 -11.1208 -11.1208
   -11.0995 -11.0995 -11.0818 -11.0818 -11.0267 -11.0267 -10.9508 -10.9508
   -10.9133 -10.9133 -10.9131 -10.9131 -10.8300 -10.8300 -10.7788 -10.7788
   -10.7318 -10.7318 -10.6831 -10.6831 -10.6404 -10.6404 -10.5356 -10.5356
   -10.4480 -10.4480 -10.4429 -10.4429 -10.4302 -10.4302 -10.4063 -10.4063
   -10.4014 -10.4014 -10.3793 -10.3793 -10.3277 -10.3277 -10.3188 -10.3188
   -10.2700 -10.2700 -10.2208 -10.2208 -10.2097 -10.2097 -10.1780 -10.1780
   -10.1367 -10.1367 -10.1142 -10.1142 -10.0420 -10.0420 -10.0000 -10.0000
    -9.9673  -9.9673  -9.9573  -9.9573  -9.9264  -9.9264  -9.9079  -9.9079
    -9.8811  -9.8811  -9.7907  -9.7907  -9.7455  -9.7455  -9.6676  -9.6676
    -9.5100  -9.5100  -9.4567  -9.4567  -9.4413  -9.4413  -9.4245  -9.4245
    -9.3955  -9.3955  -9.3238  -9.3238  -9.2570  -9.2570  -9.1852  -9.1852
    -9.1421  -9.1421  -9.1115  -9.1115  -8.9089  -8.9089  -8.8772  -8.8772
    -8.8343  -8.8343  -8.7329  -8.7329  -8.7273  -8.7273  -8.5869  -8.5869
    -8.5856  -8.5856  -8.5753  -8.5753  -8.5426  -8.5426  -8.5162  -8.5162
    -8.4969  -8.4969  -8.4663  -8.4663  -8.4533  -8.4533  -8.4320  -8.4320
    -8.4070  -8.4070  -8.3515  -8.3515  -8.3315  -8.3315  -8.2697  -8.2697
    -8.2664  -8.2664  -8.2504  -8.2504  -8.2297  -8.2297  -8.2140  -8.2140
    -8.2051  -8.2051  -8.1607  -8.1607  -8.1421  -8.1421  -8.0999  -8.0999
    -8.0849  -8.0849  -8.0609  -8.0609  -8.0455  -8.0455  -8.0010  -8.0010
    -7.9690  -7.9690  -7.9649  -7.9649  -7.9561  -7.9561  -7.8748  -7.8748
    -7.8035  -7.8035  -7.7842  -7.7842  -7.6666  -7.6666  -7.6240  -7.6240
    -7.6008  -7.6008  -7.5313  -7.5313  -7.5242  -7.5242  -7.4851  -7.4851
    -7.4744  -7.4744  -7.4383  -7.4383  -7.4317  -7.4317  -7.4184  -7.4184
    -7.3688  -7.3688  -7.3349  -7.3349  -7.2872  -7.2872  -7.2780  -7.2780
    -7.2666  -7.2666  -7.2411  -7.2411  -7.1724  -7.1724  -7.1290  -7.1290
    -7.1206  -7.1206  -7.0776  -7.0776  -7.0049  -7.0049  -6.9711  -6.9711
    -6.9605  -6.9605  -6.9573  -6.9573  -6.8805  -6.8805  -6.8749  -6.8749
    -6.8443  -6.8443  -6.7951  -6.7951  -6.7296  -6.7296  -6.6751  -6.6751
    -6.6214  -6.6214  -6.5727  -6.5727  -6.5362  -6.5362  -6.5231  -6.5231
    -6.4819  -6.4819  -6.4332  -6.4332  -6.3794  -6.3794  -6.3611  -6.3611
    -6.3298  -6.3298  -6.3011  -6.3011  -6.2594  -6.2594  -6.2404  -6.2404
    -6.1978  -6.1978  -6.1364  -6.1364  -6.0619  -6.0619  -6.0567  -6.0567
    -6.0247  -6.0247  -5.9789  -5.9789  -5.9450  -5.9450  -5.8596  -5.8596
    -5.8343  -5.8343  -5.8338  -5.8338  -5.8261  -5.8261  -5.7555  -5.7555
    -5.6431  -5.6431  -5.6321  -5.6321  -5.6109  -5.6109  -5.5977  -5.5977
    -5.4843  -5.4843  -5.4326  -5.4326  -5.3378  -5.3378  -5.3360  -5.3360
    -5.3097  -5.3097  -5.2904  -5.2904  -5.1799  -5.1799  -5.1783  -5.1783
    -5.1557  -5.1557  -5.1472  -5.1472  -5.1213  -5.1213  -5.1149  -5.1148
    -5.0545  -5.0545  -5.0270  -5.0270  -5.0174  -5.0174  -4.9549  -4.9549
    -4.8973  -4.8973  -4.8866  -4.8866  -4.7918  -4.7918  -4.7898  -4.7898
    -4.7322  -4.7322  -4.7246  -4.7246  -4.6838  -4.6838  -4.6630  -4.6630
    -4.6486  -4.6486  -4.6458  -4.6458  -4.5397  -4.5397  -4.5244  -4.5244
    -4.5048  -4.5048  -4.4765  -4.4765  -4.4603  -4.4603  -4.4008  -4.4008
    -4.3739  -4.3739  -4.3073  -4.3073  -4.3055  -4.3055  -4.2637  -4.2637
    -4.2247  -4.2247  -4.2180  -4.2180  -4.2177  -4.2177  -4.1494  -4.1494
    -4.1393  -4.1393  -4.1078  -4.1078  -4.1007  -4.1007  -3.9971  -3.9971
    -3.9934  -3.9934  -3.9552  -3.9552  -3.9263  -3.9263  -3.9077  -3.9077
    -3.8950  -3.8950  -3.8731  -3.8731  -3.8707  -3.8707  -3.8703  -3.8703
    -3.8133  -3.8133  -3.7840  -3.7840  -3.7403  -3.7403  -3.7295  -3.7295
    -3.7208  -3.7207  -3.6262  -3.6262  -3.6051  -3.6051  -3.6051  -3.6051
    -3.5078  -3.5077  -3.4942  -3.4941  -3.4842  -3.4842  -3.4209  -3.4208
    -3.3559  -3.3558  -3.3460  -3.3459  -3.3459  -3.3459  -3.3276  -3.3271
    -3.3074  -3.3073  -3.2914  -3.2913  -3.2274  -3.2273  -3.2216  -3.2214
    -3.2060  -3.2057  -3.1465  -3.1465  -3.1006  -3.1002  -3.0839  -3.0838
    -3.0527  -3.0526  -2.9342  -2.9329  -2.8815  -2.8811  -2.8574  -2.8572
    -2.8432  -2.8369  -2.8151  -2.8122  -2.7731  -2.7725  -2.7426  -2.7420
    -2.6896  -2.6895

          k =-0.5000-0.0000 0.0000 (269428 PWs)   bands (ev):

   -66.6827 -66.6827 -66.6412 -66.6411 -66.6379 -66.6379 -66.6379 -66.6379
   -66.6177 -66.6177 -66.5979 -66.5979 -66.5979 -66.5979 -66.5951 -66.5951
   -66.5887 -66.5887 -66.5887 -66.5886 -66.5880 -66.5880 -66.5763 -66.5763
   -66.5661 -66.5661 -66.5612 -66.5612 -66.5611 -66.5611 -66.5527 -66.5527
   -66.5527 -66.5527 -66.5507 -66.5507 -66.5413 -66.5413 -66.5402 -66.5402
   -66.5369 -66.5369 -66.5369 -66.5369 -66.5294 -66.5294 -66.5252 -66.5252
   -66.5218 -66.5217 -66.5181 -66.5181 -66.5181 -66.5181 -66.5131 -66.5130
   -66.5092 -66.5092 -66.5065 -66.5065 -66.5065 -66.5065 -66.5005 -66.5005
   -66.3015 -66.3015 -66.3014 -66.3013 -66.2785 -66.2785 -66.2785 -66.2785
   -66.2698 -66.2697 -66.2697 -66.2697 -66.2592 -66.2591 -66.2563 -66.2563
   -66.2360 -66.2360 -66.2360 -66.2359 -66.2350 -66.2350 -66.2184 -66.2183
   -66.1427 -66.1426 -66.1288 -66.1288 -66.1287 -66.1287 -66.1112 -66.1112
   -41.3114 -41.3114 -41.2521 -41.2521 -41.2521 -41.2521 -41.2512 -41.2512
   -41.2382 -41.2382 -41.2310 -41.2310 -41.2310 -41.2310 -41.1764 -41.1764
   -41.1715 -41.1715 -41.1635 -41.1635 -41.1635 -41.1635 -41.0905 -41.0905
   -41.0767 -41.0767 -41.0591 -41.0591 -41.0591 -41.0591 -41.0491 -41.0491
   -41.0087 -41.0087 -40.9992 -40.9992 -40.9818 -40.9817 -40.9791 -40.9791
   -40.9791 -40.9791 -40.9717 -40.9717 -40.9509 -40.9508 -40.9508 -40.9508
   -40.9500 -40.9500 -40.9422 -40.9421 -40.9354 -40.9354 -40.9251 -40.9251
   -40.9251 -40.9251 -40.8853 -40.8852 -40.8764 -40.8764 -40.8764 -40.8764
   -40.8591 -40.8591 -40.8519 -40.8519 -40.8519 -40.8519 -40.8251 -40.8251
   -40.8047 -40.8047 -40.7954 -40.7954 -40.7954 -40.7954 -40.7863 -40.7863
   -40.7798 -40.7798 -40.7701 -40.7701 -40.7701 -40.7701 -40.7659 -40.7659
   -40.7436 -40.7436 -40.7252 -40.7252 -40.7245 -40.7245 -40.7245 -40.7245
   -40.7098 -40.7097 -40.6906 -40.6906 -40.6906 -40.6906 -40.6684 -40.6684
   -40.6613 -40.6613 -40.6531 -40.6531 -40.6531 -40.6531 -40.6524 -40.6524
   -40.6416 -40.6416 -40.6412 -40.6412 -40.6339 -40.6339 -40.6339 -40.6339
   -40.6311 -40.6311 -40.6145 -40.6145 -40.6145 -40.6145 -40.6008 -40.6008
   -40.5977 -40.5977 -40.5977 -40.5977 -40.5957 -40.5957 -40.5817 -40.5817
   -40.5794 -40.5794 -40.5658 -40.5658 -40.5658 -40.5658 -40.5506 -40.5506
   -40.5441 -40.5441 -40.5370 -40.5370 -40.5370 -40.5370 -40.5225 -40.5225
   -40.5126 -40.5126 -40.5126 -40.5126 -40.5052 -40.5052 -40.4940 -40.4940
   -40.4908 -40.4908 -40.4908 -40.4908 -40.4888 -40.4888 -40.4790 -40.4789
   -40.4782 -40.4782 -40.4782 -40.4781 -40.4701 -40.4701 -40.4690 -40.4690
   -40.4577 -40.4577 -40.4577 -40.4577 -40.4563 -40.4563 -40.4459 -40.4459
   -40.4310 -40.4309 -40.4309 -40.4309 -40.4295 -40.4295 -40.4281 -40.4281
   -40.4129 -40.4129 -40.4099 -40.4099 -40.4099 -40.4099 -40.3981 -40.3981
   -40.3776 -40.3776 -40.3775 -40.3775 -40.3740 -40.3740 -40.3622 -40.3622
   -40.3456 -40.3456 -40.3359 -40.3359 -40.3359 -40.3359 -40.3274 -40.3274
   -40.3179 -40.3179 -40.3142 -40.3142 -40.3142 -40.3142 -40.3115 -40.3115
   -40.3011 -40.3011 -40.2983 -40.2983 -40.2983 -40.2983 -40.2917 -40.2917
   -40.2731 -40.2731 -40.2731 -40.2731 -40.2722 -40.2721 -40.2625 -40.2625
   -40.2625 -40.2625 -40.2607 -40.2607 -40.2396 -40.2396 -40.2309 -40.2309
   -40.2210 -40.2210 -40.2085 -40.2084 -40.2032 -40.2032 -40.1853 -40.1852
   -40.1852 -40.1852 -40.1770 -40.1770 -40.1770 -40.1770 -40.1721 -40.1721
   -40.1279 -40.1279 -40.1278 -40.1278 -40.1098 -40.1097 -40.1060 -40.1060
   -40.0934 -40.0933 -40.0664 -40.0664 -40.0601 -40.0601 -40.0601 -40.0601
   -39.9839 -39.9839 -39.9775 -39.9775 -39.9775 -39.9775 -39.8946 -39.8946
   -18.2611 -18.2611 -17.8499 -17.8499 -17.5491 -17.5491 -17.5490 -17.5490
   -17.3854 -17.3854 -17.3854 -17.3853 -17.3576 -17.3576 -17.2579 -17.2579
   -17.1827 -17.1827 -17.1568 -17.1568 -17.1567 -17.1567 -16.9861 -16.9861
   -16.9401 -16.9401 -16.9401 -16.9400 -16.8901 -16.8901 -16.8401 -16.8401
   -16.8268 -16.8268 -16.8268 -16.8268 -16.7571 -16.7571 -16.4764 -16.4764
   -15.0651 -15.0651 -14.8754 -14.8754 -14.8753 -14.8753 -14.5815 -14.5815
   -12.2311 -12.2311 -12.1289 -12.1289 -12.0674 -12.0674 -12.0674 -12.0674
   -12.0431 -12.0431 -11.8889 -11.8889 -11.8632 -11.8632 -11.8632 -11.8632
   -11.8074 -11.8074 -11.6663 -11.6663 -11.6117 -11.6117 -11.6117 -11.6117
   -11.5155 -11.5155 -11.4865 -11.4865 -11.4594 -11.4594 -11.4594 -11.4594
   -11.2452 -11.2452 -11.1786 -11.1786 -11.1785 -11.1785 -11.1501 -11.1501
   -11.0625 -11.0625 -11.0487 -11.0486 -11.0486 -11.0486 -10.9458 -10.9458
   -10.9458 -10.9458 -10.9202 -10.9202 -10.8275 -10.8275 -10.8073 -10.8073
   -10.7234 -10.7234 -10.7174 -10.7174 -10.7174 -10.7173 -10.6754 -10.6754
   -10.6107 -10.6107 -10.5171 -10.5171 -10.4862 -10.4862 -10.4232 -10.4232
   -10.4232 -10.4232 -10.3077 -10.3077 -10.3077 -10.3077 -10.2924 -10.2924
   -10.2605 -10.2605 -10.2009 -10.2009 -10.1297 -10.1297 -10.0930 -10.0930
   -10.0930 -10.0930 -10.0229 -10.0229  -9.9716  -9.9716  -9.9716  -9.9716
    -9.9485  -9.9485  -9.9398  -9.9398  -9.9397  -9.9397  -9.7604  -9.7604
    -9.7478  -9.7478  -9.7478  -9.7478  -9.6865  -9.6865  -9.6231  -9.6231
    -9.5706  -9.5706  -9.5705  -9.5705  -9.5429  -9.5429  -9.4769  -9.4769
    -9.4705  -9.4705  -9.2605  -9.2605  -9.2605  -9.2605  -9.0777  -9.0777
    -9.0314  -9.0314  -9.0313  -9.0313  -8.9710  -8.9709  -8.9709  -8.9709
    -8.9647  -8.9647  -8.8429  -8.8429  -8.8102  -8.8102  -8.7305  -8.7305
    -8.6650  -8.6650  -8.6650  -8.6650  -8.6452  -8.6452  -8.6150  -8.6150
    -8.6150  -8.6150  -8.5358  -8.5358  -8.4313  -8.4313  -8.4313  -8.4313
    -8.3885  -8.3885  -8.3552  -8.3552  -8.3301  -8.3301  -8.3301  -8.3301
    -8.2554  -8.2554  -8.2120  -8.2120  -8.2119  -8.2119  -8.1966  -8.1966
    -8.1557  -8.1557  -8.0871  -8.0871  -8.0871  -8.0870  -8.0663  -8.0663
    -8.0361  -8.0361  -7.9990  -7.9990  -7.9949  -7.9949  -7.9949  -7.9949
    -7.8564  -7.8564  -7.8564  -7.8564  -7.8361  -7.8361  -7.8049  -7.8049
    -7.7625  -7.7625  -7.7036  -7.7036  -7.6327  -7.6327  -7.6116  -7.6116
    -7.5700  -7.5700  -7.5700  -7.5700  -7.5376  -7.5376  -7.4998  -7.4998
    -7.4998  -7.4998  -7.4829  -7.4829  -7.4560  -7.4560  -7.3112  -7.3112
    -7.3112  -7.3112  -7.3011  -7.3011  -7.2335  -7.2335  -7.2048  -7.2048
    -7.2048  -7.2048  -7.1523  -7.1523  -7.1411  -7.1411  -7.1358  -7.1358
    -7.1358  -7.1358  -7.1153  -7.1153  -7.0990  -7.0990  -7.0027  -7.0027
    -7.0027  -7.0027  -6.9893  -6.9893  -6.9634  -6.9634  -6.8623  -6.8623
    -6.8069  -6.8069  -6.7720  -6.7720  -6.7554  -6.7554  -6.7553  -6.7553
    -6.6966  -6.6966  -6.6900  -6.6900  -6.6105  -6.6105  -6.5862  -6.5862
    -6.5862  -6.5862  -6.4934  -6.4934  -6.4743  -6.4743  -6.4743  -6.4743
    -6.4667  -6.4667  -6.3868  -6.3868  -6.3537  -6.3537  -6.2880  -6.2880
    -6.2880  -6.2880  -6.1854  -6.1854  -6.1155  -6.1155  -6.0132  -6.0132
    -5.9693  -5.9693  -5.9693  -5.9693  -5.8899  -5.8899  -5.8899  -5.8899
    -5.7846  -5.7846  -5.6955  -5.6955  -5.6530  -5.6530  -5.6398  -5.6398
    -5.6398  -5.6398  -5.6164  -5.6164  -5.5390  -5.5390  -5.5390  -5.5390
    -5.4963  -5.4963  -5.4402  -5.4402  -5.4010  -5.4010  -5.2815  -5.2815
    -5.2815  -5.2815  -5.2708  -5.2708  -5.1836  -5.1836  -5.1783  -5.1783
    -5.1783  -5.1783  -5.1728  -5.1727  -5.1109  -5.1109  -5.0942  -5.0942
    -5.0942  -5.0942  -5.0678  -5.0678  -4.9421  -4.9421  -4.9421  -4.9421
    -4.9389  -4.9389  -4.8826  -4.8826  -4.8089  -4.8089  -4.7679  -4.7679
    -4.7679  -4.7679  -4.7067  -4.7067  -4.6521  -4.6521  -4.6521  -4.6521
    -4.6261  -4.6261  -4.5424  -4.5424  -4.5266  -4.5266  -4.4794  -4.4794
    -4.4794  -4.4794  -4.4437  -4.4437  -4.3778  -4.3778  -4.3215  -4.3215
    -4.3127  -4.3127  -4.3127  -4.3127  -4.2024  -4.2024  -4.1735  -4.1735
    -4.1730  -4.1730  -4.1729  -4.1729  -4.0826  -4.0825  -4.0825  -4.0825
    -4.0816  -4.0816  -3.9779  -3.9778  -3.9752  -3.9752  -3.9281  -3.9280
    -3.9280  -3.9280  -3.8572  -3.8572  -3.8287  -3.8286  -3.8286  -3.8286
    -3.7674  -3.7674  -3.7518  -3.7518  -3.7518  -3.7518  -3.7415  -3.7415
    -3.6976  -3.6976  -3.6609  -3.6609  -3.6586  -3.6585  -3.6585  -3.6585
    -3.6179  -3.6179  -3.5617  -3.5617  -3.5520  -3.5520  -3.5520  -3.5519
    -3.5420  -3.5420  -3.4873  -3.4873  -3.4294  -3.4293  -3.4292  -3.4292
    -3.3841  -3.3840  -3.3623  -3.3622  -3.3591  -3.3590  -3.3589  -3.3589
    -3.3381  -3.3381  -3.2784  -3.2783  -3.2782  -3.2781  -3.2774  -3.2772
    -3.2505  -3.2504  -3.1844  -3.1843  -3.1840  -3.1838  -3.1603  -3.1602
    -3.0947  -3.0946  -3.0944  -3.0941  -3.0837  -3.0835  -3.0418  -3.0414
    -3.0275  -3.0268  -2.9489  -2.9486  -2.9486  -2.9484  -2.8650  -2.8649
    -2.7868  -2.7858

          k =-0.5000-0.5797 0.0000 (269196 PWs)   bands (ev):

   -66.6695 -66.6695 -66.6695 -66.6695 -66.6284 -66.6284 -66.6284 -66.6284
   -66.6153 -66.6153 -66.6153 -66.6153 -66.5980 -66.5980 -66.5979 -66.5979
   -66.5840 -66.5840 -66.5840 -66.5840 -66.5744 -66.5744 -66.5744 -66.5744
   -66.5701 -66.5701 -66.5701 -66.5701 -66.5585 -66.5585 -66.5585 -66.5585
   -66.5465 -66.5465 -66.5465 -66.5465 -66.5383 -66.5383 -66.5383 -66.5383
   -66.5350 -66.5350 -66.5350 -66.5350 -66.5324 -66.5324 -66.5323 -66.5323
   -66.5271 -66.5271 -66.5271 -66.5271 -66.5115 -66.5115 -66.5115 -66.5115
   -66.5081 -66.5081 -66.5081 -66.5081 -66.5023 -66.5023 -66.5023 -66.5023
   -66.2944 -66.2944 -66.2944 -66.2944 -66.2919 -66.2919 -66.2919 -66.2919
   -66.2644 -66.2644 -66.2643 -66.2643 -66.2551 -66.2551 -66.2551 -66.2551
   -66.2400 -66.2399 -66.2399 -66.2399 -66.2244 -66.2243 -66.2243 -66.2243
   -66.1391 -66.1390 -66.1390 -66.1390 -66.1167 -66.1167 -66.1167 -66.1166
   -41.2932 -41.2932 -41.2932 -41.2932 -41.2323 -41.2323 -41.2323 -41.2323
   -41.2224 -41.2224 -41.2224 -41.2224 -41.2062 -41.2062 -41.2061 -41.2061
   -41.1396 -41.1396 -41.1396 -41.1396 -41.1370 -41.1370 -41.1370 -41.1370
   -41.0953 -41.0953 -41.0953 -41.0953 -41.0484 -41.0484 -41.0484 -41.0484
   -41.0340 -41.0340 -41.0340 -41.0340 -41.0030 -41.0030 -41.0030 -41.0030
   -40.9917 -40.9917 -40.9917 -40.9917 -40.9621 -40.9621 -40.9621 -40.9621
   -40.9427 -40.9427 -40.9427 -40.9427 -40.9287 -40.9287 -40.9286 -40.9286
   -40.8935 -40.8935 -40.8935 -40.8935 -40.8758 -40.8758 -40.8758 -40.8758
   -40.8513 -40.8513 -40.8513 -40.8513 -40.8307 -40.8307 -40.8307 -40.8307
   -40.8143 -40.8143 -40.8143 -40.8143 -40.7844 -40.7844 -40.7844 -40.7844
   -40.7714 -40.7714 -40.7714 -40.7714 -40.7407 -40.7407 -40.7407 -40.7407
   -40.7110 -40.7110 -40.7110 -40.7110 -40.7042 -40.7042 -40.7042 -40.7042
   -40.6916 -40.6916 -40.6916 -40.6916 -40.6828 -40.6828 -40.6828 -40.6828
   -40.6654 -40.6654 -40.6654 -40.6654 -40.6471 -40.6471 -40.6471 -40.6471
   -40.6430 -40.6430 -40.6430 -40.6430 -40.6304 -40.6304 -40.6303 -40.6303
   -40.6108 -40.6108 -40.6108 -40.6108 -40.6034 -40.6034 -40.6033 -40.6033
   -40.5975 -40.5975 -40.5974 -40.5974 -40.5784 -40.5784 -40.5784 -40.5784
   -40.5725 -40.5725 -40.5725 -40.5725 -40.5599 -40.5599 -40.5599 -40.5599
   -40.5559 -40.5559 -40.5558 -40.5558 -40.5416 -40.5416 -40.5416 -40.5416
   -40.5359 -40.5359 -40.5359 -40.5359 -40.5142 -40.5142 -40.5142 -40.5142
   -40.5077 -40.5077 -40.5077 -40.5077 -40.4911 -40.4911 -40.4911 -40.4911
   -40.4791 -40.4791 -40.4791 -40.4791 -40.4655 -40.4655 -40.4655 -40.4655
   -40.4629 -40.4629 -40.4629 -40.4629 -40.4546 -40.4546 -40.4546 -40.4546
   -40.4361 -40.4361 -40.4361 -40.4361 -40.4184 -40.4184 -40.4184 -40.4184
   -40.4058 -40.4058 -40.4058 -40.4058 -40.3824 -40.3824 -40.3824 -40.3824
   -40.3747 -40.3747 -40.3747 -40.3747 -40.3669 -40.3669 -40.3669 -40.3669
   -40.3582 -40.3582 -40.3582 -40.3582 -40.3350 -40.3350 -40.3349 -40.3349
   -40.3120 -40.3120 -40.3120 -40.3120 -40.3059 -40.3059 -40.3059 -40.3059
   -40.2991 -40.2991 -40.2991 -40.2991 -40.2862 -40.2862 -40.2862 -40.2862
   -40.2725 -40.2725 -40.2725 -40.2725 -40.2606 -40.2606 -40.2606 -40.2606
   -40.2479 -40.2479 -40.2479 -40.2479 -40.2388 -40.2388 -40.2388 -40.2388
   -40.2154 -40.2154 -40.2154 -40.2154 -40.2091 -40.2091 -40.2091 -40.2091
   -40.1833 -40.1833 -40.1833 -40.1833 -40.1558 -40.1557 -40.1557 -40.1557
   -40.1520 -40.1520 -40.1520 -40.1520 -40.0927 -40.0927 -40.0927 -40.0927
   -40.0886 -40.0886 -40.0885 -40.0885 -40.0590 -40.0590 -40.0590 -40.0590
   -39.9970 -39.9970 -39.9970 -39.9969 -39.9226 -39.9226 -39.9226 -39.9226
   -18.0447 -18.0447 -18.0447 -18.0447 -17.7052 -17.7052 -17.7052 -17.7052
   -17.2986 -17.2986 -17.2986 -17.2986 -17.1886 -17.1886 -17.1886 -17.1886
   -17.1504 -17.1504 -17.1504 -17.1504 -17.1027 -17.1027 -17.1027 -17.1027
   -16.9763 -16.9763 -16.9763 -16.9763 -16.9345 -16.9345 -16.9345 -16.9344
   -16.8105 -16.8105 -16.8104 -16.8104 -16.5749 -16.5749 -16.5749 -16.5749
   -15.0222 -15.0222 -15.0222 -15.0222 -14.6748 -14.6748 -14.6748 -14.6747
   -12.1484 -12.1484 -12.1484 -12.1484 -12.1182 -12.1182 -12.1182 -12.1182
   -11.8826 -11.8826 -11.8826 -11.8826 -11.8202 -11.8202 -11.8202 -11.8202
   -11.7555 -11.7555 -11.7555 -11.7555 -11.6414 -11.6414 -11.6413 -11.6413
   -11.4773 -11.4773 -11.4773 -11.4773 -11.4416 -11.4416 -11.4415 -11.4415
   -11.3211 -11.3211 -11.3211 -11.3211 -11.2875 -11.2875 -11.2875 -11.2875
   -11.2659 -11.2659 -11.2659 -11.2659 -11.0302 -11.0302 -11.0302 -11.0302
   -10.8111 -10.8111 -10.8111 -10.8111 -10.7967 -10.7967 -10.7967 -10.7967
[...]
     atom   60 type  2   force =    -0.00005406    0.00000237    0.00001896
     atom   61 type  1   force =     0.00000235   -0.00000146    0.00281269
     atom   62 type  1   force =     0.00003361   -0.00004562    0.00606877
     atom   63 type  1   force =     0.00006084   -0.00000419    0.00239635
     atom   64 type  1   force =    -0.00002775    0.00003470    0.00648743
     atom   65 type  1   force =     0.00002773    0.00003472    0.00648745
     atom   66 type  1   force =    -0.00006084   -0.00000418    0.00239639
     atom   67 type  1   force =    -0.00003361   -0.00004566    0.00606878
     atom   68 type  1   force =    -0.00000234   -0.00000147    0.00281270
     atom   69 type  2   force =     0.00002220    0.00001549    0.00307414
     atom   70 type  2   force =    -0.00002219    0.00001549    0.00307414
     atom   71 type  2   force =     0.00007573   -0.00000325    0.00158579
     atom   72 type  2   force =    -0.00007573   -0.00000325    0.00158580
     atom   73 type  1   force =     0.00020101   -0.00014980   -0.00661755
     atom   74 type  1   force =     0.00016716   -0.00001361   -0.00367364
     atom   75 type  1   force =     0.00015562    0.00013672   -0.00678300
     atom   76 type  1   force =     0.00010682    0.00001969   -0.00344277
     atom   77 type  1   force =    -0.00010692    0.00001972   -0.00344278
     atom   78 type  1   force =    -0.00015572    0.00013670   -0.00678299
     atom   79 type  1   force =    -0.00016720   -0.00001361   -0.00367367
     atom   80 type  1   force =    -0.00020105   -0.00014983   -0.00661752
     atom   81 type  2   force =    -0.00003120   -0.00000095   -0.00018552
     atom   82 type  2   force =     0.00003117   -0.00000095   -0.00018552
     atom   83 type  2   force =    -0.00001096    0.00001029   -0.00206835
     atom   84 type  2   force =     0.00001095    0.00001028   -0.00206835
     atom   85 type  1   force =    -0.00005056    0.00000064    0.00026003
     atom   86 type  1   force =     0.00003924   -0.00000033   -0.00014225
     atom   87 type  1   force =     0.00006648   -0.00001137   -0.00022016
     atom   88 type  1   force =    -0.00004171    0.00001192    0.00031572
     atom   89 type  1   force =     0.00004168    0.00001191    0.00031571
     atom   90 type  1   force =    -0.00006654   -0.00001137   -0.00022019
     atom   91 type  1   force =    -0.00003924   -0.00000036   -0.00014223
     atom   92 type  1   force =     0.00005053    0.00000064    0.00025999
     atom   93 type  2   force =    -0.00005693   -0.00000117    0.00011336
     atom   94 type  2   force =     0.00005693   -0.00000118    0.00011336
     atom   95 type  2   force =     0.00005405    0.00000237    0.00001897
     atom   96 type  2   force =    -0.00005406    0.00000236    0.00001895
     atom   97 type  1   force =     0.00000234   -0.00000146    0.00281269
     atom   98 type  1   force =     0.00003361   -0.00004562    0.00606878
     atom   99 type  1   force =     0.00006084   -0.00000419    0.00239635
     atom  100 type  1   force =    -0.00002774    0.00003470    0.00648743
     atom  101 type  1   force =     0.00002774    0.00003472    0.00648744
     atom  102 type  1   force =    -0.00006084   -0.00000418    0.00239638
     atom  103 type  1   force =    -0.00003361   -0.00004566    0.00606877
     atom  104 type  1   force =    -0.00000233   -0.00000147    0.00281268
     atom  105 type  2   force =     0.00002220    0.00001549    0.00307414
     atom  106 type  2   force =    -0.00002219    0.00001549    0.00307415
     atom  107 type  2   force =     0.00007573   -0.00000325    0.00158579
     atom  108 type  2   force =    -0.00007573   -0.00000325    0.00158579
     atom  109 type  1   force =     0.00020101   -0.00014980   -0.00661755
     atom  110 type  1   force =     0.00016716   -0.00001361   -0.00367365
     atom  111 type  1   force =     0.00015562    0.00013672   -0.00678300
     atom  112 type  1   force =     0.00010682    0.00001969   -0.00344276
     atom  113 type  1   force =    -0.00010692    0.00001972   -0.00344278
     atom  114 type  1   force =    -0.00015572    0.00013669   -0.00678300
     atom  115 type  1   force =    -0.00016720   -0.00001362   -0.00367367
     atom  116 type  1   force =    -0.00020105   -0.00014983   -0.00661752
     atom  117 type  2   force =    -0.00003121   -0.00000096   -0.00018552
     atom  118 type  2   force =     0.00003117   -0.00000095   -0.00018552
     atom  119 type  2   force =    -0.00001096    0.00001029   -0.00206835
     atom  120 type  2   force =     0.00001095    0.00001028   -0.00206835
     atom  121 type  1   force =    -0.00005056    0.00000064    0.00026003
     atom  122 type  1   force =     0.00003924   -0.00000032   -0.00014225
     atom  123 type  1   force =     0.00006648   -0.00001137   -0.00022016
     atom  124 type  1   force =    -0.00004171    0.00001192    0.00031572
     atom  125 type  1   force =     0.00004168    0.00001192    0.00031571
     atom  126 type  1   force =    -0.00006654   -0.00001138   -0.00022019
     atom  127 type  1   force =    -0.00003924   -0.00000036   -0.00014223
     atom  128 type  1   force =     0.00005053    0.00000064    0.00025999
     atom  129 type  2   force =    -0.00005693   -0.00000117    0.00011336
     atom  130 type  2   force =     0.00005693   -0.00000118    0.00011336
     atom  131 type  2   force =     0.00005405    0.00000237    0.00001897
     atom  132 type  2   force =    -0.00005406    0.00000236    0.00001895
     atom  133 type  1   force =     0.00000234   -0.00000146    0.00281269
     atom  134 type  1   force =     0.00003361   -0.00004562    0.00606878
     atom  135 type  1   force =     0.00006084   -0.00000419    0.00239635
     atom  136 type  1   force =    -0.00002774    0.00003470    0.00648743
     atom  137 type  1   force =     0.00002774    0.00003472    0.00648744
     atom  138 type  1   force =    -0.00006084   -0.00000418    0.00239638
     atom  139 type  1   force =    -0.00003361   -0.00004566    0.00606878
     atom  140 type  1   force =    -0.00000233   -0.00000147    0.00281269
     atom  141 type  2   force =     0.00002220    0.00001549    0.00307414
     atom  142 type  2   force =    -0.00002219    0.00001549    0.00307415
     atom  143 type  2   force =     0.00007573   -0.00000325    0.00158579
     atom  144 type  2   force =    -0.00007573   -0.00000325    0.00158579

     Total force =     0.004894     Total SCF correction =     0.000457
     Energy error            =      7.7E-05 Ry
     Gradient error          =      7.2E-04 Ry/Bohr

     bfgs converged in  16 scf cycles and  15 bfgs steps
     (criteria: energy <  1.0E-04 Ry, force <  1.0E-03 Ry/Bohr)

     End of BFGS Geometry Optimization

     Final energy             =  -35823.3347418833 Ry

     File ./outdir/pwscf.bfgs deleted, as requested
Begin final coordinates

ATOMIC_POSITIONS (angstrom)
Mo            0.8592050484        4.6968399698        6.3854437575
Mo            5.2759630267        0.4332147477        4.1330795760
Mo            2.3435678644        2.2623828045        6.3231283430
Mo            3.7337552774        3.0004791598        4.1689333585
Mo            2.2847831623        0.4050598301        4.1689411700
Mo            3.6749612282        4.8577717507        6.3231375011
Mo            0.7425619840        3.0286569916        4.1330807547
Mo            5.1593105527        2.1013861946        6.3854311635
C             2.2565276191        3.8907730307        2.9330488665
C             3.7619921611        1.2953291475        2.9330455711
C             0.7666160238        1.2995680122        5.3794456273
C             5.2519001235        3.8950021564        5.3794593470
Mo            0.7185333527        4.7781466859        1.7929670800
Mo            5.2916867779        0.4099522816       -0.6293485596
Mo            2.2960339461        2.1804155369        1.7431917905
Mo            3.7472278251        3.0202534981       -0.5820282450
Mo            2.2712787898        0.4248115829       -0.5820327190
Mo            3.7224832368        4.7758410985        1.7431940436
Mo            0.7268169084        3.0053739233       -0.6293584143
Mo            5.2999757889        2.1827225108        1.7929673168
C             2.2609228006        3.8922650185       -1.7802181475
C             3.7575785951        1.2968247551       -1.7802065286
C             0.7430651772        1.3008102705        0.5890657009
C             5.2754518719        3.8962505881        0.5890618961
Mo            0.7392105756        4.7791954402       -2.9392457793    0   0   0
Mo            5.2792550740        0.4116489383       -5.3373192489    0   0   0
Mo            2.2700062900        2.1837784669       -2.9781375540    0   0   0
Mo            3.7485174550        3.0070801527       -5.2984059967    0   0   0
Mo            2.2700043739        0.4116549906       -5.2984173544    0   0   0
Mo            3.7485193634        4.7792018663       -2.9781516249    0   0   0
Mo            0.7392115981        3.0070813012       -5.3373096518    0   0   0
Mo            5.2792574965        2.1837860728       -2.9392414489    0   0   0
C             2.2717315327        3.8931508101       -6.4974500812    0   0   0
C             3.7467836331        1.2977010934       -6.4974591991    0   0   0
C             0.7374841693        1.2977089480       -4.1382758437    0   0   0
C             5.2809921917        3.8931528803       -4.1382801064    0   0   0
Mo            0.8592015909        9.8876943092        6.3854455481
Mo            5.2759588846        5.6240701713        4.1330812036
Mo            2.3435647654        7.4532386724        6.3231274107
Mo            3.7337524610        8.1913350796        4.1689322846
Mo            2.2847779070        5.5959167492        4.1689408679
Mo            3.6749574099       10.0486276301        6.3231399437
Mo            0.7425576553        8.2195110853        4.1330792454
Mo            5.1593062871        7.2922411403        6.3854316592
C             2.2565230033        9.0816285957        2.9330490437
C             3.7619886636        6.4861835112        2.9330457248
C             0.7666120550        6.4904248665        5.3794458609
C             5.2518967154        9.0858575949        5.3794597817
Mo            0.7185289363        9.9690023085        1.7929666762
Mo            5.2916828580        5.6008099663       -0.6293481959
Mo            2.2960286174        7.3712723789        1.7431909570
Mo            3.7472232636        8.2111089127       -0.5820288912
Mo            2.2712737279        5.6156703993       -0.5820329009
Mo            3.7224801406        9.9666967891        1.7431944747
Mo            0.7268127420        8.1962309830       -0.6293602356
Mo            5.2999718187        7.3735795514        1.7929675671
C             2.2609194393        9.0831204833       -1.7802175659
C             3.7575742518        6.4876802823       -1.7802078231
C             0.7430607986        6.4916658235        0.5890649930
C             5.2754472896        9.0871054005        0.5890604822
Mo            0.7392063616        9.9700515792       -2.9392457793    0   0   0
Mo            5.2792508601        5.6025050773       -5.3373192489    0   0   0
Mo            2.2700020761        7.3746346059       -2.9781375540    0   0   0
Mo            3.7485132410        8.1979362917       -5.2984059967    0   0   0
Mo            2.2700001600        5.6025111296       -5.2984173544    0   0   0
Mo            3.7485151494        9.9700580053       -2.9781516249    0   0   0
Mo            0.7392073841        8.1979374402       -5.3373096518    0   0   0
Mo            5.2792532826        7.3746422118       -2.9392414489    0   0   0
C             2.2717273188        9.0840069491       -6.4974500812    0   0   0
C             3.7467794192        6.4885572324       -6.4974591991    0   0   0
C             0.7374799553        6.4885650870       -4.1382758437    0   0   0
C             5.2809879778        9.0840090193       -4.1382801064    0   0   0
Mo            6.8777365412        4.6968371472        6.3854427057
Mo           11.2945004074        0.4332109688        4.1330726516
Mo            8.3620773790        2.2623815127        6.3231382286
Mo            9.7522735143        3.0004770205        4.1689353457
Mo            8.3032991310        0.4050583954        4.1689394076
Mo            9.6934724925        4.8577670020        6.3231410480
Mo            6.7610897341        3.0286584051        4.1330840947
Mo           11.1778390922        2.1013867999        6.3854290795
C             8.2750619605        3.8907753020        2.9330511721
C             9.7805218631        1.2953326496        2.9330488190
C             6.7851583705        1.2995704437        5.3794437677
C            11.2704294154        3.8950023828        5.3794569169
Mo            6.7370666690        4.7781497241        1.7929710262
Mo           11.3102305821        0.4099536800       -0.6293603310
Mo            8.3145568459        2.1804133277        1.7431976850
Mo            9.7657692763        3.0202561331       -0.5820373542
Mo            8.2898104227        0.4248141187       -0.5820358904
Mo            9.7410169409        4.7758431968        1.7431867168
Mo            6.7453526262        3.0053727548       -0.6293499156
Mo           11.3185195802        2.1827228625        1.7929610602
C             8.2794566712        3.8922635255       -1.7802172268
C             9.7761154445        1.2968232267       -1.7802051106
C             6.7615975052        1.3008110773        0.5890628016
C            11.2939870914        3.8962503470        0.5890590440
Mo            6.7577491966        4.7791954402       -2.9392457793    0   0   0
Mo           11.2977936950        0.4116489383       -5.3373192489    0   0   0
Mo            8.2885449110        2.1837784669       -2.9781375540    0   0   0
Mo            9.7670560760        3.0070801527       -5.2984059967    0   0   0
Mo            8.2885429949        0.4116549906       -5.2984173544    0   0   0
Mo            9.7670579844        4.7792018663       -2.9781516249    0   0   0
Mo            6.7577502191        3.0070813012       -5.3373096518    0   0   0
Mo           11.2977961175        2.1837860728       -2.9392414489    0   0   0
C             8.2902701537        3.8931508101       -6.4974500812    0   0   0
C             9.7653222541        1.2977010934       -6.4974591991    0   0   0
C             6.7560227903        1.2977089480       -4.1382758437    0   0   0
C            11.2995308127        3.8931528803       -4.1382801064    0   0   0
Mo            6.8777287928        9.8876922245        6.3854447451
Mo           11.2944964606        5.6240668663        4.1330735259
Mo            8.3620749252        7.4532376601        6.3231384148
Mo            9.7522699455        8.1913325527        4.1689333484
Mo            8.3032938342        5.5959155956        4.1689397244
Mo            9.6934678962       10.0486203017        6.3231441570
Mo            6.7610849194        8.2195118817        4.1330833418
Mo           11.1778343904        7.2922410918        6.3854309194
C             8.2750568154        9.0816305438        2.9330523057
C             9.7805179904        6.4861870111        2.9330488929
C             6.7851540556        6.4904274218        5.3794449581
C            11.2704251677        9.0858571863        5.3794567992
Mo            6.7370624126        9.9690053727        1.7929704203
Mo           11.3102269031        5.6008114913       -0.6293605588
Mo            8.3145521151        7.3712705648        1.7431968437
Mo            9.7657635391        8.2111113994       -0.5820376705
Mo            8.2898049390        5.6156728029       -0.5820360028
Mo            9.7410131774        9.9666983929        1.7431866819
Mo            6.7453485448        8.1962301775       -0.6293512679
Mo           11.3185149908        7.3735791786        1.7929610966
C             8.2794533049        9.0831186752       -1.7802163431
C             9.7761111348        6.4876792131       -1.7802063187
C             6.7615930577        6.4916667050        0.5890629156
C            11.2939827382        9.0871053912        0.5890577233
Mo            6.7577449826        9.9700515792       -2.9392457793    0   0   0
Mo           11.2977894811        5.6025050773       -5.3373192489    0   0   0
Mo            8.2885406971        7.3746346059       -2.9781375540    0   0   0
Mo            9.7670518620        8.1979362917       -5.2984059967    0   0   0
Mo            8.2885387810        5.6025111296       -5.2984173544    0   0   0
Mo            9.7670537704        9.9700580053       -2.9781516249    0   0   0
Mo            6.7577460051        8.1979374402       -5.3373096518    0   0   0
Mo           11.2977919036        7.3746422118       -2.9392414489    0   0   0
C             8.2902659398        9.0840069491       -6.4974500812    0   0   0
C             9.7653180402        6.4885572324       -6.4974591991    0   0   0
C             6.7560185763        6.4885650870       -4.1382758437    0   0   0
C            11.2995265988        9.0840090193       -4.1382801064    0   0   0
End final coordinates



     Writing all to output data dir ./outdir/pwscf.save/
 
     init_run     :     98.60s CPU    100.57s WALL (       1 calls)
     electrons    : 155628.47s CPU 157304.97s WALL (      16 calls)
     update_pot   :     37.94s CPU     38.15s WALL (      15 calls)
     forces       :    867.10s CPU    887.05s WALL (      16 calls)
     force_dftd3  :      8.99s CPU      8.98s WALL (      16 calls)

     Called by init_run:
     wfcinit      :     84.54s CPU     85.89s WALL (       1 calls)
     potinit      :      1.29s CPU      1.37s WALL (       1 calls)
     hinit0       :      9.42s CPU      9.44s WALL (       1 calls)

     Called by electrons:
     c_bands      : 137979.40s CPU 139087.40s WALL (     546 calls)
     sum_band     :  16619.16s CPU  16938.30s WALL (     546 calls)
     v_of_rho     :    183.16s CPU    184.32s WALL (     555 calls)
     newd         :    483.90s CPU    734.01s WALL (     555 calls)
     PAW_pot      :    265.80s CPU    265.87s WALL (     570 calls)
     mix_rho      :     53.92s CPU     54.01s WALL (     546 calls)
     energy_dftd3 :      4.73s CPU      4.72s WALL (      16 calls)

     Called by c_bands:
     init_us_2    :    555.54s CPU    555.77s WALL (    4496 calls)
     init_us_2:cp :    555.52s CPU    555.76s WALL (    4496 calls)
     cegterg      : 136061.76s CPU 137163.28s WALL (    2242 calls)

     Called by *egterg:
     cdiaghg      :   9530.06s CPU   9561.33s WALL (   14980 calls)
     h_psi        :  70600.20s CPU  70909.93s WALL (   15092 calls)
     s_psi        :  12165.24s CPU  12166.05s WALL (   15092 calls)
     g_psi        :    177.13s CPU    177.34s WALL (   12846 calls)

     Called by h_psi:
     h_psi:calbec :  12676.11s CPU  12678.83s WALL (   15092 calls)
     vloc_psi     :  45499.55s CPU  45615.48s WALL (   15092 calls)
     add_vuspsi   :  12229.14s CPU  12231.21s WALL (   15092 calls)

     General routines
     calbec       :  17821.60s CPU  17825.25s WALL (   17592 calls)
     fft          :    159.22s CPU    160.95s WALL (    7381 calls)
     ffts         :      7.97s CPU      7.98s WALL (    1101 calls)
     fftw         :  38879.50s CPU  38972.52s WALL (12997240 calls)
     interpolate  :     18.28s CPU     18.35s WALL (     555 calls)
 
     Parallel routines
 
     PWSCF        :   1d19h35m CPU   1d20h 4m WALL

 
   This run was terminated on:  19:51:41  19Dec2023            

=------------------------------------------------------------------------------=
   JOB DONE.
=------------------------------------------------------------------------------=
Application 11516205 resources: utime ~5648106s, stime ~62700s, Rss ~2077596, inblocks ~0, outblocks ~35889192
