lammps.data (written by ASE) 

5400 	 atoms 
2  atom types
0.0      28.730159999999998  xlo xhi
0.0      27.645609350000001  ylo yhi
0.0      150.22200000000001  zlo zhi
                      0                       0                       0  xy xz yz


Atoms 

     1   2      1.5961359612000001     0.92151109646355012      113.46568104000002
     2   2  1.5961200000000019e-05      3.6860720314635502      113.46568104000002
     3   2      1.5961359612000001     0.92151109646355012      73.330869300000003
     4   2      1.5961359612000001     0.92151109646355012      110.33655678000002
     5   2      1.5961359612000001     0.92151109646355012      46.573326659999999
     6   2  1.5961200000000019e-05      3.6860720314635502      73.330869300000003
     7   2  1.5961200000000019e-05      3.6860720314635502      110.33655678000002
     8   1      3.1922240388000005      1.8430498385364502      31.632246540000008
     9   2      1.5961359612000001     0.92151109646355012      126.84445236000001
    10   2  1.5961200000000019e-05      3.6860720314635502      46.573326659999999
    11   1      1.5961040388000001      4.6076107735364502      31.632246540000008
    12   2  1.5961200000000019e-05      3.6860720314635502      126.84445236000001
    13   2      3.1922240388000005      1.8430498385364502      106.77629538000001
    14   2      1.5961359612000001     0.92151109646355012      70.201745040000006
    15   2  1.5961200000000019e-05      3.6860720314635502      70.201745040000006
    16   2      1.5961359612000001     0.92151109646355012      43.445704620000015
    17   1      3.1922240388000005      1.8430498385364502      71.767058280000001
    18   2  1.5961200000000019e-05      3.6860720314635502      43.445704620000015
    19   1      1.5961359612000001     0.92151109646355012      24.942860880000005
    20   1      1.5961040388000001      4.6076107735364502      71.767058280000001
    21   1  1.5961200000000019e-05      3.6860720314635502      24.942860880000005
    22   2      1.5961359612000001     0.92151109646355012      123.71532810000001
    23   2  1.5961200000000019e-05      3.6860720314635502      123.71532810000001
    24   2      3.1922240388000005      1.8430498385364502      66.641483640000004
    25   2      1.5961040388000001      4.6076107735364502      66.641483640000004
    26   2      3.1922240388000005      1.8430498385364502      39.885443220000006
    27   1      1.5961359612000001     0.92151109646355012      65.077672620000001
    28   2      1.5961040388000001      4.6076107735364502      39.885443220000006
    29   1  1.5961200000000019e-05      3.6860720314635502      65.077672620000001
    30   2      3.1922240388000005      1.8430498385364502      120.15506670000002
    31   2      3.1922240388000005      1.8430498385364502      23.377547640000003
    32   2      1.5961040388000001      4.6076107735364502      120.15506670000002
    33   2      1.5961040388000001      4.6076107735364502      23.377547640000003
    34   2      1.5961359612000001     0.92151109646355012      59.952097980000012
    35   1      3.1922240388000005      1.8430498385364502      18.253475220000006
    36   2  1.5961200000000019e-05      3.6860720314635502      59.952097980000012
    37   1      1.5961040388000001      4.6076107735364502      18.253475220000006
    38   2      3.1922240388000005      1.8430498385364502      63.513861600000013
    39   1      3.1922240388000005      1.8430498385364502      58.388286960000016
    40   2      1.5961359612000001     0.92151109646355012      19.817286240000001
    41   2      1.5961359612000001     0.92151109646355012      56.824475939999999
    42   2      1.5961040388000001      4.6076107735364502      63.513861600000013
    43   2  1.5961200000000019e-05      3.6860720314635502      19.817286240000001
    44   1      1.5961040388000001      4.6076107735364502      58.388286960000016
    45   2  1.5961200000000019e-05      3.6860720314635502      56.824475939999999
    46   1      1.5961359612000001     0.92151109646355012      11.564089560000001
    47   1  1.5961200000000019e-05      3.6860720314635502      11.564089560000001
    48   2      1.5961359612000001     0.92151109646355012      16.689664200000003
    49   2      3.1922240388000005      1.8430498385364502      53.262712319999999
    50   2  1.5961200000000019e-05      3.6860720314635502      16.689664200000003
    51   2      1.5961040388000001      4.6076107735364502      53.262712319999999
    52   1      1.5961359612000001     0.92151109646355012      51.698901300000003
    53   2      3.1922240388000005      1.8430498385364502      10.000278540000004
    54   1  1.5961200000000019e-05      3.6860720314635502      51.698901300000003
    55   2      1.5961040388000001      4.6076107735364502      10.000278540000004
    56   2      3.1922240388000005      1.8430498385364502      13.127900580000002
    57   2      1.5961040388000001      4.6076107735364502      13.127900580000002
    58   2      3.1922240388000005      1.8430498385364502             50.13509028
    59   2      1.5961040388000001      4.6076107735364502             50.13509028
    60   1      3.1922240388000005      1.8430498385364502      85.144327380000007
    61   1      1.5961040388000001      4.6076107735364502      85.144327380000007
    62   1      1.5961359612000001     0.92151109646355012      78.454941719999994
    63   1  1.5961200000000019e-05      3.6860720314635502      78.454941719999994
    64   2      3.1922240388000005      1.8430498385364502      76.891130700000005
    65   2      1.5961040388000001      4.6076107735364502      76.891130700000005
    66   1      3.1922240388000005      1.8430498385364502      111.90187002000002
    67   1      1.5961040388000001      4.6076107735364502      111.90187002000002
    68   1      1.5961359612000001     0.92151109646355012            105.21248436
    69   1  1.5961200000000019e-05      3.6860720314635502            105.21248436
    70   2      3.1922240388000005      1.8430498385364502            103.64867334
    71   2      1.5961040388000001      4.6076107735364502            103.64867334
    72   1      3.1922240388000005      1.8430498385364502      98.523098700000006
    73   1      1.5961040388000001      4.6076107735364502      98.523098700000006
    74   1      1.5961359612000001     0.92151109646355012      91.833713040000021
    75   1  1.5961200000000019e-05      3.6860720314635502      91.833713040000021
    76   2      3.1922240388000005      1.8430498385364502      90.269902020000032
    77   2      1.5961040388000001      4.6076107735364502      90.269902020000032
    78   1      3.1922240388000005      1.8430498385364502      125.27913912000001
    79   1      1.5961040388000001      4.6076107735364502      125.27913912000001
    80   1      1.5961359612000001     0.92151109646355012            118.58975346
    81   1  1.5961200000000019e-05      3.6860720314635502            118.58975346
    82   2      3.1922240388000005      1.8430498385364502      117.02594244000001
    83   2      1.5961040388000001      4.6076107735364502      117.02594244000001
    84   2      1.5961359612000001     0.92151109646355012       86.70813840000001
    85   2  1.5961200000000019e-05      3.6860720314635502       86.70813840000001
    86   2      1.5961359612000001     0.92151109646355012      83.580516360000004
    87   2  1.5961200000000019e-05      3.6860720314635502      83.580516360000004
    88   2      3.1922240388000005      1.8430498385364502      80.020254960000031
    89   2      1.5961040388000001      4.6076107735364502      80.020254960000031
    90   1      3.1922240388000005      1.8430498385364502      45.009515640000004
    91   1      1.5961040388000001      4.6076107735364502      45.009515640000004
    92   2      1.5961359612000001     0.92151109646355012            140.22172146
    93   1      1.5961359612000001     0.92151109646355012      38.320129979999997
    94   2      1.5961359612000001     0.92151109646355012      100.08690971999999
    95   2  1.5961200000000019e-05      3.6860720314635502            140.22172146
    96   1  1.5961200000000019e-05      3.6860720314635502      38.320129979999997
    97   2  1.5961200000000019e-05      3.6860720314635502      100.08690971999999
    98   2      1.5961359612000001     0.92151109646355012      137.09409942000002
    99   2      3.1922240388000005      1.8430498385364502      36.756318960000002
   100   2      1.5961359612000001     0.92151109646355012      96.959287680000003
   101   2  1.5961200000000019e-05      3.6860720314635502      137.09409942000002
   102   2      1.5961040388000001      4.6076107735364502      36.756318960000002
   103   2  1.5961200000000019e-05      3.6860720314635502      96.959287680000003
   104   2      3.1922240388000005      1.8430498385364502             133.5323358
   105   2      3.1922240388000005      1.8430498385364502      93.397524060000023
   106   2      1.5961040388000001      4.6076107735364502             133.5323358
   107   2      1.5961040388000001      4.6076107735364502      93.397524060000023
   108   2      1.5961040388000001      4.6076107735364502      106.77629538000001
   109   2      1.5961359612000001     0.92151109646355012             33.19605756
   110   2  1.5961200000000019e-05      3.6860720314635502             33.19605756
   111   2      1.5961359612000001     0.92151109646355012      30.066933300000006
   112   2  1.5961200000000019e-05      3.6860720314635502      30.066933300000006
   113   2      3.1922240388000005      1.8430498385364502      26.506671900000001
   114   2      1.5961040388000001      4.6076107735364502      26.506671900000001
   115   1      3.1922240388000005      1.8430498385364502      138.65791043999999
   116   1      1.5961040388000001      4.6076107735364502      138.65791043999999
   117   1      1.5961359612000001     0.92151109646355012            131.96852478
   118   1  1.5961200000000019e-05      3.6860720314635502            131.96852478
   119   2      3.1922240388000005      1.8430498385364502      130.40471375999999
   120   2      1.5961040388000001      4.6076107735364502      130.40471375999999
   121   2      1.5961359612000001      6.4506329664635516      113.46568104000002
   122   2  1.5961200000000019e-05      9.2151939014635502      113.46568104000002
   123   2      1.5961359612000001      6.4506329664635516      73.330869300000003
   124   2      1.5961359612000001      6.4506329664635516      110.33655678000002
   125   2      1.5961359612000001      6.4506329664635516      46.573326659999999
   126   2  1.5961200000000019e-05      9.2151939014635502      73.330869300000003
   127   2  1.5961200000000019e-05      9.2151939014635502      110.33655678000002
   128   1      3.1922240388000005      7.3721717085364515      31.632246540000008
   129   2      1.5961359612000001      6.4506329664635516      126.84445236000001
   130   2  1.5961200000000019e-05      9.2151939014635502      46.573326659999999
   131   1      1.5961040388000001      10.136732643536451      31.632246540000008
   132   2  1.5961200000000019e-05      9.2151939014635502      126.84445236000001
   133   2      3.1922240388000005      7.3721717085364515      106.77629538000001
   134   2      1.5961359612000001      6.4506329664635516      70.201745040000006
   135   2  1.5961200000000019e-05      9.2151939014635502      70.201745040000006
   136   2      1.5961359612000001      6.4506329664635516      43.445704620000015
   137   1      3.1922240388000005      7.3721717085364515      71.767058280000001
   138   2  1.5961200000000019e-05      9.2151939014635502      43.445704620000015
   139   1      1.5961359612000001      6.4506329664635516      24.942860880000005
   140   1      1.5961040388000001      10.136732643536451      71.767058280000001
   141   1  1.5961200000000019e-05      9.2151939014635502      24.942860880000005
   142   2      1.5961359612000001      6.4506329664635516      123.71532810000001
   143   2  1.5961200000000019e-05      9.2151939014635502      123.71532810000001
   144   2      3.1922240388000005      7.3721717085364515      66.641483640000004
   145   2      1.5961040388000001      10.136732643536451      66.641483640000004
   146   2      3.1922240388000005      7.3721717085364515      39.885443220000006
   147   1      1.5961359612000001      6.4506329664635516      65.077672620000001
   148   2      1.5961040388000001      10.136732643536451      39.885443220000006
   149   1  1.5961200000000019e-05      9.2151939014635502      65.077672620000001
   150   2      3.1922240388000005      7.3721717085364515      120.15506670000002
   151   2      3.1922240388000005      7.3721717085364515      23.377547640000003
   152   2      1.5961040388000001      10.136732643536451      120.15506670000002
   153   2      1.5961040388000001      10.136732643536451      23.377547640000003
   154   2      1.5961359612000001      6.4506329664635516      59.952097980000012
   155   1      3.1922240388000005      7.3721717085364515      18.253475220000006
   156   2  1.5961200000000019e-05      9.2151939014635502      59.952097980000012
   157   1      1.5961040388000001      10.136732643536451      18.253475220000006
   158   2      3.1922240388000005      7.3721717085364515      63.513861600000013
   159   1      3.1922240388000005      7.3721717085364515      58.388286960000016
   160   2      1.5961359612000001      6.4506329664635516      19.817286240000001
   161   2      1.5961359612000001      6.4506329664635516      56.824475939999999
   162   2      1.5961040388000001      10.136732643536451      63.513861600000013
   163   2  1.5961200000000019e-05      9.2151939014635502      19.817286240000001
   164   1      1.5961040388000001      10.136732643536451      58.388286960000016
   165   2  1.5961200000000019e-05      9.2151939014635502      56.824475939999999
   166   1      1.5961359612000001      6.4506329664635516      11.564089560000001
   167   1  1.5961200000000019e-05      9.2151939014635502      11.564089560000001
   168   2      1.5961359612000001      6.4506329664635516      16.689664200000003
   169   2      3.1922240388000005      7.3721717085364515      53.262712319999999
   170   2  1.5961200000000019e-05      9.2151939014635502      16.689664200000003
   171   2      1.5961040388000001      10.136732643536451      53.262712319999999
   172   1      1.5961359612000001      6.4506329664635516      51.698901300000003
   173   2      3.1922240388000005      7.3721717085364515      10.000278540000004
   174   1  1.5961200000000019e-05      9.2151939014635502      51.698901300000003
   175   2      1.5961040388000001      10.136732643536451      10.000278540000004
   176   2      3.1922240388000005      7.3721717085364515      13.127900580000002
   177   2      1.5961040388000001      10.136732643536451      13.127900580000002
   178   2      3.1922240388000005      7.3721717085364515             50.13509028
   179   2      1.5961040388000001      10.136732643536451             50.13509028
   180   1      3.1922240388000005      7.3721717085364515      85.144327380000007
   181   1      1.5961040388000001      10.136732643536451      85.144327380000007
   182   1      1.5961359612000001      6.4506329664635516      78.454941719999994
   183   1  1.5961200000000019e-05      9.2151939014635502      78.454941719999994
   184   2      3.1922240388000005      7.3721717085364515      76.891130700000005
   185   2      1.5961040388000001      10.136732643536451      76.891130700000005
   186   1      3.1922240388000005      7.3721717085364515      111.90187002000002
   187   1      1.5961040388000001      10.136732643536451      111.90187002000002
   188   1      1.5961359612000001      6.4506329664635516            105.21248436
   189   1  1.5961200000000019e-05      9.2151939014635502            105.21248436
   190   2      3.1922240388000005      7.3721717085364515            103.64867334
   191   2      1.5961040388000001      10.136732643536451            103.64867334
   192   1      3.1922240388000005      7.3721717085364515      98.523098700000006
   193   1      1.5961040388000001      10.136732643536451      98.523098700000006
   194   1      1.5961359612000001      6.4506329664635516      91.833713040000021
   195   1  1.5961200000000019e-05      9.2151939014635502      91.833713040000021
   196   2      3.1922240388000005      7.3721717085364515      90.269902020000032
   197   2      1.5961040388000001      10.136732643536451      90.269902020000032
   198   1      3.1922240388000005      7.3721717085364515      125.27913912000001
   199   1      1.5961040388000001      10.136732643536451      125.27913912000001
   200   1      1.5961359612000001      6.4506329664635516            118.58975346
   201   1  1.5961200000000019e-05      9.2151939014635502            118.58975346
   202   2      3.1922240388000005      7.3721717085364515      117.02594244000001
   203   2      1.5961040388000001      10.136732643536451      117.02594244000001
   204   2      1.5961359612000001      6.4506329664635516       86.70813840000001
   205   2  1.5961200000000019e-05      9.2151939014635502       86.70813840000001
   206   2      1.5961359612000001      6.4506329664635516      83.580516360000004
   207   2  1.5961200000000019e-05      9.2151939014635502      83.580516360000004
   208   2      3.1922240388000005      7.3721717085364515      80.020254960000031
   209   2      1.5961040388000001      10.136732643536451      80.020254960000031
   210   1      3.1922240388000005      7.3721717085364515      45.009515640000004
   211   1      1.5961040388000001      10.136732643536451      45.009515640000004
   212   2      1.5961359612000001      6.4506329664635516            140.22172146
   213   1      1.5961359612000001      6.4506329664635516      38.320129979999997
   214   2      1.5961359612000001      6.4506329664635516      100.08690971999999
   215   2  1.5961200000000019e-05      9.2151939014635502            140.22172146
   216   1  1.5961200000000019e-05      9.2151939014635502      38.320129979999997
   217   2  1.5961200000000019e-05      9.2151939014635502      100.08690971999999
   218   2      1.5961359612000001      6.4506329664635516      137.09409942000002
   219   2      3.1922240388000005      7.3721717085364515      36.756318960000002
   220   2      1.5961359612000001      6.4506329664635516      96.959287680000003
   221   2  1.5961200000000019e-05      9.2151939014635502      137.09409942000002
   222   2      1.5961040388000001      10.136732643536451      36.756318960000002
   223   2  1.5961200000000019e-05      9.2151939014635502      96.959287680000003
   224   2      3.1922240388000005      7.3721717085364515             133.5323358
   225   2      3.1922240388000005      7.3721717085364515      93.397524060000023
   226   2      1.5961040388000001      10.136732643536451             133.5323358
   227   2      1.5961040388000001      10.136732643536451      93.397524060000023
   228   2      1.5961040388000001      10.136732643536451      106.77629538000001
   229   2      1.5961359612000001      6.4506329664635516             33.19605756
   230   2  1.5961200000000019e-05      9.2151939014635502             33.19605756
   231   2      1.5961359612000001      6.4506329664635516      30.066933300000006
   232   2  1.5961200000000019e-05      9.2151939014635502      30.066933300000006
   233   2      3.1922240388000005      7.3721717085364515      26.506671900000001
   234   2      1.5961040388000001      10.136732643536451      26.506671900000001
   235   1      3.1922240388000005      7.3721717085364515      138.65791043999999
   236   1      1.5961040388000001      10.136732643536451      138.65791043999999
   237   1      1.5961359612000001      6.4506329664635516            131.96852478
   238   1  1.5961200000000019e-05      9.2151939014635502            131.96852478
   239   2      3.1922240388000005      7.3721717085364515      130.40471375999999
   240   2      1.5961040388000001      10.136732643536451      130.40471375999999
   241   2      1.5961359612000001      11.979754836463552      113.46568104000002
   242   2  1.5961200000000019e-05      14.744315771463553      113.46568104000002
   243   2      1.5961359612000001      11.979754836463552      73.330869300000003
   244   2      1.5961359612000001      11.979754836463552      110.33655678000002
   245   2      1.5961359612000001      11.979754836463552      46.573326659999999
   246   2  1.5961200000000019e-05      14.744315771463553      73.330869300000003
   247   2  1.5961200000000019e-05      14.744315771463553      110.33655678000002
   248   1      3.1922240388000005      12.901293578536452      31.632246540000008
   249   2      1.5961359612000001      11.979754836463552      126.84445236000001
   250   2  1.5961200000000019e-05      14.744315771463553      46.573326659999999
   251   1      1.5961040388000001      15.665854513536452      31.632246540000008
   252   2  1.5961200000000019e-05      14.744315771463553      126.84445236000001
   253   2      3.1922240388000005      12.901293578536452      106.77629538000001
   254   2      1.5961359612000001      11.979754836463552      70.201745040000006
   255   2  1.5961200000000019e-05      14.744315771463553      70.201745040000006
   256   2      1.5961359612000001      11.979754836463552      43.445704620000015
   257   1      3.1922240388000005      12.901293578536452      71.767058280000001
   258   2  1.5961200000000019e-05      14.744315771463553      43.445704620000015
   259   1      1.5961359612000001      11.979754836463552      24.942860880000005
   260   1      1.5961040388000001      15.665854513536452      71.767058280000001
   261   1  1.5961200000000019e-05      14.744315771463553      24.942860880000005
   262   2      1.5961359612000001      11.979754836463552      123.71532810000001
   263   2  1.5961200000000019e-05      14.744315771463553      123.71532810000001
   264   2      3.1922240388000005      12.901293578536452      66.641483640000004
   265   2      1.5961040388000001      15.665854513536452      66.641483640000004
   266   2      3.1922240388000005      12.901293578536452      39.885443220000006
   267   1      1.5961359612000001      11.979754836463552      65.077672620000001
   268   2      1.5961040388000001      15.665854513536452      39.885443220000006
   269   1  1.5961200000000019e-05      14.744315771463553      65.077672620000001
   270   2      3.1922240388000005      12.901293578536452      120.15506670000002
   271   2      3.1922240388000005      12.901293578536452      23.377547640000003
   272   2      1.5961040388000001      15.665854513536452      120.15506670000002
   273   2      1.5961040388000001      15.665854513536452      23.377547640000003
   274   2      1.5961359612000001      11.979754836463552      59.952097980000012
   275   1      3.1922240388000005      12.901293578536452      18.253475220000006
   276   2  1.5961200000000019e-05      14.744315771463553      59.952097980000012
   277   1      1.5961040388000001      15.665854513536452      18.253475220000006
   278   2      3.1922240388000005      12.901293578536452      63.513861600000013
   279   1      3.1922240388000005      12.901293578536452      58.388286960000016
   280   2      1.5961359612000001      11.979754836463552      19.817286240000001
   281   2      1.5961359612000001      11.979754836463552      56.824475939999999
   282   2      1.5961040388000001      15.665854513536452      63.513861600000013
   283   2  1.5961200000000019e-05      14.744315771463553      19.817286240000001
   284   1      1.5961040388000001      15.665854513536452      58.388286960000016
   285   2  1.5961200000000019e-05      14.744315771463553      56.824475939999999
   286   1      1.5961359612000001      11.979754836463552      11.564089560000001
   287   1  1.5961200000000019e-05      14.744315771463553      11.564089560000001
   288   2      1.5961359612000001      11.979754836463552      16.689664200000003
   289   2      3.1922240388000005      12.901293578536452      53.262712319999999
   290   2  1.5961200000000019e-05      14.744315771463553      16.689664200000003
   291   2      1.5961040388000001      15.665854513536452      53.262712319999999
   292   1      1.5961359612000001      11.979754836463552      51.698901300000003
   293   2      3.1922240388000005      12.901293578536452      10.000278540000004
   294   1  1.5961200000000019e-05      14.744315771463553      51.698901300000003
   295   2      1.5961040388000001      15.665854513536452      10.000278540000004
   296   2      3.1922240388000005      12.901293578536452      13.127900580000002
   297   2      1.5961040388000001      15.665854513536452      13.127900580000002
   298   2      3.1922240388000005      12.901293578536452             50.13509028
   299   2      1.5961040388000001      15.665854513536452             50.13509028
   300   1      3.1922240388000005      12.901293578536452      85.144327380000007
   301   1      1.5961040388000001      15.665854513536452      85.144327380000007
   302   1      1.5961359612000001      11.979754836463552      78.454941719999994
   303   1  1.5961200000000019e-05      14.744315771463553      78.454941719999994
   304   2      3.1922240388000005      12.901293578536452      76.891130700000005
   305   2      1.5961040388000001      15.665854513536452      76.891130700000005
   306   1      3.1922240388000005      12.901293578536452      111.90187002000002
   307   1      1.5961040388000001      15.665854513536452      111.90187002000002
   308   1      1.5961359612000001      11.979754836463552            105.21248436
   309   1  1.5961200000000019e-05      14.744315771463553            105.21248436
   310   2      3.1922240388000005      12.901293578536452            103.64867334
   311   2      1.5961040388000001      15.665854513536452            103.64867334
   312   1      3.1922240388000005      12.901293578536452      98.523098700000006
   313   1      1.5961040388000001      15.665854513536452      98.523098700000006
   314   1      1.5961359612000001      11.979754836463552      91.833713040000021
   315   1  1.5961200000000019e-05      14.744315771463553      91.833713040000021
   316   2      3.1922240388000005      12.901293578536452      90.269902020000032
   317   2      1.5961040388000001      15.665854513536452      90.269902020000032
   318   1      3.1922240388000005      12.901293578536452      125.27913912000001
   319   1      1.5961040388000001      15.665854513536452      125.27913912000001
   320   1      1.5961359612000001      11.979754836463552            118.58975346
   321   1  1.5961200000000019e-05      14.744315771463553            118.58975346
   322   2      3.1922240388000005      12.901293578536452      117.02594244000001
   323   2      1.5961040388000001      15.665854513536452      117.02594244000001
   324   2      1.5961359612000001      11.979754836463552       86.70813840000001
   325   2  1.5961200000000019e-05      14.744315771463553       86.70813840000001
   326   2      1.5961359612000001      11.979754836463552      83.580516360000004
   327   2  1.5961200000000019e-05      14.744315771463553      83.580516360000004
   328   2      3.1922240388000005      12.901293578536452      80.020254960000031
   329   2      1.5961040388000001      15.665854513536452      80.020254960000031
   330   1      3.1922240388000005      12.901293578536452      45.009515640000004
   331   1      1.5961040388000001      15.665854513536452      45.009515640000004
   332   2      1.5961359612000001      11.979754836463552            140.22172146
   333   1      1.5961359612000001      11.979754836463552      38.320129979999997
   334   2      1.5961359612000001      11.979754836463552      100.08690971999999
   335   2  1.5961200000000019e-05      14.744315771463553            140.22172146
   336   1  1.5961200000000019e-05      14.744315771463553      38.320129979999997
   337   2  1.5961200000000019e-05      14.744315771463553      100.08690971999999
   338   2      1.5961359612000001      11.979754836463552      137.09409942000002
   339   2      3.1922240388000005      12.901293578536452      36.756318960000002
   340   2      1.5961359612000001      11.979754836463552      96.959287680000003
   341   2  1.5961200000000019e-05      14.744315771463553      137.09409942000002
   342   2      1.5961040388000001      15.665854513536452      36.756318960000002
   343   2  1.5961200000000019e-05      14.744315771463553      96.959287680000003
   344   2      3.1922240388000005      12.901293578536452             133.5323358
   345   2      3.1922240388000005      12.901293578536452      93.397524060000023
   346   2      1.5961040388000001      15.665854513536452             133.5323358
   347   2      1.5961040388000001      15.665854513536452      93.397524060000023
   348   2      1.5961040388000001      15.665854513536452      106.77629538000001
   349   2      1.5961359612000001      11.979754836463552             33.19605756
   350   2  1.5961200000000019e-05      14.744315771463553             33.19605756
   351   2      1.5961359612000001      11.979754836463552      30.066933300000006
   352   2  1.5961200000000019e-05      14.744315771463553      30.066933300000006
   353   2      3.1922240388000005      12.901293578536452      26.506671900000001
   354   2      1.5961040388000001      15.665854513536452      26.506671900000001
   355   1      3.1922240388000005      12.901293578536452      138.65791043999999
   356   1      1.5961040388000001      15.665854513536452      138.65791043999999
   357   1      1.5961359612000001      11.979754836463552            131.96852478
   358   1  1.5961200000000019e-05      14.744315771463553            131.96852478